/*--------------------------------*- C++ -*----------------------------------*\
| =========                 |                                                 |
| \\      /  F ield         | OpenFOAM: The Open Source CFD Toolbox           |
|  \\    /   O peration     | Version:  2312                                  |
|   \\  /    A nd           | Website:  www.openfoam.com                      |
|    \\/     M anipulation  |                                                 |
\*---------------------------------------------------------------------------*/
FoamFile
{
    version     2.0;
    format      ascii;
    arch        "LSB;label=32;scalar=64";
    class       volScalarField;
    location    "700";
    object      nut;
}
// * * * * * * * * * * * * * * * * * * * * * * * * * * * * * * * * * * * * * //

dimensions      [0 2 -1 0 0 0 0];

internalField   nonuniform List<scalar> 
144000
(
2.53044e-28
1.06595e-29
1.64454e-29
5.81659e-28
8.46441e-29
9.31891e-32
4.16803e-29
1.10032e-29
2.49877e-29
2.08948e-29
2.25065e-29
2.27068e-29
2.4297e-29
2.72268e-29
2.15575e-29
2.35158e-29
2.622e-29
3.65283e-29
2.60833e-29
3.21378e-29
3.0364e-29
4.03408e-29
3.1045e-29
3.83322e-29
2.92906e-29
3.83531e-29
3.39287e-29
4.3384e-29
3.42292e-29
4.22239e-29
3.10708e-29
3.87716e-29
3.66629e-29
4.66184e-29
3.45979e-29
4.07128e-29
2.92822e-29
3.57612e-29
2.80434e-29
3.42402e-29
2.18174e-29
2.5695e-29
1.27992e-29
1.39629e-29
9.66337e-30
1.22767e-29
3.02284e-30
2.56852e-30
1.65591e-31
1.33264e-31
9.74331e-31
2.62633e-30
2.73032e-29
5.69276e-29
3.33712e-28
9.05355e-29
9.63054e-28
6.87742e-26
1.1731e-25
8.31082e-27
6.60581e-26
4.57778e-27
2.37103e-27
5.95975e-27
3.05275e-29
4.65627e-30
6.70309e-29
3.65664e-29
2.80701e-29
7.49446e-29
2.62261e-29
7.20363e-29
3.18029e-29
8.08387e-29
3.21706e-29
6.35297e-29
3.82291e-29
9.81803e-29
4.3003e-29
7.8364e-29
4.86622e-29
1.02412e-28
5.12776e-29
9.45374e-29
4.82844e-29
9.27325e-29
5.56093e-29
1.06369e-28
5.72784e-29
1.01254e-28
5.26302e-29
8.97363e-29
6.03768e-29
1.1129e-28
5.93443e-29
9.28941e-29
4.9748e-29
7.99322e-29
4.7166e-29
7.71154e-29
3.7461e-29
5.53122e-29
2.2448e-29
2.82115e-29
1.47193e-29
2.75182e-29
4.81889e-30
4.60428e-30
1.56702e-31
2.18735e-31
1.99392e-30
8.2518e-30
5.19904e-29
1.62914e-28
5.99438e-28
4.33442e-28
1.19173e-27
1.5541e-25
7.25935e-25
4.97405e-27
1.8534e-25
1.78078e-26
1.43931e-26
5.64167e-27
1.91496e-28
4.0467e-30
8.15613e-29
6.83016e-29
3.33361e-29
1.1117e-28
3.5292e-29
1.03671e-28
4.30192e-29
1.17668e-28
4.13867e-29
9.89159e-29
5.0134e-29
1.44096e-28
5.51649e-29
1.21482e-28
6.21789e-29
1.54139e-28
6.4693e-29
1.45595e-28
6.00689e-29
1.45593e-28
6.9468e-29
1.63505e-28
7.13311e-29
1.57326e-28
6.4406e-29
1.44708e-28
7.45971e-29
1.71577e-28
7.29709e-29
1.46327e-28
6.04276e-29
1.28527e-28
5.73406e-29
1.21562e-28
4.48175e-29
8.99332e-29
2.51434e-29
5.02982e-29
1.667e-29
4.55217e-29
4.65102e-30
9.68198e-30
5.83649e-32
1.05249e-30
5.22252e-30
5.5561e-30
1.00232e-28
1.65627e-28
9.7764e-28
3.07009e-28
4.53442e-27
2.66126e-25
7.43847e-25
4.80867e-26
7.9683e-25
1.95926e-25
5.50541e-26
2.20752e-26
1.87725e-28
7.93456e-30
7.19929e-29
9.43302e-29
2.74225e-29
1.28993e-28
2.98664e-29
1.18861e-28
3.68684e-29
1.34596e-28
3.54031e-29
1.13379e-28
4.26664e-29
1.64383e-28
4.75752e-29
1.3788e-28
5.38537e-29
1.73884e-28
5.62739e-29
1.63852e-28
5.1828e-29
1.64592e-28
5.98551e-29
1.85456e-28
6.18732e-29
1.77472e-28
5.57907e-29
1.64592e-28
6.43235e-29
1.95555e-28
6.31239e-29
1.66462e-28
5.19152e-29
1.47314e-28
4.87758e-29
1.40329e-28
3.81098e-29
1.04106e-28
2.09134e-29
6.01321e-29
1.37872e-29
5.53737e-29
3.52755e-30
1.31672e-29
3.50021e-32
2.33714e-30
5.6862e-30
4.23646e-30
9.9752e-29
1.3823e-28
9.03881e-28
2.33513e-28
5.93644e-27
3.97291e-25
1.10261e-24
2.91761e-25
1.72057e-24
1.01771e-24
9.44585e-26
7.32986e-26
5.19759e-28
1.68732e-29
7.55378e-29
1.26079e-28
2.33642e-29
1.55657e-28
2.33972e-29
1.41893e-28
3.03847e-29
1.57389e-28
2.93572e-29
1.31098e-28
3.59241e-29
1.90404e-28
4.04376e-29
1.56796e-28
4.67092e-29
1.97192e-28
4.87274e-29
1.84033e-28
4.4647e-29
1.85272e-28
5.21794e-29
2.09538e-28
5.36616e-29
1.99787e-28
4.83608e-29
1.85553e-28
5.64718e-29
2.22393e-28
5.46908e-29
1.88573e-28
4.46265e-29
1.68144e-28
4.20104e-29
1.61937e-28
3.23145e-29
1.21326e-28
1.73673e-29
7.21834e-29
1.17463e-29
6.90862e-29
2.69536e-30
1.87876e-29
3.75452e-32
5.1922e-30
5.72118e-30
3.46953e-30
9.44596e-29
1.12577e-28
7.83963e-28
1.49311e-28
8.76279e-27
6.4775e-25
1.52163e-24
1.29638e-24
2.60318e-24
3.21391e-24
1.06851e-25
1.8179e-25
1.74559e-27
3.8259e-29
9.11303e-29
1.60622e-28
2.35933e-29
1.86954e-28
1.88157e-29
1.68853e-28
2.57997e-29
1.84966e-28
2.48754e-29
1.53688e-28
3.15869e-29
2.22875e-28
3.51929e-29
1.81685e-28
4.1981e-29
2.27399e-28
4.35172e-29
2.09519e-28
3.98888e-29
2.11693e-28
4.74443e-29
2.39976e-28
4.84325e-29
2.27574e-28
4.35653e-29
2.12464e-28
5.22165e-29
2.5616e-28
4.94336e-29
2.1655e-28
4.01458e-29
1.95354e-28
3.80669e-29
1.90403e-28
2.88178e-29
1.44342e-28
1.52154e-29
8.93202e-29
1.09972e-29
8.88794e-29
2.3137e-30
2.82122e-29
7.53981e-32
1.13119e-29
5.05639e-30
4.06152e-30
8.31866e-29
9.08663e-29
6.19711e-28
8.0053e-29
1.31125e-26
1.06279e-24
1.95833e-24
3.88043e-24
3.21409e-24
7.68575e-24
9.02742e-26
3.71766e-25
4.97909e-27
8.01828e-29
1.16127e-28
2.04921e-28
2.6531e-29
2.1857e-28
1.59488e-29
1.95712e-28
2.27432e-29
2.13417e-28
2.14697e-29
1.79046e-28
2.88129e-29
2.5854e-28
3.10908e-29
2.10676e-28
3.85881e-29
2.61573e-28
3.92921e-29
2.38226e-28
3.62776e-29
2.4241e-28
4.42622e-29
2.73893e-28
4.4468e-29
2.58933e-28
4.01349e-29
2.44608e-28
4.98733e-29
2.94045e-28
4.57395e-29
2.48485e-28
3.72774e-29
2.27871e-28
3.59562e-29
2.23754e-28
2.66622e-29
1.7272e-28
1.41001e-29
1.12594e-28
1.13438e-29
1.15612e-28
2.35012e-30
4.35689e-29
2.16289e-31
2.41205e-29
3.6834e-30
8.20054e-30
6.55584e-29
7.53298e-29
4.27626e-28
5.63603e-29
1.78976e-26
1.67893e-24
2.54752e-24
8.97507e-24
3.4256e-24
1.51117e-23
5.76011e-26
6.56794e-25
1.19566e-26
1.47186e-28
1.48054e-28
2.57105e-28
3.10711e-29
2.51305e-28
1.40189e-29
2.21786e-28
2.05678e-29
2.42024e-28
1.88432e-29
2.05244e-28
2.68712e-29
2.95894e-28
2.77109e-29
2.41666e-28
3.58409e-29
2.98268e-28
3.55983e-29
2.68918e-28
3.33306e-29
2.75802e-28
4.15362e-29
3.1054e-28
4.12569e-29
2.9256e-28
3.75225e-29
2.80173e-28
4.82735e-29
3.3526e-28
4.2962e-29
2.8353e-28
3.5495e-29
2.64759e-28
3.47548e-29
2.62187e-28
2.56155e-29
2.06632e-28
1.38845e-29
1.42835e-28
1.27033e-29
1.52241e-28
2.92584e-30
6.90073e-29
7.26178e-31
5.05941e-29
2.26831e-30
2.343e-29
4.67036e-29
8.09215e-29
2.61478e-28
1.6735e-28
2.30046e-26
2.53087e-24
3.38104e-24
1.70287e-23
3.34757e-24
2.6251e-23
2.6071e-26
1.0522e-24
2.58785e-26
2.51651e-28
1.87329e-28
3.06126e-28
3.64588e-29
2.8691e-28
1.25615e-29
2.47798e-28
1.90785e-29
2.70592e-28
1.67919e-29
2.32632e-28
2.58256e-29
3.33856e-28
2.49614e-29
2.74203e-28
3.39439e-29
3.36547e-28
3.23314e-29
3.01491e-28
3.09175e-29
3.11776e-28
3.95816e-29
3.4937e-28
3.8452e-29
3.29138e-28
3.5546e-29
3.19672e-28
4.76536e-29
3.79805e-28
4.08063e-29
3.22506e-28
3.4639e-29
3.06701e-28
3.48226e-29
3.06285e-28
2.55169e-29
2.48197e-28
1.46992e-29
1.82753e-28
1.57452e-29
2.03118e-28
4.47016e-30
1.11374e-28
2.51311e-30
1.03805e-28
2.10962e-30
7.05142e-29
3.76049e-29
1.45653e-28
2.04966e-28
8.01726e-28
2.70067e-26
3.66337e-24
4.90804e-24
2.84947e-23
3.05106e-24
4.13001e-23
9.92678e-27
1.54336e-24
5.1163e-26
4.1657e-28
2.36031e-28
3.47742e-28
4.2568e-29
3.26628e-28
1.13983e-29
2.74318e-28
1.80306e-29
2.99306e-28
1.5306e-29
2.60846e-28
2.53085e-29
3.71934e-28
2.28369e-29
3.07747e-28
3.26011e-29
3.75986e-28
2.96627e-29
3.35368e-28
2.91103e-29
3.49971e-28
3.7965e-29
3.90788e-28
3.6282e-29
3.68238e-28
3.42413e-29
3.6304e-28
4.75377e-29
4.28517e-28
3.94426e-29
3.65992e-28
3.47761e-29
3.54842e-28
3.58452e-29
3.58294e-28
2.67177e-29
2.99455e-28
1.68671e-29
2.36062e-28
2.1123e-29
2.75477e-28
8.06173e-30
1.81972e-28
8.20006e-30
2.07924e-28
6.49775e-30
1.95189e-28
5.78072e-29
3.85132e-28
3.87777e-28
3.1235e-27
3.06837e-26
5.13782e-24
7.45002e-24
4.29437e-23
2.87639e-24
6.06099e-23
1.05019e-26
2.12007e-24
9.41942e-26
6.9054e-28
3.01192e-28
3.74842e-28
4.89665e-29
3.71059e-28
1.04318e-29
3.01323e-28
1.73678e-29
3.27983e-28
1.41542e-29
2.90501e-28
2.53436e-29
4.10115e-28
2.11624e-29
3.42548e-28
3.19238e-29
4.15722e-28
2.74534e-29
3.7062e-28
2.77818e-29
3.90448e-28
3.70234e-29
4.33808e-28
3.45488e-29
4.10567e-28
3.35007e-29
4.11138e-28
4.82758e-29
4.81299e-28
3.87588e-29
4.1531e-28
3.58972e-29
4.10775e-28
3.83543e-29
4.19552e-28
2.93315e-29
3.64316e-28
2.08976e-29
3.08485e-28
3.05471e-29
3.78824e-28
1.596e-29
2.9884e-28
2.45912e-29
4.05096e-28
2.8629e-29
4.92816e-28
1.6616e-28
1.08487e-27
1.24323e-27
9.27458e-27
3.27517e-26
7.09561e-24
1.21855e-23
6.00925e-23
2.84332e-24
8.38972e-23
4.80777e-26
2.75214e-24
1.62799e-25
1.19048e-27
3.79643e-28
3.86782e-28
5.53398e-29
4.2337e-28
9.43226e-30
3.30456e-28
1.67245e-29
3.58365e-28
1.31908e-29
3.21807e-28
2.55061e-29
4.49235e-28
1.97842e-29
3.78802e-28
3.15162e-29
4.56287e-28
2.5646e-29
4.07282e-28
2.69137e-29
4.3297e-28
3.62441e-29
4.79095e-28
3.34395e-29
4.55761e-28
3.33639e-29
4.63605e-28
4.95223e-29
5.39284e-28
3.89146e-29
4.71425e-28
3.81946e-29
4.76147e-28
4.21295e-29
4.93376e-28
3.40293e-29
4.46436e-28
2.76886e-29
4.06478e-28
4.62441e-29
5.27658e-28
3.25107e-29
4.89073e-28
6.5586e-29
7.58434e-28
1.06258e-28
1.13505e-27
5.22227e-28
2.79545e-27
3.81045e-27
2.26507e-26
3.53259e-26
9.77771e-24
1.97114e-23
7.85578e-23
3.55281e-24
1.11067e-22
1.6027e-25
3.41716e-24
2.63722e-25
2.12817e-27
4.91167e-28
3.72458e-28
6.14893e-29
4.83336e-28
8.41651e-30
3.61579e-28
1.61249e-29
3.90563e-28
1.22109e-29
3.55526e-28
2.59244e-29
4.88901e-28
1.85463e-29
4.17018e-28
3.15406e-29
4.9728e-28
2.40186e-29
4.46155e-28
2.63008e-29
4.77455e-28
3.60579e-29
5.26064e-28
3.26093e-29
5.05132e-28
3.36863e-29
5.21035e-28
5.18804e-29
6.0237e-28
3.97674e-29
5.36362e-28
4.17148e-29
5.52651e-28
4.80546e-29
5.82212e-28
4.10594e-29
5.52145e-28
3.84513e-29
5.39343e-28
7.2876e-29
7.38778e-28
6.47575e-29
7.91895e-28
1.56159e-28
1.35982e-27
3.16313e-28
2.39611e-27
1.44186e-27
6.39719e-27
9.79885e-27
4.70127e-26
3.68872e-26
1.34182e-23
3.28072e-23
9.72613e-23
5.42769e-24
1.42889e-22
4.01965e-25
4.13623e-24
4.02305e-25
3.94637e-27
6.32558e-28
3.32806e-28
6.70932e-29
5.5108e-28
7.45606e-30
3.94131e-28
1.55398e-29
4.24056e-28
1.13948e-29
3.90982e-28
2.6242e-29
5.29934e-28
1.75062e-29
4.57214e-28
3.15766e-29
5.3935e-28
2.26765e-29
4.86724e-28
2.60036e-29
5.23971e-28
3.59454e-29
5.75956e-28
3.22612e-29
5.57928e-28
3.46419e-29
5.83708e-28
5.47798e-29
6.72448e-28
4.16448e-29
6.10652e-28
4.68572e-29
6.42332e-28
5.61067e-29
6.90249e-28
5.1632e-29
6.86047e-28
5.55277e-29
7.19537e-28
1.16242e-28
1.03321e-27
1.25582e-28
1.25939e-27
3.40067e-28
2.35062e-27
7.88419e-28
4.65087e-27
3.42507e-27
1.30502e-26
2.15482e-26
8.65348e-26
3.96457e-26
1.84713e-23
5.33869e-23
1.155e-22
9.79004e-24
1.78732e-22
7.66749e-25
4.92642e-24
5.76943e-25
7.35888e-27
8.1179e-28
2.69406e-28
7.17147e-29
6.23047e-28
6.6994e-30
4.25446e-28
1.52644e-29
4.56647e-28
1.07385e-29
4.27617e-28
2.68032e-29
5.7079e-28
1.66458e-29
4.9914e-28
3.19165e-29
5.81173e-28
2.15515e-29
5.29316e-28
2.59046e-29
5.725e-28
3.62839e-29
6.27798e-28
3.22168e-29
6.15525e-28
3.60908e-29
6.52704e-28
5.87533e-29
7.49281e-28
4.44992e-29
6.96515e-28
5.37744e-29
7.47513e-28
6.73437e-29
8.20216e-28
6.6602e-29
8.56539e-28
8.13274e-29
9.579e-28
1.81981e-28
1.44191e-27
2.32798e-28
1.95856e-27
6.82506e-28
3.92797e-27
1.69482e-27
8.39614e-27
7.10244e-27
2.41567e-26
4.14371e-26
1.44221e-25
4.26484e-26
2.53867e-23
8.56204e-23
1.30508e-22
1.6502e-23
2.17512e-22
1.34466e-24
5.94092e-24
7.85345e-25
1.39308e-26
9.62609e-28
2.00309e-28
7.37986e-29
7.06305e-28
5.85331e-30
4.58812e-28
1.49287e-29
4.90559e-28
1.02001e-29
4.65568e-28
2.72121e-29
6.13108e-28
1.59209e-29
5.43093e-28
3.2166e-29
6.2398e-28
2.06683e-29
5.73657e-28
2.60694e-29
6.23064e-28
3.65578e-29
6.82785e-28
3.2753e-29
6.77085e-28
3.82037e-29
7.27738e-28
6.33225e-29
8.3496e-28
4.86663e-29
7.94542e-28
6.30314e-29
8.70287e-28
8.181e-29
9.76448e-28
8.80947e-29
1.06734e-27
1.19167e-28
1.26202e-27
2.75744e-28
2.00061e-27
4.10604e-28
2.95613e-27
1.25976e-27
6.21365e-27
3.27375e-27
1.40931e-26
1.31644e-26
4.08504e-26
7.16258e-26
2.21143e-25
5.06603e-26
3.49553e-23
1.28215e-22
1.39698e-22
2.97157e-23
2.58219e-22
2.00183e-24
7.20904e-24
1.0046e-24
2.54216e-26
1.10248e-27
1.30546e-28
7.41088e-29
7.95252e-28
5.02768e-30
4.93138e-28
1.46582e-29
5.25352e-28
9.60918e-30
5.05038e-28
2.78666e-29
6.55135e-28
1.52485e-29
5.88762e-28
3.274e-29
6.66475e-28
1.98606e-29
6.20663e-28
2.63072e-29
6.75034e-28
3.73505e-29
7.3985e-28
3.35128e-29
7.44638e-28
4.07376e-29
8.08938e-28
6.94842e-29
9.28436e-28
5.39698e-29
9.07695e-28
7.47507e-29
1.01228e-27
1.0108e-28
1.16175e-27
1.16725e-28
1.32851e-27
1.72098e-28
1.65564e-27
4.16295e-28
2.72385e-27
6.83047e-28
4.32452e-27
2.13804e-27
9.30285e-27
5.7432e-27
2.21864e-26
2.20367e-26
6.37703e-26
1.12233e-25
3.12508e-25
6.45284e-26
4.80235e-23
1.90587e-22
1.43684e-22
5.22637e-23
3.08292e-22
2.61696e-24
8.98861e-24
1.21878e-24
4.47231e-26
1.17182e-27
7.31584e-29
7.23734e-29
8.90138e-28
4.19232e-30
5.29684e-28
1.43098e-29
5.60969e-28
9.12556e-30
5.45446e-28
2.82962e-29
6.98608e-28
1.47114e-29
6.36293e-28
3.31584e-29
7.09954e-28
1.92539e-29
6.6897e-28
2.67523e-29
7.28349e-28
3.81867e-29
8.00444e-28
3.47259e-29
8.16262e-28
4.40223e-29
8.96137e-28
7.64946e-29
1.0322e-27
6.09356e-29
1.03519e-27
8.98528e-29
1.17312e-27
1.25188e-28
1.3779e-27
1.54502e-28
1.64135e-27
2.45538e-28
2.14532e-27
6.14588e-28
3.62891e-27
1.07866e-27
6.09634e-27
3.39281e-27
1.33515e-26
9.24373e-27
3.25072e-26
3.39636e-26
9.23384e-26
1.62849e-25
4.1569e-25
9.07519e-26
6.53662e-23
2.72868e-22
1.44513e-22
8.93615e-23
3.64624e-22
3.02405e-24
1.13619e-23
1.38913e-24
7.41669e-26
1.17968e-27
3.42957e-29
7.15213e-29
9.74119e-28
3.60482e-30
5.62905e-28
1.43591e-29
5.92702e-28
8.81513e-30
5.8486e-28
2.90659e-29
7.3981e-28
1.43704e-29
6.84373e-28
3.38513e-29
7.51537e-28
1.88337e-29
7.18323e-28
2.73297e-29
7.82234e-28
3.95027e-29
8.62428e-28
3.62628e-29
8.92815e-28
4.78372e-29
9.89712e-28
8.50702e-29
1.14377e-27
6.94364e-29
1.17733e-27
1.0764e-28
1.3539e-27
1.55189e-28
1.62432e-27
2.01798e-28
2.01275e-27
3.41225e-28
2.72948e-27
8.72732e-28
4.73116e-27
1.60905e-27
8.3001e-27
5.04778e-27
1.83932e-26
1.36154e-26
4.46436e-26
4.82751e-26
1.24825e-25
2.20525e-25
5.24607e-25
1.29497e-25
8.71858e-23
3.79258e-22
1.37751e-22
1.38971e-22
4.27526e-22
3.33375e-24
1.48508e-23
1.4961e-24
1.18219e-25
1.03388e-27
1.43507e-29
7.13678e-29
1.053e-27
3.04583e-30
5.98422e-28
1.43842e-29
6.23606e-28
8.68949e-30
6.24137e-28
2.96615e-29
7.81535e-28
1.42349e-29
7.33652e-28
3.43453e-29
7.928e-28
1.86802e-29
7.67837e-28
2.81807e-29
8.36804e-28
4.07634e-29
9.26433e-28
3.84964e-29
9.71886e-28
5.25417e-29
1.08877e-27
9.43675e-29
1.26438e-27
7.99653e-29
1.33067e-27
1.28447e-28
1.55464e-27
1.90676e-28
1.9001e-27
2.62233e-28
2.4304e-27
4.63328e-28
3.39782e-27
1.18934e-27
5.99963e-27
2.28321e-27
1.08454e-26
7.07015e-27
2.40468e-26
1.87532e-26
5.78269e-26
6.36072e-26
1.57515e-25
2.80294e-25
6.26602e-25
2.01069e-25
1.14689e-22
4.97892e-22
1.25502e-22
2.10768e-22
4.89733e-22
3.37673e-24
1.93114e-23
1.50242e-24
1.76325e-25
8.39658e-28
6.90698e-30
7.4887e-29
1.12262e-27
2.52356e-30
6.37264e-28
1.42779e-29
6.5497e-28
8.50218e-30
6.63848e-28
3.03245e-29
8.21915e-28
1.41278e-29
7.83295e-28
3.49283e-29
8.32312e-28
1.85683e-29
8.18548e-28
2.90347e-29
8.90581e-28
4.24312e-29
9.90396e-28
4.09754e-29
1.05481e-27
5.7721e-29
1.19095e-27
1.05413e-28
1.39041e-27
9.21223e-29
1.49804e-27
1.52994e-28
1.7694e-27
2.32687e-28
2.19974e-27
3.33331e-28
2.89125e-27
6.06728e-28
4.13477e-27
1.55785e-27
7.38453e-27
3.05811e-27
1.36212e-26
9.29028e-27
2.995e-26
2.41092e-26
7.10769e-26
7.79749e-26
1.87275e-25
3.33053e-25
7.0614e-25
3.12449e-25
1.47361e-22
6.35462e-22
1.06095e-22
3.04918e-22
5.54699e-22
3.25538e-24
2.50225e-23
1.4101e-24
2.46658e-25
6.54863e-28
6.67457e-30
8.18179e-29
1.18936e-27
1.97766e-30
6.8298e-28
1.37335e-29
6.88755e-28
8.24021e-30
7.03705e-28
3.06911e-29
8.63354e-28
1.40556e-29
8.32804e-28
3.53253e-29
8.71408e-28
1.84908e-29
8.68661e-28
2.98869e-29
9.42702e-28
4.41844e-29
1.05459e-27
4.36879e-29
1.13824e-27
6.34749e-29
1.29286e-27
1.17772e-28
1.52054e-27
1.0599e-28
1.67178e-27
1.80978e-28
1.98989e-27
2.79585e-28
2.51169e-27
4.12463e-28
3.37117e-27
7.66144e-28
4.89437e-27
1.95618e-27
8.79402e-27
3.87717e-27
1.6363e-26
1.14595e-26
3.5325e-26
2.88661e-26
8.18476e-26
8.88713e-26
2.07453e-25
3.68008e-25
7.43955e-25
4.9514e-25
1.84076e-22
7.76875e-22
8.46006e-23
4.25274e-22
6.12095e-22
3.10562e-24
3.16055e-23
1.22101e-24
3.20685e-25
6.02174e-28
1.2891e-29
1.08775e-28
1.20225e-27
1.79843e-30
7.15182e-28
1.37881e-29
7.10961e-28
8.21547e-30
7.34386e-28
3.16461e-29
8.96837e-28
1.41772e-29
8.74981e-28
3.61231e-29
9.02697e-28
1.85812e-29
9.12965e-28
3.07527e-29
9.8927e-28
4.60814e-29
1.11363e-27
4.63933e-29
1.21809e-27
6.90686e-29
1.39066e-27
1.30974e-28
1.64692e-27
1.20226e-28
1.84218e-27
2.08656e-28
2.20778e-27
3.27174e-28
2.81928e-27
4.89907e-28
3.84611e-27
9.18535e-28
5.62948e-27
2.3294e-27
1.01097e-26
4.59511e-27
1.87779e-26
1.31376e-26
3.94045e-26
3.17416e-26
8.81226e-26
9.24543e-26
2.1252e-25
3.72826e-25
7.32179e-25
7.52531e-25
2.21608e-22
9.1095e-22
6.14201e-23
5.70945e-22
6.75119e-22
3.14865e-24
3.99653e-23
9.78011e-25
3.92793e-25
7.47347e-28
2.8646e-29
1.7856e-28
1.14856e-27
2.04261e-30
7.17831e-28
1.5557e-29
7.07529e-28
9.27484e-30
7.41559e-28
3.36471e-29
9.15047e-28
1.51873e-29
8.98984e-28
3.76006e-29
9.20969e-28
1.95415e-29
9.43356e-28
3.23316e-29
1.02374e-27
4.77954e-29
1.1654e-27
4.97519e-29
1.28849e-27
7.51442e-29
1.47986e-27
1.4197e-28
1.77209e-27
1.34687e-28
2.00253e-27
2.34568e-28
2.4182e-27
3.66837e-28
3.1178e-27
5.56134e-28
4.29225e-27
1.0403e-27
6.29947e-27
2.58121e-27
1.12722e-26
5.05192e-27
2.06356e-26
1.38954e-26
4.17353e-26
3.19929e-26
8.90028e-26
8.74578e-26
2.03565e-25
3.5051e-25
7.08446e-25
1.05402e-24
2.55479e-22
1.02419e-21
4.35359e-23
7.39511e-22
7.53034e-22
3.58815e-24
5.0285e-23
7.46237e-25
4.86863e-25
1.29617e-27
5.21804e-29
3.19643e-28
1.11871e-27
2.16984e-30
7.49292e-28
1.83493e-29
7.22878e-28
1.05876e-29
7.68246e-28
3.83826e-29
9.52788e-28
1.68071e-29
9.45584e-28
4.18389e-29
9.56176e-28
2.15448e-29
9.9092e-28
3.59137e-29
1.0719e-27
5.33596e-29
1.23326e-27
5.62888e-29
1.38004e-27
8.56323e-29
1.59244e-27
1.63727e-28
1.92245e-27
1.56108e-28
2.18838e-27
2.73135e-28
2.64849e-27
4.26869e-28
3.42677e-27
6.42707e-28
4.73662e-27
1.18892e-27
6.91396e-27
2.89467e-27
1.22153e-26
5.49557e-27
2.1886e-26
1.45002e-26
4.23366e-26
3.1332e-26
8.55537e-26
7.97521e-26
1.85774e-25
3.23071e-25
6.84672e-25
1.41602e-24
2.93434e-22
1.1437e-21
3.15252e-23
3.33031e-28
9.82777e-30
1.55088e-29
5.79279e-28
7.58817e-29
1.95916e-31
3.80221e-29
1.25627e-29
2.36176e-29
2.16198e-29
2.23809e-29
2.25661e-29
2.46106e-29
2.66304e-29
2.24538e-29
2.27211e-29
2.72095e-29
3.50922e-29
2.69256e-29
3.10372e-29
3.09236e-29
3.9465e-29
3.1408e-29
3.74743e-29
2.99814e-29
3.73043e-29
3.43074e-29
4.30114e-29
3.40274e-29
4.22593e-29
3.09933e-29
3.88122e-29
3.63779e-29
4.67494e-29
3.43555e-29
4.07412e-29
2.9389e-29
3.56596e-29
2.7964e-29
3.44325e-29
2.16743e-29
2.5981e-29
1.28588e-29
1.41859e-29
9.57165e-30
1.23223e-29
3.0433e-30
2.59603e-30
1.71535e-31
1.35429e-31
9.08619e-31
2.5595e-30
2.69735e-29
5.55436e-29
3.34581e-28
9.65982e-29
9.14296e-28
6.99215e-26
1.21978e-25
7.99769e-27
6.97943e-26
4.78921e-27
2.32234e-27
5.8729e-27
2.66528e-29
5.43393e-30
6.3076e-29
3.96417e-29
2.64089e-29
7.72262e-29
2.58173e-29
7.23496e-29
3.17522e-29
8.03104e-29
3.27809e-29
6.25076e-29
3.90615e-29
9.62288e-29
4.3634e-29
7.70918e-29
4.92036e-29
1.01002e-28
5.17517e-29
9.2878e-29
4.95035e-29
9.04436e-29
5.67475e-29
1.04954e-28
5.7568e-29
1.00626e-28
5.30944e-29
8.92416e-29
6.05507e-29
1.10848e-28
5.96372e-29
9.24178e-29
5.03692e-29
7.94433e-29
4.75054e-29
7.71608e-29
3.75701e-29
5.56192e-29
2.27352e-29
2.85496e-29
1.47022e-29
2.75859e-29
4.84492e-30
4.6947e-30
1.59662e-31
2.26621e-31
1.9473e-30
7.86267e-30
5.25585e-29
1.58127e-28
6.04829e-28
4.50334e-28
1.13539e-27
1.58025e-25
7.45532e-25
4.77984e-27
1.87311e-25
1.79569e-26
1.41523e-26
5.50477e-27
1.80772e-28
4.36447e-30
7.78666e-29
7.12822e-29
3.19074e-29
1.13326e-28
3.50023e-29
1.03527e-28
4.3107e-29
1.16481e-28
4.21522e-29
9.70089e-29
5.10991e-29
1.41716e-28
5.57485e-29
1.20199e-28
6.2666e-29
1.52721e-28
6.5147e-29
1.4347e-28
6.16469e-29
1.42364e-28
7.11371e-29
1.61317e-28
7.20457e-29
1.56e-28
6.54197e-29
1.43401e-28
7.53651e-29
1.70292e-28
7.39021e-29
1.45029e-28
6.1619e-29
1.27322e-28
5.81461e-29
1.2142e-28
4.51528e-29
9.0183e-29
2.56133e-29
5.0576e-29
1.67817e-29
4.54799e-29
4.69638e-30
9.82926e-30
5.72741e-32
1.07656e-30
5.21908e-30
5.22492e-30
1.02308e-28
1.5838e-28
9.949e-28
3.14046e-28
4.4446e-27
2.70212e-25
7.59271e-25
4.74213e-26
7.99097e-25
1.95898e-25
5.45278e-26
2.17196e-26
1.77797e-28
8.11633e-30
6.96418e-29
9.76923e-29
2.68406e-29
1.29911e-28
2.99768e-29
1.17991e-28
3.7193e-29
1.32598e-28
3.62518e-29
1.11069e-28
4.37712e-29
1.61216e-28
4.82037e-29
1.3689e-28
5.42924e-29
1.72866e-28
5.65057e-29
1.62e-28
5.32805e-29
1.61709e-28
6.15026e-29
1.83258e-28
6.25507e-29
1.76216e-28
5.6947e-29
1.63208e-28
6.53689e-29
1.93959e-28
6.4217e-29
1.64706e-28
5.335e-29
1.45708e-28
4.99158e-29
1.39784e-28
3.85977e-29
1.04085e-28
2.14858e-29
6.01912e-29
1.40818e-29
5.48483e-29
3.62889e-30
1.31963e-29
3.4682e-32
2.31739e-30
5.63651e-30
4.07505e-30
1.00923e-28
1.32102e-28
9.16501e-28
2.38302e-28
5.86545e-27
4.00648e-25
1.11972e-24
2.91078e-25
1.72231e-24
1.01785e-24
9.39377e-26
7.25415e-26
5.04135e-28
1.66787e-29
7.43214e-29
1.28488e-28
2.35857e-29
1.55043e-28
2.38677e-29
1.40184e-28
3.08519e-29
1.54735e-28
3.02517e-29
1.28703e-28
3.71522e-29
1.86118e-28
4.12848e-29
1.55706e-28
4.7272e-29
1.96166e-28
4.88691e-29
1.826e-28
4.59552e-29
1.82721e-28
5.38125e-29
2.07142e-28
5.42907e-29
1.98792e-28
4.95028e-29
1.84228e-28
5.75714e-29
2.20604e-28
5.57829e-29
1.86651e-28
4.61378e-29
1.66249e-28
4.33505e-29
1.60796e-28
3.28919e-29
1.2108e-28
1.79544e-29
7.20772e-29
1.20997e-29
6.79907e-29
2.83344e-30
1.86469e-29
3.73958e-32
5.07405e-30
5.5644e-30
3.42519e-30
9.43884e-29
1.08182e-28
7.92756e-28
1.51969e-28
8.69849e-27
6.50454e-25
1.5446e-24
1.29729e-24
2.60412e-24
3.21391e-24
1.06603e-25
1.80394e-25
1.71298e-27
3.72652e-29
9.06496e-29
1.57691e-28
2.45846e-29
1.84358e-28
1.95647e-29
1.6586e-28
2.64432e-29
1.81585e-28
2.59133e-29
1.51164e-28
3.30137e-29
2.17438e-28
3.64209e-29
1.79837e-28
4.28635e-29
2.25685e-28
4.37967e-29
2.0837e-28
4.11615e-29
2.09362e-28
4.90928e-29
2.37232e-28
4.909e-29
2.27009e-28
4.4635e-29
2.11408e-28
5.32848e-29
2.54291e-28
5.04943e-29
2.14756e-28
4.16505e-29
1.93355e-28
3.95056e-29
1.88612e-28
2.94726e-29
1.43973e-28
1.58016e-29
8.91261e-29
1.13725e-29
8.71906e-29
2.48708e-30
2.78522e-29
7.69061e-32
1.10099e-29
4.78447e-30
4.12904e-30
8.20116e-29
8.85442e-29
6.26124e-28
8.05384e-29
1.30947e-26
1.06632e-24
1.98775e-24
3.88383e-24
3.21654e-24
7.69112e-24
9.02873e-26
3.69701e-25
4.91106e-27
7.81236e-29
1.16461e-28
2.00425e-28
2.77161e-29
2.14965e-28
1.67507e-29
1.91808e-28
2.34577e-29
2.09774e-28
2.25954e-29
1.76438e-28
3.03978e-29
2.51943e-28
3.26649e-29
2.07533e-28
3.9839e-29
2.58608e-28
3.98496e-29
2.37167e-28
3.7578e-29
2.40146e-28
4.59658e-29
2.70484e-28
4.52953e-29
2.58644e-28
4.11563e-29
2.43757e-28
5.08812e-29
2.92137e-28
4.68004e-29
2.47009e-28
3.87162e-29
2.25899e-28
3.74231e-29
2.21297e-28
2.74093e-29
1.72269e-28
1.46746e-29
1.12327e-28
1.17181e-29
1.13406e-28
2.56877e-30
4.29464e-29
2.2736e-31
2.34959e-29
3.37909e-30
8.40977e-30
6.37999e-29
7.52331e-29
4.33484e-28
5.47754e-29
1.79266e-26
1.68536e-24
2.58545e-24
8.99121e-24
3.4283e-24
1.51265e-23
5.77128e-26
6.54039e-25
1.18058e-26
1.43761e-28
1.48645e-28
2.54823e-28
3.2213e-29
2.48126e-28
1.47286e-29
2.17809e-28
2.1251e-29
2.38612e-28
1.99294e-29
2.02914e-28
2.84996e-29
2.87678e-28
2.95457e-29
2.37158e-28
3.7432e-29
2.93824e-28
3.64722e-29
2.6773e-28
3.46945e-29
2.73555e-28
4.32991e-29
3.06323e-28
4.22995e-29
2.92304e-28
3.85285e-29
2.79464e-28
4.92872e-29
3.33387e-28
4.40561e-29
2.82425e-28
3.68556e-29
2.63002e-28
3.62124e-29
2.59189e-28
2.6453e-29
2.06118e-28
1.4452e-29
1.42572e-28
1.31051e-29
1.4968e-28
3.2126e-30
6.81096e-29
7.72096e-31
4.94422e-29
2.05485e-30
2.37303e-29
4.50443e-29
8.2721e-29
2.6576e-28
1.61795e-28
2.31136e-26
2.54084e-24
3.42515e-24
1.70631e-23
3.35197e-24
2.62939e-23
2.60197e-26
1.0493e-24
2.55828e-26
2.46155e-28
1.88016e-28
3.0408e-28
3.77701e-29
2.84621e-28
1.31533e-29
2.44414e-28
1.96549e-29
2.67937e-28
1.7725e-29
2.3111e-28
2.72672e-29
3.24372e-28
2.69062e-29
2.68671e-28
3.57567e-29
3.30696e-28
3.34845e-29
3.00076e-28
3.2338e-29
3.09465e-28
4.1388e-29
3.44198e-28
3.97251e-29
3.28582e-28
3.65807e-29
3.189e-28
4.87129e-29
3.77951e-28
4.19737e-29
3.21706e-28
3.59406e-29
3.0523e-28
3.62595e-29
3.02846e-28
2.64542e-29
2.47582e-28
1.52786e-29
1.82536e-28
1.6193e-29
2.00352e-28
4.87457e-30
1.10145e-28
2.65711e-30
1.0183e-28
2.03883e-30
7.07878e-29
3.64653e-29
1.48882e-28
2.08547e-28
7.87756e-28
2.71735e-26
3.67634e-24
4.96372e-24
2.85697e-23
3.05653e-24
4.13875e-23
9.59701e-27
1.54059e-24
5.06083e-26
4.07268e-28
2.37805e-28
3.4429e-28
4.42415e-29
3.24611e-28
1.19334e-29
2.71564e-28
1.85081e-29
2.97669e-28
1.60662e-29
2.60465e-28
2.64425e-29
3.62797e-28
2.47354e-29
3.01773e-28
3.45144e-29
3.69051e-28
3.10284e-29
3.33709e-28
3.05745e-29
3.47627e-28
3.97908e-29
3.84658e-28
3.77737e-29
3.67117e-28
3.53496e-29
3.62105e-28
4.86805e-29
4.26642e-28
4.07243e-29
3.65332e-28
3.60675e-29
3.53691e-28
3.72755e-29
3.54471e-28
2.77853e-29
2.98657e-28
1.75009e-29
2.35987e-28
2.16405e-29
2.72607e-28
8.67522e-30
1.80285e-28
8.5765e-30
2.04551e-28
6.74808e-30
1.94802e-28
5.74084e-29
3.8912e-28
3.92722e-28
3.10828e-27
3.0923e-26
5.15295e-24
7.51902e-24
4.30654e-23
2.89334e-24
6.07826e-23
9.59163e-27
2.11841e-24
9.3281e-26
6.74718e-28
3.05644e-28
3.69317e-28
5.11114e-29
3.68279e-28
1.09911e-29
2.98756e-28
1.78123e-29
3.27238e-28
1.4781e-29
2.91189e-28
2.61616e-29
4.02336e-28
2.29258e-29
3.36605e-28
3.38526e-29
4.08087e-28
2.89597e-29
3.68766e-28
2.92639e-29
3.88098e-28
3.88377e-29
4.26847e-28
3.62201e-29
4.08752e-28
3.47003e-29
4.09948e-28
4.95363e-29
4.79345e-28
4.01746e-29
4.14615e-28
3.72248e-29
4.09877e-28
3.98081e-29
4.15377e-28
3.0555e-29
3.63272e-28
2.16297e-29
3.08629e-28
3.11707e-29
3.75953e-28
1.69207e-29
2.96578e-28
2.54047e-29
3.99398e-28
2.98273e-29
4.90298e-28
1.67668e-28
1.08827e-27
1.25551e-27
9.28079e-27
3.2987e-26
7.11358e-24
1.23021e-23
6.02987e-23
2.86725e-24
8.41788e-23
4.53449e-26
2.75194e-24
1.61495e-25
1.16373e-27
3.87227e-28
3.79495e-28
5.79245e-29
4.19158e-28
1.004e-29
3.27833e-28
1.71646e-29
3.5845e-28
1.37031e-29
3.23573e-28
2.60258e-29
4.43364e-28
2.13524e-29
3.73434e-28
3.3379e-29
4.4849e-28
2.72166e-29
4.05337e-28
2.83892e-29
4.30746e-28
3.80076e-29
4.71565e-28
3.52504e-29
4.53189e-28
3.46688e-29
4.6208e-28
5.09479e-29
5.37207e-28
4.04795e-29
4.70468e-28
3.96154e-29
4.75395e-28
4.36468e-29
4.88824e-28
3.54614e-29
4.44951e-28
2.8594e-29
4.06839e-28
4.70559e-29
5.24856e-28
3.4028e-29
4.86079e-28
6.7187e-29
7.50297e-28
1.09658e-28
1.12887e-27
5.28914e-28
2.79616e-27
3.84609e-27
2.27449e-26
3.56153e-26
9.80605e-24
1.98744e-23
7.88544e-23
3.59751e-24
1.11488e-22
1.53871e-25
3.41773e-24
2.62103e-25
2.08414e-27
5.03658e-28
3.63902e-28
6.44896e-29
4.76779e-28
9.10724e-30
3.58365e-28
1.66255e-29
3.91061e-28
1.26588e-29
3.58142e-28
2.62288e-29
4.8515e-28
1.9907e-29
4.12568e-28
3.32969e-29
4.89715e-28
2.55984e-29
4.44206e-28
2.77545e-29
4.75438e-28
3.77475e-29
5.18277e-28
3.45065e-29
5.01887e-28
3.5099e-29
5.19153e-28
5.3506e-29
6.00119e-28
4.14808e-29
5.34997e-28
4.32828e-29
5.51906e-28
4.96868e-29
5.77284e-28
4.27429e-29
5.50125e-28
3.96279e-29
5.39888e-28
7.39804e-29
7.36176e-28
6.71005e-29
7.88178e-28
1.59133e-28
1.35057e-27
3.23568e-28
2.38578e-27
1.45941e-27
6.39568e-27
9.88495e-27
4.72389e-26
3.71853e-26
1.34553e-23
3.30734e-23
9.76728e-23
5.509e-24
1.43543e-22
3.89107e-25
4.13743e-24
4.00491e-25
3.87522e-27
6.50736e-28
3.24034e-28
7.04004e-29
5.41739e-28
8.23171e-30
3.89951e-28
1.61334e-29
4.24592e-28
1.18218e-29
3.94223e-28
2.63779e-29
5.28264e-28
1.86743e-29
4.5394e-28
3.31814e-29
5.32338e-28
2.42354e-29
4.84806e-28
2.74339e-29
5.2219e-28
3.75528e-29
5.68122e-28
3.42245e-29
5.54076e-28
3.61793e-29
5.81488e-28
5.65821e-29
6.69998e-28
4.35262e-29
6.08699e-28
4.86376e-29
6.41417e-28
5.79049e-29
6.84833e-28
5.36721e-29
6.83254e-28
5.71338e-29
7.20112e-28
1.17833e-28
1.03091e-27
1.29193e-28
1.25462e-27
3.45114e-28
2.33791e-27
8.03049e-28
4.63569e-27
3.46396e-27
1.30506e-26
2.1738e-26
8.70525e-26
3.98927e-26
1.85134e-23
5.37994e-23
1.16042e-22
9.96998e-24
1.79667e-22
7.44629e-25
4.92666e-24
5.75295e-25
7.25062e-27
8.3625e-28
2.61581e-28
7.52851e-29
6.1071e-28
7.55927e-30
4.20025e-28
1.59902e-29
4.56881e-28
1.11751e-29
4.31247e-28
2.68475e-29
5.70938e-28
1.7653e-29
4.97242e-28
3.3372e-29
5.7497e-28
2.30639e-29
5.27513e-28
2.73117e-29
5.70962e-28
3.78285e-29
6.20098e-28
3.42259e-29
6.11197e-28
3.77596e-29
6.50186e-28
6.07679e-29
7.46581e-28
4.65558e-29
6.93898e-28
5.58274e-29
7.46259e-28
6.93938e-29
8.14309e-28
6.91058e-29
8.52905e-28
8.3551e-29
9.58679e-28
1.84292e-28
1.43996e-27
2.38234e-28
1.95307e-27
6.9087e-28
3.91344e-27
1.72076e-27
8.38002e-27
7.17593e-27
2.41746e-26
4.17847e-26
1.45083e-25
4.27625e-26
2.54383e-23
8.63522e-23
1.31211e-22
1.67673e-23
2.18718e-22
1.31551e-24
5.94094e-24
7.84732e-25
1.38064e-26
9.87192e-28
1.9456e-28
7.74308e-29
6.9153e-28
6.74218e-30
4.52235e-28
1.57708e-29
4.90456e-28
1.065e-29
4.69525e-28
2.71831e-29
6.15026e-28
1.67821e-29
5.42808e-28
3.34293e-29
6.18941e-28
2.21081e-29
5.72109e-28
2.74465e-29
6.21894e-28
3.8017e-29
6.75484e-28
3.47908e-29
6.72448e-28
4.00104e-29
7.24853e-28
6.55632e-29
8.31897e-28
5.09278e-29
7.91109e-28
6.5443e-29
8.68573e-28
8.41943e-29
9.70035e-28
9.12317e-29
1.06262e-27
1.22347e-28
1.26283e-27
2.78832e-28
1.99857e-27
4.18665e-28
2.94982e-27