/*--------------------------------*- C++ -*----------------------------------*\
| =========                 |                                                 |
| \\      /  F ield         | OpenFOAM: The Open Source CFD Toolbox           |
|  \\    /   O peration     | Version:  2312                                  |
|   \\  /    A nd           | Website:  www.openfoam.com                      |
|    \\/     M anipulation  |                                                 |
\*---------------------------------------------------------------------------*/
FoamFile
{
    version     2.0;
    format      ascii;
    arch        "LSB;label=32;scalar=64";
    class       volScalarField;
    location    "700";
    object      pMean;
}
// * * * * * * * * * * * * * * * * * * * * * * * * * * * * * * * * * * * * * //

dimensions      [0 2 -2 0 0 0 0];

internalField   nonuniform List<scalar> 
144000
(
1.49509e-09
1.38921e-09
4.1463e-10
-2.21532e-10
-2.10277e-10
-1.1959e-11
2.08076e-10
3.35263e-10
4.46937e-10
4.84791e-10
5.404e-10
5.45856e-10
5.84401e-10
5.77924e-10
6.11556e-10
6.01151e-10
6.28464e-10
6.09443e-10
6.37813e-10
6.21081e-10
6.48663e-10
6.26663e-10
6.5443e-10
6.32949e-10
6.6167e-10
6.39337e-10
6.67497e-10
6.41809e-10
6.70892e-10
6.45989e-10
6.76774e-10
6.51951e-10
6.81107e-10
6.51299e-10
6.81541e-10
6.53898e-10
6.85239e-10
6.57543e-10
6.87898e-10
6.58134e-10
6.88918e-10
6.61684e-10
6.92387e-10
6.65841e-10
6.90053e-10
6.59271e-10
6.82998e-10
6.6222e-10
6.83161e-10
6.69446e-10
6.85126e-10
6.86232e-10
6.8361e-10
6.97405e-10
6.57266e-10
7.07583e-10
6.51928e-10
7.15568e-10
-5.2021e-10
1.55374e-10
1.52581e-09
1.40804e-09
4.06649e-10
-2.27954e-10
-2.12181e-10
-1.18248e-11
2.08107e-10
3.35234e-10
4.46567e-10
4.84448e-10
5.39919e-10
5.45558e-10
5.83998e-10
5.77701e-10
6.11225e-10
6.01025e-10
6.2818e-10
6.09316e-10
6.37547e-10
6.21031e-10
6.48434e-10
6.26618e-10
6.54213e-10
6.32955e-10
6.61478e-10
6.39368e-10
6.67308e-10
6.4184e-10
6.70704e-10
6.46053e-10
6.76604e-10
6.52045e-10
6.80933e-10
6.51374e-10
6.8136e-10
6.5402e-10
6.85072e-10
6.57688e-10
6.8773e-10
6.58282e-10
6.88751e-10
6.61873e-10
6.92253e-10
6.66079e-10
6.89917e-10
6.59488e-10
6.82858e-10
6.62519e-10
6.83065e-10
6.69767e-10
6.85095e-10
6.8661e-10
6.83717e-10
6.97679e-10
6.57501e-10
7.073e-10
6.55576e-10
7.27038e-10
-5.38795e-10
1.29941e-10
1.5813e-09
1.41978e-09
3.86295e-10
-2.34942e-10
-2.12352e-10
-1.05829e-11
2.08882e-10
3.35483e-10
4.46567e-10
4.84053e-10
5.39499e-10
5.45046e-10
5.83628e-10
5.77247e-10
6.1092e-10
6.00696e-10
6.27996e-10
6.08978e-10
6.37335e-10
6.2078e-10
6.48314e-10
6.26372e-10
6.54091e-10
6.32775e-10
6.61406e-10
6.39216e-10
6.67264e-10
6.41683e-10
6.70654e-10
6.45932e-10
6.76579e-10
6.5196e-10
6.80944e-10
6.5126e-10
6.81333e-10
6.53964e-10
6.85084e-10
6.57657e-10
6.87759e-10
6.58253e-10
6.88764e-10
6.61893e-10
6.92305e-10
6.66178e-10
6.9003e-10
6.59568e-10
6.8292e-10
6.6269e-10
6.83225e-10
6.69928e-10
6.85304e-10
6.86794e-10
6.84177e-10
6.97733e-10
6.58419e-10
7.05082e-10
6.60377e-10
7.50051e-10
-5.79985e-10
1.0587e-10
1.65356e-09
1.40746e-09
3.56476e-10
-2.37579e-10
-2.10267e-10
-7.80555e-12
2.10755e-10
3.36581e-10
4.47167e-10
4.83907e-10
5.39128e-10
5.44475e-10
5.83213e-10
5.76698e-10
6.1053e-10
6.00289e-10
6.27797e-10
6.0855e-10
6.37037e-10
6.20443e-10
6.48175e-10
6.26056e-10
6.5392e-10
6.32532e-10
6.61316e-10
6.39017e-10
6.67223e-10
6.41475e-10
6.70585e-10
6.45764e-10
6.76552e-10
6.51847e-10
6.80996e-10
6.5111e-10
6.81298e-10
6.53873e-10
6.85122e-10
6.57603e-10
6.87835e-10
6.5819e-10
6.88803e-10
6.61875e-10
6.92418e-10
6.66261e-10
6.90295e-10
6.59601e-10
6.83081e-10
6.62784e-10
6.83584e-10
6.6995e-10
6.85779e-10
6.86677e-10
6.85271e-10
6.97004e-10
6.60694e-10
6.99542e-10
6.70371e-10
7.75643e-10
-6.3989e-10
1.01292e-10
1.72919e-09
1.35291e-09
3.21205e-10
-2.27133e-10
-2.03781e-10
-3.54884e-12
2.13604e-10
3.38645e-10
4.48516e-10
4.84158e-10
5.38832e-10
5.43888e-10
5.82719e-10
5.76077e-10
6.10015e-10
5.99819e-10
6.27542e-10
6.08053e-10
6.36598e-10
6.20035e-10
6.47968e-10
6.25691e-10
6.53644e-10
6.32245e-10
6.61156e-10
6.38798e-10
6.67137e-10
6.41249e-10
6.70439e-10
6.45576e-10
6.76468e-10
6.51737e-10
6.81033e-10
6.50962e-10
6.81195e-10
6.53778e-10
6.85127e-10
6.57564e-10
6.87903e-10
6.58133e-10
6.88812e-10
6.61847e-10
6.92544e-10
6.66364e-10
6.90654e-10
6.59618e-10
6.83286e-10
6.62783e-10
6.84126e-10
6.69744e-10
6.86572e-10
6.86081e-10
6.87164e-10
6.95208e-10
6.64642e-10
6.90597e-10
6.86057e-10
7.97799e-10
-7.11713e-10
1.32332e-10
1.803e-09
1.24283e-09
2.8158e-10
-1.9689e-10
-1.90767e-10
1.66309e-12
2.17039e-10
3.41551e-10
4.50585e-10
4.84799e-10
5.38617e-10
5.43279e-10
5.8215e-10
5.75392e-10
6.09381e-10
5.99285e-10
6.27224e-10
6.07503e-10
6.36025e-10
6.19559e-10
6.47689e-10
6.25287e-10
6.53259e-10
6.31913e-10
6.60918e-10
6.3856e-10
6.66994e-10
6.41011e-10
6.70209e-10
6.4537e-10
6.76317e-10
6.51634e-10
6.81047e-10
6.50827e-10
6.81012e-10
6.5368e-10
6.85091e-10
6.57541e-10
6.87947e-10
6.58084e-10
6.88776e-10
6.61805e-10
6.92665e-10
6.66472e-10
6.91099e-10
6.59605e-10
6.83549e-10
6.62634e-10
6.84879e-10
6.69235e-10
6.87748e-10
6.84847e-10
6.90015e-10
6.92034e-10
6.70641e-10
6.78145e-10
7.07673e-10
8.14181e-10
-7.93663e-10
2.08758e-10
1.87747e-09
1.07055e-09
2.34235e-10
-1.428e-10
-1.68829e-10
7.49953e-12
2.20559e-10
3.45127e-10
4.53287e-10
4.85784e-10
5.38423e-10
5.42635e-10
5.81479e-10
5.74627e-10
6.08613e-10
5.9868e-10
6.26836e-10
6.06911e-10
6.35323e-10
6.19021e-10
6.47338e-10
6.24861e-10
6.52768e-10
6.31544e-10
6.60606e-10
6.38313e-10
6.66795e-10
6.40773e-10
6.69896e-10
6.45149e-10
6.76098e-10
6.51541e-10
6.81027e-10
6.50715e-10
6.80747e-10
6.53578e-10
6.85004e-10
6.57531e-10
6.8796e-10
6.58048e-10
6.88691e-10
6.61742e-10
6.92775e-10
6.66571e-10
6.91629e-10
6.59544e-10
6.83883e-10
6.6229e-10
6.85862e-10
6.68349e-10
6.89393e-10
6.8283e-10
6.93963e-10
6.87258e-10
6.78921e-10
6.62251e-10
7.34683e-10
8.2502e-10
-8.86851e-10
3.34421e-10
1.95694e-09
8.35461e-10
1.74895e-10
-6.34443e-11
-1.35906e-10
1.38258e-11
2.23707e-10
3.4918e-10
4.56509e-10
4.87015e-10
5.38191e-10
5.41894e-10
5.80655e-10
5.7376e-10
6.07691e-10
5.97983e-10
6.26351e-10
6.06282e-10
6.34496e-10
6.18417e-10
6.46904e-10
6.24423e-10
6.52178e-10
6.31144e-10
6.60218e-10
6.38068e-10
6.66536e-10
6.40548e-10
6.69501e-10
6.44926e-10
6.75813e-10
6.51469e-10
6.80966e-10
6.50641e-10
6.80403e-10
6.5348e-10
6.84864e-10
6.57546e-10
6.87935e-10
6.58029e-10
6.88559e-10
6.61658e-10
6.92883e-10
6.66648e-10
6.92237e-10
6.5942e-10
6.84321e-10
6.61693e-10
6.87113e-10
6.67017e-10
6.91572e-10
6.79944e-10
6.99049e-10
6.80888e-10
6.8936e-10
6.4361e-10
7.6542e-10
8.31796e-10
-9.90952e-10
5.07136e-10
2.04632e-09
5.44532e-10
9.90087e-11
3.9545e-11
-9.03158e-11
2.08401e-11
2.26078e-10
3.535e-10
4.60156e-10
4.88445e-10
5.37862e-10
5.41012e-10
5.79635e-10
5.72761e-10
6.06592e-10
5.97174e-10
6.25737e-10
6.05607e-10
6.33535e-10
6.17744e-10
6.4637e-10
6.23973e-10
6.51485e-10
6.30716e-10
6.59751e-10
6.37826e-10
6.66211e-10
6.40343e-10
6.69027e-10
6.44707e-10
6.75461e-10
6.51424e-10
6.80858e-10
6.50614e-10
6.79989e-10
6.53388e-10
6.8467e-10
6.57585e-10
6.87871e-10
6.58026e-10
6.88389e-10
6.61548e-10
6.92998e-10
6.66685e-10
6.92929e-10
6.59209e-10
6.84888e-10
6.60817e-10
6.88645e-10
6.65219e-10
6.94277e-10
6.76196e-10
7.05165e-10
6.73172e-10
7.01468e-10
6.23406e-10
7.97571e-10
8.36805e-10
-1.10432e-09
7.17635e-10
2.14806e-09
2.10714e-10
3.68871e-12
1.61851e-10
-3.13044e-11
2.89723e-11
2.27356e-10
3.57854e-10
4.64134e-10
4.90028e-10
5.37402e-10
5.39951e-10
5.78389e-10
5.71613e-10
6.05298e-10
5.96231e-10
6.24962e-10
6.04874e-10
6.32439e-10
6.16994e-10
6.45716e-10
6.23505e-10
6.50689e-10
6.30257e-10
6.59198e-10
6.37589e-10
6.65812e-10
6.40159e-10
6.68477e-10
6.44494e-10
6.75045e-10
6.51406e-10
6.80695e-10
6.50635e-10
6.79511e-10
6.53302e-10
6.84425e-10
6.57647e-10
6.87772e-10
6.58036e-10
6.88194e-10
6.61405e-10
6.93128e-10
6.6667e-10
6.93703e-10
6.58901e-10
6.85601e-10
6.59664e-10
6.90437e-10
6.62979e-10
6.97445e-10
6.71737e-10
7.12053e-10
6.64584e-10
7.14466e-10
6.03185e-10
8.28462e-10
8.42423e-10
-1.22316e-09
9.52804e-10
2.26222e-09
-1.49174e-10
-1.12063e-10
2.96822e-10
4.09017e-11
3.8812e-11
2.27346e-10
3.61988e-10
4.6833e-10
4.91723e-10
5.36785e-10
5.38704e-10
5.76904e-10
5.70308e-10
6.03803e-10
5.95144e-10
6.24007e-10
6.04073e-10
6.31206e-10
6.16164e-10
6.44932e-10
6.23013e-10
6.49787e-10
6.29765e-10
6.58553e-10
6.37352e-10
6.65332e-10
6.39994e-10
6.67853e-10
6.44289e-10
6.74563e-10
6.51414e-10
6.80472e-10
6.50701e-10
6.78983e-10
6.5322e-10
6.84132e-10
6.57726e-10
6.87638e-10
6.5805e-10
6.87985e-10
6.61226e-10
6.93276e-10
6.66594e-10
6.94547e-10
6.58498e-10
6.86453e-10
6.58262e-10
6.92433e-10
6.60383e-10
7.00954e-10
6.66795e-10
7.19331e-10
6.55734e-10
7.2742e-10
5.84527e-10
8.55717e-10
8.50529e-10
-1.3419e-09
1.1971e-09
2.38568e-09
-5.15335e-10
-2.46882e-10
4.36862e-10
1.24925e-10
5.1009e-11
2.26006e-10
3.65627e-10
4.72604e-10
4.93485e-10
5.36005e-10
5.37274e-10
5.75179e-10
5.68845e-10
6.02102e-10
5.93911e-10
6.22859e-10
6.032e-10
6.2984e-10
6.15253e-10
6.44004e-10
6.2249e-10
6.48783e-10
6.29236e-10
6.5781e-10
6.3711e-10
6.64767e-10
6.39842e-10
6.67159e-10
6.44089e-10
6.74017e-10
6.51442e-10
6.80187e-10
6.50803e-10
6.7841e-10
6.53141e-10
6.83793e-10
6.57815e-10
6.87471e-10
6.58068e-10
6.87768e-10
6.61014e-10
6.93436e-10
6.66462e-10
6.9544e-10
6.58018e-10
6.87416e-10
6.56665e-10
6.94544e-10
6.57551e-10
7.04616e-10
6.61675e-10
7.26557e-10
6.47286e-10
7.39406e-10
5.6882e-10
8.77511e-10
8.62225e-10
-1.45376e-09
1.4352e-09
2.51363e-09
-8.69302e-10
-3.97645e-10
5.74037e-10
2.1851e-10
6.62957e-11
2.2351e-10
3.68526e-10
4.76796e-10
4.95282e-10
5.35078e-10
5.35675e-10
5.73217e-10
5.67224e-10
6.00202e-10
5.92537e-10
6.21516e-10
6.02252e-10
6.28348e-10
6.14265e-10
6.4293e-10
6.21928e-10
6.47681e-10
6.28671e-10
6.5697e-10
6.36857e-10
6.64118e-10
6.39696e-10
6.66399e-10
6.43892e-10
6.73407e-10
6.51483e-10
6.79838e-10
6.50936e-10
6.77801e-10
6.53063e-10
6.83408e-10
6.5791e-10
6.87269e-10
6.58085e-10
6.87544e-10
6.60775e-10
6.93602e-10
6.66282e-10
6.9635e-10
6.5749e-10
6.88448e-10
6.54951e-10
6.96659e-10
6.54657e-10
7.08209e-10
6.56703e-10
7.33276e-10
6.39866e-10
7.49612e-10
5.57111e-10
8.9291e-10
8.77573e-10
-1.55205e-09
1.65406e-09
2.63928e-09
-1.19589e-09
-5.58989e-10
7.01233e-10
3.18696e-10
8.53324e-11
2.20219e-10
3.70474e-10
4.80728e-10
4.97078e-10
5.34024e-10
5.33924e-10
5.71032e-10
5.65454e-10
5.98116e-10
5.91028e-10
6.19984e-10
6.01228e-10
6.26741e-10
6.13205e-10
6.41711e-10
6.21325e-10
6.46486e-10
6.28072e-10
6.56033e-10
6.36593e-10
6.63382e-10
6.39553e-10
6.65579e-10
6.43698e-10
6.72735e-10
6.51533e-10
6.79424e-10
6.51089e-10
6.77161e-10
6.52986e-10
6.82972e-10
6.58008e-10
6.87031e-10
6.58103e-10
6.87307e-10
6.60522e-10
6.93754e-10
6.66075e-10
6.97236e-10
6.56955e-10
6.89486e-10
6.53219e-10
6.98655e-10
6.51872e-10
7.11505e-10
6.52208e-10
7.39079e-10
6.33992e-10
7.57463e-10
5.49989e-10
9.0172e-10
8.95784e-10
-1.63125e-09
1.84385e-09
2.75543e-09
-1.48243e-09
-7.24187e-10
8.12524e-10
4.22052e-10
1.08562e-10
2.16614e-10
3.71304e-10
4.84199e-10
4.9883e-10
5.32868e-10
5.32049e-10
5.68641e-10
5.63546e-10
5.95856e-10
5.89399e-10
6.18267e-10
6.00127e-10
6.25028e-10
6.1208e-10
6.40352e-10
6.20676e-10
6.45206e-10
6.27441e-10
6.55002e-10
6.36312e-10
6.62563e-10
6.39408e-10
6.64705e-10
6.43506e-10
6.72003e-10
6.51589e-10
6.78946e-10
6.51259e-10
6.76495e-10
6.52913e-10
6.82487e-10
6.58108e-10
6.86752e-10
6.58129e-10
6.87051e-10
6.60271e-10
6.93868e-10
6.65868e-10
6.98056e-10
6.56461e-10
6.90455e-10
6.51577e-10
7.00405e-10
6.49371e-10
7.14293e-10
6.48471e-10
7.43636e-10
6.30027e-10
7.62628e-10
5.47634e-10
9.04294e-10
9.15478e-10
-1.68685e-09
1.99768e-09
2.85492e-09
-1.71996e-09
-8.8614e-10
9.03571e-10
5.24954e-10
1.3616e-10
2.13244e-10
3.70908e-10
4.87004e-10
5.00479e-10
5.31631e-10
5.30073e-10
5.6606e-10
5.61511e-10
5.93435e-10
5.87658e-10
6.16375e-10
5.98955e-10
6.23219e-10
6.10898e-10
6.3886e-10
6.1998e-10
6.43846e-10
6.26781e-10
6.53881e-10
6.3601e-10
6.61667e-10
6.3926e-10
6.63781e-10
6.43316e-10
6.71213e-10
6.51646e-10
6.78404e-10
6.51441e-10
6.75805e-10
6.52848e-10
6.8195e-10
6.58211e-10
6.86425e-10
6.58169e-10
6.86764e-10
6.60044e-10
6.93919e-10
6.65691e-10
6.98762e-10
6.56061e-10
6.91284e-10
6.5013e-10
7.0179e-10
6.47308e-10
7.16391e-10
6.45713e-10
7.46727e-10
6.28172e-10
7.65023e-10
5.49853e-10
9.01486e-10
9.35235e-10
-1.71577e-09
2.1116e-09
2.93137e-09
-1.90308e-09
-1.03782e-09
9.71636e-10
6.23853e-10
1.68053e-10
2.10715e-10
3.69267e-10
4.88949e-10
5.01954e-10
5.30338e-10
5.28027e-10
5.6331e-10
5.59361e-10
5.90871e-10
5.85817e-10
6.14322e-10
5.97715e-10
6.21325e-10
6.09667e-10
6.37243e-10
6.19236e-10
6.42413e-10
6.26097e-10
6.52675e-10
6.35687e-10
6.60697e-10
6.39106e-10
6.62811e-10
6.43129e-10
6.7037e-10
6.51702e-10
6.77799e-10
6.51632e-10
6.75091e-10
6.52794e-10
6.81358e-10
6.58322e-10
6.86043e-10
6.58235e-10
6.86431e-10
6.5986e-10
6.9388e-10
6.65575e-10
6.99309e-10
6.55807e-10
6.91905e-10
6.48971e-10
7.02709e-10
6.45807e-10
7.17665e-10
6.44078e-10
7.48239e-10
6.28464e-10
7.64791e-10
5.56192e-10
8.94428e-10
9.53454e-10
-1.71636e-09
2.18492e-09
2.98e-09
-2.0302e-09
-1.17319e-09
1.01558e-09
7.15615e-10
2.03902e-10
2.09614e-10
3.66442e-10
4.8986e-10
5.03182e-10
5.29006e-10
5.25941e-10
5.60412e-10
5.57108e-10
5.88176e-10
5.83888e-10
6.12122e-10
5.9641e-10
6.19357e-10
6.08395e-10
6.35513e-10
6.18445e-10
6.40915e-10
6.25392e-10
6.51392e-10
6.35342e-10
6.59659e-10
6.38946e-10
6.618e-10
6.42948e-10
6.69475e-10
6.51755e-10
6.77134e-10
6.51831e-10
6.74354e-10
6.52759e-10
6.80706e-10
6.58445e-10
6.85597e-10
6.58338e-10
6.86038e-10
6.59743e-10
6.93728e-10
6.65549e-10
6.99654e-10
6.55747e-10
6.92263e-10
6.48179e-10
7.03085e-10
6.44953e-10
7.18037e-10
6.43643e-10
7.48164e-10
6.30809e-10
7.62253e-10
5.6599e-10
8.84417e-10
9.68601e-10
-1.68862e-09
2.21919e-09
2.99699e-09
-2.10219e-09
-1.28681e-09
1.03579e-09
7.97512e-10
2.43099e-10
2.10446e-10
3.62554e-10
4.89593e-10
5.04078e-10
5.27652e-10
5.23845e-10
5.5739e-10
5.54762e-10
5.85366e-10
5.81884e-10
6.09791e-10
5.95046e-10
6.17324e-10
6.07089e-10
6.3368e-10
6.17608e-10
6.39357e-10
6.2467e-10
6.50037e-10
6.34973e-10
6.58559e-10
6.38779e-10
6.60753e-10
6.42773e-10
6.68533e-10
6.51806e-10
6.76411e-10
6.52038e-10
6.7359e-10
6.52747e-10
6.79992e-10
6.58586e-10
6.85081e-10
6.5849e-10
6.85573e-10
6.59713e-10
6.93437e-10
6.65643e-10
6.99766e-10
6.55922e-10
6.92312e-10
6.47808e-10
7.02877e-10
6.44809e-10
7.17479e-10
6.444e-10
7.46593e-10
6.35006e-10
7.57838e-10
5.78511e-10
8.72602e-10
9.79605e-10
-1.63334e-09
2.21717e-09
2.98012e-09
-2.12162e-09
-1.37447e-09
1.0336e-09
8.67404e-10
2.84815e-10
2.13591e-10
3.57775e-10
4.88033e-10
5.04556e-10
5.26276e-10
5.21763e-10
5.54265e-10
5.52332e-10
5.82451e-10
5.79813e-10
6.07342e-10
5.93628e-10
6.15234e-10
6.05756e-10
6.31755e-10
6.16727e-10
6.37744e-10
6.23932e-10
6.48617e-10
6.34582e-10
6.57402e-10
6.38605e-10
6.59673e-10
6.42605e-10
6.67545e-10
6.51854e-10
6.75631e-10
6.52254e-10
6.72799e-10
6.52764e-10
6.79214e-10
6.58751e-10
6.84489e-10
6.58701e-10
6.85021e-10
6.59787e-10
6.92991e-10
6.6588e-10
6.99621e-10
6.56356e-10
6.92023e-10
6.4789e-10
7.0207e-10
6.45379e-10
7.1602e-10
6.46297e-10
7.43686e-10
6.40788e-10
7.51992e-10
5.93014e-10
8.60013e-10
9.8589e-10
-1.55228e-09
2.18228e-09
2.92826e-09
-2.09219e-09
-1.43311e-09
1.01122e-09
9.23765e-10
3.28092e-10
2.19281e-10
3.52313e-10
4.85113e-10
5.04526e-10
5.24871e-10
5.19715e-10
5.51053e-10
5.49824e-10
5.79439e-10
5.77683e-10
6.04791e-10
5.92161e-10
6.13094e-10
6.044e-10
6.29749e-10
6.15803e-10
6.36082e-10
6.23181e-10
6.47138e-10
6.34169e-10
6.56192e-10
6.38427e-10
6.58563e-10
6.42447e-10
6.66513e-10
6.51902e-10
6.74798e-10
6.5248e-10
6.71977e-10
6.52813e-10
6.78368e-10
6.58946e-10
6.83814e-10
6.58981e-10
6.84374e-10
6.59979e-10
6.92378e-10
6.66274e-10
6.9921e-10
6.57066e-10
6.9138e-10
6.48434e-10
7.00676e-10
6.46634e-10
7.1373e-10
6.49215e-10
7.39648e-10
6.47856e-10
7.45208e-10
6.08813e-10
8.47302e-10
9.87366e-10
-1.44746e-09
2.118e-09
2.8419e-09
-2.01856e-09
-1.46134e-09
9.71414e-10
9.65845e-10
3.71918e-10
2.27598e-10
3.464e-10
4.80817e-10
5.03913e-10
5.23425e-10
5.17715e-10
5.47775e-10
5.47248e-10
5.76343e-10
5.75501e-10
6.02152e-10
5.9065e-10
6.1091e-10
6.03023e-10
6.27672e-10
6.14838e-10
6.34373e-10
6.22418e-10
6.45607e-10
6.33735e-10
6.54938e-10
6.38243e-10
6.57425e-10
6.42298e-10
6.65443e-10
6.51948e-10
6.73915e-10
6.5272e-10
6.71123e-10
6.52899e-10
6.77455e-10
6.59175e-10
6.83055e-10
6.59337e-10
6.83626e-10
6.60296e-10
6.91592e-10
6.66833e-10
6.98531e-10
6.58054e-10
6.90391e-10
6.49428e-10
6.98737e-10
6.48519e-10
7.1071e-10
6.53007e-10
7.3473e-10
6.5589e-10
7.37923e-10
6.25321e-10
8.34833e-10
9.84262e-10
-1.32134e-09
2.02807e-09
2.72253e-09
-1.90667e-09
-1.45919e-09
9.17422e-10
9.93775e-10
4.15309e-10
2.38449e-10
3.40251e-10
4.75179e-10
5.02657e-10
5.21919e-10
5.15774e-10
5.44448e-10
5.44612e-10
5.7317e-10
5.73269e-10
5.99436e-10
5.89102e-10
6.0869e-10
6.01628e-10
6.25534e-10
6.13836e-10
6.32624e-10
6.21643e-10
6.44029e-10
6.33279e-10
6.53642e-10
6.38056e-10
6.56264e-10
6.42159e-10
6.64336e-10
6.51992e-10
6.72985e-10
6.52974e-10
6.70237e-10
6.53023e-10
6.76475e-10
6.59441e-10
6.82213e-10
6.59773e-10
6.82777e-10
6.60742e-10
6.90636e-10
6.67554e-10
6.97595e-10
6.59313e-10
6.89082e-10
6.50839e-10
6.96321e-10
6.50957e-10
7.07098e-10
6.57501e-10
7.29189e-10
6.64572e-10
7.30527e-10
6.42097e-10
8.22582e-10
9.77058e-10
-1.17642e-09
1.91634e-09
2.57312e-09
-1.763e-09
-1.42834e-09
8.52619e-10
1.00847e-09
4.57422e-10
2.51608e-10
3.34036e-10
4.68241e-10
5.00698e-10
5.20327e-10
5.1389e-10
5.41082e-10
5.41917e-10
5.69928e-10
5.70985e-10
5.96651e-10
5.8752e-10
6.06439e-10
6.00212e-10
6.23339e-10
6.12799e-10
6.30837e-10
6.20854e-10
6.4241e-10
6.32799e-10
6.52309e-10
6.37867e-10
6.55084e-10
6.4203e-10
6.63197e-10
6.52033e-10
6.7201e-10
6.53246e-10
6.6932e-10
6.53183e-10
6.75432e-10
6.59744e-10
6.81289e-10
6.60291e-10
6.81833e-10
6.61314e-10
6.89524e-10
6.68427e-10
6.96423e-10
6.60824e-10
6.87494e-10
6.52617e-10
6.93515e-10
6.53855e-10
7.03061e-10
6.62517e-10
7.23304e-10
6.7362e-10
7.23341e-10
6.58942e-10
8.10216e-10
9.66452e-10
-1.01531e-09
1.78674e-09
2.39771e-09
-1.593e-09
-1.37168e-09
7.79946e-10
1.01129e-09
4.97596e-10
2.66802e-10
3.27884e-10
4.60038e-10
4.97976e-10
5.18611e-10
5.12056e-10
5.37679e-10
5.39164e-10
5.66615e-10
5.68643e-10
5.93799e-10
5.8591e-10
6.0416e-10
5.98773e-10
6.21089e-10
6.11732e-10
6.29014e-10
6.2005e-10
6.4075e-10
6.32296e-10
6.50941e-10
6.37678e-10
6.53885e-10
6.4191e-10
6.62029e-10
6.52068e-10
6.7099e-10
6.5354e-10
6.68371e-10
6.53377e-10
6.74325e-10
6.60081e-10
6.80286e-10
6.6089e-10
6.80798e-10
6.62005e-10
6.88265e-10
6.69432e-10
6.95037e-10
6.62563e-10
6.85672e-10
6.54699e-10
6.90406e-10
6.57108e-10
6.98752e-10
6.67873e-10
7.17308e-10
6.82806e-10
7.16563e-10
6.75898e-10
7.97035e-10
9.53104e-10
-8.40337e-10
1.64221e-09
1.49528e-09
1.38953e-09
4.16055e-10
-2.20428e-10
-2.09662e-10
-1.06754e-11
2.09716e-10
3.36735e-10
4.47872e-10
4.8505e-10
5.40166e-10
5.45285e-10
5.83634e-10
5.77032e-10
6.10624e-10
6.00208e-10
6.27679e-10
6.08864e-10
6.37374e-10
6.20738e-10
6.48428e-10
6.26535e-10
6.54331e-10
6.32875e-10
6.61588e-10
6.39243e-10
6.67432e-10
6.41803e-10
6.70863e-10
6.4596e-10
6.76709e-10
6.51865e-10
6.8096e-10
6.5113e-10
6.8135e-10
6.53767e-10
6.85112e-10
6.57453e-10
6.87824e-10
6.58142e-10
6.88913e-10
6.6174e-10
6.92374e-10
6.65807e-10
6.89905e-10
6.59159e-10
6.82752e-10
6.62049e-10
6.82885e-10
6.69324e-10
6.8486e-10
6.86137e-10
6.83505e-10
6.97706e-10
6.57476e-10
7.08421e-10
6.52691e-10
7.14447e-10
-5.21854e-10
1.54304e-10
1.52603e-09
1.4084e-09
4.0799e-10
-2.26828e-10
-2.11533e-10
-1.05228e-11
2.09768e-10
3.36716e-10
4.47505e-10
4.84705e-10
5.3968e-10
5.4498e-10
5.83223e-10
5.76801e-10
6.10285e-10
6.00072e-10
6.2739e-10
6.08733e-10
6.37105e-10
6.20683e-10
6.48199e-10
6.26491e-10
6.54113e-10
6.32878e-10
6.61395e-10
6.39271e-10
6.67246e-10
6.41838e-10
6.70678e-10
6.46026e-10
6.76541e-10
6.51959e-10
6.80789e-10
6.51205e-10
6.81169e-10
6.53889e-10
6.84945e-10
6.57595e-10
6.87658e-10
6.58292e-10
6.88747e-10
6.61929e-10
6.92238e-10
6.66041e-10
6.89767e-10
6.59374e-10
6.82609e-10
6.62345e-10
6.82787e-10
6.69641e-10
6.84825e-10
6.86511e-10
6.83613e-10
6.97979e-10
6.57718e-10
7.08143e-10
6.56359e-10
7.25942e-10
-5.4045e-10
1.2882e-10
1.58161e-09
1.4206e-09
3.87601e-10
-2.33904e-10
-2.11692e-10
-9.26951e-12
2.10567e-10
3.36983e-10
4.47514e-10
4.84309e-10
5.39254e-10
5.44459e-10
5.82843e-10
5.76335e-10
6.09967e-10
5.99727e-10
6.27195e-10
6.08387e-10
6.36888e-10
6.20425e-10
6.48078e-10
6.26244e-10
6.53991e-10
6.32695e-10
6.61322e-10
6.39115e-10
6.67205e-10
6.41686e-10
6.70634e-10
6.45909e-10
6.76519e-10
6.51874e-10
6.80801e-10
6.51093e-10
6.81143e-10
6.53832e-10
6.84958e-10
6.57562e-10
6.87689e-10
6.58266e-10
6.88763e-10
6.61949e-10
6.9229e-10
6.66135e-10
6.89878e-10
6.59453e-10
6.82667e-10
6.6251e-10
6.82945e-10
6.69802e-10
6.85034e-10
6.86689e-10
6.84078e-10
6.98037e-10
6.58636e-10
7.05923e-10
6.61148e-10
7.49172e-10
-5.81619e-10
1.04211e-10
1.65382e-09
1.40899e-09
3.57732e-10
-2.36706e-10
-2.09602e-10
-6.47461e-12
2.12466e-10
3.38099e-10
4.4813e-10
4.84166e-10
5.38878e-10
5.43878e-10
5.82418e-10
5.75772e-10
6.09564e-10
5.99301e-10
6.26981e-10
6.07948e-10
6.36584e-10
6.20079e-10
6.47935e-10
6.25929e-10
6.53822e-10
6.32449e-10
6.61231e-10
6.38912e-10
6.67167e-10
6.41486e-10
6.70573e-10
6.45745e-10
6.76497e-10
6.51762e-10
6.80856e-10
6.50945e-10
6.81109e-10
6.5374e-10
6.84996e-10
6.57505e-10
6.87765e-10
6.58207e-10
6.88806e-10
6.61932e-10
6.92405e-10
6.66214e-10
6.90138e-10
6.59485e-10
6.82829e-10
6.62596e-10
6.83302e-10
6.69819e-10
6.85508e-10
6.86556e-10
6.85172e-10
6.97308e-10
6.60903e-10
7.00407e-10
6.71126e-10
7.75102e-10
-6.41407e-10
9.88277e-11
1.72937e-09
1.35524e-09
3.22412e-10
-2.26498e-10
-2.03102e-10
-2.19364e-12
2.15368e-10
3.40199e-10
4.49502e-10
4.84429e-10
5.38581e-10
5.43284e-10
5.81914e-10
5.75138e-10
6.09035e-10
5.98808e-10
6.26705e-10
6.07437e-10
6.36138e-10
6.1966e-10
6.47724e-10
6.25565e-10
6.53549e-10
6.3216e-10
6.6107e-10
6.38686e-10
6.67081e-10
6.41268e-10
6.70438e-10
6.45563e-10
6.7642e-10
6.51653e-10
6.80897e-10
6.508e-10
6.81009e-10
6.53644e-10
6.85002e-10
6.57461e-10
6.87832e-10
6.58154e-10
6.88821e-10
6.61906e-10
6.92535e-10
6.66313e-10
6.90494e-10
6.59498e-10
6.83034e-10
6.62589e-10
6.83842e-10
6.69608e-10
6.86307e-10
6.85945e-10
6.8706e-10
6.95506e-10
6.64838e-10
6.91486e-10
6.86793e-10
7.9763e-10
-7.13067e-10
1.28985e-10
1.80304e-09
1.24578e-09
2.82697e-10
-1.9649e-10
-1.9006e-10
3.06383e-12
2.18861e-10
3.43149e-10
4.51606e-10
4.85084e-10
5.38367e-10
5.42672e-10
5.81337e-10
5.7444e-10
6.0839e-10
5.98253e-10
6.26364e-10
6.06869e-10
6.35556e-10
6.19172e-10
6.47437e-10
6.25162e-10
6.53168e-10
6.31826e-10
6.60831e-10
6.38441e-10
6.66935e-10
6.41036e-10
6.7022e-10
6.45363e-10
6.76276e-10
6.51552e-10
6.80914e-10
6.50668e-10
6.80829e-10
6.53545e-10
6.84967e-10
6.57432e-10
6.87876e-10
6.58109e-10
6.88793e-10
6.61868e-10
6.92662e-10
6.66419e-10
6.90937e-10
6.59482e-10
6.833e-10
6.62432e-10
6.84593e-10
6.69089e-10
6.87485e-10
6.84694e-10
6.89908e-10
6.92321e-10
6.70808e-10
6.79009e-10
7.08368e-10
8.1437e-10
-7.94795e-10
2.04689e-10
1.87725e-09
1.074e-09
2.35338e-10
-1.42621e-10
-1.68117e-10
8.94255e-12
2.22439e-10
3.46778e-10
4.54348e-10
4.8609e-10
5.38185e-10
5.42026e-10
5.80663e-10
5.73667e-10
6.07612e-10
5.97629e-10
6.2595e-10
6.06257e-10
6.34845e-10
6.18619e-10
6.47076e-10
6.24735e-10
6.52683e-10
6.31455e-10
6.60518e-10
6.38186e-10
6.66731e-10
6.40803e-10
6.6992e-10
6.45152e-10
6.76066e-10
6.51463e-10
6.80898e-10
6.50559e-10
6.80569e-10
6.53443e-10
6.84882e-10
6.57418e-10
6.87886e-10
6.58075e-10
6.88717e-10
6.61812e-10
6.92781e-10
6.66517e-10
6.91466e-10
6.59415e-10
6.83639e-10
6.62079e-10
6.85578e-10
6.68194e-10
6.89136e-10
6.82663e-10
6.93849e-10
6.87536e-10
6.79067e-10
6.6308e-10
7.35357e-10
8.2552e-10
-8.87738e-10
3.29831e-10
1.9564e-09
8.39212e-10
1.76039e-10
-6.34615e-11
-1.35224e-10
1.5305e-11
2.25647e-10
3.50887e-10
4.57618e-10
4.87354e-10
5.37966e-10
5.41287e-10
5.79843e-10
5.72795e-10
6.06684e-10
5.96918e-10
6.25441e-10
6.05608e-10
6.34006e-10
6.18003e-10
6.46631e-10
6.24295e-10
6.521e-10
6.31056e-10
6.6013e-10
6.37932e-10
6.66464e-10
6.40581e-10
6.69538e-10
6.44939e-10
6.75791e-10
6.51396e-10
6.80842e-10
6.50488e-10
6.80231e-10
6.53346e-10
6.84746e-10
6.57429e-10
6.87856e-10
6.58056e-10
6.88595e-10
6.61735e-10
6.929e-10
6.66594e-10
6.92073e-10
6.59286e-10
6.84083e-10
6.61475e-10
6.8683e-10
6.66854e-10
6.91322e-10
6.79757e-10
6.98924e-10
6.81153e-10
6.89494e-10
6.44399e-10
7.66095e-10
8.32533e-10
-9.91593e-10
5.02267e-10
2.04557e-09
5.48351e-10
1.0017e-10
3.93562e-11
-8.96877e-11
2.23475e-11
2.28073e-10
3.55265e-10
4.6132e-10
4.88824e-10
5.37654e-10
5.40411e-10
5.78827e-10
5.71797e-10
6.05584e-10
5.96099e-10
6.24806e-10
6.04912e-10
6.33035e-10
6.17317e-10
6.46083e-10
6.2384e-10
6.51414e-10
6.3063e-10
6.59663e-10
6.37683e-10
6.66128e-10
6.40377e-10
6.69077e-10
6.4473e-10
6.7545e-10
6.51357e-10
6.80738e-10
6.50464e-10
6.79821e-10
6.53256e-10
6.84555e-10
6.57465e-10
6.87789e-10
6.58053e-10
6.88436e-10
6.61633e-10
6.93027e-10
6.66634e-10
6.92768e-10
6.59071e-10
6.84657e-10
6.60593e-10
6.88365e-10
6.65047e-10
6.94033e-10
6.75992e-10
7.05029e-10
6.73418e-10
7.01601e-10
6.24136e-10
7.98258e-10
8.37701e-10
-1.10481e-09
7.12777e-10
2.14723e-09
2.14356e-10
4.81794e-12
1.61527e-10
-3.07518e-11
3.04976e-11
2.29402e-10
3.59678e-10
4.65354e-10
4.90447e-10
5.37216e-10
5.39362e-10
5.77592e-10
5.70655e-10
6.04293e-10
5.95151e-10
6.24014e-10
6.04161e-10
6.31928e-10
6.16555e-10
6.45416e-10
6.23366e-10
6.50624e-10
6.30174e-10
6.5911e-10
6.37439e-10
6.65717e-10
6.40191e-10
6.68537e-10
6.44528e-10
6.75045e-10
6.51345e-10
6.8058e-10
6.50488e-10
6.79349e-10
6.53172e-10
6.84315e-10
6.57524e-10
6.87685e-10
6.5806e-10
6.88251e-10
6.61499e-10
6.93171e-10
6.66622e-10
6.93545e-10
6.58759e-10
6.85379e-10
6.59435e-10
6.90161e-10
6.62798e-10
6.97209e-10
6.71516e-10
7.11905e-10
6.64803e-10
7.14614e-10
6.03854e-10
8.29179e-10
8.434e-10
-1.22363e-09
9.48244e-10
2.26146e-09
-1.45877e-10
-1.11015e-10
2.964e-10
4.13658e-11
4.03367e-11
2.29436e-10
3.63869e-10
4.69602e-10
4.92184e-10
5.36624e-10
5.38131e-10
5.7612e-10
5.6936e-10
6.02805e-10
5.94063e-10
6.23046e-10
6.03344e-10
6.30686e-10
6.15714e-10
6.44617e-10
6.22867e-10
6.49728e-10
6.29685e-10
6.58466e-10
6.37196e-10
6.65226e-10
6.4002e-10
6.67921e-10
6.44333e-10
6.74575e-10
6.51359e-10
6.80363e-10
6.50555e-10
6.78825e-10
6.53093e-10
6.84027e-10
6.57601e-10
6.87547e-10
6.58072e-10
6.88052e-10
6.61328e-10
6.93334e-10
6.66552e-10
6.94395e-10
6.58353e-10
6.86241e-10
6.5803e-10
6.92163e-10
6.60192e-10
7.00728e-10
6.66555e-10
7.19173e-10
6.55919e-10
7.27595e-10
5.85133e-10
8.56478e-10
8.51535e-10
-1.34248e-09
1.19304e-09
2.38512e-09
-5.12472e-10
-2.45934e-10
4.36387e-10
1.25286e-10
5.251e-11
2.28128e-10
3.67556e-10
4.73924e-10
4.93988e-10
5.35873e-10
5.36719e-10
5.74411e-10
5.6791e-10
6.01114e-10
5.92834e-10
6.21889e-10
6.02458e-10
6.29312e-10
6.14793e-10
6.43675e-10
6.22335e-10
6.48728e-10
6.2916e-10
6.57724e-10
6.36949e-10
6.6465e-10
6.39863e-10
6.67234e-10
6.44142e-10
6.74039e-10
6.51393e-10
6.80083e-10
6.5066e-10
6.78257e-10
6.53016e-10
6.83694e-10
6.5769e-10
6.87376e-10
6.58085e-10
6.87843e-10
6.61124e-10
6.9351e-10
6.66427e-10
6.95295e-10
6.57871e-10
6.87214e-10
6.5643e-10
6.94282e-10
6.57351e-10
7.04399e-10
6.61414e-10
7.26391e-10
6.47434e-10
7.39616e-10
5.69367e-10
8.78321e-10
8.63235e-10
-1.45453e-09
1.43171e-09
2.51341e-09
-8.66941e-10
-3.96851e-10
5.73546e-10
2.18772e-10
6.77545e-11
2.25651e-10
3.70495e-10
4.78157e-10
4.95823e-10
5.34974e-10
5.35138e-10
5.72467e-10
5.66305e-10
5.99228e-10
5.91467e-10
6.20543e-10
6.01501e-10
6.27813e-10
6.13797e-10
6.42588e-10
6.21765e-10
6.47628e-10
6.28599e-10
6.56885e-10
6.36693e-10
6.63989e-10
6.39709e-10
6.66479e-10
6.43953e-10
6.73439e-10
6.51441e-10
6.7974e-10
6.50795e-10
6.77651e-10
6.52939e-10
6.83313e-10
6.57784e-10
6.87171e-10
6.58098e-10
6.87625e-10
6.60892e-10
6.93691e-10
6.66255e-10
6.96213e-10
6.57341e-10
6.88256e-10
6.54714e-10
6.96406e-10
6.54449e-10
7.08003e-10
6.56421e-10
7.33105e-10
6.39975e-10
7.49858e-10
5.57606e-10
8.93768e-10
8.78572e-10
-1.55312e-09
1.65121e-09
2.63956e-09
-1.19408e-09
-5.5841e-10
7.0076e-10
3.18869e-10
8.67347e-11
2.22364e-10
3.72472e-10
4.82123e-10
4.97654e-10
5.33947e-10
5.33407e-10
5.70301e-10
5.64554e-10
5.97156e-10
5.8997e-10
6.19011e-10
6.00471e-10
6.26201e-10
6.12731e-10
6.41359e-10
6.21152e-10
6.46433e-10
6.28004e-10
6.55949e-10
6.36426e-10
6.63243e-10
6.39556e-10
6.65662e-10
6.43766e-10
6.72778e-10
6.51499e-10
6.79331e-10
6.50952e-10
6.77015e-10
6.52864e-10
6.82882e-10
6.57882e-10
6.86931e-10
6.58111e-10
6.87395e-10
6.60645e-10
6.93859e-10
6.66057e-10
6.97109e-10
6.56806e-10
6.89305e-10
6.52982e-10
6.98411e-10
6.51655e-10
7.11308e-10
6.51905e-10
7.38905e-10
6.3406e-10
7.57746e-10
5.50439e-10
9.02627e-10
8.96753e-10
-1.63271e-09
1.84168e-09
2.75626e-09
-1.48115e-09
-7.23837e-10
8.12101e-10
4.22156e-10
1.09893e-10
2.18745e-10
3.7332e-10
4.85619e-10
4.99436e-10
5.32815e-10
5.3155e-10
5.67928e-10
5.62666e-10
5.94913e-10
5.88354e-10
6.17297e-10
5.99368e-10
6.24485e-10
6.11602e-10
6.3999e-10
6.20494e-10
6.45152e-10
6.27376e-10
6.54918e-10
6.36141e-10
6.62416e-10
6.39402e-10
6.64788e-10
6.4358e-10
6.72055e-10
6.51562e-10
6.78859e-10
6.51124e-10
6.76352e-10
6.52792e-10
6.82401e-10
6.57983e-10
6.86651e-10
6.58132e-10
6.87144e-10
6.60399e-10
6.93987e-10
6.65858e-10
6.97939e-10
6.56313e-10
6.90285e-10
6.51339e-10
7.00171e-10
6.49146e-10
7.14105e-10
6.48148e-10
7.43459e-10
6.30056e-10
7.62943e-10
5.48049e-10
9.05252e-10
9.16422e-10
-1.68872e-09
1.99613e-09
2.85628e-09
-1.71913e-09
-8.8599e-10
9.03231e-10
5.25004e-10
1.37408e-10
2.15344e-10
3.72928e-10
4.88441e-10
5.01107e-10
5.316e-10
5.29592e-10
5.65365e-10
5.60651e-10
5.92511e-10
5.86628e-10
6.15412e-10
5.98196e-10
6.22675e-10
6.10418e-10
6.38491e-10
6.1979e-10
6.4379e-10
6.26719e-10
6.53798e-10
6.35838e-10
6.61511e-10
6.39244e-10
6.63863e-10
6.43394e-10
6.71274e-10
6.51626e-10
6.78323e-10
6.51309e-10
6.75665e-10