/*--------------------------------*- C++ -*----------------------------------*\
| =========                 |                                                 |
| \\      /  F ield         | OpenFOAM: The Open Source CFD Toolbox           |
|  \\    /   O peration     | Version:  2312                                  |
|   \\  /    A nd           | Website:  www.openfoam.com                      |
|    \\/     M anipulation  |                                                 |
\*---------------------------------------------------------------------------*/
FoamFile
{
    version     2.0;
    format      ascii;
    arch        "LSB;label=32;scalar=64";
    class       volScalarField;
    location    "700";
    object      pPrime2Mean;
}
// * * * * * * * * * * * * * * * * * * * * * * * * * * * * * * * * * * * * * //

dimensions      [0 4 -4 0 0 0 0];

internalField   nonuniform List<scalar> 
144000
(
6.86873e-18
5.98468e-18
7.79565e-18
8.84851e-18
6.57078e-18
4.31841e-18
3.37571e-18
2.96038e-18
2.70756e-18
2.51611e-18
2.3765e-18
2.16235e-18
2.0043e-18
1.84814e-18
1.75282e-18
1.65149e-18
1.61615e-18
1.51834e-18
1.48358e-18
1.41611e-18
1.38607e-18
1.31041e-18
1.29667e-18
1.23378e-18
1.23808e-18
1.17267e-18
1.18573e-18
1.12808e-18
1.12331e-18
1.08643e-18
1.07743e-18
1.04577e-18
1.04473e-18
9.96849e-19
1.01599e-18
9.6518e-19
9.72049e-19
9.53851e-19
9.29576e-19
9.21488e-19
9.27617e-19
8.6853e-19
9.26568e-19
8.65225e-19
8.67945e-19
8.96675e-19
8.2128e-19
8.57349e-19
9.13139e-19
7.38522e-19
9.90259e-19
8.52464e-19
7.9855e-19
1.2189e-18
8.39805e-19
1.07446e-18
2.11161e-18
1.28913e-18
3.21463e-18
7.01622e-18
7.22274e-18
6.09528e-18
7.98897e-18
8.99653e-18
6.63425e-18
4.34754e-18
3.39343e-18
2.97246e-18
2.71502e-18
2.5216e-18
2.38087e-18
2.16543e-18
2.00612e-18
1.84975e-18
1.75385e-18
1.65237e-18
1.61717e-18
1.51913e-18
1.48406e-18
1.41686e-18
1.38653e-18
1.31091e-18
1.2969e-18
1.23426e-18
1.23845e-18
1.17296e-18
1.18603e-18
1.12858e-18
1.12329e-18
1.08701e-18
1.0775e-18
1.04613e-18
1.04512e-18
9.96873e-19
1.01646e-18
9.65563e-19
9.71947e-19
9.54822e-19
9.29466e-19
9.21896e-19
9.28618e-19
8.68276e-19
9.27642e-19
8.66332e-19
8.67624e-19
8.99224e-19
8.21784e-19
8.58067e-19
9.18021e-19
7.37868e-19
9.95437e-19
8.5978e-19
7.98998e-19
1.23489e-18
8.53664e-19
1.08308e-18
2.16269e-18
1.34493e-18
3.34583e-18
7.09379e-18
7.49224e-18
6.18139e-18
8.01247e-18
9.06029e-18
6.62082e-18
4.33253e-18
3.39034e-18
2.97462e-18
2.71781e-18
2.52483e-18
2.38428e-18
2.16787e-18
2.00769e-18
1.85105e-18
1.75483e-18
1.65302e-18
1.61863e-18
1.51987e-18
1.48471e-18
1.41769e-18
1.38726e-18
1.31131e-18
1.29736e-18
1.23461e-18
1.23919e-18
1.17307e-18
1.18672e-18
1.12908e-18
1.12342e-18
1.08767e-18
1.0777e-18
1.0465e-18
1.04588e-18
9.96731e-19
1.01736e-18
9.65973e-19
9.71977e-19
9.56198e-19
9.29504e-19
9.22385e-19
9.30418e-19
8.67681e-19
9.2965e-19
8.67841e-19
8.67525e-19
9.03089e-19
8.22826e-19
8.5923e-19
9.25383e-19
7.37505e-19
1.00229e-18
8.71219e-19
7.99641e-19
1.25426e-18
8.75135e-19
1.08472e-18
2.20753e-18
1.41288e-18
3.45625e-18
7.19724e-18
7.4906e-18
6.00597e-18
7.75098e-18
8.89396e-18
6.47578e-18
4.24129e-18
3.34591e-18
2.95346e-18
2.70758e-18
2.51973e-18
2.3819e-18
2.16635e-18
2.00661e-18
1.85048e-18
1.7544e-18
1.65265e-18
1.61955e-18
1.5201e-18
1.48495e-18
1.41828e-18
1.38778e-18
1.31155e-18
1.29767e-18
1.23482e-18
1.23992e-18
1.17309e-18
1.18747e-18
1.12959e-18
1.12345e-18
1.08845e-18
1.07788e-18
1.04691e-18
1.04684e-18
9.96513e-19
1.01843e-18
9.66456e-19
9.71978e-19
9.57902e-19
9.296e-19
9.22926e-19
9.32737e-19
8.66865e-19
9.32211e-19
8.697e-19
8.67507e-19
9.07719e-19
8.2427e-19
8.60451e-19
9.33864e-19
7.37901e-19
1.00795e-18
8.85909e-19
7.98066e-19
1.26935e-18
9.02027e-19
1.06371e-18
2.23459e-18
1.45683e-18
3.41168e-18
7.12828e-18
7.21469e-18
5.53246e-18
7.23574e-18
8.47256e-18
6.20019e-18
4.07756e-18
3.26114e-18
2.90827e-18
2.68148e-18
2.50279e-18
2.37061e-18
2.15856e-18
2.0011e-18
1.84665e-18
1.75148e-18
1.65045e-18
1.61905e-18
1.51918e-18
1.4842e-18
1.41819e-18
1.3877e-18
1.31141e-18
1.2975e-18
1.23472e-18
1.24039e-18
1.1729e-18
1.18809e-18
1.12999e-18
1.12329e-18
1.08921e-18
1.07791e-18
1.04728e-18
1.04786e-18
9.96229e-19
1.01948e-18
9.67007e-19
9.71872e-19
9.59807e-19
9.2974e-19
9.23436e-19
9.35303e-19
8.65943e-19
9.3494e-19
8.71798e-19
8.67489e-19
9.12556e-19
8.25988e-19
8.61351e-19
9.42486e-19
7.38794e-19
1.01122e-18
9.0189e-19
7.93919e-19
1.27732e-18
9.31227e-19
1.0201e-18
2.24998e-18
1.46734e-18
3.2384e-18
6.88253e-18
6.81328e-18
4.95814e-18
6.61045e-18
7.92638e-18
5.8653e-18
3.87772e-18
3.15113e-18
2.84656e-18
2.64286e-18
2.47543e-18
2.35042e-18
2.14423e-18
1.99061e-18
1.83904e-18
1.74565e-18
1.64598e-18
1.61664e-18
1.51673e-18
1.48215e-18
1.41705e-18
1.38669e-18
1.31069e-18
1.29667e-18
1.23412e-18
1.24041e-18
1.17239e-18
1.18841e-18
1.13017e-18
1.12285e-18
1.08984e-18
1.07775e-18
1.04752e-18
1.04881e-18
9.95878e-19
1.02037e-18
9.67581e-19
9.71613e-19
9.61752e-19
9.29898e-19
9.23828e-19
9.37894e-19
8.6496e-19
9.37559e-19
8.74005e-19
8.67327e-19
9.17252e-19
8.27716e-19
8.61739e-19
9.50492e-19
7.39676e-19
1.01239e-18
9.1675e-19
7.88594e-19
1.27803e-18
9.59875e-19
9.64681e-19
2.25873e-18
1.45373e-18
3.05162e-18
6.61306e-18
6.42297e-18
4.50514e-18
6.0083e-18
7.35943e-18
5.51698e-18
3.6668e-18
3.02981e-18
2.77482e-18
2.59548e-18
2.44007e-18
2.3233e-18
2.12428e-18
1.97568e-18
1.82791e-18
1.73701e-18
1.63929e-18
1.61218e-18
1.51265e-18
1.47868e-18
1.4147e-18
1.38459e-18
1.30927e-18
1.29506e-18
1.2329e-18
1.23987e-18
1.17148e-18
1.18829e-18
1.13003e-18
1.12206e-18
1.09022e-18
1.07732e-18
1.04758e-18
1.0496e-18
9.95444e-19
1.02096e-18
9.6812e-19
9.71161e-19
9.636e-19
9.30032e-19
9.24039e-19
9.40308e-19
8.63966e-19
9.39836e-19
8.76178e-19
8.66978e-19
9.21483e-19
8.29267e-19
8.61603e-19
9.57442e-19
7.40327e-19
1.01207e-18
9.29003e-19
7.83711e-19
1.27245e-18
9.85815e-19
9.07755e-19
2.25966e-18
1.42009e-18
2.93102e-18
6.443e-18
6.0963e-18
4.30292e-18
5.4778e-18
6.82626e-18
5.1753e-18
3.45724e-18
2.90288e-18
2.69668e-18
2.54216e-18
2.39939e-18
2.29109e-18
2.10013e-18
1.95722e-18
1.81381e-18
1.72589e-18
1.63057e-18
1.60583e-18
1.5071e-18
1.47389e-18
1.41117e-18
1.38139e-18
1.30711e-18
1.29264e-18
1.23103e-18
1.23871e-18
1.17016e-18
1.18765e-18
1.12952e-18
1.12089e-18
1.09029e-18
1.07659e-18
1.0474e-18
1.05011e-18
9.94927e-19
1.02119e-18
9.68565e-19
9.7051e-19
9.65225e-19
9.30111e-19
9.24045e-19
9.42397e-19
8.63e-19
9.41642e-19
8.78177e-19
8.66484e-19
9.25071e-19
8.30571e-19
8.61029e-19
9.63111e-19
7.40689e-19
1.01084e-18
9.38071e-19
7.80102e-19
1.262e-18
1.00842e-18
8.53633e-19
2.2512e-18
1.37168e-18
2.89491e-18
6.42654e-18
5.8596e-18
4.40875e-18
5.02938e-18
6.354e-18
4.84675e-18
3.25315e-18
2.77351e-18
2.61425e-18
2.48473e-18
2.35488e-18
2.25527e-18
2.07296e-18
1.93612e-18
1.79738e-18
1.71265e-18
1.62009e-18
1.59779e-18
1.50028e-18
1.46797e-18
1.4066e-18
1.37719e-18
1.30428e-18
1.28949e-18
1.22854e-18
1.23694e-18
1.16849e-18
1.18646e-18
1.12868e-18
1.11935e-18
1.09004e-18
1.07554e-18
1.04699e-18
1.05031e-18
9.94341e-19
1.02104e-18
9.68879e-19
9.69679e-19
9.66564e-19
9.3012e-19
9.23862e-19
9.44074e-19
8.62107e-19
9.42972e-19
8.79918e-19
8.65927e-19
9.27959e-19
8.31625e-19
8.60199e-19
9.67548e-19
7.40816e-19
1.00918e-18
9.44151e-19
7.77985e-19
1.24839e-18
1.02764e-18
8.04721e-19
2.23456e-18
1.31788e-18
2.93849e-18
6.56221e-18
5.72765e-18
4.80438e-18
4.6639e-18
5.95074e-18
4.53789e-18
3.05693e-18
2.64401e-18
2.5292e-18
2.42458e-18
2.30775e-18
2.21687e-18
2.0437e-18
1.91317e-18
1.77918e-18
1.69773e-18
1.60818e-18
1.58828e-18
1.49244e-18
1.46114e-18
1.40116e-18
1.37217e-18
1.30086e-18
1.28571e-18
1.2255e-18
1.23458e-18
1.16654e-18
1.18474e-18
1.12754e-18
1.11748e-18
1.08949e-18
1.07422e-18
1.04637e-18
1.05017e-18
9.9371e-19
1.02053e-18
9.69049e-19
9.68712e-19
9.67603e-19
9.30067e-19
9.23531e-19
9.45336e-19
8.61328e-19
9.43883e-19
8.81394e-19
8.65376e-19
9.30245e-19
8.32487e-19
8.59213e-19
9.70988e-19
7.40767e-19
1.00734e-18
9.47835e-19
7.77134e-19
1.23283e-18
1.04346e-18
7.62758e-19
2.20849e-18
1.26795e-18
3.04119e-18
6.79701e-18
5.69881e-18
5.3915e-18
4.38113e-18
5.61506e-18
4.25431e-18
2.87074e-18
2.51664e-18
2.44298e-18
2.36296e-18
2.25897e-18
2.17665e-18
2.01295e-18
1.88897e-18
1.75979e-18
1.6816e-18
1.59514e-18
1.57752e-18
1.48374e-18
1.45358e-18
1.39505e-18
1.36654e-18
1.29697e-18
1.28143e-18
1.22202e-18
1.23167e-18
1.16441e-18
1.18254e-18
1.12616e-18
1.11537e-18
1.08866e-18
1.07267e-18
1.04558e-18
1.04971e-18
9.93057e-19
1.01971e-18
9.69086e-19
9.67652e-19
9.68361e-19
9.2997e-19
9.23089e-19
9.46229e-19
8.6069e-19
9.44432e-19
8.82665e-19
8.64834e-19
9.32039e-19
8.33248e-19
8.58042e-19
9.73672e-19
7.40616e-19
1.00517e-18
9.4982e-19
7.76978e-19
1.21589e-18
1.05576e-18
7.2728e-19
2.17028e-18
1.22657e-18
3.16798e-18
7.04159e-18
5.74466e-18
6.00014e-18
4.17562e-18
5.32673e-18
4.0011e-18
2.69654e-18
2.39349e-18
2.35694e-18
2.30103e-18
2.20939e-18
2.13519e-18
1.98119e-18
1.86403e-18
1.73974e-18
1.66473e-18
1.58134e-18
1.56576e-18
1.47437e-18
1.44543e-18
1.38842e-18
1.36045e-18
1.29274e-18
1.27679e-18
1.21822e-18
1.22828e-18
1.16217e-18
1.17991e-18
1.12459e-18
1.11309e-18
1.08762e-18
1.07093e-18
1.04465e-18
1.04897e-18
9.92399e-19
1.01864e-18
9.69013e-19
9.66534e-19
9.68858e-19
9.29851e-19
9.2255e-19
9.46796e-19
8.6021e-19
9.44608e-19
8.83806e-19
8.64249e-19
9.33357e-19
8.33993e-19
8.56528e-19
9.75672e-19
7.40431e-19
1.0022e-18
9.50635e-19
7.76779e-19
1.19753e-18
1.06407e-18
6.97254e-19
2.11698e-18
1.19578e-18
3.27072e-18
7.18928e-18
5.81948e-18
6.46333e-18
4.03294e-18
5.06008e-18
3.78064e-18
2.53587e-18
2.27638e-18
2.27229e-18
2.23974e-18
2.15983e-18
2.09304e-18
1.9488e-18
1.83871e-18
1.71942e-18
1.64754e-18
1.56715e-18
1.55325e-18
1.46451e-18
1.43682e-18
1.38137e-18
1.35406e-18
1.2883e-18
1.2719e-18
1.21425e-18
1.22447e-18
1.15987e-18
1.17692e-18
1.12286e-18
1.11071e-18
1.08641e-18
1.06906e-18
1.04362e-18
1.04798e-18
9.91755e-19
1.01733e-18
9.68855e-19
9.65374e-19
9.69114e-19
9.29734e-19
9.21901e-19
9.47051e-19
8.59899e-19
9.44366e-19
8.84854e-19
8.6355e-19
9.34119e-19
8.34774e-19
8.54514e-19
9.76838e-19
7.40306e-19
9.97813e-19
9.50454e-19
7.75902e-19
1.17757e-18
1.0676e-18
6.71964e-19
2.04728e-18
1.17488e-18
3.30432e-18
7.15392e-18
5.86373e-18
6.66214e-18
3.92762e-18
4.79076e-18
3.59111e-18
2.38988e-18
2.16678e-18
2.19005e-18
2.17989e-18
2.11107e-18
2.05079e-18
1.91617e-18
1.8133e-18
1.69913e-18
1.63035e-18
1.55291e-18
1.5403e-18
1.45432e-18
1.42788e-18
1.37399e-18
1.34747e-18
1.28374e-18
1.26687e-18
1.21023e-18
1.22031e-18
1.15757e-18
1.17363e-18
1.12099e-18
1.10828e-18
1.08509e-18
1.0671e-18
1.04252e-18
1.0468e-18
9.91133e-19
1.01582e-18
9.68621e-19
9.64186e-19
9.69114e-19
9.29629e-19
9.21134e-19
9.46974e-19
8.59769e-19
9.43619e-19
8.85793e-19
8.62695e-19
9.3421e-19
8.35561e-19
8.51912e-19
9.76935e-19
7.40333e-19
9.91616e-19
9.49314e-19
7.73961e-19
1.15595e-18
1.06591e-18
6.51157e-19
1.96299e-18
1.16155e-18
3.24259e-18
6.89752e-18
5.82693e-18
6.54197e-18
3.82893e-18
4.50289e-18
3.42821e-18
2.2594e-18
2.06573e-18
2.11102e-18
2.12207e-18
2.06377e-18
2.00902e-18
1.88367e-18
1.78803e-18
1.67905e-18
1.61339e-18
1.53887e-18
1.52715e-18
1.44399e-18
1.41875e-18
1.36637e-18
1.34074e-18
1.27915e-18
1.26178e-18
1.20626e-18
1.21592e-18
1.1553e-18
1.17011e-18
1.11899e-18
1.10583e-18
1.08367e-18
1.06509e-18
1.04139e-18
1.04544e-18
9.90547e-19
1.01412e-18
9.68309e-19
9.62974e-19
9.68851e-19
9.29529e-19
9.20264e-19
9.46537e-19
8.59828e-19
9.42337e-19
8.8658e-19
8.61685e-19
9.33563e-19
8.36287e-19
8.48788e-19
9.75782e-19
7.40609e-19
9.83516e-19
9.47255e-19
7.70837e-19
1.13303e-18
1.05901e-18
6.34994e-19
1.86744e-18
1.15294e-18
3.07918e-18
6.43145e-18
5.67707e-18
6.12083e-18
3.70949e-18
4.19158e-18
3.28493e-18
2.14495e-18
1.97391e-18
2.03579e-18
2.06655e-18
2.01836e-18
1.96821e-18
1.85164e-18
1.76308e-18
1.65932e-18
1.5968e-18
1.52522e-18
1.51399e-18
1.43369e-18
1.40955e-18
1.35859e-18
1.33393e-18
1.27456e-18
1.25667e-18
1.2024e-18
1.21137e-18
1.1531e-18
1.16643e-18
1.11687e-18
1.10342e-18
1.08217e-18
1.06304e-18
1.04027e-18
1.04394e-18
9.9001e-19
1.01226e-18
9.67916e-19
9.61756e-19
9.68328e-19
9.29413e-19
9.1933e-19
9.45719e-19
8.60087e-19
9.40548e-19
8.87175e-19
8.60554e-19
9.32211e-19
8.36872e-19
8.45323e-19
9.73323e-19
7.41225e-19
9.73696e-19
9.44403e-19
7.66655e-19
1.10952e-18
1.04744e-18
6.23809e-19
1.76514e-18
1.14598e-18
2.82835e-18
5.80438e-18
5.40048e-18
5.46857e-18
3.54725e-18
3.86188e-18
3.15357e-18
2.04647e-18
1.8915e-18
1.96473e-18
2.01341e-18
1.97509e-18
1.92877e-18
1.82037e-18
1.73861e-18
1.64002e-18
1.58067e-18
1.51208e-18
1.50099e-18
1.42356e-18
1.40041e-18
1.35076e-18
1.32707e-18
1.27003e-18
1.25158e-18
1.19871e-18
1.20675e-18
1.15099e-18
1.16267e-18
1.11465e-18
1.10104e-18
1.08061e-18
1.06096e-18
1.03918e-18
1.04232e-18
9.89537e-19
1.01028e-18
9.67441e-19
9.60549e-19
9.67575e-19
9.29257e-19
9.18386e-19
9.44531e-19
8.60544e-19
9.38335e-19
8.87563e-19
8.5935e-19
9.30275e-19
8.37252e-19
8.41742e-19
9.69649e-19
7.42253e-19
9.6256e-19
9.40977e-19
7.61686e-19
1.08624e-18
1.03216e-18
6.17928e-19
1.66068e-18
1.1381e-18
2.51693e-18
5.08796e-18
5.01022e-18
4.68078e-18
3.33254e-18
3.52507e-18
3.02733e-18
1.96331e-18
1.81837e-18
1.89811e-18
1.96261e-18
1.93402e-18
1.89094e-18
1.79012e-18
1.71477e-18
1.62121e-18
1.56501e-18
1.49947e-18
1.48826e-18
1.41368e-18
1.39145e-18
1.34295e-18
1.3202e-18
1.26558e-18
1.24652e-18
1.19519e-18
1.20211e-18
1.14899e-18
1.15889e-18
1.11235e-18
1.09874e-18
1.079e-18
1.05885e-18
1.03816e-18
1.04061e-18
9.89134e-19
1.00824e-18
9.66897e-19
9.59365e-19
9.66642e-19
9.29039e-19
9.17486e-19
9.43016e-19
8.61194e-19
9.35812e-19
8.8776e-19
8.58118e-19
9.2793e-19
8.37388e-19
8.38267e-19
9.64938e-19
7.43731e-19
9.5058e-19
9.3722e-19
7.56276e-19
1.06397e-18
1.01429e-18
6.17257e-19
1.55814e-18
1.12763e-18
2.17991e-18
4.3507e-18
4.5355e-18
3.86002e-18
3.06683e-18
3.19415e-18
2.90109e-18
1.89432e-18
1.7542e-18
1.83605e-18
1.91403e-18
1.8951e-18
1.85489e-18
1.76107e-18
1.69164e-18
1.60293e-18
1.54984e-18
1.48743e-18
1.47587e-18
1.40412e-18
1.38272e-18
1.33525e-18
1.31337e-18
1.26123e-18
1.24152e-18
1.19184e-18
1.1975e-18
1.14711e-18
1.15514e-18
1.11002e-18
1.09653e-18
1.07738e-18
1.05671e-18
1.03721e-18
1.03884e-18
9.88806e-19
1.00619e-18
9.663e-19
9.58218e-19
9.65591e-19
9.28748e-19
9.16675e-19
9.41233e-19
8.62023e-19
9.33098e-19
8.87804e-19
8.56898e-19
9.25362e-19
8.3727e-19
8.35075e-19
9.59437e-19
7.45659e-19
9.3822e-19
9.33363e-19
7.50755e-19
1.0433e-18
9.94926e-19
6.2132e-19
1.46055e-18
1.11364e-18
1.85166e-18
3.65095e-18
4.01688e-18
3.08857e-18
2.76239e-18
2.88072e-18
2.77179e-18
1.83781e-18
1.69847e-18
1.77856e-18
1.86754e-18
1.85816e-18
1.82065e-18
1.73331e-18
1.66932e-18
1.58522e-18
1.53513e-18
1.47593e-18
1.46385e-18
1.39491e-18
1.37428e-18
1.32773e-18
1.30661e-18
1.25702e-18
1.23658e-18
1.18865e-18
1.19296e-18
1.14534e-18
1.15147e-18
1.10767e-18
1.09443e-18
1.07576e-18
1.05456e-18
1.03635e-18
1.03703e-18
9.88554e-19
1.00417e-18
9.65675e-19
9.57115e-19
9.64483e-19
9.2838e-19
9.15983e-19
9.39251e-19
8.63012e-19
9.3029e-19
8.87743e-19
8.55715e-19
9.22739e-19
8.3691e-19
8.32285e-19
9.53393e-19
7.48004e-19
9.25901e-19
9.29575e-19
7.45429e-19
1.02456e-18
9.74993e-19
6.29327e-19
1.36995e-18
1.09585e-18
1.56028e-18
3.02779e-18
3.49345e-18
2.42081e-18
2.43706e-18
2.59416e-18
2.63857e-18
1.79182e-18
1.65059e-18
1.72556e-18
1.82302e-18
1.82299e-18
1.78816e-18
1.7069e-18
1.64782e-18
1.56806e-18
1.52088e-18
1.46494e-18
1.45221e-18
1.38605e-18
1.36615e-18
1.32041e-18
1.29994e-18
1.25295e-18
1.23172e-18
1.18561e-18
1.18852e-18
1.14367e-18
1.14791e-18
1.10534e-18
1.09244e-18
1.07418e-18
1.0524e-18
1.03558e-18
1.03521e-18
9.88373e-19
1.0022e-18
9.65042e-19
9.56061e-19
9.63371e-19
9.27942e-19
9.15427e-19
9.37133e-19
8.64141e-19
9.27471e-19
8.87621e-19
8.54591e-19
9.20192e-19
8.36336e-19
8.29961e-19
9.47039e-19
7.50699e-19
9.13955e-19
9.25966e-19
7.4053e-19
1.00784e-18
9.55237e-19
6.40297e-19
1.2874e-18
1.07473e-18
1.32288e-18
2.50038e-18
3.00172e-18
1.8839e-18
2.11313e-18
2.33778e-18
2.50242e-18
1.75427e-18
1.6099e-18
1.67692e-18
1.78038e-18
1.78937e-18
1.75733e-18
1.68184e-18
1.62716e-18
1.55145e-18
1.50706e-18
1.45441e-18
1.44095e-18
1.37755e-18
1.35834e-18
1.31334e-18
1.2934e-18
1.24903e-18
1.22696e-18
1.1827e-18
1.18419e-18
1.14209e-18
1.14446e-18
1.10305e-18
1.09056e-18
1.07265e-18
1.05024e-18
1.0349e-18
1.0334e-18
9.8826e-19
1.00031e-18
9.64422e-19
9.55061e-19
9.62297e-19
9.27444e-19
9.15013e-19
9.34937e-19
8.65389e-19
9.24703e-19
8.87472e-19
8.53544e-19
9.17816e-19
8.35586e-19
8.28122e-19
9.40578e-19
7.53661e-19
9.02631e-19
9.22579e-19
7.3624e-19
9.93096e-19
9.36208e-19
6.53204e-19
1.21335e-18
1.05104e-18
1.14782e-18
2.07135e-18
2.5704e-18
1.48352e-18
1.81319e-18
2.1124e-18
2.36581e-18
1.72321e-18
1.57576e-18
1.63248e-18
1.73961e-18
1.75713e-18
1.72803e-18
1.65809e-18
1.60734e-18
1.53539e-18
1.49366e-18
1.44432e-18
1.43006e-18
1.36938e-18
1.35083e-18
1.30651e-18
1.28699e-18
1.24526e-18
1.22229e-18
1.1799e-18
1.17998e-18
1.14058e-18
1.14114e-18
1.10081e-18
1.08881e-18
1.07118e-18
1.04809e-18
1.03429e-18
1.03161e-18
9.88211e-19
9.98492e-19
9.63824e-19
9.54117e-19
9.61288e-19
9.26899e-19
9.14738e-19
9.32714e-19
8.66735e-19
9.22029e-19
8.87317e-19
8.52587e-19
9.15667e-19
8.34704e-19
8.26755e-19
9.34173e-19
7.56798e-19
8.92109e-19
9.19395e-19
7.32671e-19
9.80136e-19
9.18289e-19
6.67131e-19
1.14774e-18
1.02551e-18
1.03513e-18
1.73317e-18
2.2199e-18
1.20668e-18
1.55773e-18
1.91611e-18
2.23181e-18
1.69712e-18
1.54758e-18
1.5921e-18
1.70073e-18
1.72612e-18
1.70014e-18
1.63559e-18
1.58834e-18
1.51984e-18
1.48066e-18
1.4346e-18
1.41953e-18
1.36155e-18
1.34363e-18
1.29993e-18
1.28073e-18
1.24165e-18
1.21774e-18
1.1772e-18
1.1759e-18
1.13914e-18
1.13795e-18
1.09865e-18
1.08718e-18
1.06979e-18
1.04597e-18
1.03376e-18
1.02986e-18
9.88224e-19
9.96767e-19
9.63258e-19
9.53232e-19
9.6036e-19
9.2632e-19
9.14596e-19
9.30502e-19
8.68162e-19
9.19483e-19
8.87164e-19
8.51735e-19
9.1377e-19
8.33733e-19
8.25823e-19
9.27952e-19
7.60022e-19
8.82526e-19
9.16362e-19
7.29902e-19
9.68756e-19
9.01721e-19
6.81305e-19
1.0903e-18
9.9856e-19
9.78872e-19
1.47087e-18
1.96151e-18
1.02838e-18
1.36209e-18
1.74569e-18
2.10317e-18
1.67478e-18
1.52482e-18
1.55559e-18
1.66375e-18
1.69622e-18
1.67351e-18
1.61428e-18
1.57012e-18
1.50478e-18
1.46802e-18
1.42522e-18
1.40932e-18
1.35403e-18
1.33671e-18
1.29359e-18
1.27462e-18
1.23818e-18
1.21329e-18
1.17457e-18
1.17195e-18
1.13776e-18
1.13488e-18
1.09656e-18
1.08567e-18
1.06847e-18
1.04389e-18
1.03329e-18
1.02815e-18
9.88298e-19
9.95132e-19
9.62725e-19
9.52409e-19
9.59521e-19
9.25719e-19
9.14578e-19
9.28334e-19
8.69651e-19
9.17089e-19
8.87012e-19
8.51005e-19
9.1214e-19
8.32716e-19
8.25282e-19
9.22018e-19
7.63247e-19
8.73956e-19
9.1343e-19
7.27959e-19
9.58743e-19
8.86677e-19
6.9511e-19
1.04059e-18
9.70668e-19
9.68463e-19
1.26643e-18
6.8997e-18
6.00117e-18
7.80775e-18
8.86293e-18
6.58193e-18
4.32307e-18
3.37821e-18
2.96269e-18
2.70988e-18
2.51779e-18
2.37758e-18
2.16307e-18
2.0047e-18
1.84824e-18
1.75271e-18
1.65126e-18
1.61604e-18
1.51849e-18
1.48384e-18
1.4164e-18
1.38637e-18
1.31074e-18
1.29699e-18
1.23399e-18
1.23829e-18
1.17274e-18
1.18586e-18
1.12818e-18
1.12341e-18
1.08643e-18
1.07742e-18
1.04566e-18
1.04461e-18
9.9662e-19
1.01577e-18
9.64964e-19
9.71895e-19
9.5367e-19
9.2944e-19
9.21354e-19
9.27559e-19
8.68379e-19
9.26603e-19
8.65021e-19
8.67838e-19
8.96512e-19
8.21051e-19
8.57137e-19
9.13292e-19
7.37998e-19
9.90913e-19
8.52429e-19
7.98604e-19
1.22043e-18
8.41503e-19
1.07398e-18
2.12087e-18
1.29105e-18
3.21493e-18
7.04927e-18
7.25586e-18
6.11179e-18
7.99998e-18
9.01161e-18
6.6451e-18
4.35205e-18
3.39583e-18
2.97477e-18
2.7173e-18
2.52323e-18
2.38191e-18
2.16612e-18
2.0065e-18
1.84983e-18
1.75372e-18
1.65212e-18
1.61705e-18
1.51927e-18
1.48431e-18
1.41715e-18
1.38683e-18
1.31124e-18
1.29722e-18
1.23446e-18
1.23865e-18
1.17303e-18
1.18616e-18
1.12869e-18
1.12339e-18
1.08701e-18
1.07749e-18
1.04602e-18
1.045e-18
9.96645e-19
1.01624e-18
9.65347e-19
9.71793e-19
9.54641e-19
9.29331e-19
9.21763e-19
9.28563e-19
8.68122e-19
9.27679e-19
8.66126e-19
8.67514e-19
8.99066e-19
8.2155e-19
8.57852e-19
9.18185e-19
7.37328e-19
9.96098e-19
8.59773e-19
7.99024e-19
1.23645e-18
8.55431e-19
1.08255e-18
2.17213e-18
1.34736e-18
3.34641e-18
7.12687e-18
7.52379e-18
6.20401e-18
8.02299e-18
9.0766e-18
6.63127e-18
4.33657e-18
3.39264e-18
2.97673e-18
2.72009e-18
2.52645e-18
2.38528e-18
2.16851e-18
2.00803e-18
1.85109e-18
1.75466e-18
1.65272e-18
1.61849e-18
1.52e-18
1.48496e-18
1.41796e-18
1.38755e-18
1.31164e-18
1.29768e-18
1.2348e-18
1.2394e-18
1.17314e-18
1.18685e-18
1.1292e-18
1.12353e-18
1.08768e-18
1.07771e-18
1.04639e-18
1.04576e-18
9.96505e-19
1.01715e-18
9.65756e-19
9.71823e-19
9.56015e-19
9.29371e-19
9.22255e-19
9.30369e-19
8.67525e-19
9.29694e-19
8.67631e-19
8.67413e-19
9.02933e-19
8.22589e-19
8.59007e-19
9.25557e-19
7.36947e-19
1.00297e-18
8.71234e-19
7.99629e-19
1.25589e-18
8.76965e-19
1.08413e-18
2.21731e-18
1.4159e-18
3.45635e-18
7.23542e-18
7.51946e-18
6.03403e-18
7.7615e-18
8.91068e-18
6.48559e-18
4.24457e-18
3.34812e-18
2.95575e-18
2.70989e-18
2.52133e-18
2.38285e-18
2.16693e-18
2.00689e-18
1.85045e-18
1.75418e-18
1.65229e-18
1.61936e-18
1.5202e-18
1.48519e-18
1.41853e-18
1.38807e-18
1.31188e-18
1.29799e-18
1.23501e-18
1.24013e-18
1.17314e-18
1.1876e-18
1.12971e-18
1.12358e-18
1.08846e-18
1.07789e-18
1.0468e-18
1.04672e-18
9.96288e-19
1.01822e-18
9.66239e-19
9.71824e-19
9.57719e-19
9.29468e-19
9.22798e-19
9.32695e-19
8.66707e-19
9.32263e-19
8.69485e-19
8.67394e-19
9.07564e-19
8.24028e-19
8.60224e-19
9.3404e-19
7.37344e-19
1.00861e-18
8.8595e-19
7.98026e-19
1.27099e-18
9.03866e-19
1.06299e-18
2.2442e-18
1.46025e-18
3.41283e-18
7.17002e-18
7.24268e-18
5.56358e-18
7.24225e-18
8.48707e-18
6.20908e-18
4.0802e-18
3.26292e-18
2.91064e-18
2.68393e-18
2.5044e-18
2.3715e-18
2.15904e-18
2.0013e-18
1.84655e-18
1.7512e-18
1.65002e-18
1.61879e-18
1.51924e-18
1.48442e-18
1.41841e-18
1.38797e-18
1.31173e-18
1.29782e-18
1.23491e-18
1.24059e-18
1.17294e-18
1.18822e-18
1.13012e-18
1.12343e-18
1.08923e-18
1.07793e-18
1.04717e-18
1.04774e-18
9.96007e-19
1.01928e-18
9.66789e-19
9.71722e-19
9.5962e-19
9.29605e-19
9.2331e-19
9.35272e-19
8.65784e-19
9.34999e-19
8.71582e-19
8.67373e-19
9.12404e-19
8.25746e-19
8.61112e-19
9.42655e-19
7.38257e-19
1.01185e-18
9.01953e-19
7.93915e-19
1.27887e-18
9.33121e-19
1.01909e-18
2.25899e-18
1.4712e-18
3.24093e-18
6.92388e-18
6.84011e-18
4.9851e-18
6.61724e-18
7.93851e-18
5.87242e-18
3.87934e-18
3.1527e-18
2.84907e-18
2.64544e-18
2.47709e-18
2.35128e-18
2.14459e-18
1.99073e-18
1.83887e-18
1.74529e-18
1.64547e-18
1.6163e-18
1.51674e-18
1.48234e-18
1.41724e-18
1.38693e-18
1.311e-18
1.297e-18
1.2343e-18
1.24061e-18
1.17242e-18
1.18852e-18
1.1303e-18
1.123e-18
1.08987e-18
1.07777e-18
1.04742e-18
1.0487e-18
9.95659e-19
1.02017e-18
9.67365e-19
9.71466e-19
9.61562e-19
9.29759e-19
9.23703e-19
9.37873e-19
8.64808e-19
9.37628e-19
8.73791e-19
8.67205e-19
9.17102e-19
8.27476e-19
8.61496e-19
9.5065e-19
7.39167e-19
1.01299e-18
9.16828e-19
7.88614e-19
1.27948e-18
9.61811e-19
9.6416e-19
2.26698e-18
1.45813e-18
3.05588e-18
6.65111e-18
6.44875e-18
4.52751e-18
6.01328e-18
7.36835e-18
5.52254e-18
3.66783e-18
3.03129e-18
2.77748e-18
2.59825e-18
2.44182e-18
2.32405e-18
2.12455e-18
1.9757e-18
1.82766e-18
1.7366e-18
1.6387e-18
1.61176e-18
1.5126e-18
1.47884e-18
1.41486e-18
1.3848e-18
1.30956e-18
1.29539e-18
1.23307e-18
1.24006e-18
1.17149e-18
1.18839e-18
1.13016e-18
1.12223e-18
1.09026e-18
1.07736e-18
1.04747e-18
1.04948e-18
9.95227e-19
1.02077e-18
9.67905e-19
9.71018e-19
9.63406e-19
9.29888e-19
9.23916e-19
9.40299e-19
8.63821e-19
9.39914e-19
8.75969e-19
8.6685e-19
9.21335e-19
8.29035e-19
8.61364e-19
9.57584e-19
7.39849e-19
1.01261e-18
9.29084e-19
7.83745e-19
1.27378e-18
9.8773e-19
9.07417e-19
2.26717e-18
1.42467e-18
2.93706e-18
6.47665e-18
6.12045e-18
4.32072e-18
5.48097e-18
6.83296e-18
5.17982e-18
3.45783e-18
2.90421e-18
2.69947e-18
2.54508e-18
2.40115e-18
2.2918e-18
2.10033e-18
1.95715e-18
1.81349e-18
1.72542e-18
1.62991e-18
1.60534e-18
1.50698e-18
1.47401e-18
1.41129e-18
1.38157e-18
1.30739e-18
1.29297e-18
1.2312e-18
1.23889e-18
1.17016e-18
1.18773e-18
1.12966e-18
1.12107e-18
1.09034e-18
1.07663e-18
1.0473e-18
1.05e-18
9.94712e-19
1.02101e-18
9.68353e-19
9.7037e-19
9.65028e-19
9.29961e-19
9.23923e-19
9.42398e-19
8.62866e-19
9.4173e-19
8.77978e-19
8.66353e-19
9.24927e-19
8.30344e-19
8.60791e-19
9.63232e-19
7.40243e-19
1.01132e-18
9.38163e-19
7.80137e-19
1.26322e-18
1.01026e-18
8.53493e-19
2.2578e-18
1.37621e-18
2.90233e-18
6.45591e-18
5.88214e-18
4.42286e-18
5.03123e-18
6.35917e-18
4.85048e-18
3.25344e-18
2.77479e-18
2.61715e-18
2.48775e-18
2.35666e-18
2.25597e-18
2.0731e-18
1.936e-18
1.79701e-18
1.71213e-18
1.61937e-18
1.59723e-18
1.50011e-18
1.46806e-18
1.40667e-18
1.37733e-18
1.30454e-18
1.28982e-18
1.2287e-18
1.23711e-18
1.16847e-18
1.18652e-18
1.12881e-18
1.11953e-18
1.09011e-18
1.0756e-18
1.0469e-18
1.05019e-18
9.94128e-19
1.02086e-18
9.68671e-19
9.69542e-19
9.66366e-19
9.29964e-19
9.23741e-19
9.44084e-19
8.61986e-19
9.43068e-19
8.7973e-19
8.65793e-19
9.27818e-19
8.314e-19
8.59963e-19
9.67646e-19
7.40399e-19
1.0096e-18
9.44242e-19
7.77998e-19
1.24952e-18
1.02938e-18
8.04807e-19
2.24048e-18
1.32217e-18
2.94692e-18
6.58765e-18
5.74872e-18
4.81599e-18
4.66476e-18
5.95468e-18
4.5409e-18
3.05699e-18
2.64522e-18
2.53216e-18
2.42769e-18
2.30958e-18
2.21757e-18
2.04379e-18
1.913e-18
1.77877e-18
1.69717e-18
1.6074e-18
1.58766e-18
1.49221e-18
1.46119e-18
1.4012e-18
1.37228e-18
1.3011e-18
1.28604e-18
1.22566e-18
1.23475e-18
1.16651e-18
1.18477e-18
1.12766e-18
1.11768e-18
1.08956e-18
1.07429e-18
1.04629e-18
1.05006e-18
9.935e-19
1.02035e-18
9.68846e-19
9.68578e-19
9.67405e-19
9.29905e-19
9.2341e-19
9.45353e-19
8.61221e-19
9.43987e-19
8.81221e-19
8.65239e-19
9.30108e-19
8.32264e-19
8.5898e-19
9.71061e-19
7.40378e-19
1.00771e-18
9.47924e-19
7.77121e-19
1.23389e-18
1.04507e-18
7.62938e-19
2.21373e-18
1.27188e-18
3.05027e-18
6.81954e-18
5.71871e-18
5.40146e-18
4.38125e-18
5.61798e-18
4.25666e-18
2.87061e-18
2.51775e-18
2.44594e-18
2.36614e-18
2.26085e-18
2.17735e-18
2.013e-18
1.88876e-18
1.75935e-18
1.68102e-18
1.59433e-18
1.57685e-18
1.48347e-18
1.4536e-18
1.39506e-18
1.36661e-18
1.29719e-18
1.28175e-18
1.22218e-18
1.23184e-18
1.16437e-18
1.18255e-18
1.12627e-18
1.11557e-18
1.08874e-18
1.07274e-18
1.0455e-18
1.0496e-18
9.9285e-19
1.01954e-18
9.68886e-19
9.67521e-19
9.68163e-19
9.29802e-19
9.22967e-19
9.46252e-19
8.60597e-19
9.44545e-19
8.82508e-19
8.64695e-19
9.31906e-19
8.33026e-19
8.57812e-19
9.73722e-19
7.40252e-19
1.00549e-18
9.49907e-19
7.76938e-19
1.21688e-18
1.05721e-18
7.27529e-19
2.17493e-18
1.23016e-18
3.17733e-18
7.06174e-18
5.76349e-18
6.00939e-18
4.17528e-18
5.32886e-18
4.00286e-18
2.69625e-18
2.3945e-18
2.35991e-18
2.30426e-18
2.21131e-18
2.13589e-18
1.98121e-18
1.86379e-18
1.73928e-18
1.66413e-18
1.58051e-18
1.56504e-18
1.47405e-18
1.44542e-18
1.38841e-18
1.36049e-18
1.29294e-18
1.2771e-18
1.21839e-18
1.22844e-18
1.16211e-18
1.1799e-18
1.12469e-18
1.11329e-18
1.08771e-18
1.07101e-18
1.04458e-18
1.04886e-18
9.92196e-19
1.01847e-18
9.68818e-19
9.66405e-19
9.68661e-19
9.29678e-19
9.22427e-19
9.46824e-19
8.60131e-19
9.44725e-19
8.83665e-19
8.64108e-19
9.33228e-19
8.33772e-19
8.563e-19
9.75699e-19
7.40089e-19
1.00246e-18
9.50719e-19
7.76704e-19
1.19844e-18
1.06537e-18
6.97557e-19
2.12104e-18
1.19905e-18
3.27991e-18
7.20771e-18
5.83734e-18
6.47244e-18
4.03243e-18
5.06157e-18
3.78184e-18
2.53545e-18
2.27728e-18
2.27521e-18
2.243e-18
2.16178e-18
2.09374e-18
1.9488e-18
1.83845e-18
1.71895e-18
1.64693e-18
1.56631e-18
1.5525e-18
1.46415e-18
1.43678e-18
1.38133e-18
1.35407e-18
1.28848e-18
1.27221e-18
1.21442e-18
1.22462e-18
1.1598e-18
1.17689e-18
1.12295e-18
1.11091e-18
1.08652e-18
1.06915e-18
1.04356e-18
1.04788e-18
9.91555e-19
1.01716e-18
9.68665e-19
9.65247e-19
9.68918e-19
9.29557e-19
9.21777e-19
9.47081e-19
8.59834e-19
9.44488e-19
8.8473e-19
8.63407e-19
9.33993e-19
8.34553e-19
8.54287e-19
9.76842e-19
7.39984e-19
9.9802e-19
9.50531e-19
7.75789e-19
1.1784e-18
1.06875e-18
6.7228e-19
2.05086e-18
1.17789e-18
3.313e-18
7.17096e-18
5.88079e-18
6.67131e-18
3.92719e-18
4.7917e-18
3.59182e-18
2.38936e-18
2.16757e-18
2.19292e-18
2.18315e-18
2.11303e-18
2.05149e-18
1.91615e-18
1.81303e-18
1.69864e-18
1.62973e-18
1.55205e-18
1.53953e-18
1.45393e-18
1.42781e-18
1.37393e-18
1.34746e-18
1.2839e-18
1.26717e-18
1.2104e-18
1.22046e-18
1.15749e-18
1.17358e-18
1.12107e-18
1.10847e-18
1.0852e-18
1.0672e-18
1.04247e-18
1.0467e-18
9.90937e-19
1.01565e-18
9.68435e-19
9.6406e-19
9.68921e-19
9.29448e-19
9.21008e-19
9.47006e-19
8.59716e-19
9.43746e-19
8.85685e-19
8.6255e-19
9.34086e-19
8.35339e-19
8.51683e-19
9.76916e-19
7.40027e-19
9.91773e-19
9.49378e-19
7.73812e-19
1.1567e-18
1.06693e-18
6.51467e-19
1.96612e-18
1.16427e-18
3.25064e-18
6.91324e-18
5.84319e-18
6.55102e-18
3.82883e-18
4.50332e-18
3.42845e-18
2.2588e-18
2.06643e-18
2.11382e-18
2.1253e-18
2.06573e-18
2.00971e-18
1.88363e-18
1.78774e-18
1.67856e-18
1.61278e-18
1.53801e-18
1.52635e-18
1.44358e-18
1.41866e-18
1.36629e-18
1.34071e-18
1.27929e-18
1.26207e-18
1.20643e-18
1.21606e-18
1.15522e-18
1.17005e-18
1.11905e-18
1.10602e-18
1.08379e-18
1.0652e-18
1.04134e-18
1.04534e-18
9.90355e-19
1.01395e-18
9.68127e-19
9.62848e-19
9.68659e-19
9.29346e-19
9.20137e-19
9.46569e-19
8.59786e-19
9.42465e-19
8.86488e-19
8.61539e-19
9.33439e-19
8.36066e-19
8.48556e-19
9.7574e-19
7.40315e-19
9.83623e-19
9.473e-19
7.70656e-19
1.1337e-18
1.05991e-18
6.35267e-19
1.8702e-18
1.15537e-18
3.08645e-18
6.44583e-18
5.69236e-18
6.12953e-18
3.70981e-18
4.19154e-18
3.28475e-18
2.1443e-18
1.97452e-18
2.03848e-18
2.06973e-18
2.0203e-18
1.9689e-18
1.85157e-18
1.76277e-18
1.65882e-18
1.59619e-18
1.52436e-18
1.51318e-18
1.43325e-18
1.40944e-18
1.35849e-18
1.33388e-18
1.27469e-18
1.25695e-18
1.20257e-18
1.2115e-18
1.15301e-18
1.16636e-18
1.11692e-18
1.1036e-18
1.08229e-18
1.06315e-18
1.04023e-18
1.04385e-18
9.89824e-19
1.01209e-18
9.67737e-19
9.6163e-19
9.68139e-19
9.29229e-19
9.19201e-19
9.45749e-19
8.60055e-19
9.40676e-19
8.87098e-19
8.60407e-19
9.32087e-19
8.36652e-19