/*--------------------------------*- C++ -*----------------------------------*\
| =========                 |                                                 |
| \\      /  F ield         | OpenFOAM: The Open Source CFD Toolbox           |
|  \\    /   O peration     | Version:  2312                                  |
|   \\  /    A nd           | Website:  www.openfoam.com                      |
|    \\/     M anipulation  |                                                 |
\*---------------------------------------------------------------------------*/
FoamFile
{
    version     2.0;
    format      ascii;
    arch        "LSB;label=32;scalar=64";
    class       volScalarField;
    location    "720";
    object      pMean;
}
// * * * * * * * * * * * * * * * * * * * * * * * * * * * * * * * * * * * * * //

dimensions      [0 2 -2 0 0 0 0];

internalField   nonuniform List<scalar> 
144000
(
7.5324e-10
3.7149e-10
-4.02707e-10
-7.53739e-10
-6.35975e-10
-4.3473e-10
-2.45415e-10
-1.43299e-10
-5.50051e-11
-3.14867e-11
8.49338e-12
4.74895e-12
3.13168e-11
1.84507e-11
4.20686e-11
2.68187e-11
4.65367e-11
2.50408e-11
4.66909e-11
2.76933e-11
4.96049e-11
2.65573e-11
4.91971e-11
2.66867e-11
5.06985e-11
2.75688e-11
5.16295e-11
2.56343e-11
5.08807e-11
2.54264e-11
5.25177e-11
2.69623e-11
5.3049e-11
2.30469e-11
5.03014e-11
2.18296e-11
5.01464e-11
2.11599e-11
4.88476e-11
1.76151e-11
4.48251e-11
1.57409e-11
4.3784e-11
1.22251e-11
3.92525e-11
7.52128e-12
3.40869e-11
8.52786e-12
3.24254e-11
1.1819e-11
3.13032e-11
2.24516e-11
2.58481e-11
2.7003e-11
-3.1451e-12
3.0792e-11
-2.2235e-11
2.05453e-11
-1.06553e-09
-2.46957e-10
7.84548e-10
3.90355e-10
-4.10566e-10
-7.60157e-10
-6.38093e-10
-4.34904e-10
-2.4563e-10
-1.43529e-10
-5.54455e-11
-3.18584e-11
8.04729e-12
4.47127e-12
3.09679e-11
1.82582e-11
4.17986e-11
2.67196e-11
4.63126e-11
2.49448e-11
4.64859e-11
2.7667e-11
4.94312e-11
2.65345e-11
4.90314e-11
2.67082e-11
5.05524e-11
2.76112e-11
5.14869e-11
2.56768e-11
5.07378e-11
2.54952e-11
5.2388e-11
2.70561e-11
5.29157e-11
2.31248e-11
5.01596e-11
2.19461e-11
5.00168e-11
2.12894e-11
4.8717e-11
1.77321e-11
4.46189e-11
1.57714e-11
4.35502e-11
1.24044e-11
3.91207e-11
7.73848e-12
3.39496e-11
8.81418e-12
3.23174e-11
1.21257e-11
3.12384e-11
2.2824e-11
2.58754e-11
2.73211e-11
-3.05122e-12
3.07373e-11
-1.86437e-11
3.13356e-11
-1.08494e-09
-2.71905e-10
8.26572e-10
3.9632e-10
-4.22881e-10
-7.62824e-10
-6.38846e-10
-4.34629e-10
-2.45438e-10
-1.43667e-10
-5.57163e-11
-3.24029e-11
7.56994e-12
3.95334e-12
3.06174e-11
1.78329e-11
4.15355e-11
2.64267e-11
4.61734e-11
2.46573e-11
4.63311e-11
2.74569e-11
4.93626e-11
2.63341e-11
4.89626e-11
2.65594e-11
5.05293e-11
2.74861e-11
5.14855e-11
2.55452e-11
5.07283e-11
2.53922e-11
5.24036e-11
2.69839e-11
5.29631e-11
2.30235e-11
5.01728e-11
2.18883e-11
5.00669e-11
2.12455e-11
4.8781e-11
1.76876e-11
4.4565e-11
1.55518e-11
4.34331e-11
1.23584e-11
3.92243e-11
7.80885e-12
3.40172e-11
8.95582e-12
3.24497e-11
1.22821e-11
3.13779e-11
2.30276e-11
2.61792e-11
2.74677e-11
-2.51537e-12
2.92187e-11
-1.48893e-11
4.98758e-11
-1.11831e-09
-2.89629e-10
8.70997e-10
3.74757e-10
-4.36195e-10
-7.57137e-10
-6.37879e-10
-4.33949e-10
-2.44735e-10
-1.43346e-10
-5.56837e-11
-3.29032e-11
7.0127e-12
3.29832e-12
3.01628e-11
1.72873e-11
4.11678e-11
2.60459e-11
4.6003e-11
2.42837e-11
4.6092e-11
2.71734e-11
4.92728e-11
2.60735e-11
4.88483e-11
2.63612e-11
5.04858e-11
2.73285e-11
5.14879e-11
2.53778e-11
5.07016e-11
2.52563e-11
5.24142e-11
2.68935e-11
5.30433e-11
2.28981e-11
5.01769e-11
2.18063e-11
5.01368e-11
2.11895e-11
4.88857e-11
1.76548e-11
4.45049e-11
1.52595e-11
4.3235e-11
1.21994e-11
3.94002e-11
7.883e-12
3.41328e-11
9.0706e-12
3.2707e-11
1.23582e-11
3.1693e-11
2.3028e-11
2.69666e-11
2.70225e-11
-8.99661e-13
2.49788e-11
-6.78495e-12
6.77816e-11
-1.16136e-09
-2.84981e-10
9.10555e-10
3.11835e-10
-4.48182e-10
-7.35502e-10
-6.33587e-10
-4.33234e-10
-2.43776e-10
-1.42511e-10
-5.53015e-11
-3.33158e-11
6.34504e-12
2.51603e-12
2.95607e-11
1.6621e-11
4.06497e-11
2.55847e-11
4.57577e-11
2.38392e-11
4.5725e-11
2.68276e-11
4.91206e-11
2.57757e-11
4.86416e-11
2.61326e-11
5.03809e-11
2.71619e-11
5.145e-11
2.52048e-11
5.06092e-11
2.51126e-11
5.23742e-11
2.68199e-11
5.31122e-11
2.27864e-11
5.01213e-11
2.17317e-11
5.01826e-11
2.11559e-11
4.89915e-11
1.76871e-11
4.44005e-11
1.49876e-11
4.28609e-11
1.19203e-11
3.95862e-11
8.01258e-12
3.42469e-11
9.16043e-12
3.30578e-11
1.23228e-11
3.22106e-11
2.27069e-11
2.83767e-11
2.5681e-11
2.249e-12
1.75538e-11
6.96093e-12
8.07917e-11
-1.21149e-09
-2.45618e-10
9.45639e-10
1.99254e-10
-4.60357e-10
-6.9394e-10
-6.24106e-10
-4.3292e-10
-2.42918e-10
-1.41265e-10
-5.46198e-11
-3.36636e-11
5.53585e-12
1.58432e-12
2.87917e-11
1.58231e-11
3.997e-11
2.50286e-11
4.54261e-11
2.3332e-11
4.52269e-11
2.64175e-11
4.88964e-11
2.54467e-11
4.83384e-11
2.58714e-11
5.02086e-11
2.69888e-11
5.13644e-11
2.50321e-11
5.04435e-11
2.49638e-11
5.22777e-11
2.67636e-11
5.31575e-11
2.26964e-11
4.99981e-11
2.16616e-11
5.01952e-11
2.11474e-11
4.90929e-11
1.7806e-11
4.42573e-11
1.47555e-11
4.22488e-11
1.14742e-11
3.9757e-11
8.19828e-12
3.43617e-11
9.19664e-12
3.35185e-11
1.21164e-11
3.29898e-11
2.1921e-11
3.05727e-11
2.31674e-11
7.3381e-12
6.68064e-12
2.66408e-11
8.76467e-11
-1.27001e-09
-1.64876e-10
9.80825e-10
3.47993e-11
-4.77096e-10
-6.3089e-10
-6.07535e-10
-4.33109e-10
-2.42512e-10
-1.39721e-10
-5.368e-11
-3.39891e-11
4.54569e-12
4.69886e-13
2.7829e-11
1.48822e-11
3.91186e-11
2.43656e-11
4.49966e-11
2.27669e-11
4.46013e-11
2.59422e-11
4.85967e-11
2.50956e-11
4.79406e-11
2.55805e-11
4.99683e-11
2.68142e-11
5.12256e-11
2.48682e-11
5.02046e-11
2.48147e-11
5.21222e-11
2.67274e-11
5.31727e-11
2.26368e-11
4.98088e-11
2.15969e-11
5.01732e-11
2.11645e-11
4.9194e-11
1.80193e-11
4.41272e-11
1.45757e-11
4.13101e-11
1.08065e-11
3.99173e-11
8.43533e-12
3.44908e-11
9.134e-12
3.41111e-11
1.16711e-11
3.41024e-11
2.05544e-11
3.3667e-11
1.93059e-11
1.449e-11
-7.31668e-12
5.13127e-11
8.92058e-11
-1.33793e-09
-4.22544e-11
1.02082e-09
-1.7606e-10
-5.02742e-10
-5.47596e-10
-5.82362e-10
-4.33669e-10
-2.42846e-10
-1.37996e-10
-5.25176e-11
-3.43177e-11
3.34953e-12
-8.57108e-13
2.66401e-11
1.37833e-11
3.80778e-11
2.3581e-11
4.44455e-11
2.21437e-11
4.38478e-11
2.53997e-11
4.82097e-11
2.47274e-11
4.74488e-11
2.52637e-11
4.96573e-11
2.66426e-11
5.10292e-11
2.47211e-11
4.98938e-11
2.46712e-11
5.19069e-11
2.67162e-11
5.31495e-11
2.26152e-11
4.95561e-11
2.15367e-11
5.01182e-11
2.12028e-11
4.93078e-11
1.83266e-11
4.41012e-11
1.44194e-11
3.9918e-11
9.85946e-12
4.00766e-11
8.70843e-12
3.46584e-11
8.93256e-12
3.48621e-11
1.09336e-11
3.55956e-11
1.85425e-11
3.7667e-11
1.41739e-11
2.34636e-11
-2.34743e-11
7.8741e-11
8.79098e-11
-1.41436e-09
1.14578e-10
1.06992e-09
-4.22085e-10
-5.41131e-10
-4.47894e-10
-5.47635e-10
-4.34188e-10
-2.44172e-10
-1.36236e-10
-5.11779e-11
-3.46622e-11
1.92101e-12
-2.40733e-12
2.52104e-11
1.25147e-11
3.68369e-11
2.2661e-11
4.37486e-11
2.14577e-11
4.29629e-11
2.47871e-11
4.77199e-11
2.43412e-11
4.68601e-11
2.49222e-11
4.92699e-11
2.64747e-11
5.07682e-11
2.45958e-11
4.95111e-11
2.45383e-11
5.16321e-11
2.67321e-11
5.30811e-11
2.26351e-11
4.92482e-11
2.14799e-11
5.00345e-11
2.12505e-11
4.94568e-11
1.87141e-11
4.43235e-11
1.42408e-11
3.78966e-11
8.58485e-12
4.02599e-11
9.00093e-12
3.48892e-11
8.56421e-12
3.57837e-11
9.88958e-12
3.74733e-11
1.59123e-11
4.24492e-11
8.04301e-12
3.36752e-11
-4.04434e-11
1.06288e-10
8.66801e-11
-1.49699e-09
2.92793e-10
1.1298e-09
-6.89254e-10
-5.94553e-10
-3.37287e-10
-5.03188e-10
-4.341e-10
-2.46637e-10
-1.34607e-10
-4.97014e-11
-3.5022e-11
2.70886e-13
-4.17517e-12
2.35363e-11
1.10778e-11
3.53945e-11
2.16049e-11
4.28901e-11
2.07044e-11
4.19488e-11
2.41024e-11
4.71154e-11
2.39341e-11
4.61744e-11
2.45546e-11
4.88006e-11
2.63118e-11
5.04346e-11
2.44892e-11
4.90577e-11
2.44161e-11
5.12972e-11
2.6775e-11
5.29605e-11
2.26967e-11
4.88911e-11
2.14233e-11
4.99263e-11
2.12971e-11
4.96617e-11
1.91655e-11
4.49772e-11
1.39512e-11
3.50295e-11
6.94801e-12
4.0497e-11
9.29469e-12
3.52035e-11
8.02007e-12
3.68703e-11
8.55647e-12
3.96875e-11
1.27887e-11
4.77687e-11
1.37738e-12
4.4343e-11
-5.67409e-11
1.31487e-10
8.78173e-11
-1.58159e-09
4.79278e-10
1.19946e-09
-9.61338e-10
-6.63561e-10
-2.22211e-10
-4.49633e-10
-4.32736e-10
-2.50279e-10
-1.33289e-10
-4.81641e-11
-3.53902e-11
-1.58489e-12
-6.14664e-12
2.16242e-11
9.48056e-12
3.37573e-11
2.04134e-11
4.18632e-11
1.98839e-11
4.08077e-11
2.33471e-11
4.63893e-11
2.35023e-11
4.53921e-11
2.41605e-11
4.82454e-11
2.61494e-11
5.00235e-11
2.44003e-11
4.85367e-11
2.4306e-11
5.09011e-11
2.68425e-11
5.27826e-11
2.27951e-11
4.84928e-11
2.1367e-11
4.97941e-11
2.13267e-11
4.99517e-11
1.96639e-11
4.62962e-11
1.33467e-11
3.10518e-11
4.93699e-12
4.08136e-11
9.57862e-12
3.56004e-11
7.31496e-12
3.80847e-11
6.98951e-12
4.21316e-11
9.36011e-12
5.33014e-11
-5.29604e-12
5.46384e-11
-7.10433e-11
1.52472e-10
9.27254e-11
-1.6628e-09
6.6098e-10
1.27575e-09
-1.22455e-09
-7.46536e-10
-1.08757e-10
-3.88261e-10
-4.29408e-10
-2.55008e-10
-1.3247e-10
-4.66478e-11
-3.57627e-11
-3.62232e-12
-8.30221e-12
1.94844e-11
7.73406e-12
3.19321e-11
1.9094e-11
4.06646e-11
1.89972e-11
3.95463e-11
2.25257e-11
4.55365e-11
2.30424e-11
4.45158e-11
2.37393e-11
4.76013e-11
2.59859e-11
4.95319e-11
2.43256e-11
4.79506e-11
2.42071e-11
5.04434e-11
2.69308e-11
5.25466e-11
2.29262e-11
4.80561e-11
2.13101e-11
4.96386e-11
2.13236e-11
5.03525e-11
2.01746e-11
4.86851e-11
1.2232e-11
2.55804e-11
2.57801e-12
4.12239e-11
9.83649e-12
3.6059e-11
6.48659e-12
3.93837e-11
5.27361e-12
4.46629e-11
5.8592e-12
5.86998e-11
-1.14356e-11
6.38263e-11
-8.23264e-11
1.68102e-10
1.01899e-10
-1.73548e-09
8.26968e-10
1.35448e-09
-1.46703e-09
-8.40452e-10
-2.4551e-12
-3.2085e-10
-4.23455e-10
-2.60582e-10
-1.32318e-10
-4.52634e-11
-3.61388e-11
-5.81128e-12
-1.06174e-11
1.71335e-11
5.8496e-12
2.9932e-11
1.76533e-11
3.92973e-11
1.80468e-11
3.81739e-11
2.1644e-11
4.45569e-11
2.25523e-11
4.35502e-11
2.32932e-11
4.68696e-11
2.58178e-11
4.89613e-11
2.42612e-11
4.73026e-11
2.41179e-11
4.99239e-11
2.70362e-11
5.22487e-11
2.30861e-11
4.75845e-11
2.12551e-11
4.94543e-11
2.12831e-11
5.08617e-11
2.06935e-11
5.25987e-11
1.039e-11
1.82269e-11
-1.72212e-14
4.17456e-11
1.00698e-11
3.65531e-11
5.58227e-12
4.06735e-11
3.52866e-12
4.71225e-11
2.5296e-12
6.36236e-11
-1.65927e-11
7.13479e-11
-8.99659e-11
1.77996e-10
1.14813e-10
-1.79528e-09
9.69463e-10
1.431e-09
-1.68027e-09
-9.41446e-10
9.23266e-11
-2.49527e-10
-4.14334e-10
-2.66658e-10
-1.32964e-10
-4.41254e-11
-3.65244e-11
-8.11936e-12
-1.30635e-11
1.45898e-11
3.84526e-12
2.77733e-11
1.61055e-11
3.77677e-11
1.70376e-11
3.67015e-11
2.07083e-11
4.34528e-11
2.2031e-11
4.25018e-11
2.28249e-11
4.60519e-11
2.56429e-11
4.83131e-11
2.42038e-11
4.65966e-11
2.40381e-11
4.93446e-11
2.71558e-11
5.18853e-11
2.32728e-11
4.70759e-11
2.12148e-11
4.92212e-11
2.12317e-11
5.14014e-11
2.13086e-11
5.83311e-11
7.21974e-12
8.69094e-12
-2.62055e-12
4.24253e-11
1.03187e-11
3.70662e-11
4.67067e-12
4.18825e-11
1.87792e-12
4.93539e-11
-3.95523e-13
6.77881e-11
-2.04326e-11
7.68592e-11
-9.37301e-11
1.82425e-10
1.30324e-10
-1.83898e-09
1.08401e-09
1.50046e-09
-1.85837e-09
-1.04498e-09
1.72412e-10
-1.76625e-10
-4.01698e-10
-2.72837e-10
-1.34499e-10
-4.33617e-11
-3.69365e-11
-1.05143e-11
-1.56127e-11
1.18726e-11
1.73471e-12
2.54707e-11
1.4462e-11
3.60845e-11
1.59729e-11
3.5139e-11
1.97255e-11
4.223e-11
2.14774e-11
4.13772e-11
2.23367e-11
4.51517e-11
2.5459e-11
4.759e-11
2.41508e-11
4.58377e-11
2.39679e-11
4.87072e-11
2.72878e-11
5.14551e-11
2.34866e-11
4.65269e-11
2.12029e-11
4.89213e-11
2.11989e-11
5.18875e-11
2.19836e-11
6.70151e-11
9.56049e-13
-4.07312e-12
-5.27862e-12
4.3165e-11
1.05882e-11
3.75667e-11
3.82835e-12
4.29313e-11
4.36691e-13
5.1214e-11
-2.73097e-12
7.09838e-11
-2.27478e-11
8.02223e-11
-9.37194e-11
1.82022e-10
1.47102e-10
-1.8644e-09
1.16842e-09
1.55837e-09
-1.99813e-09
-1.14638e-09
2.35841e-10
-1.04515e-10
-3.85421e-10
-2.78687e-10
-1.36974e-10
-4.31064e-11
-3.74043e-11
-1.29682e-11
-1.82386e-11
9.00078e-12
-4.71078e-13
2.30385e-11
1.27344e-11
3.42594e-11
1.48563e-11
3.34961e-11
1.87025e-11
4.0896e-11
2.0891e-11
4.01831e-11
2.18312e-11
4.41737e-11
2.52642e-11
4.67963e-11
2.41008e-11
4.50307e-11
2.39075e-11
4.80142e-11
2.74293e-11
5.09591e-11
2.37242e-11
4.59408e-11
2.12187e-11
4.85619e-11
2.11761e-11
5.23244e-11
2.20924e-11
8.12403e-11
-2.194e-12
-2.09935e-11
-8.30775e-12
4.35018e-11
1.07958e-11
3.79616e-11
3.10423e-12
4.37303e-11
-6.98647e-13
5.25835e-11
-4.33722e-12
7.30794e-11
-2.34492e-11
8.14848e-11
-9.02722e-11
1.77728e-10
1.63794e-10
-1.87034e-09
1.22263e-09
1.60084e-09
-2.0983e-09
-1.24118e-09
2.81676e-10
-3.54045e-11
-3.65574e-10
-2.83772e-10
-1.40385e-10
-4.34877e-11
-3.7966e-11
-1.54559e-11
-2.09151e-11
5.99198e-12
-2.76169e-12
2.04903e-11
1.09342e-11
3.23051e-11
1.36916e-11
3.17822e-11
1.76453e-11
3.94598e-11
2.02717e-11
3.89251e-11
2.13102e-11
4.31226e-11
2.5057e-11
4.59377e-11
2.40523e-11
4.41803e-11
2.38572e-11
4.72678e-11
2.75803e-11
5.03978e-11
2.399e-11
4.53052e-11
2.12929e-11
4.80833e-11
2.1316e-11
5.23598e-11
2.21017e-11
9.01699e-11
-2.43533e-14
-3.16019e-11
-1.03724e-11
4.3445e-11
1.10091e-11
3.82495e-11
2.57587e-12
4.42184e-11
-1.44429e-12
5.33755e-11
-5.12558e-12
7.40205e-11
-2.25492e-11
8.08486e-11
-8.38785e-11
1.70608e-10
1.7913e-10
-1.85649e-09
1.2479e-09
1.62509e-09
-2.15953e-09
-1.32557e-09
3.09911e-10
2.87348e-11
-3.42407e-10
-2.87677e-10
-1.4468e-10
-4.46176e-11
-3.86658e-11
-1.7955e-11
-2.3617e-11
2.86493e-12
-5.12747e-12
1.78402e-11
9.07155e-12
3.02337e-11
1.24828e-11
3.00066e-11
1.65599e-11
3.79301e-11
1.96199e-11
3.76111e-11
2.07763e-11
4.20056e-11
2.48363e-11
4.5019e-11
2.40042e-11
4.32906e-11
2.3818e-11
4.647e-11
2.77417e-11
4.97675e-11
2.42931e-11
4.46013e-11
2.14709e-11
4.73964e-11
2.1824e-11
5.15257e-11
2.32507e-11
8.00484e-11
4.03384e-13
-2.13579e-11
-9.33155e-12
4.32486e-11
1.13801e-11
3.84658e-11
2.33099e-12
4.43613e-11
-1.73292e-12
5.35463e-11
-5.05336e-12
7.38272e-11
-2.01541e-11
7.8612e-11
-7.51199e-11
1.61616e-10
1.92034e-10
-1.82347e-09
1.24666e-09
1.62888e-09
-2.18385e-09
-1.39619e-09
3.21301e-10
8.62316e-11
-3.16359e-10
-2.90048e-10
-1.49756e-10
-4.65903e-11
-3.95543e-11
-2.04493e-11
-2.6321e-11
-3.62048e-13
-7.55828e-12
1.51004e-11
7.15527e-12
2.80577e-11
1.12334e-11
2.81779e-11
1.54513e-11
3.63165e-11
1.89363e-11
3.62464e-11
2.02311e-11
4.08283e-11
2.4601e-11
4.4046e-11
2.39556e-11
4.23665e-11
2.37902e-11
4.56248e-11
2.79112e-11
4.9074e-11
2.4625e-11
4.3843e-11
2.17253e-11
4.65682e-11
2.25398e-11
5.02092e-11
2.43718e-11
6.43785e-11
5.49174e-12
-3.39613e-12
-6.92584e-12
4.25744e-11
1.17837e-11
3.84975e-11
2.37515e-12
4.41142e-11
-1.54037e-12
5.30759e-11
-4.13498e-12
7.25793e-11
-1.64387e-11
7.51003e-11
-6.45993e-11
1.51626e-10
2.01784e-10
-1.77227e-09
1.2218e-09
1.61093e-09
-2.17378e-09
-1.45042e-09
3.17142e-10
1.35795e-10
-2.87999e-10
-2.90632e-10
-1.55495e-10
-4.94807e-11
-4.06899e-11
-2.29326e-11
-2.9009e-11
-3.67336e-12
-1.00487e-11
1.22804e-11
5.19271e-12
2.57894e-11
9.94665e-12
2.63029e-11
1.43235e-11
3.46278e-11
1.82213e-11
3.48362e-11
1.96759e-11
3.95963e-11
2.43505e-11
4.30238e-11
2.3906e-11
4.14119e-11
2.37735e-11
4.47365e-11
2.80871e-11
4.8323e-11
2.49799e-11
4.30433e-11
2.20282e-11
4.56647e-11
2.32863e-11
4.88205e-11
2.48486e-11
5.40948e-11
1.31966e-11
9.2217e-12
-4.60489e-12
4.1425e-11
1.21872e-11
3.82943e-11
2.72318e-12
4.34617e-11
-8.60215e-13
5.1986e-11
-2.41721e-12
7.03991e-11
-1.16132e-11
7.06675e-11
-5.28754e-11
1.41362e-10
2.08036e-10
-1.70429e-09
1.17617e-09
1.57053e-09
-2.13218e-09
-1.48627e-09
2.9916e-10
1.76499e-10
-2.58004e-10
-2.89275e-10
-1.61751e-10
-5.33348e-11
-4.21316e-11
-2.54071e-11
-3.16667e-11
-7.05494e-12
-1.25939e-11
9.38777e-12
3.18936e-12
2.34411e-11
8.62554e-12
2.43871e-11
1.31792e-11
3.28734e-11
1.7475e-11
3.33844e-11
1.91111e-11
3.8315e-11
2.40846e-11
4.19584e-11
2.38547e-11
4.04299e-11
2.37677e-11
4.38076e-11
2.82697e-11
4.75177e-11
2.5361e-11
4.21973e-11
2.23921e-11
4.46679e-11
2.40867e-11
4.73181e-11
2.52556e-11
4.74286e-11
1.70795e-11
1.85051e-11
-1.73483e-12
4.02641e-11
1.27206e-11
3.78769e-11
3.40394e-12
4.24244e-11
2.95876e-13
5.03229e-11
2.14225e-14
6.74359e-11
-5.89871e-12
6.56362e-11
-4.04387e-11
1.31258e-10
2.10816e-10
-1.62101e-09
1.11222e-09
1.50787e-09
-2.06247e-09
-1.50277e-09
2.69337e-10
2.07912e-10
-2.27071e-10
-2.85927e-10
-1.68365e-10
-5.81629e-11
-4.39318e-11
-2.7879e-11
-3.42823e-11
-1.04923e-11
-1.51882e-11
6.43036e-12
1.14941e-12
2.10234e-11
7.27318e-12
2.24361e-11
1.20199e-11
3.10613e-11
1.66986e-11
3.18953e-11
1.85369e-11
3.699e-11
2.38027e-11
4.0855e-11
2.38015e-11
3.94239e-11
2.37718e-11
4.28425e-11
2.84567e-11
4.66649e-11
2.57631e-11
4.13128e-11
2.28024e-11
4.35988e-11
2.49039e-11
4.57746e-11
2.57207e-11
4.27535e-11
1.94096e-11
2.54935e-11
1.57938e-12
3.91634e-11
1.33867e-11
3.72279e-11
4.40393e-12
4.10277e-11
1.89291e-12
4.81534e-11
3.08013e-12
6.38596e-11
4.84121e-13
6.03026e-11
-2.76755e-11
1.21517e-10
2.10368e-10
-1.52402e-09
1.03237e-09
1.42379e-09
-1.96838e-09
-1.49989e-09
2.29875e-10
2.301e-10
-1.95884e-10
-2.80648e-10
-1.75184e-10
-6.39427e-11
-4.61335e-11
-3.03582e-11
-3.68487e-11
-1.3972e-11
-1.78266e-11
3.4162e-12
-9.25399e-13
1.85464e-11
5.89333e-12
2.04556e-11
1.08454e-11
2.9199e-11
1.58936e-11
3.0373e-11
1.79524e-11
3.56266e-11
2.35035e-11
3.97188e-11
2.3746e-11
3.83984e-11
2.37843e-11
4.1847e-11
2.86435e-11
4.57724e-11
2.61795e-11
4.04032e-11
2.32355e-11
4.24955e-11
2.56738e-11
4.43127e-11
2.61452e-11
3.94703e-11
2.08044e-11
3.0597e-11
5.09619e-12
3.81066e-11
1.41772e-11
3.634e-11
5.69481e-12
3.9311e-11
3.88018e-12
4.55725e-11
6.63941e-12
5.98484e-11
7.31618e-12
5.49261e-11
-1.4867e-11
1.1206e-10
2.07089e-10
-1.41482e-09
9.39027e-10
1.3201e-09
-1.85409e-09
-1.47873e-09
1.83026e-10
2.43665e-10
-1.65042e-10
-2.73589e-10
-1.82092e-10
-7.06478e-11
-4.87792e-11
-3.28639e-11
-3.93682e-11
-1.74881e-11
-2.0509e-11
3.49477e-13
-3.03875e-12
1.60157e-11
4.48849e-12
1.84503e-11
9.65283e-12
2.72906e-11
1.50607e-11
2.88207e-11
1.7355e-11
3.42292e-11
2.31849e-11
3.85535e-11
2.36876e-11
3.73579e-11
2.38029e-11
4.08267e-11
2.88253e-11
4.48462e-11
2.66058e-11
3.94787e-11
2.36762e-11
4.13789e-11
2.63791e-11
4.29606e-11
2.65017e-11
3.7193e-11
2.17167e-11
3.41738e-11
8.64646e-12
3.70915e-11
1.5102e-11
3.52331e-11
7.24301e-12
3.73318e-11
6.19707e-12
4.26899e-11
1.05739e-11
5.55885e-11
1.44028e-11
4.97194e-11
-2.12444e-12
1.02587e-10
2.01482e-10
-1.29494e-09
8.34595e-10
1.19942e-09
-1.72295e-09
-1.44117e-09
1.30698e-10
2.49508e-10
-1.3501e-10
-2.64927e-10
-1.88996e-10
-7.82553e-11
-5.19108e-11
-3.54198e-11
-4.18454e-11
-2.10402e-11
-2.32369e-11
-2.77067e-12
-5.19569e-12
1.34324e-11
3.06249e-12
1.64226e-11
8.44039e-12
2.53378e-11
1.4203e-11
2.72393e-11
1.6743e-11
3.27989e-11
2.28457e-11
3.73607e-11
2.36278e-11
3.6304e-11
2.38261e-11
3.97848e-11
2.89985e-11
4.38909e-11
2.7041e-11
3.8546e-11
2.41141e-11
4.02568e-11
2.70197e-11
4.17092e-11
2.68084e-11
3.56187e-11
2.24059e-11
3.6521e-11
1.21234e-11
3.61162e-11
1.61685e-11
3.39367e-11
9.00453e-12
3.51482e-11
8.77277e-12
3.96144e-11
1.47562e-11
5.12399e-11
2.15905e-11
4.48067e-11
1.06179e-11
9.25546e-11
1.94103e-10
-1.16574e-09
7.20802e-10
7.55021e-10
3.72317e-10
-4.025e-10
-7.53727e-10
-6.35948e-10
-4.33819e-10
-2.44065e-10
-1.42021e-10
-5.4162e-11
-3.12218e-11
8.32276e-12
4.29514e-12
3.06995e-11
1.77273e-11
4.1314e-11
2.60503e-11
4.59048e-11
2.45726e-11
4.63528e-11
2.74194e-11
4.94379e-11
2.64561e-11
4.91454e-11
2.66207e-11
5.06608e-11
2.74758e-11
5.16155e-11
2.56141e-11
5.09085e-11
2.53718e-11
5.25261e-11
2.68377e-11
5.30183e-11
2.28456e-11
5.02815e-11
2.1621e-11
5.02447e-11
2.09824e-11
4.91594e-11
1.76815e-11
4.56577e-11
1.66159e-11
4.41973e-11
1.27234e-11
3.94452e-11
7.48452e-12
3.39165e-11
8.39144e-12
3.22396e-11
1.17052e-11
3.11165e-11
2.23402e-11
2.57737e-11
2.71966e-11
-2.9657e-12
3.14778e-11
-2.15776e-11
1.98858e-11
-1.06813e-09
-2.4814e-10
7.86373e-10
3.91319e-10
-4.10399e-10
-7.60159e-10
-6.38044e-10
-4.3398e-10
-2.44264e-10
-1.42243e-10
-5.46002e-11
-3.15964e-11
7.87191e-12
4.01088e-12
3.0344e-11
1.75269e-11
4.10361e-11
2.59414e-11
4.56758e-11
2.44723e-11
4.6145e-11
2.73888e-11
4.92638e-11
2.6433e-11
4.8979e-11
2.66403e-11
5.05137e-11
2.75164e-11
5.14754e-11
2.56604e-11
5.0768e-11
2.54434e-11
5.23973e-11
2.69332e-11
5.28851e-11
2.29275e-11
5.01374e-11
2.17422e-11
5.01111e-11
2.112e-11
4.90249e-11
1.78181e-11
4.54877e-11
1.67148e-11
4.40231e-11
1.29215e-11
3.93146e-11
7.70183e-12
3.37795e-11
8.67622e-12
3.21313e-11
1.20112e-11
3.10497e-11
2.27104e-11
2.58034e-11
2.7516e-11
-2.86554e-12
3.14336e-11
-1.79686e-11
3.07151e-11
-1.08755e-09
-2.73203e-10
8.285e-10
3.97592e-10
-4.2277e-10
-7.62886e-10
-6.38783e-10
-4.33691e-10
-2.44048e-10
-1.4237e-10
-5.48632e-11
-3.21427e-11
7.38831e-12
3.48368e-12
2.9985e-11
1.70914e-11
4.07631e-11
2.56347e-11
4.55276e-11
2.41781e-11
4.59867e-11
2.71725e-11
4.91943e-11
2.6233e-11
4.89107e-11
2.64891e-11
5.04901e-11
2.73883e-11
5.1477e-11
2.55341e-11
5.07641e-11
2.53436e-11
5.24157e-11
2.68624e-11
5.29339e-11
2.28303e-11
5.01503e-11
2.1688e-11
5.01582e-11
2.10821e-11
4.90877e-11
1.77827e-11
4.54863e-11
1.65821e-11
4.40084e-11
1.29325e-11
3.9424e-11
7.77012e-12
3.38458e-11
8.81645e-12
3.22615e-11
1.21674e-11
3.11884e-11
2.29104e-11
2.61089e-11
2.76632e-11
-2.33057e-12
2.99087e-11
-1.41853e-11
4.94377e-11
-1.12098e-09
-2.91318e-10
8.72981e-10
3.76474e-10
-4.36128e-10
-7.57288e-10
-6.37803e-10
-4.32992e-10
-2.43318e-10
-1.42027e-10
-5.48174e-11
-3.26417e-11
6.82528e-12
2.81885e-12
2.95206e-11
1.65341e-11
4.03841e-11
2.5237e-11
4.53434e-11
2.37949e-11
4.57427e-11
2.68811e-11
4.91018e-11
2.5973e-11
4.8798e-11
2.62886e-11
5.0446e-11
2.72266e-11
5.14808e-11
2.5373e-11
5.07444e-11
2.52126e-11
5.24304e-11
2.67744e-11
5.30148e-11
2.27108e-11
5.01526e-11
2.16118e-11
5.02227e-11
2.10331e-11
4.91875e-11
1.77429e-11
4.54954e-11
1.63807e-11
4.39636e-11
1.28984e-11
3.96192e-11
7.83837e-12
3.39634e-11
8.93041e-12
3.25181e-11
1.22413e-11
3.15042e-11
2.29006e-11
2.69021e-11
2.72146e-11
-7.1414e-13
2.56557e-11
-6.06242e-12
6.76098e-11
-1.16403e-09
-2.87198e-10
9.12391e-10
3.13972e-10
-4.48128e-10
-7.35739e-10
-6.33486e-10
-4.3227e-10
-2.42317e-10
-1.41158e-10
-5.44099e-11
-3.30472e-11
6.15491e-12
2.02837e-12
2.89092e-11
1.58559e-11
3.98543e-11
2.47569e-11
4.50798e-11
2.33379e-11
4.53693e-11
2.6526e-11
4.89442e-11
2.56761e-11
4.85935e-11
2.60583e-11
5.03397e-11
2.70553e-11
5.14412e-11
2.52076e-11
5.066e-11
2.50771e-11
5.23938e-11
2.67067e-11
5.30811e-11
2.26096e-11
5.00911e-11
2.15492e-11
5.02551e-11
2.10123e-11
4.9278e-11
1.77474e-11
4.54787e-11
1.61646e-11
4.37982e-11
1.28447e-11
3.98476e-11
7.95868e-12
3.4081e-11
9.02067e-12
3.28721e-11
1.2204e-11
3.20252e-11
2.2573e-11
2.83152e-11
2.58652e-11
2.4288e-12
1.82162e-11
7.69821e-12
8.08666e-11
-1.21408e-09
-2.48365e-10
9.47293e-10
2.01702e-10
-4.60292e-10
-6.94259e-10
-6.23972e-10
-4.31935e-10
-2.41416e-10
-1.39867e-10
-5.36991e-11
-3.33833e-11
5.34543e-12
1.09039e-12
2.8133e-11
1.50484e-11
3.91641e-11
2.4183e-11
4.47272e-11
2.28163e-11
4.48634e-11
2.6106e-11
4.87122e-11
2.53477e-11
4.82934e-11
2.57968e-11
5.01651e-11
2.68777e-11
5.135e-11
2.50432e-11
5.05015e-11
2.49402e-11
5.22985e-11
2.66612e-11
5.31187e-11
2.25366e-11
4.99543e-11
2.15016e-11
5.02433e-11
2.10262e-11
4.93479e-11
1.78135e-11
4.54356e-11
1.59379e-11
4.34665e-11
1.27557e-11
4.00935e-11
8.13118e-12
3.42033e-11
9.06157e-12
3.3339e-11
1.19957e-11
3.28119e-11
2.17772e-11
3.05108e-11
2.33436e-11
7.50992e-12
7.31843e-12
2.73786e-11
8.79665e-11
-1.27245e-09
-1.68e-10
9.8217e-10
3.74148e-11
-4.76991e-10
-6.31284e-10
-6.07378e-10
-4.32097e-10
-2.40964e-10
-1.38279e-10
-5.27228e-11
-3.36873e-11
4.36076e-12
-2.58751e-14
2.71659e-11
1.41007e-11
3.83044e-11
2.35045e-11
4.42758e-11
2.22359e-11
4.42285e-11
2.5621e-11
4.84021e-11
2.49972e-11
4.78986e-11
2.55076e-11
4.99215e-11
2.66997e-11
5.12014e-11
2.48884e-11
5.02672e-11
2.48074e-11
5.21404e-11
2.6642e-11
5.31199e-11
2.25024e-11
4.97411e-11
2.14736e-11
5.01803e-11
2.10817e-11
4.93922e-11
1.79515e-11
4.5383e-11
1.56977e-11
4.29299e-11
1.26166e-11
4.0362e-11
8.35046e-12
3.43457e-11
9.0106e-12
3.3942e-11
1.15509e-11
3.39351e-11
2.04015e-11
3.36041e-11
1.94767e-11
1.46554e-11
-6.7105e-12
5.20494e-11
8.97337e-11
-1.34014e-09
-4.56003e-11
1.02181e-09
-1.73424e-10
-5.02569e-10
-5.48047e-10
-5.82202e-10
-4.3263e-10
-2.41255e-10
-1.36509e-10
-5.15212e-11
-3.3988e-11
3.17328e-12
-1.35179e-12
2.59762e-11
1.29986e-11
3.72579e-11
2.27081e-11
4.37033e-11
2.15971e-11
4.34647e-11
2.50692e-11
4.80026e-11
2.4629e-11
4.74089e-11
2.51948e-11
4.96054e-11
2.65266e-11
5.0991e-11
2.47512e-11
4.99572e-11
2.46852e-11
5.19179e-11
2.6655e-11
5.30738e-11
2.25163e-11
4.94515e-11
2.14667e-11
5.00635e-11
2.11811e-11
4.94115e-11
1.81667e-11
4.53521e-11
1.54298e-11
4.21659e-11
1.24099e-11
4.06571e-11
8.59926e-12
3.4532e-11
8.82907e-12
3.47085e-11
1.08158e-11
3.54402e-11
1.83822e-11
3.76019e-11
1.43369e-11
2.36308e-11
-2.29048e-11
7.94792e-11
8.86023e-11
-1.41633e-09
1.11168e-10
1.07062e-09
-4.19591e-10
-5.40905e-10
-4.48382e-10
-5.47479e-10
-4.33123e-10
-2.42538e-10
-1.34702e-10
-5.01371e-11
-3.43003e-11
1.75813e-12
-2.89685e-12
2.45489e-11
1.17308e-11
3.60139e-11
2.17805e-11
4.29868e-11
2.08964e-11
4.25688e-11
2.44483e-11
4.74985e-11
2.42424e-11
4.68213e-11
2.48598e-11
4.92119e-11
2.63596e-11
5.0712e-11
2.46365e-11
4.95709e-11
2.45785e-11
5.16304e-11
2.67024e-11
5.29736e-11
2.25828e-11
4.90918e-11
2.14828e-11
4.98922e-11
2.13243e-11
4.94125e-11
1.84565e-11
4.53786e-11
1.51165e-11
4.11523e-11
1.21347e-11
4.09906e-11
8.85448e-12
3.47872e-11
8.48906e-12
3.56511e-11
9.77721e-12
3.7332e-11
1.57473e-11
4.2382e-11
8.19596e-12
3.38494e-11
-3.99159e-11
1.07031e-10
8.74716e-11
-1.49877e-09
2.89516e-10
1.13029e-09
-6.87056e-10
-5.94319e-10
-3.37797e-10
-5.03049e-10
-4.33017e-10
-2.44966e-10
-1.33026e-10
-4.86163e-11
-3.46259e-11
1.24603e-13
-4.65591e-12
2.28804e-11
1.02988e-11
3.45719e-11
2.07214e-11
4.21115e-11
2.01302e-11
4.15431e-11
2.37567e-11
4.68785e-11
2.38344e-11
4.61347e-11
2.4501e-11
4.8735e-11
2.62002e-11
5.03572e-11
2.45417e-11
4.91093e-11
2.44867e-11
5.12775e-11
2.67834e-11
5.28131e-11
2.27018e-11
4.86681e-11
2.15214e-11
4.96674e-11
2.15084e-11
4.93925e-11
1.8819e-11
4.55023e-11
1.47314e-11
3.98759e-11
1.1786e-11
4.13708e-11
9.09528e-12
3.51314e-11
7.981e-12
3.67643e-11
8.45287e-12
3.95638e-11
1.26211e-11
4.77009e-11
1.51837e-12
4.45325e-11
-5.62558e-11
1.32242e-10
8.86506e-11
-1.58326e-09
4.76332e-10
1.1999e-09
-9.5951e-10
-6.63372e-10
-2.22732e-10
-4.49523e-10
-4.31646e-10
-2.48577e-10
-1.31664e-10
-4.70371e-11
-3.49596e-11
-1.71245e-12
-6.61561e-12
2.09766e-11
8.71046e-12
3.29381e-11
1.95312e-11
4.10711e-11
1.92995e-11
4.03908e-11
2.29961e-11
4.61361e-11
2.34019e-11
4.53495e-11
2.41172e-11
4.81706e-11
2.6044e-11
4.99228e-11
2.44652e-11
4.85749e-11
2.44102e-11
5.08584e-11
2.68951e-11
5.25877e-11
2.28675e-11
4.81887e-11
2.15813e-11
4.93902e-11
2.17276e-11
4.93553e-11
1.92463e-11
4.57591e-11
1.42467e-11
3.83417e-11
1.13643e-11
4.17991e-11
9.30992e-12
3.55633e-11
7.3179e-12
3.80101e-11
6.898e-12
4.20273e-11
9.1913e-12
5.32354e-11
-5.16821e-12
5.48508e-11
-7.05964e-11
1.53245e-10
9.35635e-11
-1.66444e-09
6.58468e-10
1.27623e-09
-1.22312e-09
-7.46418e-10
-1.09275e-10
-3.88191e-10
-4.28326e-10
-2.53285e-10
-1.30808e-10
-4.54844e-11
-3.52989e-11
-3.73018e-12
-8.75745e-12
1.88476e-11
6.97612e-12
3.1119e-11
1.82168e-11
3.98627e-11
1.84054e-11
3.91186e-11
2.21712e-11
4.52669e-11
2.29412e-11
4.44682e-11
2.3708e-11
4.75164e-11
2.58887e-11
4.94066e-11
2.44034e-11
4.79715e-11
2.43467e-11
5.0374e-11
2.70318e-11
5.22983e-11
2.30733e-11
4.76592e-11
2.16575e-11
4.90598e-11
2.19732e-11
4.93003e-11
1.97204e-11
4.61835e-11
1.366e-11
3.65607e-11
1.08867e-11
4.22683e-11
9.49167e-12
3.60669e-11
6.53759e-12
3.93432e-11
5.19666e-12
4.45791e-11
5.68993e-12
5.86372e-11
-1.13213e-11
6.40656e-11
-8.19096e-11
1.6889e-10
1.02722e-10
-1.73715e-09
8.24921e-10
1.35511e-09
-1.46599e-09
-8.40438e-10
-2.95781e-12
-3.20824e-10
-4.22397e-10
-2.58848e-10
-1.30628e-10
-4.40695e-11
-3.56443e-11
-5.89937e-12
-1.10574e-11
1.65086e-11
5.10674e-12
2.91275e-11
1.67848e-11
3.84889e-11
1.74511e-11
3.77363e-11
2.1288e-11
4.42716e-11
2.24506e-11
4.3496e-11
2.32743e-11
4.67737e-11
2.57304e-11
4.88107e-11
2.43519e-11
4.73034e-11
2.42932e-11
4.98258e-11
2.71877e-11
5.19442e-11
2.33118e-11
4.70874e-11
2.17472e-11
4.86784e-11
2.22389e-11
4.92203e-11
2.02229e-11
4.67869e-11
1.29888e-11
3.45686e-11
1.03766e-11
4.27556e-11
9.64462e-12
3.6616e-11
5.68634e-12
4.06709e-11
3.46768e-12
4.70603e-11
2.36142e-12
6.35651e-11
-1.64916e-11
7.16153e-11
-8.95707e-11
1.788e-10
1.15608e-10
-1.79704e-09
9.67886e-10
1.43189e-09
-1.67961e-09
-9.41572e-10
9.18478e-11
-2.49541e-10
-4.13311e-10
-2.64925e-10
-1.31254e-10
-4.29081e-11
-3.60031e-11
-8.18907e-12
-1.34882e-11
1.39771e-11
3.11912e-12
2.69785e-11
1.52481e-11
3.6956e-11
1.64405e-11
3.62555e-11
2.03526e-11
4.31526e-11
2.1929e-11
4.24397e-11
2.28185e-11
4.59448e-11
2.55661e-11
4.8138e-11
2.43067e-11
4.65759e-11
2.42479e-11
4.92179e-11
2.7357e-11
5.15265e-11
2.35751e-11
4.64807e-11
2.18498e-11
4.82465e-11
2.25197e-11
4.91031e-11
2.07337e-11
4.75442e-11
1.22968e-11
3.24507e-11
9.86485e-12
4.32264e-11
9.78439e-12
3.71758e-11
4.82382e-12
4.19155e-11
1.83235e-12
4.93129e-11
-5.61535e-13
6.77353e-11
-2.0344e-11
7.71543e-11
-9.33475e-11
1.83249e-10
1.31079e-10
-1.84091e-09
1.08289e-09
1.50165e-09
-1.85805e-09
-1.04525e-09
1.7197e-10
-1.76673e-10
-4.0072e-10
-2.71118e-10
-1.3278e-10
-4.21288e-11
-3.63929e-11
-1.05673e-11
-1.60224e-11
1.12721e-11
1.02537e-12
2.4687e-11
1.36179e-11
3.52724e-11
1.5377e-11
3.46862e-11
1.93718e-11
4.19165e-11
2.13752e-11
4.13063e-11
2.23421e-11
4.50338e-11
2.53927e-11
4.73921e-11
2.42644e-11
4.57955e-11
2.4209e-11
4.85544e-11
2.75345e-11
5.10479e-11
2.38571e-11
4.58447e-11
2.19649e-11
4.77647e-11
2.28126e-11
4.89308e-11
2.12258e-11
4.8355e-11
1.17038e-11
3.03815e-11
9.38923e-12
4.36327e-11
9.93059e-12
3.77039e-11
4.02093e-12
4.29948e-11
4.04148e-13
5.11918e-11
-2.89485e-12
7.09361e-11
-2.26706e-11
8.05415e-11
-9.33395e-11
1.82866e-10
1.47816e-10
-1.86651e-09
1.16773e-09
1.55985e-09
-1.99807e-09