/*--------------------------------*- C++ -*----------------------------------*\
| =========                 |                                                 |
| \\      /  F ield         | OpenFOAM: The Open Source CFD Toolbox           |
|  \\    /   O peration     | Version:  2312                                  |
|   \\  /    A nd           | Website:  www.openfoam.com                      |
|    \\/     M anipulation  |                                                 |
\*---------------------------------------------------------------------------*/
FoamFile
{
    version     2.0;
    format      ascii;
    arch        "LSB;label=32;scalar=64";
    class       volScalarField;
    location    "320";
    object      p;
}
// * * * * * * * * * * * * * * * * * * * * * * * * * * * * * * * * * * * * * //

dimensions      [0 2 -2 0 0 0 0];

internalField   nonuniform List<scalar> 
144000
(
4.98447e-10
3.02346e-10
-2.7026e-10
-6.16115e-10
-5.41189e-10
-3.78088e-10
-2.09209e-10
-1.21507e-10
-4.14206e-11
-2.33566e-11
1.51475e-11
1.05282e-11
3.74077e-11
2.49843e-11
4.99157e-11
3.56485e-11
5.6393e-11
3.58196e-11
5.86836e-11
4.12098e-11
6.28721e-11
4.13971e-11
6.30726e-11
4.27534e-11
6.49049e-11
4.42955e-11
6.57872e-11
4.25634e-11
6.49733e-11
4.26323e-11
6.60748e-11
4.38037e-11
6.46945e-11
3.83377e-11
5.97481e-11
3.56628e-11
5.69135e-11
3.30346e-11
5.22728e-11
2.71281e-11
4.48822e-11
2.32763e-11
4.01787e-11
1.71733e-11
3.2421e-11
1.09135e-11
2.55262e-11
1.18782e-11
2.24522e-11
1.4543e-11
1.98067e-11
2.31821e-11
1.02226e-11
1.74573e-11
-2.90801e-11
-3.33331e-13
-7.83979e-11
-1.67608e-10
-9.14123e-10
-1.9833e-10
5.27119e-10
3.1689e-10
-2.77435e-10
-6.22084e-10
-5.43674e-10
-3.78353e-10
-2.09365e-10
-1.21545e-10
-4.17154e-11
-2.35544e-11
1.4804e-11
1.03741e-11
3.71225e-11
2.48792e-11
4.9696e-11
3.56148e-11
5.62024e-11
3.57794e-11
5.85002e-11
4.12381e-11
6.27017e-11
4.14232e-11
6.29084e-11
4.28169e-11
6.47598e-11
4.43694e-11
6.56454e-11
4.2628e-11
6.48375e-11
4.27204e-11
6.59544e-11
4.39172e-11
6.4565e-11
3.84293e-11
5.9619e-11
3.57883e-11
5.67999e-11
3.31674e-11
5.2162e-11
2.72384e-11
4.47008e-11
2.32795e-11
3.99601e-11
1.73143e-11
3.23424e-11
1.10819e-11
2.5468e-11
1.20934e-11
2.24454e-11
1.47515e-11
1.98883e-11
2.34309e-11
1.04727e-11
1.76019e-11
-2.86311e-11
-7.91765e-14
-7.4269e-11
-1.61088e-10
-9.33519e-10
-2.15235e-10
5.62576e-10
3.28557e-10
-2.86049e-10
-6.28073e-10
-5.46615e-10
-3.78854e-10
-2.09411e-10
-1.2164e-10
-4.18746e-11
-2.38918e-11
1.44895e-11
1.00371e-11
3.68891e-11
2.45851e-11
4.95296e-11
3.54244e-11
5.61328e-11
3.55776e-11
5.83899e-11
4.11159e-11
6.2643e-11
4.13011e-11
6.28373e-11
4.27422e-11
6.47249e-11
4.43042e-11
6.56349e-11
4.2546e-11
6.48257e-11
4.26645e-11
6.59634e-11
4.38936e-11
6.45944e-11
3.83775e-11
5.96204e-11
3.57782e-11
5.68321e-11
3.31699e-11
5.22076e-11
2.72399e-11
4.4623e-11
2.30872e-11
3.97874e-11
1.72727e-11
3.24453e-11
1.11702e-11
2.55576e-11
1.22371e-11
2.26141e-11
1.48931e-11
2.00957e-11
2.36197e-11
1.08875e-11
1.77878e-11
-2.80481e-11
-5.57754e-13
-6.97653e-11
-1.46605e-10
-9.62865e-10
-2.33227e-10
6.01741e-10
3.32152e-10
-2.94585e-10
-6.32236e-10
-5.50311e-10
-3.79604e-10
-2.09346e-10
-1.21573e-10
-4.18877e-11
-2.42367e-11
1.41195e-11
9.60487e-12
3.66079e-11
2.42077e-11
4.9315e-11
3.51763e-11
5.60886e-11
3.53152e-11
5.8243e-11
4.09432e-11
6.25975e-11
4.11368e-11
6.27496e-11
4.26309e-11
6.46985e-11
4.42092e-11
6.56543e-11
4.24261e-11
6.48272e-11
4.25686e-11
6.59983e-11
4.38441e-11
6.46838e-11
3.82895e-11
5.96427e-11
3.57299e-11
5.69161e-11
3.31409e-11
5.23268e-11
2.72348e-11
4.45711e-11
2.27966e-11
3.95553e-11
1.70753e-11
3.26635e-11
1.12322e-11
2.57529e-11
1.23168e-11
2.2962e-11
1.49259e-11
2.0515e-11
2.36294e-11
1.1734e-11
1.76062e-11
-2.68902e-11
-2.45354e-12
-6.26389e-11
-1.27019e-10
-9.99718e-10
-2.47374e-10
6.38807e-10
3.18334e-10
-3.01454e-10
-6.29974e-10
-5.53401e-10
-3.80536e-10
-2.09175e-10
-1.21269e-10
-4.17433e-11
-2.45763e-11
1.36251e-11
9.05103e-12
3.62087e-11
2.37246e-11
4.89887e-11
3.48705e-11
5.60166e-11
3.50018e-11
5.80073e-11
4.07307e-11
6.25234e-11
4.09504e-11
6.26001e-11
4.25e-11
6.46416e-11
4.4108e-11
6.56667e-11
4.22955e-11
6.48004e-11
4.24567e-11
6.60219e-11
4.37969e-11
6.48001e-11
3.81949e-11
5.96481e-11
3.56638e-11
5.70229e-11
3.31024e-11
5.24994e-11
2.72568e-11
4.45318e-11
2.24755e-11
3.91982e-11
1.66883e-11
3.29734e-11
1.12771e-11
2.60416e-11
1.23029e-11
2.35024e-11
1.47871e-11
2.11984e-11
2.33325e-11
1.31393e-11
1.68073e-11
-2.48271e-11
-6.25734e-12
-5.21933e-11
-1.05323e-10
-1.04186e-09
-2.49044e-10
6.71728e-10
2.75928e-10
-3.07318e-10
-6.16749e-10
-5.54239e-10
-3.81546e-10
-2.0892e-10
-1.20667e-10
-4.13963e-11
-2.48988e-11
1.2984e-11
8.34577e-12
3.56575e-11
2.31117e-11
4.852e-11
3.44709e-11
5.58894e-11
3.46284e-11
5.76629e-11
4.04618e-11
6.2403e-11
4.0737e-11
6.23743e-11
4.23389e-11
6.4543e-11
4.39955e-11
6.56614e-11
4.2154e-11
6.47349e-11
4.2325e-11
6.60261e-11
4.37486e-11
6.4936e-11
3.8096e-11
5.96309e-11
3.55707e-11
5.71511e-11
3.30466e-11
5.27313e-11
2.73131e-11
4.45286e-11
2.21328e-11
3.86628e-11
1.60532e-11
3.3375e-11
1.12931e-11
2.64342e-11
1.21454e-11
2.42603e-11
1.44055e-11
2.22087e-11
2.25964e-11
1.5235e-11
1.5144e-11
-2.15226e-11
-1.24071e-11
-3.79724e-11
-8.38595e-11
-1.0892e-09
-2.28336e-10
7.02745e-10
1.95399e-10
-3.15298e-10
-5.88802e-10
-5.50448e-10
-3.82546e-10
-2.08659e-10
-1.19718e-10
-4.07947e-11
-2.51773e-11
1.21971e-11
7.47892e-12
3.4938e-11
2.23591e-11
4.78929e-11
3.39619e-11
5.56836e-11
3.41901e-11
5.71989e-11
4.01216e-11
6.22198e-11
4.04919e-11
6.20629e-11
4.21371e-11
6.43938e-11
4.38649e-11
6.56285e-11
4.20001e-11
6.46244e-11
4.21684e-11
6.60054e-11
4.36936e-11
6.50832e-11
3.79935e-11
5.95905e-11
3.54403e-11
5.73014e-11
3.29627e-11
5.3032e-11
2.74021e-11
4.46194e-11
2.17686e-11
3.78619e-11
1.51075e-11
3.38749e-11
1.12637e-11
2.69496e-11
1.17926e-11
2.52653e-11
1.37093e-11
2.36175e-11
2.12874e-11
1.81563e-11
1.23887e-11
-1.66684e-11
-2.11839e-11
-1.97748e-11
-6.39156e-11
-1.1436e-09
-1.77479e-10
7.36754e-10
7.04487e-11
-3.29924e-10
-5.43515e-10
-5.39972e-10
-3.83435e-10
-2.08539e-10
-1.18406e-10
-3.98982e-11
-2.53837e-11
1.12716e-11
6.45189e-12
3.40418e-11
2.14661e-11
4.70996e-11
3.33339e-11
5.53768e-11
3.36875e-11
5.66093e-11
3.97024e-11
6.19567e-11
4.02135e-11
6.16587e-11
4.18886e-11
6.41845e-11
4.37135e-11
6.55557e-11
4.18345e-11
6.44624e-11
4.19858e-11
6.59532e-11
4.36298e-11
6.523e-11
3.78892e-11
5.95261e-11
3.52656e-11
5.74721e-11
3.28403e-11
5.34126e-11
2.75166e-11
4.49001e-11
2.13444e-11
3.66612e-11
1.37932e-11
3.44847e-11
1.11715e-11
2.76097e-11
1.11961e-11
2.65457e-11
1.26331e-11
2.5495e-11
1.92916e-11
2.20087e-11
8.39364e-12
-1.00739e-11
-3.26055e-11
2.0873e-12
-4.57111e-11
-1.20746e-09
-9.23238e-11
7.80348e-10
-1.01413e-10
-3.56638e-10
-4.79783e-10
-5.20791e-10
-3.83995e-10
-2.08758e-10
-1.16753e-10
-3.86845e-11
-2.54968e-11
1.02151e-11
5.27039e-12
3.29653e-11
2.04372e-11
4.61379e-11
3.25832e-11
5.49509e-11
3.31232e-11
5.58928e-11
3.92014e-11
6.1599e-11
3.99017e-11
6.11579e-11
4.15905e-11
6.39066e-11
4.35404e-11
6.54321e-11
4.16581e-11
6.42441e-11
4.17774e-11
6.58632e-11
4.35564e-11
6.53645e-11
3.77841e-11
5.94382e-11
3.50419e-11
5.76617e-11
3.26677e-11
5.38887e-11
2.76413e-11
4.55154e-11
2.08055e-11
3.48719e-11
1.20543e-11
3.52226e-11
1.09993e-11
2.84361e-11
1.03188e-11
2.81216e-11
1.11299e-11
2.78894e-11
1.65394e-11
2.683e-11
3.12959e-12
-1.73412e-12
-4.63675e-11
2.68752e-11
-2.87005e-11
-1.28307e-09
2.76886e-11
8.39137e-10
-3.18706e-10
-4.00301e-10
-3.9801e-10
-4.91211e-10
-3.83918e-10
-2.09549e-10
-1.14834e-10
-3.71525e-11
-2.55033e-11
9.03435e-12
3.94089e-12
3.17072e-11
1.92783e-11
4.50096e-11
3.17098e-11
5.43913e-11
3.25001e-11
5.50525e-11
3.86189e-11
6.11351e-11
3.95563e-11
6.05604e-11
4.12423e-11
6.35539e-11
4.33451e-11
6.52487e-11
4.14716e-11
6.39677e-11
4.15447e-11
6.57308e-11
4.34729e-11
6.5476e-11
3.76786e-11
5.93293e-11
3.47664e-11
5.7868e-11
3.24328e-11
5.44793e-11
2.77603e-11
4.66563e-11
2.00584e-11
3.22535e-11
9.85228e-12
3.61096e-11
1.07334e-11
2.94439e-11
9.1425e-12
2.99951e-11
9.1829e-12
3.08043e-11
1.30346e-11
3.2569e-11
-3.29369e-12
8.15206e-12
-6.18531e-11
5.33307e-11
-1.18204e-11
-1.37108e-09
1.79536e-10
9.1714e-10
-5.7562e-10
-4.64653e-10
-3.00314e-10
-4.5015e-10
-3.82781e-10
-2.11138e-10
-1.12781e-10
-3.53262e-11
-2.53986e-11
7.73497e-12
2.46915e-12
3.02668e-11
1.79943e-11
4.37171e-11
3.0716e-11
5.36869e-11
3.18199e-11
5.40931e-11
3.79569e-11
6.05568e-11
3.91767e-11
5.98687e-11
4.08445e-11
6.31221e-11
4.31273e-11
6.49995e-11
4.12754e-11
6.36331e-11
4.12896e-11
6.55522e-11
4.33793e-11
6.55555e-11
3.75727e-11
5.92015e-11
3.44398e-11
5.80872e-11
3.21251e-11
5.52055e-11
2.78578e-11
4.85719e-11
1.88964e-11
2.85071e-11
7.17764e-12
3.71609e-11
1.03634e-11
3.06328e-11
7.67366e-12
3.21456e-11
6.80982e-12
3.4199e-11
8.85519e-12
3.90743e-11
-1.0621e-11
1.91848e-11
-7.81998e-11
7.9969e-11
6.20523e-12
-1.47048e-09
3.56716e-10
1.01566e-09
-8.62663e-10
-5.51484e-10
-1.9024e-10
-3.97281e-10
-3.80076e-10
-2.13706e-10
-1.10776e-10
-3.32592e-11
-2.51863e-11
6.32218e-12
8.60301e-13
2.8644e-11
1.65889e-11
4.22635e-11
2.96048e-11
5.28296e-11
3.10829e-11
5.30206e-11
3.72188e-11
5.98582e-11
3.87611e-11
5.90863e-11
4.03987e-11
6.26084e-11
4.28869e-11
6.46801e-11
4.10695e-11
6.32413e-11
4.1015e-11
6.53243e-11
4.32762e-11
6.55957e-11
3.7467e-11
5.90559e-11
3.40663e-11
5.83133e-11
3.17354e-11
5.60887e-11
2.79101e-11
5.16942e-11
1.71369e-11
2.32077e-11
4.05071e-12
3.83731e-11
9.88008e-12
3.19809e-11
5.94071e-12
3.45316e-11
4.0633e-12
3.79792e-11
4.15441e-12
4.61037e-11
-1.84722e-11
3.08134e-11
-9.43941e-11
1.05165e-10
2.64582e-11
-1.57833e-09
5.50795e-10
1.13449e-09
-1.16808e-09
-6.61077e-10
-7.24596e-11
-3.32802e-10
-3.7516e-10
-2.1732e-10
-1.09031e-10
-3.10314e-11
-2.48738e-11
4.8048e-12
-8.78242e-13
2.68408e-11
1.50662e-11
4.0653e-11
2.83807e-11
5.18147e-11
3.02888e-11
5.18415e-11
3.64084e-11
5.90364e-11
3.83072e-11
5.82174e-11
3.99054e-11
6.20111e-11
4.26238e-11
6.42886e-11
4.0854e-11
6.27937e-11
4.07243e-11
6.50444e-11
4.31651e-11
6.55898e-11
3.73636e-11
5.8891e-11
3.3656e-11
5.85336e-11
3.12668e-11
5.71199e-11
2.79287e-11
5.64811e-11
1.4571e-11
1.59478e-11
6.05441e-13
3.97586e-11
9.29729e-12
3.34535e-11
3.99453e-12
3.70559e-11
1.05106e-12
4.19985e-11
-8.51999e-13
5.3342e-11
-2.63844e-11
4.23974e-11
-1.09399e-10
1.27605e-10
4.95875e-11
-1.69119e-09
7.51586e-10
1.27086e-09
-1.48002e-09
-7.91802e-10
4.76138e-11
-2.57748e-10
-3.67385e-10
-2.21932e-10
-1.07772e-10
-2.87528e-11
-2.4474e-11
3.19615e-12
-2.73611e-12
2.48619e-11
1.34312e-11
3.8892e-11
2.70496e-11
5.06406e-11
2.94367e-11
5.05633e-11
3.55307e-11
5.80906e-11
3.78122e-11
5.72674e-11
3.93715e-11
6.13298e-11
4.23376e-11
6.38237e-11
4.06292e-11
6.22921e-11
4.04222e-11
6.47098e-11
4.30484e-11
6.553e-11
3.72673e-11
5.86995e-11
3.32302e-11
5.87194e-11
3.07567e-11
5.82093e-11
2.80216e-11
6.32365e-11
1.03458e-11
6.37603e-12
-2.88855e-12
4.136e-11
8.67617e-12
3.50213e-11
1.91995e-12
3.96343e-11
-2.07245e-12
4.60714e-11
-5.90067e-12
6.04297e-11
-3.38569e-11
5.32773e-11
-1.22253e-10
1.46203e-10
7.56636e-11
-1.80432e-09
9.47957e-10
1.41963e-09
-1.78282e-09
-9.40356e-10
1.64015e-10
-1.74112e-10
-3.56168e-10
-2.27373e-10
-1.07232e-10
-2.65674e-11
-2.40088e-11
1.51189e-12
-4.70122e-12
2.27135e-11
1.16889e-11
3.69876e-11
2.56184e-11
4.93089e-11
2.85263e-11
4.91932e-11
3.45911e-11
5.70227e-11
3.72741e-11
5.62411e-11
3.87988e-11
6.05648e-11
4.20284e-11
6.32851e-11
4.03958e-11
6.17378e-11
4.01137e-11
6.43174e-11
4.29296e-11
6.54089e-11
3.71845e-11
5.84718e-11
3.28127e-11
5.88411e-11
3.02498e-11
5.92502e-11
2.81707e-11
7.31547e-11
2.79777e-12
-6.7958e-12
-6.48577e-12
4.30651e-11
8.04703e-12
3.66367e-11
-1.78018e-13
4.21509e-11
-5.15418e-12
4.99901e-11
-1.07036e-11
6.6994e-11
-4.04004e-11
6.28406e-11
-1.32172e-10
1.60285e-10
1.04227e-10
-1.91184e-09
1.13062e-09
1.57306e-09
-2.06285e-09
-1.10132e-09
2.71055e-10
-8.46023e-11
-3.41035e-10
-2.33343e-10
-1.0763e-10
-2.4651e-11
-2.35131e-11
-2.32186e-13
-6.76131e-12
2.04015e-11
9.84301e-12
3.49464e-11
2.40938e-11
4.78238e-11
2.75572e-11
4.77381e-11
3.35954e-11
5.58359e-11
3.66907e-11
5.51429e-11
3.81915e-11
5.97175e-11
4.16965e-11
6.26731e-11
4.01553e-11
6.11322e-11
3.98043e-11
6.38646e-11
4.28122e-11
6.52213e-11
3.71195e-11
5.82031e-11
3.24154e-11
5.88932e-11
2.97535e-11
6.02253e-11
2.78681e-11
8.95507e-11
-1.40154e-12
-2.45214e-11
-1.05068e-11
4.43761e-11
7.35405e-12
3.81761e-11
-2.20603e-12
4.44634e-11
-8.03172e-12
5.3539e-11
-1.49706e-11
7.2681e-11
-4.55732e-11
7.0585e-11
-1.38605e-10
1.6954e-10
1.3436e-10
-2.00719e-09
1.29077e-09
1.72246e-09
-2.30936e-09
-1.26784e-09
3.63758e-10
7.71011e-12
-3.21613e-10
-2.39394e-10
-1.09131e-10
-2.31938e-11
-2.30298e-11
-2.01735e-12
-8.90092e-12
1.79339e-11
7.89784e-12
3.27754e-11
2.2483e-11
4.61917e-11
2.65299e-11
4.62045e-11
3.25496e-11
5.45357e-11
3.60609e-11
5.39768e-11
3.75538e-11
5.87895e-11
4.13427e-11
6.19892e-11
3.99097e-11
6.04755e-11
3.94995e-11
6.33482e-11
4.27012e-11
6.49602e-11
3.70833e-11
5.78743e-11
3.20792e-11
5.88061e-11
2.94344e-11
6.07742e-11
2.7478e-11
1.00455e-10
-1.92938e-14
-3.63601e-11
-1.35644e-11
4.52286e-11
6.67661e-12
3.95919e-11
-4.03568e-12
4.64454e-11
-1.05449e-11
5.65101e-11
-1.84388e-11
7.71854e-11
-4.90288e-11
7.61692e-11
-1.4129e-10
1.74129e-10
1.648e-10
-2.08474e-09
1.4216e-09
1.8587e-09
-2.51329e-09
-1.43222e-09
4.38124e-10
9.94767e-11
-2.97743e-10
-2.44996e-10
-1.1184e-10
-2.23949e-11
-2.26127e-11
-3.82405e-12
-1.11018e-11
1.53203e-11
5.85846e-12
3.04835e-11
2.07941e-11
4.44203e-11
2.54456e-11
4.45993e-11
3.14598e-11
5.31281e-11
3.53843e-11
5.27469e-11
3.68906e-11
5.77835e-11
4.09681e-11
6.12346e-11
3.96613e-11
5.9768e-11
3.9206e-11
6.27653e-11
4.2603e-11
6.46161e-11
3.70913e-11
5.7459e-11
3.18612e-11
5.84785e-11
2.95222e-11
6.03754e-11
2.81219e-11
8.95133e-11
6.2198e-13
-2.35339e-11
-1.34647e-11
4.58698e-11
6.17496e-12
4.08726e-11
-5.52614e-12
4.79936e-11
-1.25122e-11
5.87245e-11
-2.08937e-11
8.02772e-11
-5.05438e-11
7.94279e-11
-1.40209e-10
1.74538e-10
1.94049e-10
-2.13986e-09
1.51866e-09
1.97313e-09
-2.66794e-09
-1.58659e-09
4.91254e-10
1.87245e-10
-2.69532e-10
-2.49612e-10
-1.15806e-10
-2.24519e-11
-2.23281e-11
-5.63568e-12
-1.33443e-11
1.25721e-11
3.72987e-12
2.8079e-11
1.90349e-11
4.25192e-11
2.43066e-11
4.29284e-11
3.03321e-11
5.16206e-11
3.46617e-11
5.14568e-11
3.62065e-11
5.67028e-11
4.05743e-11
6.04113e-11
3.9413e-11
5.90108e-11
3.89289e-11
6.21152e-11
4.25202e-11
6.41884e-11
3.71428e-11
5.6963e-11
3.17449e-11
5.79652e-11
2.98631e-11
5.93953e-11
2.87958e-11
7.27046e-11
5.95596e-12
-3.03856e-12
-1.18425e-11
4.58541e-11
5.78936e-12
4.18807e-11
-6.61186e-12
4.89989e-11
-1.38117e-11
6.0041e-11
-2.21609e-11
8.18087e-11
-5.00133e-11
8.03275e-11
-1.35499e-10
1.71341e-10
2.20867e-10
-2.1691e-09
1.57905e-09
2.06061e-09
-2.76849e-09
-1.72351e-09
5.21561e-10
2.67817e-10
-2.3735e-10
-2.52732e-10
-1.21003e-10
-2.35458e-11
-2.22549e-11
-7.44268e-12
-1.56106e-11
9.69952e-12
1.51527e-12
2.55687e-11
1.72123e-11
4.04981e-11
2.31151e-11
4.11971e-11
2.91715e-11
5.00206e-11
3.38941e-11
5.01092e-11
3.55054e-11
5.55509e-11
4.01628e-11
5.95213e-11
3.91671e-11
5.82046e-11
3.86727e-11
6.13982e-11
4.24556e-11
6.3678e-11
3.72369e-11
5.63935e-11
3.1711e-11
5.73293e-11
3.02789e-11
5.8303e-11
2.89073e-11
6.19167e-11
1.4021e-11
1.13876e-11
-9.94908e-12
4.52957e-11
5.53981e-12
4.25315e-11
-7.21909e-12
4.93848e-11
-1.43596e-11
6.03743e-11
-2.2154e-11
8.17268e-11
-4.74317e-11
7.89325e-11
-1.27426e-10
1.65312e-10
2.44541e-10
-2.1687e-09
1.60081e-09
2.10886e-09
-2.81176e-09
-1.83677e-09
5.28561e-10
3.38385e-10
-2.01826e-10
-2.53925e-10
-1.27331e-10
-2.58223e-11
-2.2478e-11
-9.2427e-12
-1.78835e-11
6.71401e-12
-7.8214e-13
2.2958e-11
1.53322e-11
3.83678e-11
2.18744e-11
3.94094e-11
2.79826e-11
4.83363e-11
3.30831e-11
4.87062e-11
3.47905e-11
5.4331e-11
3.97355e-11
5.85679e-11
3.89263e-11
5.73498e-11
3.84409e-11
6.06138e-11
4.24136e-11
6.30842e-11
3.7381e-11
5.57404e-11
3.17754e-11
5.65436e-11
3.07944e-11
5.70224e-11
2.90154e-11
5.51064e-11
1.78197e-11
2.20306e-11
-7.31124e-12
4.46641e-11
5.55888e-12
4.28017e-11
-7.27767e-12
4.9115e-11
-1.41031e-11
5.96933e-11
-2.0857e-11
8.00603e-11
-4.28825e-11
7.5391e-11
-1.16372e-10
1.57029e-10
2.63698e-10
-2.13724e-09
1.58285e-09
2.11665e-09
-2.79757e-09
-1.91998e-09
5.12683e-10
3.96791e-10
-1.63822e-10
-2.52893e-10
-1.34635e-10
-2.93829e-11
-2.30831e-11
-1.10403e-11
-2.01479e-11
3.62845e-12
-3.15785e-12
2.02535e-11
1.33997e-11
3.61391e-11
2.05886e-11
3.757e-11
2.67687e-11
4.65756e-11
3.22311e-11
4.72497e-11
3.40642e-11
5.30474e-11
3.92939e-11
5.75546e-11
3.86927e-11
5.64477e-11
3.82361e-11
5.97647e-11
4.23947e-11
6.2411e-11
3.75732e-11
5.50097e-11
3.19294e-11
5.56315e-11
3.13725e-11
5.56351e-11
2.92487e-11
5.03092e-11
1.97264e-11
3.01425e-11
-3.97481e-12
4.3987e-11
5.86035e-12
4.26379e-11
-6.77354e-12
4.81783e-11
-1.30363e-11
5.80167e-11
-1.83118e-11
7.69066e-11
-3.65329e-11
7.01324e-11
-1.02835e-10
1.46994e-10
2.78162e-10
-2.07455e-09
1.52632e-09
2.0822e-09
-2.72886e-09
-1.97133e-09
4.75508e-10
4.41907e-10
-1.24269e-10
-2.49475e-10
-1.42718e-10
-3.42757e-11
-2.41454e-11
-1.28436e-11
-2.23909e-11
4.56672e-13
-5.60661e-12
1.74628e-11
1.14178e-11
3.38225e-11
1.92629e-11
3.56842e-11
2.55313e-11
4.47457e-11
3.13413e-11
4.57434e-11
3.33277e-11
5.17048e-11
3.8838e-11
5.6485e-11
3.84678e-11
5.55013e-11
3.8059e-11
5.8855e-11
4.23964e-11
6.16649e-11
3.78091e-11
5.42141e-11
3.21509e-11
5.46361e-11
3.19465e-11
5.42957e-11
2.94896e-11
4.69585e-11
2.07623e-11
3.61193e-11
-3.04923e-13
4.3213e-11
6.44219e-12
4.20159e-11
-5.72081e-12
4.66009e-11
-1.11908e-11
5.54113e-11
-1.46187e-11
7.24631e-11
-2.8644e-11
6.35017e-11
-8.72799e-11
1.3542e-10
2.87959e-10
-1.98134e-09
1.43412e-09
2.00579e-09
-2.6109e-09
-1.99036e-09
4.19936e-10
4.73536e-10
-8.40623e-11
-2.4365e-10
-1.51392e-10
-4.052e-11
-2.5736e-11
-1.46682e-11
-2.46077e-11
-2.79352e-12
-8.12751e-12
1.45904e-11
9.38408e-12
3.14248e-11
1.79017e-11
3.37565e-11
2.42695e-11
4.28515e-11
3.04164e-11
4.41897e-11
3.25798e-11
5.03072e-11
3.83667e-11
5.53618e-11
3.82526e-11
5.45143e-11
3.79089e-11
5.78902e-11
4.24154e-11
6.08513e-11
3.80859e-11
5.33637e-11
3.24198e-11
5.35806e-11
3.24949e-11
5.30233e-11
2.9697e-11
4.46965e-11
2.14127e-11
4.02863e-11
3.47631e-12
4.23361e-11
7.32493e-12
4.09571e-11
-4.15392e-12
4.44427e-11
-8.62626e-12
5.19992e-11
-9.93503e-12
6.70118e-11
-1.95329e-11
5.58702e-11
-6.99855e-11
1.22189e-10
2.93387e-10
-1.85914e-09
1.30976e-09
1.88994e-09
-2.44926e-09
-1.9782e-09
3.4941e-10
4.91916e-10
-4.40385e-11
-2.35484e-10
-1.60488e-10
-4.81338e-11
-2.79293e-11
-1.6537e-11
-2.67945e-11
-6.11965e-12
-1.07213e-11
1.1636e-11
7.29437e-12
2.89478e-11
1.65117e-11
3.17891e-11
2.29838e-11
4.08948e-11
2.94613e-11
4.2589e-11
3.18204e-11
4.88554e-11
3.788e-11
5.41857e-11
3.80495e-11
5.3488e-11
3.77853e-11
5.68729e-11
4.24485e-11
5.99743e-11
3.84035e-11
5.24659e-11
3.27282e-11
5.24744e-11
3.3017e-11
5.18077e-11
2.98862e-11
4.3108e-11
2.19514e-11
4.29637e-11
7.26503e-12
4.1363e-11
8.52213e-12
3.94981e-11
-2.12479e-12
4.17419e-11
-5.43558e-12
4.79675e-11
-4.45908e-12
6.07962e-11
-9.49781e-12
4.75305e-11
-5.10029e-11
1.06772e-10
2.94814e-10
-1.70974e-09
1.15652e-09
5.01478e-10
3.01896e-10
-2.71532e-10
-6.16816e-10
-5.41692e-10
-3.77718e-10
-2.08448e-10
-1.20777e-10
-4.10381e-11
-2.34309e-11
1.47657e-11
9.96954e-12
3.67562e-11
2.42758e-11
4.92086e-11
3.49493e-11
5.58516e-11
3.54435e-11
5.84261e-11
4.10024e-11
6.27672e-11
4.13461e-11
6.30591e-11
4.27112e-11
6.4889e-11
4.42128e-11
6.57951e-11
4.25536e-11
6.50121e-11
4.25682e-11
6.60812e-11
4.36523e-11
6.46561e-11
3.80984e-11
5.97225e-11
3.5414e-11
5.70211e-11
3.28235e-11
5.26307e-11
2.71976e-11
4.58256e-11
2.42348e-11
4.06203e-11
1.76915e-11
3.26994e-11
1.0955e-11
2.5528e-11
1.19131e-11
2.25776e-11
1.47417e-11
2.01217e-11
2.3575e-11
1.09466e-11
1.84192e-11
-2.7766e-11
1.37726e-12
-7.66402e-11
-1.67462e-10
-9.17936e-10
-1.98664e-10
5.30187e-10
3.16483e-10
-2.7873e-10
-6.22767e-10
-5.44158e-10
-3.77974e-10
-2.08589e-10
-1.20809e-10
-4.13304e-11
-2.36322e-11
1.44167e-11
9.80818e-12
3.64641e-11
2.41623e-11
4.89804e-11
3.49049e-11
5.56561e-11
3.53985e-11
5.82396e-11
4.10257e-11
6.25965e-11
4.13717e-11
6.28941e-11
4.27727e-11
6.47428e-11
4.4285e-11
6.56562e-11
4.26225e-11
6.48792e-11
4.26597e-11
6.59618e-11
4.37681e-11
6.45267e-11
3.8195e-11
5.95908e-11
3.55455e-11
5.69023e-11
3.29662e-11
5.25154e-11
2.73305e-11
4.5683e-11
2.43106e-11
4.04687e-11
1.7859e-11
3.26249e-11
1.11241e-11
2.54708e-11
1.21275e-11
2.25716e-11
1.49507e-11
2.02036e-11
2.38228e-11
1.12012e-11
1.85689e-11
-2.7309e-11
1.64062e-12
-7.24949e-11
-1.60921e-10
-9.37363e-10
-2.1561e-10
5.65632e-10
3.28209e-10
-2.87366e-10
-6.2872e-10
-5.47068e-10
-3.78469e-10
-2.0862e-10
-1.20897e-10
-4.14864e-11
-2.39748e-11
1.40943e-11
9.46063e-12
3.62212e-11
2.38567e-11
4.88031e-11
3.46996e-11
5.55774e-11
3.51896e-11
5.81255e-11
4.0897e-11
6.25372e-11
4.125e-11
6.28236e-11
4.26954e-11
6.47077e-11
4.4217e-11
6.56496e-11
4.25464e-11
6.48732e-11
4.26074e-11
6.5974e-11
4.37465e-11
6.45577e-11
3.81483e-11
5.95912e-11
3.55403e-11
5.6931e-11
3.29763e-11
5.25598e-11
2.73426e-11
4.5664e-11
2.42058e-11
4.04098e-11
1.78871e-11
3.27389e-11
1.12098e-11
2.55608e-11
1.22697e-11
2.27403e-11
1.50917e-11
2.04113e-11
2.40088e-11
1.16195e-11
1.87586e-11
-2.67259e-11
1.16355e-12
-6.79693e-11
-1.46358e-10
-9.66698e-10
-2.33724e-10
6.04717e-10
3.31866e-10
-2.95934e-10
-6.32834e-10
-5.50713e-10
-3.7921e-10
-2.08534e-10
-1.20819e-10
-4.1493e-11
-2.43232e-11
1.37158e-11
9.01695e-12
3.59291e-11
2.3466e-11
4.85758e-11
3.44336e-11
5.5519e-11
3.49171e-11
5.79732e-11
4.07158e-11
6.24892e-11
4.10864e-11
6.27374e-11
4.25815e-11
6.46806e-11
4.41182e-11
6.56711e-11
4.24338e-11
6.48822e-11
4.25172e-11
6.60126e-11
4.37008e-11
6.46475e-11
3.80678e-11
5.9611e-11
3.54997e-11
5.70086e-11
3.29561e-11
5.26747e-11
2.73305e-11
4.56922e-11
2.40029e-11
4.03408e-11
1.78305e-11
3.29841e-11
1.12664e-11
2.57574e-11
1.23487e-11
2.3088e-11
1.51236e-11
2.08313e-11
2.40145e-11
1.24666e-11
1.85815e-11
-2.55739e-11
-7.34813e-13
-6.0815e-11
-1.2665e-10
-1.00347e-09
-2.48031e-10
6.4163e-10
3.181e-10
-3.02847e-10
-6.30532e-10
-5.5371e-10
-3.80122e-10
-2.08335e-10
-1.20495e-10
-4.1336e-11
-2.46627e-11
1.32137e-11
8.45183e-12
3.55187e-11
2.29692e-11
4.8236e-11
3.41067e-11
5.5428e-11
3.45905e-11
5.77303e-11
4.04931e-11
6.24098e-11
4.09009e-11
6.25901e-11
4.24486e-11
6.46221e-11
4.40128e-11
6.56824e-11
4.2312e-11
6.48634e-11
4.24145e-11
6.6039e-11
4.36612e-11
6.47606e-11
3.7986e-11
5.96088e-11
3.54485e-11
5.71005e-11
3.29328e-11
5.28328e-11
2.73247e-11
4.57519e-11
2.37308e-11
4.02039e-11
1.76872e-11
3.3346e-11
1.13042e-11
2.60498e-11
1.2337e-11
2.36291e-11
1.49841e-11
2.15155e-11
2.37129e-11
1.38691e-11
1.77876e-11
-2.35203e-11
-4.54535e-12
-5.03391e-11
-1.04812e-10
-1.04549e-09
-2.49867e-10
6.74349e-10
2.75728e-10
-3.08766e-10
-6.17285e-10
-5.54505e-10
-3.81102e-10
-2.08048e-10
-1.19865e-10
-4.09692e-11
-2.49795e-11
1.25675e-11
7.73717e-12
3.49578e-11
2.23439e-11
4.77548e-11
3.36873e-11
5.52781e-11
3.42016e-11
5.73769e-11
4.02132e-11
6.2281e-11
4.06884e-11
6.23669e-11
4.2287e-11
6.45207e-11
4.38961e-11
6.56716e-11
4.21806e-11
6.48049e-11
4.2296e-11
6.60435e-11
4.3626e-11
6.48876e-11
3.79072e-11
5.9576e-11
3.53819e-11
5.72009e-11
3.29041e-11
5.30325e-11
2.73296e-11
4.58577e-11
2.3382e-11
3.99669e-11
1.74315e-11
3.38311e-11
1.13121e-11
2.64506e-11
1.2187e-11
2.43896e-11
1.46027e-11
2.2527e-11
2.29715e-11
1.59581e-11
1.6129e-11
-2.02258e-11
-1.0707e-11
-3.6092e-11
-8.31983e-11
-1.09263e-09
-2.29301e-10
7.05145e-10
1.9522e-10
-3.1681e-10
-5.89342e-10
-5.50595e-10
-3.82072e-10
-2.07751e-10
-1.18883e-10
-4.03408e-11
-2.52459e-11
1.17793e-11
6.86398e-12
3.42312e-11
2.15816e-11
4.71169e-11
3.31604e-11
5.50476e-11
3.37462e-11
5.69023e-11
3.98617e-11
6.20865e-11
4.04438e-11
6.20581e-11
4.20867e-11
6.43673e-11
4.37625e-11
6.56285e-11
4.20377e-11
6.46988e-11
4.21576e-11
6.60193e-11
4.35906e-11
6.50186e-11
3.78339e-11
5.95084e-11
3.52933e-11
5.73051e-11
3.28657e-11
5.32735e-11
2.73465e-11
4.60331e-11
2.29408e-11
3.96e-11
1.70413e-11
3.44476e-11
1.12739e-11
2.69806e-11
1.18489e-11
2.54007e-11
1.39081e-11
2.39372e-11
2.1657e-11
1.88694e-11
1.33773e-11
-1.53793e-11
-1.94993e-11
-1.78751e-11
-6.31077e-11
-1.14682e-09
-1.78548e-10
7.38916e-10
7.02779e-11
-3.31494e-10
-5.44093e-10
-5.40062e-10
-3.82932e-10
-2.07594e-10
-1.17532e-10
-3.94119e-11
-2.54338e-11
1.08571e-11
5.83444e-12
3.33312e-11
2.06825e-11
4.63152e-11
3.25177e-11
5.47161e-11
3.32257e-11
5.63005e-11
3.94314e-11
6.18093e-11
4.01652e-11
6.16556e-11
4.1842e-11
6.41522e-11
4.36099e-11
6.55407e-11
4.18837e-11
6.45373e-11
4.19983e-11
6.59586e-11
4.35541e-11
6.51403e-11
3.77697e-11
5.94027e-11
3.51792e-11
5.74067e-11
3.28157e-11
5.35533e-11
2.73767e-11
4.63064e-11
2.23843e-11
3.90721e-11
1.65031e-11
3.52032e-11
1.11701e-11
2.76633e-11
1.12763e-11
2.66918e-11
1.28355e-11
2.58178e-11
1.96558e-11
2.27093e-11
9.3841e-12
-8.78775e-12
-3.0938e-11
3.99603e-12
-4.47719e-11
-1.21044e-09
-9.34426e-11
7.8232e-10
-1.01602e-10
-3.58275e-10
-4.80432e-10
-5.20845e-10
-3.83458e-10
-2.07776e-10
-1.15839e-10
-3.81618e-11
-2.55223e-11
9.80848e-12
4.65469e-12
3.22545e-11
1.96517e-11
4.53481e-11
3.17564e-11
5.42668e-11
3.2644e-11
5.55706e-11
3.892e-11
6.14351e-11
3.98525e-11
6.11551e-11
4.15503e-11
6.38669e-11
4.3438e-11
6.53976e-11
4.17198e-11
6.43144e-11
4.18185e-11
6.58545e-11
4.3516e-11
6.52401e-11
3.77169e-11
5.92574e-11
3.50378e-11
5.74993e-11
3.27525e-11
5.38694e-11
2.74201e-11
4.67113e-11
2.16871e-11
3.83532e-11
1.58082e-11
3.61047e-11
1.09796e-11
2.85205e-11
1.04325e-11
2.82842e-11
1.13384e-11
2.82163e-11
1.68989e-11
2.75168e-11
4.11917e-12
-4.45428e-13
-4.47169e-11
2.87917e-11
-2.76587e-11
-1.28583e-09
2.65967e-11
8.40988e-10
-3.1894e-10
-4.0201e-10
-3.98755e-10
-4.91262e-10
-3.83353e-10
-2.0853e-10
-1.13879e-10
-3.65914e-11
-2.54997e-11
8.64006e-12
3.33118e-12
3.09998e-11
1.84953e-11
4.42174e-11
3.08772e-11
5.36862e-11
3.20049e-11
5.4716e-11
3.83283e-11
6.09528e-11
3.95057e-11
6.05559e-11
4.12109e-11
6.35051e-11
4.32465e-11
6.51909e-11
4.15466e-11
6.4028e-11
4.16192e-11
6.57021e-11
4.34754e-11
6.53071e-11
3.76758e-11
5.90741e-11
3.48681e-11
5.7577e-11
3.26748e-11
5.4218e-11
2.74765e-11
4.72848e-11
2.08241e-11
3.74268e-11
1.49561e-11
3.71532e-11
1.06836e-11
2.95666e-11
9.29848e-12
3.01807e-11
9.40007e-12
3.1137e-11
1.33899e-11
3.32419e-11
-2.30835e-12
9.44849e-12
-6.02185e-11
5.52557e-11
-1.07024e-11
-1.37367e-09
1.78547e-10
9.18928e-10
-5.75895e-10
-4.66413e-10
-3.01169e-10
-4.50236e-10
-3.82204e-10
-2.10088e-10
-1.11786e-10
-3.47269e-11
-2.53631e-11
7.3565e-12
1.86921e-12
2.95662e-11
1.72183e-11
4.29257e-11
2.98821e-11
5.29642e-11
3.13111e-11
5.37423e-11
3.76589e-11
6.03547e-11
3.91244e-11
5.986e-11
4.08239e-11
6.30625e-11
4.30354e-11
6.49153e-11
4.13645e-11
6.36781e-11
4.14014e-11
6.5498e-11
4.34313e-11
6.53335e-11
3.76456e-11
5.88558e-11
3.46701e-11
5.76347e-11
3.25812e-11
5.45929e-11
2.75443e-11
4.80594e-11
1.97706e-11
3.62857e-11
1.39569e-11
3.83411e-11
1.02708e-11
3.08013e-11
7.87854e-12
3.236e-11
7.03909e-12
3.45388e-11
9.20654e-12
3.97339e-11
-9.64345e-12
2.04926e-11
-7.65783e-11
8.19012e-11
7.38783e-12
-1.47294e-09
3.55855e-10
1.0174e-09
-8.6295e-10
-5.53242e-10
-1.91201e-10
-3.97437e-10
-3.79506e-10
-2.12633e-10
-1.09746e-10
-3.26242e-11
-2.51182e-11
5.96163e-12
2.72929e-13
2.79528e-11
1.58237e-11
4.14756e-11
2.87739e-11
5.20928e-11
3.05634e-11
5.26557e-11
3.6915e-11
5.96359e-11
3.87067e-11
5.9071e-11
4.03904e-11
6.25366e-11
4.2804e-11
6.45676e-11
4.11733e-11
6.32664e-11
4.11667e-11
6.52401e-11
4.3383e-11
6.53139e-11
3.76244e-11
5.86062e-11
3.44454e-11
5.76669e-11
3.2471e-11
5.49848e-11
2.76173e-11
4.90598e-11
1.85318e-11
3.49331e-11
1.28313e-11
3.96471e-11
9.7404e-12
3.22064e-11
6.20089e-12
3.4774e-11
4.3103e-12
3.83283e-11
4.50233e-12
4.67508e-11
-1.75054e-11
3.21342e-11
-9.27815e-11
1.07095e-10
2.77062e-11
-1.58068e-09
5.50062e-10
1.13626e-09
-1.16837e-09
-6.62804e-10
-7.35108e-11
-3.33051e-10
-3.74618e-10
-2.16234e-10
-1.07972e-10
-3.0365e-11
-2.47743e-11
4.46294e-12
-1.45128e-12
2.61606e-11
1.43148e-11
3.98712e-11
2.75565e-11
5.10675e-11
2.97618e-11
5.14634e-11
3.6101e-11
5.87941e-11
3.82507e-11
5.81936e-11
3.99118e-11
6.19261e-11
4.25517e-11
6.41469e-11
4.09725e-11
6.27954e-11
4.09168e-11
6.49275e-11
4.33295e-11
6.52446e-11
3.76103e-11
5.83285e-11
3.41979e-11
5.76675e-11
3.23456e-11
5.53792e-11
2.76866e-11
5.02883e-11
1.71379e-11
3.33988e-11
1.16139e-11
4.10367e-11
9.10728e-12
3.37463e-11
4.31619e-12
3.73327e-11
1.30948e-12
4.23589e-11
-5.07116e-13
5.39775e-11
-2.54309e-11
4.37311e-11
-1.07792e-10
1.29534e-10
5.0897e-11
-1.69349e-09
7.50917e-10
1.27269e-09
-1.48034e-09
-7.93481e-10
4.6499e-11
-2.58097e-10
-3.66884e-10
-2.20842e-10
-1.06689e-10
-2.80603e-11
-2.43456e-11
2.87247e-12
-3.29421e-12
2.41935e-11
1.26956e-11
3.81182e-11
2.62352e-11
4.98861e-11
2.89054e-11
5.01733e-11
3.52216e-11
5.78291e-11
3.77539e-11
5.72332e-11
3.93911e-11
6.12311e-11
4.22775e-11
6.3653e-11
4.07616e-11
6.22684e-11
4.06543e-11
6.45598e-11
4.32701e-11
6.51222e-11
3.76018e-11
5.8025e-11
3.39341e-11
5.76296e-11
3.22093e-11
5.57538e-11
2.77403e-11
5.1706e-11
1.56744e-11
3.17675e-11
1.03499e-11
4.24574e-11
8.40136e-12
3.53722e-11
2.2987e-12
3.99437e-11
-1.79943e-12
4.64429e-11
-5.55913e-12
6.10542e-11
-3.2919e-11
5.46227e-11
-1.2065e-10
1.4814e-10
7.70249e-11
-1.80663e-09
9.47416e-10
1.42153e-09
-1.78313e-09
-9.41948e-10
1.62871e-10
-1.74566e-10
-3.55726e-10
-2.26292e-10
-1.06135e-10
-2.58552e-11
-2.38556e-11
1.20477e-12
-5.24485e-12
2.20566e-11
1.09701e-11
3.62232e-11
2.48158e-11
4.85504e-11
2.79934e-11
4.87929e-11
3.42824e-11
5.67433e-11
3.72139e-11
5.61956e-11
3.88312e-11
6.04526e-11
4.19803e-11
6.30869e-11
4.05408e-11
6.16886e-11
4.03824e-11
6.41365e-11
4.32047e-11
6.49445e-11
3.75985e-11
5.76963e-11
3.3662e-11
5.75457e-11
3.20675e-11
5.60823e-11
2.77587e-11
5.31948e-11
1.43031e-11
3.0209e-11
9.09271e-12
4.3837e-11
7.66151e-12
3.7025e-11
2.44965e-13
4.24872e-11
-4.86991e-12
5.03705e-11
-1.03666e-11
6.7607e-11
-3.94798e-11
6.41942e-11
-1.3057e-10
1.62228e-10
1.05639e-10
-1.91418e-09