/*--------------------------------*- C++ -*----------------------------------*\
| =========                 |                                                 |
| \\      /  F ield         | OpenFOAM: The Open Source CFD Toolbox           |
|  \\    /   O peration     | Version:  2312                                  |
|   \\  /    A nd           | Website:  www.openfoam.com                      |
|    \\/     M anipulation  |                                                 |
\*---------------------------------------------------------------------------*/
FoamFile
{
    version     2.0;
    format      ascii;
    arch        "LSB;label=32;scalar=64";
    class       volScalarField;
    location    "680";
    object      p;
}
// * * * * * * * * * * * * * * * * * * * * * * * * * * * * * * * * * * * * * //

dimensions      [0 2 -2 0 0 0 0];

internalField   nonuniform List<scalar> 
144000
(
1.75714e-10
1.50632e-10
-5.19592e-11
-2.14675e-10
-2.25788e-10
-1.90911e-10
-1.37641e-10
-1.09516e-10
-8.08245e-11
-7.50239e-11
-5.92104e-11
-6.00783e-11
-4.76348e-11
-5.07924e-11
-3.84824e-11
-4.16114e-11
-3.12249e-11
-3.65337e-11
-2.41695e-11
-2.76968e-11
-1.62412e-11
-2.20648e-11
-1.0601e-11
-1.61378e-11
-4.70218e-12
-1.02501e-11
7.03163e-13
-6.05717e-12
5.13759e-12
-1.10077e-12
1.0465e-11
4.67221e-12
1.4975e-11
7.2228e-12
1.78677e-11
1.1195e-11
2.13827e-11
1.49557e-11
2.40259e-11
1.68622e-11
2.46323e-11
1.88774e-11
2.63635e-11
2.06346e-11
2.82205e-11
2.25594e-11
2.92806e-11
2.66833e-11
3.07972e-11
3.00041e-11
3.16094e-11
3.41639e-11
2.53595e-11
2.4851e-11
-1.3152e-12
-3.58528e-13
-5.36804e-11
-1.19204e-10
-3.39674e-10
-5.52226e-11
1.86177e-10
1.56189e-10
-5.40399e-11
-2.17048e-10
-2.27e-10
-1.91258e-10
-1.37826e-10
-1.09593e-10
-8.09829e-11
-7.5119e-11
-5.93653e-11
-6.01452e-11
-4.77664e-11
-5.08397e-11
-3.85849e-11
-4.16253e-11
-3.13194e-11
-3.65533e-11
-2.42538e-11
-2.76889e-11
-1.63201e-11
-2.20604e-11
-1.06728e-11
-1.61148e-11
-4.76698e-12
-1.02217e-11
6.36652e-13
-6.03195e-12
5.07505e-12
-1.0634e-12
1.04105e-11
4.71765e-12
1.49166e-11
7.25703e-12
1.78142e-11
1.12459e-11
2.13385e-11
1.50071e-11
2.39876e-11
1.68979e-11
2.45554e-11
1.88063e-11
2.62542e-11
2.06964e-11
2.82109e-11
2.26382e-11
2.92889e-11
2.67893e-11
3.08371e-11
3.01135e-11
3.17093e-11
3.43059e-11
2.55547e-11
2.49932e-11
-9.46604e-13
4.25641e-14
-5.20812e-11
-1.18223e-10
-3.46961e-10
-6.01167e-11
1.98996e-10
1.62004e-10
-5.64162e-11
-2.19915e-10
-2.28678e-10
-1.9192e-10
-1.38073e-10
-1.09754e-10
-8.11214e-11
-7.52926e-11
-5.95151e-11
-6.02968e-11
-4.78814e-11
-5.09642e-11
-3.86719e-11
-4.17021e-11
-3.13708e-11
-3.66397e-11
-2.43141e-11
-2.77455e-11
-1.63575e-11
-2.21204e-11
-1.07063e-11
-1.61474e-11
-4.78732e-12
-1.02502e-11
6.20553e-13
-6.06506e-12
5.06101e-12
-1.07898e-12
1.04045e-11
4.70939e-12
1.49188e-11
7.23534e-12
1.78122e-11
1.12497e-11
2.13518e-11
1.50122e-11
2.40119e-11
1.68996e-11
2.45212e-11
1.86392e-11
2.61413e-11
2.06905e-11
2.82822e-11
2.27066e-11
2.93629e-11
2.6897e-11
3.09561e-11
3.02311e-11
3.18617e-11
3.44718e-11
2.58269e-11
2.5223e-11
-4.98132e-13
4.54692e-13
-4.99688e-11
-1.14893e-10
-3.58196e-10
-6.58268e-11
2.13867e-10
1.67372e-10
-5.85919e-11
-2.23037e-10
-2.31119e-10
-1.92938e-10
-1.38399e-10
-1.09914e-10
-8.12426e-11
-7.54941e-11
-5.96909e-11
-6.04866e-11
-4.80164e-11
-5.11277e-11
-3.87802e-11
-4.18034e-11
-3.1414e-11
-3.67544e-11
-2.43907e-11
-2.78271e-11
-1.6389e-11
-2.22035e-11
-1.07418e-11
-1.61957e-11
-4.80004e-12
-1.02936e-11
6.1797e-13
-6.11498e-12
5.05515e-12
-1.10788e-12
1.04106e-11
4.68918e-12
1.4947e-11
7.19784e-12
1.78235e-11
1.12425e-11
2.13924e-11
1.50057e-11
2.40757e-11
1.69036e-11
2.45117e-11
1.84064e-11
2.59619e-11
2.06199e-11
2.8416e-11
2.27836e-11
2.94916e-11
2.70083e-11
3.11608e-11
3.03415e-11
3.21088e-11
3.46196e-11
2.62706e-11
2.54172e-11
1.89285e-13
7.30964e-13
-4.67098e-11
-1.09797e-10
-3.72674e-10
-7.17377e-11
2.28646e-10
1.70536e-10
-5.97848e-11
-2.25391e-10
-2.34088e-10
-1.94297e-10
-1.38786e-10
-1.10034e-10
-8.13393e-11
-7.57163e-11
-5.99132e-11
-6.0722e-11
-4.81931e-11
-5.13326e-11
-3.89307e-11
-4.19278e-11
-3.1466e-11
-3.68928e-11
-2.45014e-11
-2.79276e-11
-1.64281e-11
-2.2301e-11
-1.07961e-11
-1.62524e-11
-4.81923e-12
-1.03422e-11
6.16137e-13
-6.1714e-12
5.04216e-12
-1.14191e-12
1.0416e-11
4.66724e-12
1.49903e-11
7.15453e-12
1.7835e-11
1.12302e-11
2.14516e-11
1.49927e-11
2.41764e-11
1.69179e-11
2.45323e-11
1.8135e-11
2.56806e-11
2.04649e-11
2.86076e-11
2.287e-11
2.96702e-11
2.71095e-11
3.14563e-11
3.04189e-11
3.24641e-11
3.47046e-11
2.69224e-11
2.54937e-11
1.19082e-12
7.18205e-13
-4.21537e-11
-1.03396e-10
-3.89423e-10
-7.64401e-11
2.41875e-10
1.68829e-10
-5.97321e-11
-2.25808e-10
-2.37163e-10
-1.95954e-10
-1.39201e-10
-1.10074e-10
-8.13893e-11
-7.59528e-11
-6.01866e-11
-6.10096e-11
-4.84198e-11
-5.1586e-11
-3.91322e-11
-4.20835e-11
-3.15337e-11
-3.70574e-11
-2.46521e-11
-2.8052e-11
-1.64789e-11
-2.24141e-11
-1.08737e-11
-1.63212e-11
-4.84794e-12
-1.0398e-11
6.1273e-13
-6.23473e-12
5.01892e-12
-1.18356e-12
1.04187e-11
4.64165e-12
1.5048e-11
7.10505e-12
1.78455e-11
1.12074e-11
2.15315e-11
1.49674e-11
2.43213e-11
1.69422e-11
2.46018e-11
1.7826e-11
2.52625e-11
2.01965e-11
2.88593e-11
2.29593e-11
2.99004e-11
2.718e-11
3.18492e-11
3.04359e-11
3.29432e-11
3.4681e-11
2.78129e-11
2.53757e-11
2.57498e-12
2.62092e-13
-3.62151e-11
-9.60871e-11
-4.0789e-10
-7.7738e-11
2.53219e-10
1.59369e-10
-5.88016e-11
-2.2318e-10
-2.39851e-10
-1.97848e-10
-1.39616e-10
-1.09996e-10
-8.1367e-11
-7.61915e-11
-6.05087e-11
-6.13508e-11
-4.87e-11
-5.18909e-11
-3.93896e-11
-4.22785e-11
-3.16227e-11
-3.72494e-11
-2.48458e-11
-2.82055e-11
-1.65452e-11
-2.25438e-11
-1.09779e-11
-1.64059e-11
-4.88818e-12
-1.04633e-11
6.05684e-13
-6.30562e-12
4.98365e-12
-1.23569e-12
1.04182e-11
4.60948e-12
1.51191e-11
7.04891e-12
1.78553e-11
1.11682e-11
2.16346e-11
1.4923e-11
2.4518e-11
1.69737e-11
2.47536e-11
1.74743e-11
2.46581e-11
1.97845e-11
2.9175e-11
2.30442e-11
3.01867e-11
2.71981e-11
3.23478e-11
3.03655e-11
3.35666e-11
3.45007e-11
2.89772e-11
2.49833e-11
4.41856e-12
-7.76472e-13
-2.88305e-11
-8.82051e-11
-4.28083e-10
-7.32801e-11
2.63257e-10
1.39503e-10
-5.78879e-11
-2.16531e-10
-2.41594e-10
-1.99899e-10
-1.40011e-10
-1.09763e-10
-8.12492e-11
-7.6419e-11
-6.08745e-11
-6.1743e-11
-4.90353e-11
-5.22472e-11
-3.97054e-11
-4.25166e-11
-3.17395e-11
-3.74681e-11
-2.50843e-11
-2.83916e-11
-1.66322e-11
-2.26901e-11
-1.11114e-11
-1.65092e-11
-4.94264e-12
-1.0539e-11
5.91456e-13
-6.38393e-12
4.93438e-12
-1.29982e-12
1.04133e-11
4.56931e-12
1.52006e-11
6.98641e-12
1.78648e-11
1.11081e-11
2.17623e-11
1.48538e-11
2.4774e-11
1.70082e-11
2.50364e-11
1.70487e-11
2.37969e-11
1.92028e-11
2.95603e-11
2.31167e-11
3.05347e-11
2.71427e-11
3.29607e-11
3.01805e-11
3.43568e-11
3.41186e-11
3.04507e-11
2.42448e-11
6.7924e-12
-2.5e-12
-2.00093e-11
-7.99454e-11
-4.50398e-10
-6.10176e-11
2.73363e-10
1.07052e-10
-5.83063e-11
-2.05091e-10
-2.41802e-10
-2.02023e-10
-1.40383e-10
-1.09346e-10
-8.10162e-11
-7.66224e-11
-6.12787e-11
-6.21822e-11
-4.94259e-11
-5.26526e-11
-4.008e-11
-4.27998e-11
-3.189e-11
-3.77118e-11
-2.53679e-11
-2.86119e-11
-1.67449e-11
-2.28522e-11
-1.12761e-11
-1.66328e-11
-5.01408e-12
-1.06255e-11
5.66474e-13
-6.46914e-12
4.8694e-12
-1.37685e-12
1.04024e-11
4.52031e-12
1.52887e-11
6.91803e-12
1.78742e-11
1.10234e-11
2.19148e-11
1.47545e-11
2.50978e-11
1.70392e-11
2.55203e-11
1.65055e-11
2.25849e-11
1.84273e-11
3.00226e-11
2.31687e-11
3.09514e-11
2.69945e-11
3.36959e-11
2.98567e-11
3.53338e-11
3.3493e-11
3.22621e-11
2.31081e-11
9.74198e-12
-4.9519e-12
-9.84555e-12
-7.13596e-11
-4.75503e-10
-3.94148e-11
2.85253e-10
6.0541e-11
-6.15549e-11
-1.88338e-10
-2.39888e-10
-2.04125e-10
-1.40746e-10
-1.08734e-10
-8.06526e-11
-7.67912e-11
-6.17161e-11
-6.26638e-11
-4.98707e-11
-5.31041e-11
-4.05121e-11
-4.31288e-11
-3.20795e-11
-3.79784e-11
-2.56954e-11
-2.88668e-11
-1.68879e-11
-2.30295e-11
-1.14728e-11
-1.67774e-11
-5.10484e-12
-1.07227e-11
5.27269e-13
-6.56083e-12
4.78789e-12
-1.46719e-12
1.03845e-11
4.46211e-12
1.53796e-11
6.8441e-12
1.78842e-11
1.09118e-11
2.20916e-11
1.46197e-11
2.5498e-11
1.70627e-11
2.62989e-11
1.57767e-11
2.0908e-11
1.74445e-11
3.05712e-11
2.31922e-11
3.14439e-11
2.67378e-11
3.45589e-11
2.93746e-11
3.65127e-11
3.25965e-11
3.44244e-11
2.15484e-11
1.32758e-11
-8.1156e-12
1.44789e-12
-6.23347e-11
-5.04022e-10
-7.67292e-12
3.0087e-10
-6.41017e-13
-6.92455e-11
-1.66068e-10
-2.35291e-10
-2.06094e-10
-1.41124e-10
-1.07928e-10
-8.01498e-11
-7.69177e-11
-6.21831e-11
-6.31844e-11
-5.03692e-11
-5.35989e-11
-4.10004e-11
-4.35034e-11
-3.23123e-11
-3.82664e-11
-2.6065e-11
-2.9156e-11
-1.70651e-11
-2.32212e-11
-1.17013e-11
-1.69437e-11
-5.217e-12
-1.08305e-11
4.71177e-13
-6.65857e-12
4.68956e-12
-1.57103e-12
1.03581e-11
4.39467e-12
1.54695e-11
6.76495e-12
1.78955e-11
1.07718e-11
2.22909e-11
1.4446e-11
2.59819e-11
1.7076e-11
2.7503e-11
1.47117e-11
1.86122e-11
1.62492e-11
3.12135e-11
2.31785e-11
3.20173e-11
2.63623e-11
3.55507e-11
2.87228e-11
3.78987e-11
3.14208e-11
3.693e-11
1.95737e-11
1.73591e-11
-1.19052e-11
1.35867e-11
-5.26523e-11
-5.36494e-10
3.42441e-11
3.21977e-10
-7.62815e-11
-8.28915e-11
-1.38404e-10
-2.27514e-10
-2.0779e-10
-1.41568e-10
-1.06943e-10
-7.95052e-11
-7.69963e-11
-6.26769e-11
-6.37414e-11
-5.0921e-11
-5.41351e-11
-4.15436e-11
-4.39231e-11
-3.25924e-11
-3.85748e-11
-2.64746e-11
-2.94788e-11
-1.72797e-11
-2.34272e-11
-1.19611e-11
-1.71317e-11
-5.35239e-12
-1.09486e-11
3.95899e-13
-6.76216e-12
4.57452e-12
-1.68812e-12
1.0322e-11
4.31838e-12
1.5555e-11
6.68109e-12
1.7908e-11
1.06041e-11
2.2509e-11
1.42309e-11
2.65571e-11
1.70668e-11
2.9369e-11
1.31392e-11
1.54721e-11
1.48395e-11
3.19479e-11
2.31166e-11
3.26717e-11
2.58639e-11
3.66666e-11
2.78994e-11
3.94844e-11
2.99752e-11
3.97485e-11
1.72277e-11
2.19164e-11
-1.61764e-11
2.62133e-11
-4.20713e-11
-5.73143e-10
8.56918e-11
3.50221e-10
-1.6538e-10
-1.03919e-10
-1.05839e-10
-2.16145e-10
-2.09022e-10
-1.42101e-10
-1.05809e-10
-7.8724e-11
-7.7023e-11
-6.31947e-11
-6.43327e-11
-5.15261e-11
-5.47108e-11
-4.21405e-11
-4.4387e-11
-3.2923e-11
-3.89031e-11
-2.6922e-11
-2.98339e-11
-1.75347e-11
-2.36475e-11
-1.22513e-11
-1.73411e-11
-5.51271e-12
-1.10766e-11
2.99948e-13
-6.87145e-12
4.44286e-12
-1.81787e-12
1.02748e-11
4.23391e-12
1.56327e-11
6.59347e-12
1.79209e-11
1.04113e-11
2.27401e-11
1.39739e-11
2.72257e-11
1.70249e-11
3.21806e-11
1.09146e-11
1.12445e-11
1.32517e-11
3.27764e-11
2.30004e-11
3.34028e-11
2.52461e-11
3.78909e-11
2.69169e-11
4.12472e-11
2.82896e-11
4.28255e-11
1.45874e-11
2.68341e-11
-2.07377e-11
3.89856e-11
-3.04293e-11
-6.13996e-10
1.45516e-10
3.86616e-10
-2.66096e-10
-1.33332e-10
-6.92074e-11
-2.00932e-10
-2.09575e-10
-1.42749e-10
-1.0458e-10
-7.78207e-11
-7.6995e-11
-6.3733e-11
-6.49556e-11
-5.21836e-11
-5.53241e-11
-4.27891e-11
-4.48936e-11
-3.33065e-11
-3.92511e-11
-2.74049e-11
-3.022e-11
-1.78323e-11
-2.38826e-11
-1.25707e-11
-1.75712e-11
-5.69937e-12
-1.12144e-11
1.81878e-13
-6.98637e-12
4.295e-12
-1.95909e-12
1.0215e-11
4.14228e-12
1.56991e-11
6.50378e-12
1.79319e-11
1.01997e-11
2.29727e-11
1.36875e-11
2.79518e-11
1.70368e-11
3.60784e-11
8.08001e-12
5.77592e-12
1.16225e-11
3.37266e-11
2.28451e-11
3.42087e-11
2.45236e-11
3.92032e-11
2.57991e-11
4.31505e-11
2.64148e-11
4.60845e-11
1.17591e-11
3.19687e-11
-2.53742e-11
5.15391e-11
-1.76221e-11
-6.58616e-10
2.1201e-10
4.31535e-10
-3.75702e-10
-1.71627e-10
-2.9651e-11
-1.81794e-10
-2.09209e-10
-1.43522e-10
-1.03318e-10
-7.68204e-11
-7.69121e-11
-6.42888e-11
-6.56082e-11
-5.28928e-11
-5.59732e-11
-4.34875e-11
-4.54414e-11
-3.37447e-11
-3.96191e-11
-2.7921e-11
-3.06354e-11
-1.81743e-11
-2.41332e-11
-1.29182e-11
-1.78211e-11
-5.9137e-12
-1.13618e-11
4.07692e-14
-7.10666e-12
4.13122e-12
-2.11035e-12
1.01406e-11
4.04489e-12
1.57504e-11
6.41447e-12
1.79371e-11
9.97819e-12
2.31922e-11
1.33931e-11
2.86675e-11
1.7227e-11
4.17803e-11
1.95278e-12
-1.64716e-12
9.92797e-12
3.47666e-11
2.26611e-11
3.5081e-11
2.37191e-11
4.05746e-11
2.45823e-11
4.51434e-11
2.442e-11
4.94288e-11
8.87143e-12
3.71536e-11
-2.9856e-11
6.35497e-11
-3.61522e-12
-7.06214e-10
2.82959e-10
4.84522e-10
-4.91e-10
-2.1868e-10
1.15019e-11
-1.58815e-10
-2.07666e-10
-1.44415e-10
-1.02085e-10
-7.57549e-11
-7.67751e-11
-6.48587e-11
-6.62889e-11
-5.36537e-11
-5.66573e-11
-4.42345e-11
-4.60286e-11
-3.42385e-11
-4.00077e-11
-2.84685e-11
-3.10783e-11
-1.85618e-11
-2.44002e-11
-1.32929e-11
-1.80899e-11
-6.1569e-12
-1.15186e-11
-1.24263e-13
-7.23205e-12
3.95166e-12
-2.26991e-12
1.00498e-11
3.94345e-12
1.57834e-11
6.32753e-12
1.79338e-11
9.75211e-12
2.33932e-11
1.30941e-11
2.93478e-11
1.68898e-11
5.10989e-11
-1.54166e-12
-1.18136e-11
7.77433e-12
3.56652e-11
2.2408e-11
3.5986e-11
2.28518e-11
4.19629e-11
2.33111e-11
4.7162e-11
2.23894e-11
5.27474e-11
6.07013e-12
4.22137e-11
-3.39569e-11
7.47219e-11
1.15184e-11
-7.55602e-10
3.56006e-10
5.45106e-10
-6.0998e-10
-2.7427e-10
5.26229e-11
-1.32275e-10
-2.04657e-10
-1.45403e-10
-1.00995e-10
-7.46618e-11
-7.6585e-11
-6.54377e-11
-6.69957e-11
-5.44654e-11
-5.73751e-11
-4.50284e-11
-4.66534e-11
-3.4788e-11
-4.04172e-11
-2.90457e-11
-3.15466e-11
-1.89952e-11
-2.46848e-11
-1.36941e-11
-1.83763e-11
-6.4301e-12
-1.16848e-11
-3.13543e-13
-7.36206e-12
3.75589e-12
-2.43586e-12
9.94007e-12
3.84014e-12
1.57944e-11
6.24698e-12
1.79144e-11
9.53712e-12
2.35459e-11
1.28641e-11
2.98261e-11
1.63875e-11
5.73886e-11
-1.30424e-14
-1.81863e-11
5.80501e-12
3.63792e-11
2.21087e-11
3.6912e-11
2.19627e-11
4.33222e-11
2.204e-11
4.91332e-11
2.04178e-11
5.59197e-11
3.50713e-12
4.69745e-11
-3.74683e-11
8.48809e-11
2.75538e-11
-8.05612e-10
4.28826e-10
6.12484e-10
-7.25825e-10
-3.37885e-10
9.18615e-11
-1.02703e-10
-1.99927e-10
-1.46403e-10
-1.00133e-10
-7.35938e-11
-7.63469e-11
-6.60207e-11
-6.77262e-11
-5.53273e-11
-5.81254e-11
-4.58671e-11
-4.73136e-11
-3.53927e-11
-4.08482e-11
-2.96506e-11
-3.20384e-11
-1.94748e-11
-2.49876e-11
-1.41211e-11
-1.86786e-11
-6.73399e-12
-1.18602e-11
-5.27643e-13
-7.49609e-12
3.5435e-12
-2.60587e-12
9.80917e-12
3.73744e-12
1.57787e-11
6.17844e-12
1.78682e-11
9.35678e-12
2.36068e-11
1.28227e-11
2.98785e-11
1.6923e-11
5.19948e-11
-2.42532e-13
-1.18479e-11
5.86705e-12
3.69804e-11
2.18518e-11
3.78623e-11
2.11026e-11
4.46064e-11
2.0831e-11
5.09798e-11
1.86069e-11
5.88228e-11
1.33366e-12
5.12709e-11
-4.0208e-11
9.38871e-11
4.41811e-11
-8.54795e-10
4.98153e-10
6.84938e-10
-8.35977e-10
-4.08267e-10
1.27433e-10
-7.07796e-11
-1.93237e-10
-1.47328e-10
-9.95892e-11
-7.26165e-11
-7.6071e-11
-6.66025e-11
-6.84777e-11
-5.62381e-11
-5.8907e-11
-4.67484e-11
-4.80068e-11
-3.60512e-11
-4.13008e-11
-3.02818e-11
-3.25512e-11
-1.99998e-11
-2.53093e-11
-1.45732e-11
-1.89954e-11
-7.06914e-12
-1.20445e-11
-7.66863e-13
-7.63322e-12
3.31404e-12
-2.77719e-12
9.65498e-12
3.63697e-12
1.57338e-11
6.12337e-12
1.77945e-11
9.20761e-12
2.3593e-11
1.28982e-11
2.96617e-11
1.73563e-11
4.30629e-11
4.13256e-12
-1.50805e-13
6.49409e-12
3.73055e-11
2.15651e-11
3.8774e-11
2.03029e-11
4.5761e-11
1.97455e-11
5.26213e-11
1.70566e-11
6.1337e-11
-3.0801e-13
5.49482e-11
-4.20138e-11
1.01645e-10
6.10767e-11
-9.01474e-10
5.61551e-10
7.59914e-10
-9.36295e-10
-4.8343e-10
1.57702e-10
-3.73224e-11
-1.84404e-10
-1.48065e-10
-9.94516e-11
-7.18042e-11
-7.57727e-11
-6.71794e-11
-6.92485e-11
-5.7198e-11
-5.972e-11
-4.76711e-11
-4.8731e-11
-3.67622e-11
-4.17753e-11
-3.09383e-11
-3.30832e-11
-2.05696e-11
-2.56505e-11
-1.50503e-11
-1.93251e-11
-7.43593e-12
-1.22375e-11
-1.0316e-12
-7.77252e-12
3.06689e-12
-2.94756e-12
9.47565e-12
3.54126e-12
1.56575e-11
6.08297e-12
1.76927e-11
9.08337e-12
2.35232e-11
1.30053e-11
2.93562e-11
1.72765e-11
3.72673e-11
1.07439e-11
8.19034e-12
6.82654e-12
3.73842e-11
2.1255e-11
3.96e-11
1.96096e-11
4.6737e-11
1.88457e-11
5.39819e-11
1.58624e-11
6.33533e-11
-1.2872e-12
5.78707e-11
-4.27438e-11
1.08063e-10
7.7934e-11
-9.43746e-10
6.16323e-10
8.35084e-10
-1.02265e-09
-5.61386e-10
1.8105e-10
-3.26319e-12
-1.73302e-10
-1.48475e-10
-9.97879e-11
-7.12333e-11
-7.54721e-11
-6.77482e-11
-7.00362e-11
-5.82067e-11
-6.05645e-11
-4.86348e-11
-4.94847e-11
-3.75234e-11
-4.22719e-11
-3.16196e-11
-3.36324e-11
-2.11828e-11
-2.60118e-11
-1.55529e-11
-1.96664e-11
-7.83474e-12
-1.24387e-11
-1.32173e-12
-7.91283e-12
2.8008e-12
-3.11476e-12
9.26909e-12
3.45263e-12
1.55474e-11
6.06106e-12
1.75568e-11
8.99794e-12
2.33814e-11
1.31786e-11
2.89321e-11
1.7246e-11
3.35454e-11
1.36548e-11
1.47043e-11
7.66172e-12
3.74554e-11
2.10213e-11
4.03255e-11
1.90723e-11
4.74915e-11
1.81878e-11
5.49933e-11
1.51056e-11
6.47775e-11
-1.49414e-12
5.99247e-11
-4.22809e-11
1.13106e-10
9.44813e-11
-9.79955e-10
6.59792e-10
9.08088e-10
-1.09128e-09
-6.40083e-10
1.9607e-10
3.04232e-11
-1.5989e-10
-1.48422e-10
-1.00648e-10
-7.0979e-11
-7.51934e-11
-6.83066e-11
-7.08383e-11
-5.92633e-11
-6.14406e-11
-4.96382e-11
-5.02664e-11
-3.83322e-11
-4.27903e-11
-3.23252e-11
-3.41976e-11
-2.18377e-11
-2.63932e-11
-1.60811e-11
-2.0018e-11
-8.26548e-12
-1.26478e-11
-1.63719e-12
-8.05302e-12
2.51494e-12
-3.27666e-12
9.03412e-12
3.37234e-12
1.54028e-11
6.05857e-12
1.73862e-11
8.94774e-12
2.31731e-11
1.33877e-11
2.84424e-11
1.73248e-11
3.09607e-11
1.55814e-11
2.01045e-11
8.88865e-12
3.74969e-11
2.08475e-11
4.08978e-11
1.87188e-11
4.79852e-11
1.78183e-11
5.56002e-11
1.48597e-11
6.55369e-11
-8.3952e-13
6.10273e-11
-4.05273e-11
1.1668e-10
1.10584e-10
-1.00844e-09
6.89359e-10
9.76705e-10
-1.13868e-09
-7.17506e-10
2.01654e-10
6.2794e-11
-1.44224e-10
-1.47792e-10
-1.02065e-10
-7.11122e-11
-7.49658e-11
-6.88545e-11
-7.16527e-11
-6.03667e-11
-6.23479e-11
-5.06799e-11
-5.10759e-11
-3.91862e-11
-4.33297e-11
-3.3054e-11
-3.47784e-11
-2.2533e-11
-2.67946e-11
-1.66348e-11
-2.0379e-11
-8.72762e-12
-1.28648e-11
-1.97784e-12
-8.19182e-12
2.20915e-12
-3.43163e-12
8.77038e-12
3.30058e-12
1.52236e-11
6.0754e-12
1.71832e-11
8.92536e-12
2.29146e-11
1.35973e-11
2.797e-11
1.73895e-11
2.92492e-11
1.67267e-11
2.43651e-11
1.02997e-11
3.74755e-11
2.07409e-11
4.12859e-11
1.85732e-11
4.81918e-11
1.77837e-11
5.5766e-11
1.51697e-11
6.55902e-11
7.2597e-13
6.11356e-11
-3.73819e-11
1.18523e-10
1.26348e-10
-1.02764e-09
7.02319e-10
1.03892e-09
-1.16163e-09
-7.91802e-10
1.97038e-10
9.30199e-11
-1.26538e-10
-1.46513e-10
-1.04067e-10
-7.17047e-11
-7.48249e-11
-6.93974e-11
-7.24818e-11
-6.15193e-11
-6.32893e-11
-5.17604e-11
-5.19159e-11
-4.00847e-11
-4.38899e-11
-3.3806e-11
-3.53759e-11
-2.32684e-11
-2.7216e-11
-1.72147e-11
-2.07499e-11
-9.2209e-12
-1.30905e-11
-2.34388e-12
-8.32817e-12
1.88362e-12
-3.57859e-12
8.47818e-12
3.23689e-12
1.50098e-11
6.11211e-12
1.69494e-11
8.92637e-12
2.26149e-11
1.37986e-11
2.75332e-11
1.74177e-11
2.81828e-11
1.7382e-11
2.76408e-11
1.18301e-11
3.74049e-11
2.07397e-11
4.14768e-11
1.86665e-11
4.80973e-11
1.81039e-11
5.54791e-11
1.60532e-11
6.49351e-11
3.2107e-12
6.02487e-11
-3.27087e-11
1.18162e-10
1.42111e-10
-1.03604e-09
6.95684e-10
1.09299e-09
-1.15713e-09
-8.61427e-10
1.817e-10
1.20467e-10
-1.0706e-10
-1.44538e-10
-1.06677e-10
-7.28321e-11
-7.48098e-11
-6.99425e-11
-7.33285e-11
-6.27263e-11
-6.42679e-11
-5.28823e-11
-5.27897e-11
-4.10289e-11
-4.44696e-11
-3.45814e-11
-3.59907e-11
-2.40447e-11
-2.76562e-11
-1.78225e-11
-2.11307e-11
-9.74663e-12
-1.33248e-11
-2.73635e-12
-8.46008e-12
1.53723e-12
-3.71614e-12
8.15665e-12
3.18125e-12
1.47609e-11
6.17041e-12
1.66853e-11
8.94698e-12
2.22783e-11
1.3989e-11
2.7125e-11
1.7424e-11
2.75641e-11
1.77612e-11
3.0099e-11
1.34365e-11
3.72903e-11
2.08711e-11
4.14553e-11
1.9001e-11
4.76926e-11
1.8785e-11
5.47402e-11
1.75047e-11
6.35865e-11
6.60442e-12
5.83426e-11
-2.62326e-11
1.1487e-10
1.5895e-10
-1.03199e-09
6.66231e-10
1.75763e-10
1.49371e-10
-5.34337e-11
-2.16064e-10
-2.27145e-10
-1.91912e-10
-1.38419e-10
-1.10134e-10
-8.14022e-11
-7.55905e-11
-5.97412e-11
-6.05528e-11
-4.80698e-11
-5.11785e-11
-3.88299e-11
-4.19147e-11
-3.14422e-11
-3.66552e-11
-2.42498e-11
-2.77474e-11
-1.6261e-11
-2.20597e-11
-1.05969e-11
-1.61387e-11
-4.70385e-12
-1.02822e-11
6.9476e-13
-6.08279e-12
5.11162e-12
-1.17108e-12
1.04252e-11
4.56681e-12
1.49282e-11
7.08345e-12
1.78542e-11
1.10731e-11
2.14847e-11
1.48651e-11
2.43243e-11
1.68939e-11
2.53129e-11
1.93669e-11
2.67599e-11
2.11479e-11
2.86084e-11
2.28996e-11
2.96698e-11
2.71508e-11
3.13574e-11
3.06546e-11
3.23599e-11
3.4996e-11
2.63926e-11
2.60049e-11
2.3578e-15
1.03446e-12
-5.26192e-11
-1.19165e-10
-3.41716e-10
-5.63294e-11
1.86221e-10
1.5493e-10
-5.5527e-11
-2.18432e-10
-2.28355e-10
-1.92258e-10
-1.38603e-10
-1.10211e-10
-8.15626e-11
-7.56887e-11
-5.98989e-11
-6.06233e-11
-4.82046e-11
-5.12296e-11
-3.89361e-11
-4.19335e-11
-3.15384e-11
-3.6677e-11
-2.43352e-11
-2.7742e-11
-1.63395e-11
-2.20557e-11
-1.06689e-11
-1.61169e-11
-4.76884e-12
-1.02549e-11
6.30309e-13
-6.05566e-12
5.05078e-12
-1.13243e-12
1.03716e-11
4.61303e-12
1.48705e-11
7.11989e-12
1.77999e-11
1.1127e-11
2.14382e-11
1.49226e-11
2.42829e-11
1.69455e-11
2.52573e-11
1.9362e-11
2.66991e-11
2.12212e-11
2.86003e-11
2.29799e-11
2.96801e-11
2.72579e-11
3.13995e-11
3.07662e-11
3.2462e-11
3.51413e-11
2.65924e-11
2.61518e-11
3.74993e-13
1.44026e-12
-5.1012e-11
-1.18186e-10
-3.49007e-10
-6.12317e-11
1.99027e-10
1.60752e-10
-5.79204e-11
-2.21286e-10
-2.30027e-10
-1.92915e-10
-1.38846e-10
-1.10371e-10
-8.17036e-11
-7.58671e-11
-6.00533e-11
-6.07804e-11
-4.83244e-11
-5.13599e-11
-3.90284e-11
-4.20174e-11
-3.15934e-11
-3.67667e-11
-2.43971e-11
-2.78017e-11
-1.63766e-11
-2.21156e-11
-1.07021e-11
-1.6151e-11
-4.78911e-12
-1.02847e-11
6.17086e-13
-6.08586e-12
5.0399e-12
-1.1465e-12
1.03676e-11
4.60543e-12
1.48743e-11
7.10053e-12
1.7798e-11
1.11333e-11
2.14502e-11
1.49329e-11
2.43063e-11
1.69587e-11
2.52547e-11
1.92792e-11
2.66633e-11
2.1252e-11
2.86757e-11
2.30482e-11
2.97555e-11
2.7366e-11
3.15198e-11
3.0885e-11
3.26162e-11
3.53076e-11
2.68676e-11
2.63853e-11
8.2287e-13
1.85231e-12
-4.89001e-11
-1.14837e-10
-3.60231e-10
-6.69721e-11
2.13864e-10
1.66124e-10
-6.01235e-11
-2.2439e-10
-2.32446e-10
-1.93924e-10
-1.39166e-10
-1.1053e-10
-8.18269e-11
-7.60741e-11
-6.0235e-11
-6.09766e-11
-4.84654e-11
-5.15305e-11
-3.91433e-11
-4.21279e-11
-3.16424e-11
-3.68861e-11
-2.44761e-11
-2.78874e-11
-1.64082e-11
-2.21981e-11
-1.0737e-11
-1.6201e-11
-4.80196e-12
-1.03299e-11
6.17058e-13
-6.13192e-12
5.03811e-12
-1.17315e-12
1.03759e-11
4.5866e-12
1.49037e-11
7.06659e-12
1.78087e-11
1.11298e-11
2.14876e-11
1.49338e-11
2.4366e-11
1.69686e-11
2.52837e-11
1.9143e-11
2.6613e-11
2.1256e-11
2.88182e-11
2.31231e-11
2.98859e-11
2.74775e-11
3.17254e-11
3.09962e-11
3.28649e-11
3.5456e-11
2.73127e-11
2.65834e-11
1.50586e-12
2.12678e-12
-4.56378e-11
-1.09705e-10
-3.74667e-10
-7.29248e-11
2.28584e-10
1.69287e-10
-6.13531e-11
-2.26727e-10
-2.35386e-10
-1.95268e-10
-1.39542e-10
-1.10646e-10
-8.19243e-11
-7.63018e-11
-6.04639e-11
-6.12188e-11
-4.86487e-11
-5.17434e-11
-3.93013e-11
-4.22627e-11
-3.17025e-11
-3.70304e-11
-2.45899e-11
-2.79927e-11
-1.64486e-11
-2.22949e-11
-1.07902e-11
-1.62594e-11
-4.82167e-12
-1.03806e-11
6.16795e-13
-6.18353e-12
5.02975e-12
-1.20364e-12
1.03831e-11
4.56757e-12
1.4947e-11
7.02921e-12
1.78173e-11
1.11249e-11
2.15387e-11
1.49337e-11
2.44542e-11
1.69845e-11
2.53425e-11
1.89618e-11
2.65223e-11
2.12298e-11
2.90247e-11
2.32053e-11
3.00669e-11
2.75795e-11
3.20211e-11
3.10739e-11
3.32212e-11
3.55412e-11
2.79637e-11
2.66638e-11
2.49998e-12
2.11038e-12
-4.10754e-11
-1.03259e-10
-3.91341e-10
-7.76657e-11
2.41734e-10
1.67574e-10
-6.13447e-11
-2.27132e-10
-2.38424e-10
-1.96906e-10
-1.39942e-10
-1.10678e-10
-8.19726e-11
-7.65425e-11
-6.07436e-11
-6.1513e-11
-4.88818e-11
-5.20045e-11
-3.95103e-11
-4.24293e-11
-3.17801e-11
-3.72021e-11
-2.47443e-11
-2.81223e-11
-1.65017e-11
-2.2407e-11
-1.08666e-11
-1.63295e-11
-4.85135e-12
-1.04384e-11
6.1344e-13
-6.24129e-12
5.01118e-12
-1.24011e-12
1.03869e-11
4.54704e-12
1.50024e-11
6.98896e-12
1.7821e-11
1.11153e-11
2.16029e-11
1.49302e-11
2.45722e-11
1.70057e-11
2.54397e-11
1.87314e-11
2.63758e-11
2.11618e-11
2.92987e-11
2.32879e-11
3.03008e-11
2.76516e-11
3.24137e-11
3.10906e-11
3.37002e-11
3.55167e-11
2.88509e-11
2.65489e-11
3.8749e-12
1.64816e-12
-3.51288e-11
-9.58994e-11
-4.09712e-10
-7.89975e-11
2.53e-10
1.5811e-10
-6.04659e-11
-2.24503e-10
-2.41073e-10
-1.98776e-10
-1.40339e-10
-1.10592e-10
-8.19461e-11
-7.67837e-11
-6.10711e-11
-6.18597e-11
-4.91677e-11
-5.23164e-11
-3.97747e-11
-4.26346e-11
-3.18804e-11
-3.7402e-11
-2.49423e-11
-2.82812e-11
-1.65714e-11
-2.25357e-11
-1.09692e-11
-1.64149e-11
-4.89309e-12
-1.05054e-11
6.04586e-13
-6.30606e-12
4.98006e-12
-1.28509e-12
1.03861e-11
4.52267e-12
1.50682e-11
6.94623e-12
1.78189e-11
1.1097e-11
2.16797e-11
1.49202e-11
2.47217e-11
1.70315e-11
2.55865e-11
1.8446e-11
2.61599e-11
2.10416e-11
2.96435e-11
2.33632e-11
3.05924e-11
2.76729e-11
3.29117e-11
3.10189e-11
3.43222e-11
3.53342e-11
3.0009e-11
2.61582e-11
5.70877e-12
6.01283e-13
-2.77342e-11
-8.79677e-11
-4.29802e-10
-7.45585e-11
2.62973e-10
1.38236e-10
-5.96102e-11
-2.17865e-10
-2.42784e-10
-2.00803e-10
-1.40714e-10
-1.10346e-10
-8.18215e-11
-7.70113e-11
-6.14412e-11
-6.22564e-11
-4.95075e-11
-5.26785e-11
-4.00967e-11
-4.28819e-11
-3.20092e-11
-3.76293e-11
-2.51859e-11
-2.84726e-11
-1.66631e-11
-2.26812e-11
-1.11011e-11
-1.65179e-11
-4.94963e-12
-1.05822e-11
5.86497e-13
-6.37783e-12
4.93378e-12
-1.33986e-12
1.03789e-11
4.49349e-12
1.51404e-11
6.90215e-12
1.78097e-11
1.10675e-11
2.1768e-11
1.4902e-11
2.49026e-11
1.70614e-11
2.57953e-11
1.80966e-11
2.58639e-11
2.08613e-11
3.00608e-11
2.34227e-11
3.09483e-11
2.76228e-11
3.35238e-11
3.08319e-11
3.51096e-11
3.49482e-11
3.1474e-11
2.54196e-11
8.07385e-12
-1.13235e-12
-1.89013e-11
-7.96647e-11
-4.52017e-10
-6.22879e-11
2.73039e-10
1.05772e-10
-6.00918e-11
-2.06449e-10
-2.42966e-10
-2.02902e-10
-1.41065e-10
-1.09916e-10
-8.15791e-11
-7.72124e-11
-6.1848e-11
-6.26984e-11
-4.99011e-11
-5.30882e-11
-4.04763e-11
-4.31728e-11
-3.21719e-11
-3.78819e-11
-2.54752e-11
-2.86981e-11
-1.67816e-11
-2.28428e-11
-1.12645e-11
-1.66401e-11
-5.02376e-12
-1.0669e-11
5.55609e-13
-6.45619e-12
4.87011e-12
-1.4052e-12
1.03636e-11
4.45898e-12
1.5215e-11
6.85777e-12
1.77927e-11
1.10244e-11
2.18661e-11
1.48743e-11
2.51141e-11
1.70948e-11
2.608e-11
1.76724e-11
2.54785e-11
2.06152e-11
3.05524e-11
2.3457e-11
3.13758e-11
2.74825e-11
3.42588e-11
3.05056e-11
3.60828e-11
3.4318e-11
3.32746e-11
2.42803e-11
1.10163e-11
-3.59528e-12
-8.7238e-12
-7.10458e-11
-4.77034e-10
-4.06448e-11
2.8492e-10
5.92464e-11
-6.34038e-11
-1.89727e-10
-2.41036e-10
-2.04984e-10
-1.41403e-10
-1.09288e-10
-8.12041e-11
-7.73761e-11
-6.22863e-11
-6.31812e-11
-5.03475e-11
-5.35423e-11
-4.09121e-11
-4.35077e-11
-3.23731e-11
-3.81574e-11
-2.58089e-11
-2.89579e-11
-1.69315e-11
-2.30199e-11
-1.14603e-11
-1.67822e-11
-5.11783e-12
-1.07655e-11
5.08595e-13
-6.54074e-12
4.78786e-12
-1.48155e-12
1.03388e-11
4.41876e-12
1.52878e-11
6.81362e-12
1.7768e-11
1.09662e-11
2.1972e-11
1.48361e-11
2.53542e-11
1.71309e-11
2.64564e-11
1.71618e-11
2.49973e-11
2.0301e-11
3.11184e-11
2.34562e-11
3.18821e-11
2.72364e-11
3.51222e-11
3.00209e-11
3.72571e-11
3.34149e-11
3.54246e-11
2.2715e-11
1.45449e-11
-6.77059e-12
2.58514e-12
-6.19952e-11
-5.05485e-10
-8.83619e-12
3.00566e-10
-1.94396e-12
-7.11536e-11
-1.67497e-10
-2.36435e-10
-2.06938e-10
-1.41764e-10
-1.08465e-10
-8.0688e-11
-7.7495e-11
-6.27521e-11
-6.37013e-11
-5.08457e-11
-5.40378e-11
-4.14029e-11
-4.38863e-11
-3.26165e-11
-3.8454e-11
-2.61853e-11
-2.92517e-11
-1.71163e-11
-2.32118e-11
-1.16888e-11
-1.6945e-11
-5.23394e-12
-1.08715e-11
4.43045e-13
-6.6311e-12
4.68651e-12
-1.56931e-12
1.0303e-11
4.37257e-12
1.53552e-11
6.76987e-12
1.77366e-11
1.08914e-11
2.20836e-11
1.47867e-11
2.56201e-11
1.71681e-11
2.69387e-11
1.65525e-11
2.44166e-11
1.99196e-11
3.1757e-11
2.34113e-11
3.24722e-11
2.68739e-11
3.61148e-11
2.93662e-11
3.86381e-11
3.22311e-11
3.79167e-11
2.07314e-11
1.86247e-11
-1.05716e-11
1.47415e-11
-5.22909e-11
-5.37916e-10
3.31615e-11
3.21732e-10
-7.75818e-11
-8.48466e-11
-1.39874e-10
-2.28666e-10
-2.08626e-10
-1.42188e-10
-1.07463e-10
-8.00297e-11
-7.75643e-11
-6.32431e-11
-6.42563e-11
-5.13961e-11
-5.4573e-11
-4.19474e-11
-4.43082e-11
-3.2906e-11
-3.87703e-11
-2.66019e-11
-2.95786e-11
-1.73395e-11
-2.34183e-11
-1.19496e-11
-1.71286e-11
-5.37389e-12
-1.09866e-11
3.56974e-13
-6.72715e-12
4.56622e-12
-1.66863e-12
1.02554e-11
4.32042e-12
1.54144e-11
6.72618e-12
1.76993e-11
1.07992e-11
2.21986e-11
1.47254e-11
2.59081e-11
1.72023e-11
2.75457e-11
1.58469e-11
2.37353e-11
1.94736e-11
3.24623e-11
2.33148e-11
3.31472e-11
2.63909e-11
3.72329e-11
2.85367e-11
4.02185e-11
3.07759e-11
4.07209e-11
1.83735e-11
2.31797e-11
-1.48533e-11
2.73859e-11
-4.16882e-11
-5.74548e-10
8.46909e-11
3.50066e-10
-1.66669e-10
-1.0591e-10
-1.07349e-10
-2.17314e-10
-2.09857e-10
-1.42706e-10
-1.06315e-10
-7.92348e-11
-7.75805e-11
-6.37568e-11
-6.48444e-11
-5.19983e-11
-5.51462e-11
-4.25443e-11
-4.47725e-11
-3.32445e-11
-3.91054e-11
-2.70566e-11
-2.99375e-11
-1.76033e-11
-2.36396e-11
-1.22419e-11
-1.73331e-11
-5.53933e-12
-1.11108e-11
2.49291e-13
-6.82886e-12
4.42734e-12
-1.77949e-12
1.01948e-11
4.26225e-12
1.54635e-11
6.68206e-12
1.76572e-11
1.06893e-11
2.23142e-11
1.46523e-11
2.62124e-11
1.72283e-11
2.82876e-11
1.50619e-11
2.29656e-11
1.89691e-11
3.32244e-11
2.3163e-11
3.39039e-11
2.57904e-11
3.8459e-11
2.75504e-11
4.19753e-11
2.9079e-11
4.37829e-11
1.57183e-11
2.80955e-11
-1.9424e-11
4.01772e-11
-3.00261e-11
-6.15413e-10
1.44598e-10
3.86573e-10
-2.67366e-10
-1.35341e-10
-7.07491e-11
-2.02124e-10
-2.10416e-10
-1.43343e-10
-1.0507e-10
-7.83182e-11
-7.75413e-11
-6.429e-11
-6.54632e-11
-5.26521e-11
-5.57555e-11
-4.31918e-11
-4.52781e-11
-3.36346e-11
-3.94593e-11
-2.75465e-11
-3.03268e-11
-1.79102e-11
-2.38761e-11
-1.25644e-11
-1.75579e-11
-5.73153e-12
-1.12438e-11
1.18981e-13
-6.93636e-12
4.27074e-12
-1.90143e-12
1.01206e-11
4.19802e-12
1.55e-11
6.6369e-12
1.76115e-11
1.05628e-11
2.24271e-11
1.45682e-11
2.65242e-11
1.72399e-11
2.91514e-11
1.42439e-11
2.21522e-11
1.84154e-11
3.40278e-11
2.29576e-11
3.47334e-11
2.50851e-11
3.97737e-11
2.64279e-11
4.38717e-11
2.71914e-11
4.70264e-11
1.28726e-11
3.32278e-11
-2.40692e-11
5.27499e-11
-1.71978e-11
-6.60065e-10
2.11172e-10
4.3161e-10
-3.76934e-10
-1.73629e-10
-3.12133e-11
-1.83014e-10
-2.10063e-10
-1.44112e-10
-1.03797e-10