/*--------------------------------*- C++ -*----------------------------------*\
| =========                 |                                                 |
| \\      /  F ield         | OpenFOAM: The Open Source CFD Toolbox           |
|  \\    /   O peration     | Version:  2312                                  |
|   \\  /    A nd           | Website:  www.openfoam.com                      |
|    \\/     M anipulation  |                                                 |
\*---------------------------------------------------------------------------*/
FoamFile
{
    version     2.0;
    format      ascii;
    arch        "LSB;label=32;scalar=64";
    class       volScalarField;
    location    "960";
    object      pMean;
}
// * * * * * * * * * * * * * * * * * * * * * * * * * * * * * * * * * * * * * //

dimensions      [0 2 -2 0 0 0 0];

internalField   nonuniform List<scalar> 
144000
(
5.97479e-10
3.07742e-10
-3.09591e-10
-6.04191e-10
-5.20173e-10
-3.64585e-10
-2.1366e-10
-1.32423e-10
-6.11009e-11
-4.25006e-11
-9.53624e-12
-1.24726e-11
9.90906e-12
-2.24513e-13
1.99904e-11
8.13466e-12
2.50775e-11
8.15525e-12
2.70044e-11
1.2329e-11
3.11652e-11
1.29717e-11
3.23425e-11
1.45917e-11
3.49834e-11
1.67925e-11
3.71379e-11
1.65562e-11
3.78318e-11
1.77502e-11
4.04923e-11
2.04512e-11
4.21857e-11
1.84002e-11
4.1062e-11
1.86068e-11
4.19512e-11
1.91681e-11
4.18104e-11
1.71764e-11
3.91406e-11
1.63686e-11
3.89586e-11
1.44689e-11
3.64409e-11
1.17755e-11
3.31792e-11
1.36856e-11
3.2515e-11
1.70286e-11
3.20131e-11
2.58549e-11
2.65021e-11
2.68948e-11
-1.30549e-12
2.34496e-11
-2.79565e-11
-9.52852e-12
-8.62375e-10
-1.936e-10
6.22897e-10
3.22939e-10
-3.15834e-10
-6.09446e-10
-5.22004e-10
-3.64795e-10
-2.13864e-10
-1.32616e-10
-6.14646e-11
-4.27991e-11
-9.90164e-12
-1.26943e-11
9.62124e-12
-3.78528e-13
1.97678e-11
8.05746e-12
2.48907e-11
8.07917e-12
2.68342e-11
1.23107e-11
3.10193e-11
1.29552e-11
3.22042e-11
1.46122e-11
3.48611e-11
1.68297e-11
3.70179e-11
1.65928e-11
3.77126e-11
1.7809e-11
4.03846e-11
2.05304e-11
4.20745e-11
1.84653e-11
4.09457e-11
1.87043e-11
4.18459e-11
1.92755e-11
4.17058e-11
1.7271e-11
3.89707e-11
1.63724e-11
3.87602e-11
1.46166e-11
3.63419e-11
1.19552e-11
3.308e-11
1.3923e-11
3.24444e-11
1.72827e-11
3.19877e-11
2.6166e-11
2.65659e-11
2.71669e-11
-1.15471e-12
2.34963e-11
-2.49722e-11
-1.32079e-12
-8.7828e-10
-2.13172e-10
6.5678e-10
3.28552e-10
-3.25459e-10
-6.1199e-10
-5.22905e-10
-3.64739e-10
-2.13782e-10
-1.32759e-10
-6.17001e-11
-4.32437e-11
-1.02904e-11
-1.31138e-11
9.33466e-12
-7.22411e-13
1.95527e-11
7.82253e-12
2.47754e-11
7.84637e-12
2.67057e-11
1.21418e-11
3.09597e-11
1.27929e-11
3.21458e-11
1.44944e-11
3.48395e-11
1.67303e-11
3.70131e-11
1.64877e-11
3.77027e-11
1.77293e-11
4.03951e-11
2.0475e-11
4.21103e-11
1.83855e-11
4.09557e-11
1.86625e-11
4.18866e-11
1.92443e-11
4.17593e-11
1.72386e-11
3.89236e-11
1.61673e-11
3.86459e-11
1.45823e-11
3.64357e-11
1.20237e-11
3.31477e-11
1.40537e-11
3.25701e-11
1.74273e-11
3.21264e-11
2.63568e-11
2.68528e-11
2.73307e-11
-6.53912e-13
2.24613e-11
-2.17551e-11
1.31048e-11
-9.05412e-10
-2.27477e-10
6.92866e-10
3.13512e-10
-3.35781e-10
-6.08335e-10
-5.22674e-10
-3.64462e-10
-2.13339e-10
-1.32563e-10
-6.1708e-11
-4.36624e-11
-1.0745e-11
-1.36436e-11
8.9654e-12
-1.16462e-12
1.92548e-11
7.51656e-12
2.4638e-11
7.54306e-12
2.65105e-11
1.19127e-11
3.0885e-11
1.25807e-11
3.20528e-11
1.43366e-11
3.4804e-11
1.66036e-11
3.70137e-11
1.63524e-11
3.76817e-11
1.76225e-11
4.04044e-11
2.04037e-11
4.21757e-11
1.82846e-11
4.09616e-11
1.8601e-11
4.19478e-11
1.92021e-11
4.18516e-11
1.72159e-11
3.88775e-11
1.58923e-11
3.84555e-11
1.44506e-11
3.65966e-11
1.20979e-11
3.32628e-11
1.41667e-11
3.2807e-11
1.75125e-11
3.24158e-11
2.63948e-11
2.75368e-11
2.70494e-11
7.0665e-13
1.93774e-11
-1.50527e-11
2.73583e-11
-9.40435e-10
-2.25073e-10
7.25314e-10
2.67175e-10
-3.44903e-10
-5.92618e-10
-5.20071e-10
-3.64237e-10
-2.12725e-10
-1.31979e-10
-6.14527e-11
-4.40212e-11
-1.12919e-11
-1.42782e-11
8.47713e-12
-1.70582e-12
1.88356e-11
7.14546e-12
2.44425e-11
7.18159e-12
2.62126e-11
1.1633e-11
3.07618e-11
1.23375e-11
3.18869e-11
1.41544e-11
3.47213e-11
1.6469e-11
3.69842e-11
1.62116e-11
3.76103e-11
1.75091e-11
4.03757e-11
2.03446e-11
4.22357e-11
1.81929e-11
4.09233e-11
1.85444e-11
4.1995e-11
1.91756e-11
4.19527e-11
1.72444e-11
3.88054e-11
1.56226e-11
3.81083e-11
1.42119e-11
3.67772e-11
1.22168e-11
3.33869e-11
1.42611e-11
3.31323e-11
1.75101e-11
3.28787e-11
2.61833e-11
2.87285e-11
2.60799e-11
3.27956e-12
1.387e-11
-3.86976e-12
3.81759e-11
-9.81211e-10
-1.96497e-10
7.54129e-10
1.82876e-10
-3.53898e-10
-5.61657e-10
-5.13631e-10
-3.64384e-10
-2.12201e-10
-1.31076e-10
-6.09673e-11
-4.43359e-11
-1.19551e-11
-1.50352e-11
7.85394e-12
-2.3554e-12
1.82854e-11
6.69724e-12
2.41792e-11
6.76764e-12
2.58086e-11
1.13001e-11
3.05823e-11
1.20675e-11
3.16443e-11
1.39455e-11
3.45862e-11
1.6328e-11
3.69187e-11
1.60695e-11
3.74821e-11
1.73906e-11
4.03044e-11
2.02979e-11
4.22809e-11
1.81162e-11
4.08344e-11
1.84895e-11
4.20218e-11
1.91655e-11
4.20601e-11
1.73401e-11
3.87161e-11
1.53726e-11
3.75498e-11
1.38252e-11
3.69593e-11
1.23798e-11
3.35219e-11
1.43113e-11
3.35593e-11
1.73704e-11
3.35615e-11
2.56061e-11
3.05554e-11
2.42016e-11
7.3814e-12
5.71367e-12
1.20289e-11
4.45568e-11
-1.02862e-09
-1.36399e-10
7.82645e-10
5.84653e-11
-3.66085e-10
-5.1409e-10
-5.01848e-10
-3.64969e-10
-2.12021e-10
-1.29931e-10
-6.02782e-11
-4.46362e-11
-1.27636e-11
-1.59397e-11
7.07509e-12
-3.12226e-12
1.75956e-11
6.16112e-12
2.38385e-11
6.30471e-12
2.53004e-11
1.09127e-11
3.03432e-11
1.17777e-11
3.13258e-11
1.37113e-11
3.43982e-11
1.6184e-11
3.68128e-11
1.59324e-11
3.72968e-11
1.72699e-11
4.01883e-11
2.02649e-11
4.23064e-11
1.80611e-11
4.06962e-11
1.84357e-11
4.20278e-11
1.91707e-11
4.21787e-11
1.75079e-11
3.86553e-11
1.51505e-11
3.67027e-11
1.32436e-11
3.71474e-11
1.25819e-11
3.36785e-11
1.42793e-11
3.41059e-11
1.70375e-11
3.45218e-11
2.45676e-11
3.31076e-11
2.12681e-11
1.31167e-11
-4.87503e-12
3.19489e-11
4.70946e-11
-1.08339e-09
-4.40076e-11
8.14453e-10
-1.0243e-10
-3.84859e-10
-4.50679e-10
-4.83497e-10
-3.65878e-10
-2.12397e-10
-1.28625e-10
-5.94069e-11
-4.49384e-11
-1.37351e-11
-1.70134e-11
6.11607e-12
-4.01786e-12
1.67526e-11
5.52547e-12
2.34014e-11
5.79266e-12
2.46877e-11
1.04685e-11
3.00349e-11
1.14716e-11
3.09311e-11
1.34543e-11
3.41546e-11
1.60401e-11
3.66625e-11
1.58065e-11
3.70552e-11
1.71514e-11
4.00269e-11
2.02491e-11
4.23053e-11
1.80331e-11
4.05108e-11
1.83814e-11
4.20145e-11
1.91868e-11
4.232e-11
1.77467e-11
3.87015e-11
1.49273e-11
3.5457e-11
1.24188e-11
3.73495e-11
1.28102e-11
3.38758e-11
1.41313e-11
3.47931e-11
1.64662e-11
3.57985e-11
2.30107e-11
3.63966e-11
1.73239e-11
2.03171e-11
-1.71943e-11
5.42143e-11
4.75878e-11
-1.1449e-09
7.52923e-11
8.52983e-10
-2.91785e-10
-4.13304e-10
-3.74161e-10
-4.57766e-10
-3.66785e-10
-2.13514e-10
-1.2726e-10
-5.83834e-11
-4.52494e-11
-1.48883e-11
-1.82635e-11
4.96581e-12
-5.05046e-12
1.57481e-11
4.77943e-12
2.28488e-11
5.22852e-12
2.39677e-11
9.96491e-12
2.96447e-11
1.11487e-11
3.0458e-11
1.31749e-11
3.38507e-11
1.58969e-11
3.64619e-11
1.56955e-11
3.67569e-11
1.70384e-11
3.98199e-11
2.02519e-11
4.22721e-11
1.80352e-11
4.02842e-11
1.83251e-11
4.19853e-11
1.92039e-11
4.25026e-11
1.80449e-11
3.89777e-11
1.46586e-11
3.36612e-11
1.13102e-11
3.7586e-11
1.30507e-11
3.41332e-11
1.38424e-11
3.56316e-11
1.56413e-11
3.73985e-11
2.09485e-11
4.03349e-11
1.2562e-11
2.85533e-11
-3.02448e-11
7.68335e-11
4.82176e-11
-1.21154e-09
2.12172e-10
8.99753e-10
-4.99384e-10
-4.53383e-10
-2.88559e-10
-4.24433e-10
-3.67251e-10
-2.15482e-10
-1.25956e-10
-5.72341e-11
-4.55664e-11
-1.62139e-11
-1.96848e-11
3.62211e-12
-6.2184e-12
1.45814e-11
3.9224e-12
2.21678e-11
4.60908e-12
2.31422e-11
9.40037e-12
2.91629e-11
1.08069e-11
2.99059e-11
1.28719e-11
3.34821e-11
1.57553e-11
3.62044e-11
1.55972e-11
3.64025e-11
1.69308e-11
3.95669e-11
2.02732e-11
4.22006e-11
1.80674e-11
4.00212e-11
1.82638e-11
4.19432e-11
1.9213e-11
4.2744e-11
1.83894e-11
3.96406e-11
1.42623e-11
3.11284e-11
9.88928e-12
3.7881e-11
1.32882e-11
3.44673e-11
1.34027e-11
3.66181e-11
1.45719e-11
3.92883e-11
1.84681e-11
4.47419e-11
7.32433e-12
3.72421e-11
-4.29166e-11
9.79232e-11
5.0727e-11
-1.28023e-09
3.56979e-10
9.54372e-10
-7.13228e-10
-5.05793e-10
-1.98644e-10
-3.83859e-10
-3.66753e-10
-2.18332e-10
-1.24847e-10
-5.60137e-11
-4.58825e-11
-1.7699e-11
-2.1266e-11
2.0898e-12
-7.5151e-12
1.32578e-11
2.95492e-12
2.13524e-11
3.93501e-12
2.22132e-11
8.77604e-12
2.85835e-11
1.04438e-11
2.92754e-11
1.25448e-11
3.30452e-11
1.5612e-11
3.58859e-11
1.5511e-11
3.59943e-11
1.68298e-11
3.92667e-11
2.03111e-11
4.20864e-11
1.81261e-11
3.97277e-11
1.81973e-11
4.18883e-11
1.92016e-11
4.30674e-11
1.87671e-11
4.08934e-11
1.35521e-11
2.76283e-11
8.14581e-12
3.82549e-11
1.35126e-11
3.48781e-11
1.2821e-11
3.77249e-11
1.32969e-11
4.13896e-11
1.57081e-11
4.93741e-11
2.00505e-12
4.57576e-11
-5.42083e-11
1.1604e-10
5.62039e-11
-1.34706e-09
4.99983e-10
1.01478e-09
-9.23016e-10
-5.69595e-10
-1.08983e-10
-3.3692e-10
-3.64752e-10
-2.22001e-10
-1.24074e-10
-5.47818e-11
-4.61932e-11
-1.93252e-11
-2.29919e-11
3.76836e-13
-8.93187e-12
1.17826e-11
1.88262e-12
2.03996e-11
3.2072e-12
2.11862e-11
8.09543e-12
2.79022e-11
1.00567e-11
2.85683e-11
1.21931e-11
3.25375e-11
1.54658e-11
3.55036e-11
1.54342e-11
3.55343e-11
1.67346e-11
3.89188e-11
2.03628e-11
4.19281e-11
1.82084e-11
3.94059e-11
1.81249e-11
4.18202e-11
1.91574e-11
4.34932e-11
1.91498e-11
4.3088e-11
1.23483e-11
2.28286e-11
6.0992e-12
3.87182e-11
1.37093e-11
3.53505e-11
1.21243e-11
3.89189e-11
1.18789e-11
4.35943e-11
1.28438e-11
5.39667e-11
-2.98446e-12
5.35375e-11
-6.33324e-11
1.30269e-10
6.50584e-11
-1.40822e-09
6.32938e-10
1.07819e-09
-1.11976e-09
-6.42798e-10
-2.3778e-11
-2.84868e-10
-3.6072e-10
-2.26311e-10
-1.23767e-10
-5.36215e-11
-4.64966e-11
-2.1069e-11
-2.48437e-11
-1.50423e-12
-1.04598e-11
1.0166e-11
7.10781e-13
1.93108e-11
2.42778e-12
2.00685e-11
7.36308e-12
2.71183e-11
9.64414e-12
2.77884e-11
1.18184e-11
3.19596e-11
1.53143e-11
3.50583e-11
1.53641e-11
3.50247e-11
1.66442e-11
3.85227e-11
2.04258e-11
4.17223e-11
1.83117e-11
3.90581e-11
1.80491e-11
4.17336e-11
1.90772e-11
4.40196e-11
1.95329e-11
4.66216e-11
1.04472e-11
1.63909e-11
3.84186e-12
3.92848e-11
1.3878e-11
3.5864e-11
1.13482e-11
4.01274e-11
1.04089e-11
4.57803e-11
1.00616e-11
5.82559e-11
-7.29673e-12
6.01449e-11
-6.97928e-11
1.40266e-10
7.69242e-11
-1.46051e-09
7.49875e-10
1.14134e-09
-1.29684e-09
-7.22724e-10
5.35805e-11
-2.29239e-10
-3.54211e-10
-2.31009e-10
-1.24032e-10
-5.26197e-11
-4.67962e-11
-2.29055e-11
-2.67992e-11
-3.53951e-12
-1.20849e-11
8.42059e-12
-5.49912e-13
1.80904e-11
1.60033e-12
1.88689e-11
6.58393e-12
2.62329e-11
9.20527e-12
2.69406e-11
1.1423e-11
3.13125e-11
1.51557e-11
3.45509e-11
1.52981e-11
3.44686e-11
1.65585e-11
3.80797e-11
2.0498e-11
4.14655e-11
1.84347e-11
3.86825e-11
1.79804e-11
4.16114e-11
1.89827e-11
4.45824e-11
1.99931e-11
5.17489e-11
7.35555e-12
8.04951e-12
1.56976e-12
3.9995e-11
1.40511e-11
3.64065e-11
1.05461e-11
4.12933e-11
8.98294e-12
4.78244e-11
7.54405e-12
6.20162e-11
-1.06642e-11
6.52983e-11
-7.33822e-11
1.46172e-10
9.0967e-11
-1.50147e-09
8.4721e-10
1.20074e-09
-1.44947e-09
-8.0613e-10
1.20537e-10
-1.71746e-10
-3.44923e-10
-2.35799e-10
-1.24946e-10
-5.1875e-11
-4.7104e-11
-2.48099e-11
-2.88372e-11
-5.7143e-12
-1.37965e-11
6.55765e-12
-1.8904e-12
1.67445e-11
7.2754e-13
1.75952e-11
5.76352e-12
2.52501e-11
8.7391e-12
2.60303e-11
1.10087e-11
3.05986e-11
1.49886e-11
3.39831e-11
1.52345e-11
3.38699e-11
1.64779e-11
3.75906e-11
2.05783e-11
4.11561e-11
1.8578e-11
3.82757e-11
1.79308e-11
4.14374e-11
1.89003e-11
4.51047e-11
2.05537e-11
5.94903e-11
1.29019e-12
-3.14959e-12
-7.61683e-13
4.07683e-11
1.42338e-11
3.6953e-11
9.77898e-12
4.23521e-11
7.69306e-12
4.96109e-11
5.44098e-12
6.5074e-11
-1.29103e-11
6.88661e-11
-7.41384e-11
1.48401e-10
1.06201e-10
-1.52936e-09
9.22973e-10
1.25306e-09
-1.57472e-09
-8.89576e-10
1.75402e-10
-1.14162e-10
-3.32712e-10
-2.40357e-10
-1.2656e-10
-5.14926e-11
-4.74414e-11
-2.67605e-11
-3.09376e-11
-8.01447e-12
-1.55863e-11
4.58821e-12
-3.30177e-12
1.52818e-11
-1.88153e-13
1.62551e-11
4.90727e-12
2.41752e-11
8.24518e-12
2.50625e-11
1.05774e-11
2.98208e-11
1.48115e-11
3.3358e-11
1.51721e-11
3.32322e-11
1.64028e-11
3.70571e-11
2.06651e-11
4.07943e-11
1.87396e-11
3.78395e-11
1.79009e-11
4.12154e-11
1.88252e-11
4.55811e-11
2.05647e-11
7.2194e-11
-1.92007e-12
-1.80722e-11
-3.46908e-12
4.12106e-11
1.43564e-11
3.74282e-11
9.08614e-12
4.32298e-11
6.6188e-12
5.10394e-11
3.87113e-12
6.73117e-11
-1.39433e-11
7.08527e-11
-7.22764e-11
1.47602e-10
1.21604e-10
-1.54312e-09
9.76703e-10
1.29538e-09
-1.67114e-09
-9.69734e-10
2.17209e-10
-5.816e-11
-3.17578e-10
-2.4435e-10
-1.28886e-10
-5.15749e-11
-4.78372e-11
-2.87377e-11
-3.30805e-11
-1.04266e-11
-1.7446e-11
2.52275e-12
-4.77499e-12
1.37114e-11
-1.14385e-12
1.48559e-11
4.02014e-12
2.30149e-11
7.72325e-12
2.40417e-11
1.01309e-11
2.89828e-11
1.46234e-11
3.26797e-11
1.51099e-11
3.25589e-11
1.63338e-11
3.64802e-11
2.07584e-11
4.03795e-11
1.89236e-11
3.73634e-11
1.79167e-11
4.0895e-11
1.88865e-11
4.57146e-11
2.04806e-11
8.02659e-11
-2.10643e-14
-2.74373e-11
-5.41323e-12
4.13206e-11
1.44748e-11
3.78296e-11
8.53215e-12
4.38725e-11
5.8321e-12
5.2032e-11
2.91738e-12
6.86672e-11
-1.37455e-11
7.13779e-11
-6.8126e-11
1.44538e-10
1.36186e-10
-1.54234e-09
1.00897e-09
1.32551e-09
-1.73861e-09
-1.04371e-09
2.45651e-10
-5.27428e-12
-2.99654e-10
-2.47458e-10
-1.31899e-10
-5.22139e-11
-4.83248e-11
-3.07238e-11
-3.52467e-11
-1.29365e-11
-1.93682e-11
3.72251e-13
-6.30214e-12
1.20427e-11
-2.13666e-12
1.34052e-11
3.10696e-12
2.17755e-11
7.17343e-12
2.29738e-11
9.67119e-12
2.80895e-11
1.44234e-11
3.19518e-11
1.50472e-11
3.18531e-11
1.62722e-11
3.58609e-11
2.08596e-11
3.99083e-11
1.91376e-11
3.68313e-11
1.80164e-11
4.04009e-11
1.92608e-11
4.511e-11
2.14589e-11
7.15254e-11
3.28184e-13
-1.84147e-11
-4.6362e-12
4.1302e-11
1.47172e-11
3.81844e-11
8.19271e-12
4.4246e-11
5.39426e-12
5.25421e-11
2.62989e-12
6.91326e-11
-1.23685e-11
7.06336e-11
-6.20884e-11
1.3989e-10
1.49094e-10
-1.52724e-09
1.02117e-09
1.34159e-09
-1.77774e-09
-1.10885e-09
2.60969e-10
4.31515e-11
-2.79221e-10
-2.49405e-10
-1.35541e-10
-5.34898e-11
-4.89428e-11
-3.27056e-11
-3.74181e-11
-1.55303e-11
-2.13451e-11
-1.85369e-12
-7.87609e-12
1.02851e-11
-3.16395e-12
1.19093e-11
2.17193e-12
2.04642e-11
6.59603e-12
2.1863e-11
9.19993e-12
2.71451e-11
1.42107e-11
3.11785e-11
1.49835e-11
3.11183e-11
1.62184e-11
3.5202e-11
2.09672e-11
3.93844e-11
1.93757e-11
3.62532e-11
1.8179e-11
3.97863e-11
1.98149e-11
4.40874e-11
2.2396e-11
5.78629e-11
5.19372e-12
-2.4511e-12
-2.6949e-12
4.08674e-11
1.49768e-11
3.8398e-11
8.0767e-12
4.43066e-11
5.33433e-12
5.25396e-11
3.01636e-12
6.87449e-11
-9.91583e-12
6.88321e-11
-5.4581e-11
1.34282e-10
1.59737e-10
-1.4983e-09
1.01486e-09
1.34236e-09
-1.78976e-09
-1.16299e-09
2.63813e-10
8.60313e-11
-2.56661e-10
-2.49986e-10
-1.39741e-10
-5.54705e-11
-4.97369e-11
-3.46778e-11
-3.95812e-11
-1.81963e-11
-2.33725e-11
-4.14778e-12
-9.49098e-12
8.4481e-12
-4.22355e-12
1.03738e-11
1.21834e-12
1.90879e-11
5.9912e-12
2.07132e-11
8.71831e-12
2.61536e-11
1.3985e-11
3.03636e-11
1.49185e-11
3.03575e-11
1.61728e-11
3.45061e-11
2.10804e-11
3.88116e-11
1.96338e-11
3.5639e-11
1.8383e-11
3.9104e-11
2.03997e-11
4.29901e-11
2.27461e-11
4.89102e-11
1.25405e-11
8.81204e-12
-9.13409e-13
4.00263e-11
1.52281e-11
3.84224e-11
8.2037e-12
4.40334e-11
5.66874e-12
5.20264e-11
4.0602e-12
6.75739e-11
-6.51801e-12
6.62096e-11
-4.59896e-11
1.28228e-10
1.67812e-10
-1.45628e-09
9.91685e-10
1.32697e-09
-1.77605e-09
-1.20434e-09
2.55161e-10
1.22535e-10
-2.32444e-10
-2.49062e-10
-1.44404e-10
-5.8203e-11
-5.07543e-11
-3.66416e-11
-4.17249e-11
-2.0924e-11
-2.54468e-11
-6.50423e-12
-1.11424e-11
6.54118e-12
-5.31313e-12
8.80284e-12
2.4862e-13
1.76535e-11
5.35893e-12
1.95272e-11
8.22687e-12
2.5119e-11
1.37461e-11
2.95116e-11
1.4852e-11
2.95725e-11
1.61356e-11
3.37748e-11
2.11999e-11
3.81919e-11
1.99149e-11
3.49834e-11
1.86397e-11
3.83374e-11
2.10379e-11
4.1781e-11
2.30549e-11
4.31092e-11
1.61741e-11
1.71973e-11
1.39173e-12
3.91738e-11
1.55878e-11
3.82705e-11
8.60504e-12
4.34333e-11
6.39957e-12
5.10233e-11
5.71923e-12
6.5711e-11
-2.31684e-12
6.2981e-11
-3.66509e-11
1.22037e-10
1.73287e-10
-1.40198e-09
9.52983e-10
1.2952e-09
-1.73843e-09
-1.2319e-09
2.36208e-10
1.52185e-10
-2.07069e-10
-2.46573e-10
-1.49423e-10
-6.17089e-11
-5.20379e-11
-3.86008e-11
-4.38401e-11
-2.37024e-11
-2.75639e-11
-8.91699e-12
-1.28269e-11
4.57282e-12
-6.43042e-12
7.20074e-12
-7.35874e-13
1.61676e-11
4.70002e-12
1.83083e-11
7.72593e-12
2.40453e-11
1.34937e-11
2.86264e-11
1.47839e-11
2.8766e-11
1.61065e-11
3.3011e-11
2.13241e-11
3.75302e-11
2.02154e-11
3.42924e-11
1.89379e-11
3.75035e-11
2.16981e-11
4.0526e-11
2.34298e-11
3.9045e-11
1.84262e-11
2.36335e-11
4.11086e-12
3.83588e-11
1.60528e-11
3.7919e-11
9.27598e-12
4.25173e-11
7.50972e-12
4.95685e-11
7.9331e-12
6.3267e-11
2.54059e-12
5.93466e-11
-2.68309e-11
1.15838e-10
1.76325e-10
-1.33628e-09
9.00036e-10
1.24734e-09
-1.67895e-09
-1.24532e-09
2.08355e-10
1.74876e-10
-1.81047e-10
-2.42543e-10
-1.54695e-10
-6.59851e-11
-5.36249e-11
-4.05631e-11
-4.59212e-11
-2.65216e-11
-2.972e-11
-1.13798e-11
-1.45433e-11
2.55103e-12
-7.57251e-12
5.57191e-12
-1.73527e-12
1.46358e-11
4.01546e-12
1.70593e-11
7.21497e-12
2.29367e-11
1.32267e-11
2.77119e-11
1.47141e-11
2.79411e-11
1.60847e-11
3.2219e-11
2.14497e-11
3.68322e-11
2.05302e-11
3.35763e-11
1.92584e-11
3.66338e-11
2.23228e-11
3.93353e-11
2.37707e-11
3.62153e-11
1.97889e-11
2.84221e-11
7.02075e-12
3.75638e-11
1.66189e-11
3.7356e-11
1.02008e-11
4.13093e-11
8.97194e-12
4.77245e-11
1.06238e-11
6.03647e-11
7.9096e-12
5.54865e-11
-1.67105e-11
1.09502e-10
1.77256e-10
-1.26003e-09
8.34045e-10
1.18441e-09
-1.59999e-09
-1.24513e-09
1.73084e-10
1.90912e-10
-1.54848e-10
-2.37075e-10
-1.6014e-10
-7.10263e-11
-5.55536e-11
-4.25438e-11
-4.79708e-11
-2.93775e-11
-3.19155e-11
-1.38896e-11
-1.62948e-11
4.79913e-13
-8.73756e-12
3.91979e-12
-2.752e-12
1.30614e-11
3.30585e-12
1.57827e-11
6.69198e-12
2.17965e-11
1.29432e-11
2.67707e-11
1.46426e-11
2.71011e-11
1.60686e-11
3.1403e-11
2.15731e-11
3.61025e-11
2.08563e-11
3.28428e-11
1.95891e-11
3.57454e-11
2.28976e-11
3.82349e-11
2.40519e-11
3.42814e-11
2.06658e-11
3.18628e-11
9.98319e-12
3.67911e-11
1.73018e-11
3.65932e-11
1.13607e-11
3.98485e-11
1.07458e-11
4.55693e-11
1.37035e-11
5.71394e-11
1.36491e-11
5.15547e-11
-6.34295e-12
1.02703e-10
1.76567e-10
-1.17404e-09
7.56111e-10
1.10804e-09
-1.50331e-09
-1.23246e-09
1.31653e-10
2.00848e-10
-1.2885e-10
-2.30297e-10
-1.65699e-10
-7.68306e-11
-5.7862e-11
-4.45621e-11
-4.9993e-11
-3.22714e-11
-3.41525e-11
-1.64478e-11
-1.8086e-11
-1.6398e-12
-9.92253e-12
2.24616e-12
-3.78755e-12
1.14451e-11
2.57345e-12
1.44786e-11
6.15561e-12
2.0625e-11
1.26425e-11
2.58039e-11
1.45707e-11
2.62472e-11
1.60575e-11
3.0565e-11
2.16914e-11
3.53442e-11
2.11931e-11
3.20973e-11
1.99215e-11
3.48452e-11
2.34217e-11
3.72172e-11
2.42891e-11
3.29744e-11
2.13e-11
3.42121e-11
1.29102e-11
3.60414e-11
1.81123e-11
3.56487e-11
1.27243e-11
3.8175e-11
1.27812e-11
4.31818e-11
1.70785e-11
5.37098e-11
1.96466e-11
4.76383e-11
4.3827e-12
9.48743e-11
1.74852e-10
-1.07899e-09
6.66763e-10
5.98672e-10
3.07997e-10
-3.09831e-10
-6.04562e-10
-5.20516e-10
-3.64196e-10
-2.12888e-10
-1.31659e-10
-6.06356e-11
-4.24479e-11
-9.78891e-12
-1.29152e-11
9.35803e-12
-8.39472e-13
1.93622e-11
7.50758e-12
2.45704e-11
7.79055e-12
2.67441e-11
1.2123e-11
3.10436e-11
1.29042e-11
3.23101e-11
1.45482e-11
3.49595e-11
1.67209e-11
3.71281e-11
1.65376e-11
3.7847e-11
1.76951e-11
4.049e-11
2.03371e-11
4.21536e-11
1.82218e-11
4.10464e-11
1.84272e-11
4.20506e-11
1.90182e-11
4.21128e-11
1.7229e-11
3.99209e-11
1.71303e-11
3.93777e-11
1.4971e-11
3.66787e-11
1.18303e-11
3.31451e-11
1.3694e-11
3.25055e-11
1.70911e-11
3.20408e-11
2.59533e-11
2.66658e-11
2.72765e-11
-9.07012e-13
2.42311e-11
-2.72807e-11
-1.00442e-11
-8.64746e-10
-1.94787e-10
6.24122e-10
3.23296e-10
-3.16109e-10
-6.09828e-10
-5.22331e-10
-3.64396e-10
-2.13081e-10
-1.31845e-10
-6.09981e-11
-4.27493e-11
-1.01585e-11
-1.31427e-11
9.06453e-12
-1.0003e-12
1.91329e-11
7.42187e-12
2.43796e-11
7.71078e-12
2.65715e-11
1.21008e-11
3.08975e-11
1.28874e-11
3.21712e-11
1.4567e-11
3.48363e-11
1.67566e-11
3.70103e-11
1.65774e-11
3.77299e-11
1.77563e-11
4.03832e-11
2.04177e-11
4.20426e-11
1.82904e-11
4.09282e-11
1.85288e-11
4.19418e-11
1.91329e-11
4.20045e-11
1.73416e-11
3.97827e-11
1.72007e-11
3.92346e-11
1.51346e-11
3.65806e-11
1.20101e-11
3.30464e-11
1.39303e-11
3.24349e-11
1.7345e-11
3.20142e-11
2.62631e-11
2.67317e-11
2.75501e-11
-7.50956e-13
2.42862e-11
-2.42825e-11
-1.80732e-12
-8.80663e-10
-2.14447e-10
6.5808e-10
3.29141e-10
-3.2578e-10
-6.12414e-10
-5.23219e-10
-3.6433e-10
-2.1298e-10
-1.31981e-10
-6.12283e-11
-4.31962e-11
-1.0553e-11
-1.35701e-11
8.77056e-12
-1.35307e-12
1.89094e-11
7.17507e-12
2.42569e-11
7.47219e-12
2.644e-11
1.19266e-11
3.08373e-11
1.27253e-11
3.21132e-11
1.44471e-11
3.48144e-11
1.66546e-11
3.70085e-11
1.64768e-11
3.77249e-11
1.76791e-11
4.03962e-11
2.03633e-11
4.20798e-11
1.8214e-11
4.09379e-11
1.84902e-11
4.198e-11
1.91073e-11
4.20568e-11
1.73186e-11
3.97817e-11
1.70816e-11
3.92153e-11
1.51503e-11
3.66791e-11
1.20769e-11
3.31134e-11
1.40599e-11
3.25592e-11
1.74896e-11
3.21524e-11
2.64511e-11
2.70204e-11
2.77149e-11
-2.51147e-13
2.32465e-11
-2.10438e-11
1.27581e-11
-9.07834e-10
-2.2905e-10
6.94202e-10
3.14435e-10
-3.36141e-10
-6.08823e-10
-5.22975e-10
-3.64035e-10
-2.12517e-10
-1.31768e-10
-6.12272e-11
-4.36153e-11
-1.10132e-11
-1.41087e-11
8.39282e-12
-1.80549e-12
1.86015e-11
6.85463e-12
2.41079e-11
7.16077e-12
2.62407e-11
1.16908e-11
3.07605e-11
1.25136e-11
3.20215e-11
1.42871e-11
3.47785e-11
1.65244e-11
3.70107e-11
1.63469e-11
3.77099e-11
1.75764e-11
4.0409e-11
2.0294e-11
4.2146e-11
1.81181e-11
4.09425e-11
1.84337e-11
4.20365e-11
1.90719e-11
4.21444e-11
1.72923e-11
3.97954e-11
1.68998e-11
3.91694e-11
1.51274e-11
3.68556e-11
1.2146e-11
3.32302e-11
1.41723e-11
3.27957e-11
1.75732e-11
3.24426e-11
2.64816e-11
2.77088e-11
2.74317e-11
1.10887e-12
2.01525e-11
-1.43275e-11
2.72162e-11
-9.42852e-10
-2.27049e-10
7.26531e-10
2.68412e-10
-3.45281e-10
-5.93169e-10
-5.20349e-10
-3.63803e-10
-2.1187e-10
-1.31157e-10
-6.09535e-11
-4.39701e-11
-1.15635e-11
-1.47508e-11
7.89621e-12
-2.35715e-12
1.81722e-11
6.46745e-12
2.38971e-11
6.78878e-12
2.59374e-11
1.14031e-11
3.06331e-11
1.22713e-11
3.18576e-11
1.41033e-11
3.46945e-11
1.63859e-11
3.69803e-11
1.62127e-11
3.76454e-11
1.74697e-11
4.03832e-11
2.02398e-11
4.22041e-11
1.80354e-11
4.08992e-11
1.83876e-11
4.2072e-11
1.90579e-11
4.2231e-11
1.73011e-11
3.97966e-11
1.66972e-11
3.90236e-11
1.50843e-11
3.70699e-11
1.22568e-11
3.33574e-11
1.4267e-11
3.31234e-11
1.75693e-11
3.2908e-11
2.6265e-11
2.89025e-11
2.6457e-11
3.67577e-12
1.46336e-11
-3.133e-12
3.82248e-11
-9.83557e-10
-1.98876e-10
7.552e-10
1.84347e-10
-3.54277e-10
-5.62268e-10
-5.13879e-10
-3.63931e-10
-2.1131e-10
-1.30221e-10
-6.04465e-11
-4.42771e-11
-1.22283e-11
-1.55138e-11
7.26629e-12
-3.0154e-12
1.76127e-11
6.00369e-12
2.36162e-11
6.36275e-12
2.55269e-11
1.10619e-11
3.04474e-11
1.20021e-11
3.16175e-11
1.38938e-11
3.45576e-11
1.62411e-11
3.69107e-11
1.6078e-11
3.75236e-11
1.73611e-11
4.0313e-11
2.0202e-11
4.22432e-11
1.79733e-11
4.07988e-11
1.83522e-11
4.20771e-11
1.90695e-11
4.23083e-11
1.73577e-11
3.97868e-11
1.64762e-11
3.87404e-11
1.50069e-11
3.73111e-11
1.24078e-11
3.34986e-11
1.43208e-11
3.35548e-11
1.74279e-11
3.35964e-11
2.56802e-11
3.07282e-11
2.45732e-11
7.76946e-12
6.45752e-12
1.2767e-11
4.4796e-11
-1.03083e-09
-1.39066e-10
7.83475e-10
6.00598e-11
-3.66447e-10
-5.14758e-10
-5.02074e-10
-3.64491e-10
-2.11093e-10
-1.29042e-10
-5.97295e-11
-4.4562e-11
-1.30338e-11
-1.64208e-11
6.48307e-12
-3.78881e-12
1.69153e-11
5.45397e-12
2.32568e-11
5.88682e-12
2.5011e-11
1.06661e-11
3.02e-11
1.17129e-11
3.13015e-11
1.36608e-11
3.43668e-11
1.60942e-11
3.67972e-11
1.59491e-11
3.73427e-11
1.7254e-11
4.01951e-11
2.01833e-11
4.22572e-11
1.79399e-11
4.06403e-11
1.83303e-11
4.20468e-11
1.91114e-11
4.23733e-11
1.74696e-11
3.9781e-11
1.62335e-11
3.82882e-11
1.4882e-11
3.75834e-11
1.25936e-11
3.36661e-11
1.4298e-11
3.41087e-11
1.70949e-11
3.45641e-11
2.46344e-11
3.32781e-11
2.16359e-11
1.34976e-11
-4.15659e-12
3.26877e-11
4.74962e-11
-1.08542e-09
-4.68414e-11
8.15015e-10
-1.00822e-10
-3.85182e-10
-4.51394e-10
-4.83716e-10
-3.65375e-10
-2.11433e-10
-1.27699e-10
-5.88279e-11
-4.48435e-11
-1.39998e-11
-1.74946e-11
5.52243e-12
-4.688e-12
1.60667e-11
4.80755e-12
2.28014e-11
5.36151e-12
2.43896e-11
1.02139e-11
2.98814e-11
1.1407e-11
3.09088e-11
1.34067e-11
3.41191e-11
1.59489e-11
3.66358e-11
1.58319e-11
3.71024e-11
1.71531e-11
4.00278e-11
2.01877e-11
4.22373e-11
1.79422e-11
4.04234e-11
1.83224e-11
4.19788e-11
1.9185e-11
4.24261e-11
1.7641e-11
3.98051e-11
1.59568e-11
3.76478e-11
1.46949e-11
3.78901e-11
1.27996e-11
3.38786e-11
1.41655e-11
3.4807e-11
1.65247e-11
3.5849e-11
2.30712e-11
3.65635e-11
1.76857e-11
2.0697e-11
-1.65056e-11
5.49562e-11
4.81182e-11
-1.14674e-09
7.24152e-11
8.53318e-10
-2.90285e-10
-4.136e-10
-3.74907e-10
-4.57986e-10
-3.66259e-10
-2.12514e-10
-1.26296e-10
-5.77695e-11
-4.51302e-11
-1.51436e-11
-1.87414e-11
4.37341e-12
-5.72093e-12
1.50588e-11
4.0543e-12
2.22317e-11
4.78462e-12
2.36603e-11
9.70307e-12
2.94794e-11
1.10839e-11
3.04367e-11
1.31323e-11
3.38101e-11
1.58063e-11
3.64208e-11
1.57302e-11
3.68018e-11
1.70619e-11
3.98107e-11
2.02168e-11
4.21777e-11
1.7984e-11
4.01527e-11
1.83295e-11
4.18722e-11
1.92899e-11
4.24717e-11
1.78699e-11
3.98887e-11
1.56307e-11
3.68007e-11
1.44437e-11
3.82403e-11
1.30069e-11
3.41562e-11
1.38989e-11
3.56607e-11
1.5703e-11
3.74584e-11
2.10043e-11
4.0498e-11
1.29157e-11
2.89366e-11
-2.95899e-11
7.75817e-11
4.88263e-11
-1.21322e-09
2.09405e-10
8.99942e-10
-4.98109e-10
-4.53687e-10
-2.89327e-10
-4.24663e-10
-3.66708e-10
-2.1445e-10
-1.24953e-10
-5.6585e-11
-4.5421e-11
-1.64571e-11
-2.01564e-11
3.03353e-12
-6.88578e-12
1.38916e-11
3.19378e-12
2.15357e-11
4.15382e-12
2.28249e-11
9.13237e-12
2.89847e-11
1.07417e-11
2.98843e-11
1.28362e-11
3.34351e-11
1.56674e-11
3.61461e-11
1.56423e-11
3.64414e-11
1.69799e-11
3.95429e-11
2.02701e-11
4.20727e-11
1.80652e-11
3.98327e-11
1.83509e-11
4.17275e-11
1.94237e-11
4.25076e-11
1.81547e-11
4.0065e-11
1.5233e-11
3.57354e-11
1.41243e-11
3.86402e-11
1.31979e-11
3.45151e-11
1.34878e-11
3.66665e-11
1.46391e-11
3.93601e-11
1.85204e-11
4.49017e-11
7.66785e-12
3.76351e-11
-4.22962e-11
9.86834e-11
5.13705e-11
-1.28181e-09
3.54474e-10
9.54527e-10
-7.12233e-10
-5.06141e-10
-1.99427e-10
-3.8411e-10
-3.66202e-10
-2.17274e-10
-1.23808e-10
-5.53308e-11
-4.57101e-11
-1.79282e-11
-2.17288e-11
1.50738e-12
-8.17614e-12
1.25701e-11
2.22628e-12
2.07081e-11
3.47043e-12
2.18863e-11
8.5032e-12
2.83917e-11
1.0378e-11
2.92516e-11
1.25175e-11
3.29906e-11
1.55289e-11
3.58084e-11
1.55669e-11
3.60229e-11
1.69071e-11
3.92237e-11
2.03452e-11
4.19186e-11
1.81816e-11
3.94698e-11
1.83852e-11
4.15451e-11
1.95821e-11
4.25361e-11
1.84895e-11
4.0364e-11
1.47406e-11
3.44551e-11
1.3737e-11
3.90905e-11
1.33619e-11
3.49553e-11
1.29396e-11
3.77964e-11
1.3372e-11
4.14742e-11
1.57577e-11
4.95324e-11
2.33685e-12
4.61665e-11
-5.36192e-11
1.16817e-10
5.68538e-11
-1.34861e-09
4.97821e-10
1.01498e-09
-9.22315e-10
-5.70006e-10
-1.0977e-10
-3.37202e-10
-3.64206e-10
-2.20923e-10
-1.23006e-10
-5.40691e-11
-4.59943e-11
-1.95392e-11
-2.34442e-11
-1.97216e-13
-9.58376e-12
1.10991e-11
1.15724e-12
1.97459e-11
2.73548e-12
2.08498e-11
7.81914e-12
2.76966e-11
9.99025e-12
2.85407e-11
1.21755e-11
3.24746e-11
1.53894e-11
3.54057e-11
1.55013e-11
3.55491e-11
1.6842e-11
3.88536e-11
2.04379e-11
4.17151e-11
1.83281e-11
3.90683e-11
1.84286e-11
4.1324e-11
1.97584e-11
4.2556e-11
1.88599e-11
4.08153e-11
1.4152e-11
3.29679e-11
1.32953e-11
3.95845e-11
1.34925e-11
3.54652e-11
1.22813e-11
3.90157e-11
1.19636e-11
4.36926e-11
1.28908e-11
5.41242e-11
-2.6653e-12
5.39656e-11
-6.27684e-11
1.31061e-10
6.56999e-11
-1.4098e-09
6.31142e-10
1.07853e-09
-1.11935e-09
-6.43295e-10
-2.45601e-11
-2.85186e-10
-3.6019e-10
-2.25222e-10
-1.22674e-10
-5.28834e-11
-4.62729e-11
-2.12676e-11
-2.5284e-11
-2.06896e-12
-1.11001e-11
9.4888e-12
-8.39739e-15
1.86505e-11
1.95155e-12
1.97234e-11
7.08486e-12
2.68991e-11
9.57711e-12
2.77556e-11
1.18111e-11
3.18876e-11
1.52459e-11
3.49394e-11
1.54425e-11
3.50233e-11
1.6782e-11
3.84336e-11
2.05438e-11
4.14615e-11
1.84993e-11
3.86342e-11
1.84789e-11
4.10651e-11
1.99477e-11
4.25607e-11
1.92516e-11
4.14297e-11
1.34832e-11
3.13034e-11
1.28175e-11
4.01034e-11
1.35919e-11
3.60247e-11
1.15476e-11
4.02523e-11
1.0504e-11
4.58929e-11
1.01068e-11
5.84133e-11
-6.99052e-12
6.05933e-11
-6.92472e-11
1.41075e-10
7.75475e-11
-1.46217e-09
7.48449e-10
1.14189e-09
-1.29672e-09
-7.2333e-10
5.28119e-11
-2.29589e-10
-3.53708e-10
-2.29919e-10
-1.22921e-10
-5.18614e-11
-4.65505e-11
-2.30895e-11
-2.72274e-11
-4.09443e-12
-1.27121e-11
7.75066e-12
-1.26071e-12
1.74262e-11
1.12176e-12
1.85161e-11
6.30525e-12
2.60008e-11
9.13772e-12
2.69014e-11
1.1426e-11
3.12311e-11
1.50962e-11
3.44113e-11
1.53872e-11
3.44497e-11
1.6726e-11
3.79664e-11
2.06588e-11
4.11581e-11
1.86888e-11
3.81733e-11
1.85355e-11
4.07684e-11
2.01465e-11
4.25392e-11
1.96478e-11
4.2186e-11
1.27913e-11
2.95349e-11
1.23287e-11
4.06182e-11
1.36715e-11
3.66067e-11
1.07848e-11
4.14445e-11
9.08795e-12
4.7951e-11
7.58787e-12
6.21743e-11
-1.03711e-11
6.57668e-11
-7.28483e-11
1.47e-10
9.15633e-11
-1.50325e-09
8.46152e-10
1.20154e-09
-1.44959e-09
-8.06842e-10
1.19793e-10
-1.72126e-10
-3.44455e-10
-2.34718e-10
-1.23826e-10
-5.11025e-11
-4.68396e-11
-2.49804e-11
-2.92534e-11
-6.2593e-12
-1.44103e-11
5.89626e-12
-2.591e-12
1.60788e-11
2.48693e-13
1.72359e-11
5.48572e-12
2.50063e-11
8.6711e-12
2.59839e-11
1.10214e-11
3.05079e-11
1.49379e-11
3.38242e-11
1.5333e-11
3.38332e-11
1.66727e-11
3.7455e-11
2.07788e-11
4.08065e-11
1.88923e-11
3.76899e-11
1.85987e-11
4.04334e-11
2.03527e-11
4.24761e-11
2.00258e-11
4.2999e-11
1.21831e-11
2.78113e-11
1.18595e-11
4.10884e-11
1.37469e-11
3.71772e-11
1.0049e-11
4.25256e-11
7.80587e-12
4.97494e-11
5.48308e-12
6.52324e-11
-1.26299e-11