/*--------------------------------*- C++ -*----------------------------------*\
| =========                 |                                                 |
| \\      /  F ield         | OpenFOAM: The Open Source CFD Toolbox           |
|  \\    /   O peration     | Version:  2312                                  |
|   \\  /    A nd           | Website:  www.openfoam.com                      |
|    \\/     M anipulation  |                                                 |
\*---------------------------------------------------------------------------*/
FoamFile
{
    version     2.0;
    format      ascii;
    arch        "LSB;label=32;scalar=64";
    class       volScalarField;
    location    "360";
    object      nut;
}
// * * * * * * * * * * * * * * * * * * * * * * * * * * * * * * * * * * * * * //

dimensions      [0 2 -1 0 0 0 0];

internalField   nonuniform List<scalar> 
144000
(
5.92653e-27
2.00871e-27
1.2839e-28
1.46152e-27
6.03762e-28
4.82657e-32
1.49778e-28
4.43589e-29
1.10668e-28
6.7461e-29
1.02914e-28
7.66611e-29
1.13698e-28
9.54841e-29
1.081e-28
8.97526e-29
1.2661e-28
1.24452e-28
1.23297e-28
1.1692e-28
1.41421e-28
1.42456e-28
1.45185e-28
1.42827e-28
1.46325e-28
1.47565e-28
1.64159e-28
1.64586e-28
1.6618e-28
1.63235e-28
1.58387e-28
1.54566e-28
1.77846e-28
1.75443e-28
1.65987e-28
1.54813e-28
1.47626e-28
1.39008e-28
1.37934e-28
1.18258e-28
1.13023e-28
9.28064e-29
1.48384e-28
1.01626e-28
8.81365e-29
7.08308e-29
4.19739e-29
2.39864e-29
1.0117e-29
3.16501e-30
6.90148e-33
3.24844e-30
4.16941e-29
1.93876e-28
8.7569e-28
3.432e-28
1.15994e-26
4.97521e-25
6.95714e-25
4.19709e-26
5.52622e-25
1.08961e-26
1.89901e-26
1.67643e-26
6.98128e-28
3.44021e-30
2.75735e-28
1.16786e-28
1.60098e-28
2.15832e-28
1.54537e-28
2.13862e-28
1.89443e-28
2.45746e-28
1.99969e-28
2.09979e-28
2.31921e-28
2.94381e-28
2.45232e-28
2.53248e-28
2.75987e-28
3.18685e-28
2.88508e-28
3.08191e-28
2.91077e-28
3.13494e-28
3.22133e-28
3.53789e-28
3.3032e-28
3.40806e-28
3.17426e-28
3.13772e-28
3.44027e-28
3.65323e-28
3.28645e-28
3.05152e-28
2.90529e-28
2.69858e-28
2.70017e-28
2.46826e-28
2.30552e-28
2.14567e-28
2.98967e-28
1.6207e-28
1.84005e-28
1.29236e-28
8.57341e-29
3.54135e-29
1.95855e-29
3.3533e-30
2.03706e-32
1.36413e-29
8.36073e-29
5.86773e-28
1.68167e-27
1.54284e-27
1.62494e-26
1.31371e-24
4.02628e-24
3.69316e-26
1.35467e-24
2.222e-25
9.60228e-26
2.76274e-26
1.72195e-27
4.0442e-30
3.2054e-28
1.98665e-28
2.18083e-28
2.91624e-28
2.40012e-28
2.78702e-28
2.92849e-28
3.17926e-28
2.98885e-28
2.85445e-28
3.46694e-28
3.90166e-28
3.62317e-28
3.48575e-28
4.04005e-28
4.30937e-28
4.18602e-28
4.24682e-28
4.17165e-28
4.38723e-28
4.59824e-28
4.87914e-28
4.69593e-28
4.7387e-28
4.45846e-28
4.46583e-28
4.82982e-28
5.03865e-28
4.60808e-28
4.27785e-28
4.07566e-28
3.8543e-28
3.87553e-28
3.5822e-28
3.51103e-28
3.10396e-28
4.21587e-28
2.16966e-28
2.79584e-28
1.75946e-28
1.2378e-28
5.19582e-29
2.80807e-29
5.7731e-30
4.97993e-32
1.43278e-29
1.29258e-28
7.11629e-28
2.30193e-27
1.52386e-27
4.91353e-26
2.15647e-24
4.33691e-24
4.86015e-25
4.7179e-24
2.01583e-24
3.10854e-25
1.4709e-25
1.88003e-27
8.41146e-30
3.20655e-28
2.13087e-28
2.26843e-28
2.91906e-28
2.54964e-28
2.77411e-28
3.0936e-28
3.17719e-28
3.13556e-28
2.84132e-28
3.58392e-28
3.92984e-28
3.7412e-28
3.46518e-28
4.16673e-28
4.30626e-28
4.32237e-28
4.22483e-28
4.2923e-28
4.38232e-28
4.69257e-28
4.91174e-28
4.79173e-28
4.74338e-28
4.5516e-28
4.47855e-28
4.89816e-28
5.11946e-28
4.69421e-28
4.3448e-28
4.21086e-28
3.98426e-28
4.10237e-28
3.77415e-28
3.71074e-28
3.4578e-28
4.08374e-28
2.25207e-28
3.0606e-28
1.77279e-28
1.37126e-28
5.30567e-29
3.43951e-29
7.35217e-30
7.1613e-32
1.52524e-29
1.05104e-28
6.43687e-28
1.89674e-27
1.29079e-27
6.49149e-26
3.37741e-24
6.18638e-24
3.06702e-24
8.6511e-24
8.95433e-24
4.62492e-25
5.12589e-25
4.91453e-27
2.65966e-29
3.44989e-28
2.40837e-28
2.29958e-28
3.16142e-28
2.52723e-28
2.97307e-28
3.15122e-28
3.38344e-28
3.19897e-28
2.98868e-28
3.66229e-28
4.12894e-28
3.80107e-28
3.54501e-28
4.29101e-28
4.42994e-28
4.43941e-28
4.29074e-28
4.41838e-28
4.45793e-28
4.84093e-28
5.03938e-28
4.914e-28
4.84523e-28
4.68457e-28
4.57648e-28
5.08516e-28
5.34309e-28
4.8582e-28
4.54359e-28
4.43407e-28
4.24331e-28
4.36838e-28
3.98211e-28
3.82153e-28
3.4172e-28
3.95813e-28
2.60668e-28
3.29393e-28
1.90945e-28
1.51227e-28
6.00854e-29
4.43357e-29
1.19424e-29
3.91474e-31
1.47618e-29
8.24391e-29
5.61226e-28
1.40437e-27
9.50547e-28
9.73018e-26
5.55458e-24
8.06231e-24
1.22236e-23
1.12678e-23
2.53129e-23
4.52384e-25
1.25837e-24
1.34868e-26
6.97188e-29
4.07898e-28
2.75322e-28
2.49833e-28
3.48748e-28
2.56848e-28
3.2656e-28
3.28266e-28
3.69557e-28
3.31904e-28
3.22272e-28
3.86773e-28
4.47836e-28
3.93963e-28
3.78208e-28
4.53612e-28
4.73405e-28
4.66769e-28
4.52509e-28
4.67917e-28
4.71617e-28
5.16192e-28
5.36292e-28
5.21204e-28
5.13827e-28
4.99369e-28
4.88546e-28
5.51727e-28
5.79761e-28
5.23521e-28
4.95369e-28
4.85197e-28
4.69092e-28
4.74211e-28
4.21845e-28
3.85087e-28
3.6955e-28
4.17845e-28
3.21007e-28
3.66451e-28
2.23588e-28
1.73361e-28
7.80656e-29
6.23531e-29
2.35853e-29
2.51009e-30
1.62482e-29
6.31957e-29
4.6128e-28
9.07628e-28
5.69556e-28
1.44685e-25
8.79848e-24
1.00518e-23
3.25341e-23
1.23774e-23
5.51006e-23
3.28197e-25
2.5067e-24
3.29439e-26
1.30384e-28
5.01062e-28
3.09135e-28
2.84338e-28
3.78837e-28
2.71086e-28
3.53498e-28
3.51434e-28
4.01303e-28
3.49559e-28
3.48271e-28
4.17923e-28
4.87745e-28
4.1349e-28
4.10049e-28
4.86187e-28
5.12778e-28
4.94881e-28
4.85471e-28
5.01592e-28
5.09449e-28
5.59105e-28
5.79375e-28
5.60206e-28
5.55094e-28
5.41291e-28
5.34594e-28
6.10793e-28
6.38461e-28
5.73677e-28
5.49109e-28
5.40032e-28
5.26722e-28
5.19681e-28
4.52123e-28
3.94408e-28
3.82959e-28
4.5682e-28
4.11479e-28
4.24486e-28
2.75267e-28
2.07943e-28
1.12449e-28
9.64273e-29
5.18306e-29
1.30125e-29
2.74048e-29
5.98154e-29
3.62195e-28
5.69607e-28
4.08257e-28
1.90443e-25
1.31458e-23
1.37254e-23
6.70951e-23
1.1691e-23
9.99432e-23
1.75353e-25
4.27551e-24
7.35947e-26
2.05895e-28
6.41721e-28
3.36839e-28
3.25624e-28
4.10925e-28
2.91323e-28
3.78341e-28
3.82511e-28
4.32963e-28
3.73353e-28
3.77675e-28
4.55582e-28
5.29416e-28
4.37057e-28
4.45167e-28
5.24097e-28
5.57204e-28
5.26336e-28
5.24308e-28
5.40671e-28
5.54644e-28
6.0687e-28
6.30239e-28
6.05507e-28
6.04163e-28
5.907e-28
5.90137e-28
6.79078e-28
7.07444e-28
6.3312e-28
6.13964e-28
6.08231e-28
5.98892e-28
5.76507e-28
4.90309e-28
4.09595e-28
4.22771e-28
5.05786e-28
5.3326e-28
5.10952e-28
3.53182e-28
2.6357e-28
1.75422e-28
1.6192e-28
1.18235e-28
5.17702e-29
7.59078e-29
1.10005e-28
3.66738e-28
6.90517e-28
1.31349e-27
2.35761e-25
1.8691e-23
1.97692e-23
1.14795e-22
1.07834e-23
1.59936e-22
8.18868e-26
6.50533e-24
1.54161e-25
3.14512e-28
8.98179e-28
3.44161e-28
3.69569e-28
4.50411e-28
3.14182e-28
4.04502e-28
4.21072e-28
4.65664e-28
4.02163e-28
4.10313e-28
5.02316e-28
5.72422e-28
4.64841e-28
4.83209e-28
5.70187e-28
6.05071e-28
5.6123e-28
5.68554e-28
5.85452e-28
6.06413e-28
6.62702e-28
6.87409e-28
6.55293e-28
6.61768e-28
6.47351e-28
6.55872e-28
7.6e-28
7.88012e-28
7.03083e-28
6.95452e-28
6.97086e-28
6.96795e-28
6.6158e-28
5.58405e-28
4.57191e-28
5.04477e-28
5.35034e-28
7.12764e-28
6.41818e-28
4.73948e-28
3.54226e-28
2.90927e-28
2.93068e-28
2.71185e-28
1.71593e-28
2.51916e-28
3.62896e-28
7.54333e-28
2.30901e-27
6.88789e-27
2.64373e-25
2.55704e-23
3.243e-23
1.722e-22
1.02307e-23
2.3399e-22
9.42722e-26
9.04463e-24
3.01019e-25
4.57753e-28
1.28026e-27
3.29266e-28
4.14522e-28
5.01317e-28
3.38172e-28
4.34342e-28
4.65631e-28
5.01238e-28
4.3674e-28
4.45816e-28
5.56401e-28
6.17186e-28
4.97829e-28
5.23974e-28
6.23373e-28
6.56046e-28
6.01843e-28
6.17268e-28
6.37769e-28
6.64061e-28
7.24521e-28
7.51462e-28
7.12594e-28
7.27012e-28
7.13583e-28
7.3251e-28
8.52845e-28
8.83982e-28
7.89706e-28
7.99583e-28
8.1732e-28
8.34802e-28
7.92533e-28
6.83475e-28
6.11414e-28
4.93034e-28
5.15199e-28
9.60555e-28
8.41714e-28
6.63907e-28
5.05862e-28
5.03747e-28
5.5632e-28
6.16679e-28
5.04955e-28
7.97363e-28
1.28665e-27
2.42669e-27
8.94742e-27
2.70374e-26
2.81946e-25
3.41177e-23
5.52835e-23
2.33747e-22
1.26582e-23
3.18996e-22
2.568e-25
1.17114e-23
5.42091e-25
7.96508e-28
1.90565e-27
2.80366e-28
4.64852e-28
5.63532e-28
3.63616e-28
4.6774e-28
5.171e-28
5.40092e-28
4.7573e-28
4.85768e-28
6.18813e-28
6.64038e-28
5.35291e-28
5.68433e-28
6.85462e-28
7.09359e-28
6.47927e-28
6.71035e-28
6.97692e-28
7.2787e-28
7.96281e-28
8.21046e-28
7.7739e-28
8.01664e-28
7.90884e-28
8.2241e-28
9.63289e-28
9.96917e-28
8.95566e-28
9.30718e-28
9.72936e-28
1.01282e-27
9.61416e-28
8.48907e-28
7.63261e-28
6.07596e-28
5.58369e-28
1.1873e-27
1.20886e-27
9.36325e-28
7.67506e-28
8.79758e-28
1.0588e-27
1.3224e-27
1.33165e-27
2.24972e-27
3.95649e-27
7.61731e-27
2.79925e-26
7.87404e-26
2.80762e-25
4.54496e-23
1.00162e-22
2.92572e-22
1.77561e-23
4.15431e-22
8.4176e-25
1.44991e-23
9.11329e-25
1.84522e-27
2.79276e-27
2.07616e-28
5.17753e-28
6.4446e-28
3.87409e-28
5.07672e-28
5.72436e-28
5.85455e-28
5.18394e-28
5.31129e-28
6.86197e-28
7.15055e-28
5.7635e-28
6.17417e-28
7.53699e-28
7.6649e-28
6.9975e-28
7.29999e-28
7.66423e-28
7.98033e-28
8.74663e-28
8.98177e-28
8.53437e-28
8.85867e-28
8.81845e-28
9.26048e-28
1.09142e-27
1.13082e-27
1.02645e-27
1.09481e-27
1.17549e-27
1.24776e-27
1.20541e-27
1.1689e-27
1.13741e-27
1.09581e-27
5.03503e-28
1.53035e-27
1.7375e-27
1.35884e-27
1.20479e-27
1.523e-27
1.96399e-27
2.64475e-27
3.17691e-27
5.57748e-27
1.0362e-26
2.03854e-26
7.11448e-26
1.83057e-25
2.78005e-25
6.11174e-23
1.6997e-22
3.39887e-22
3.09783e-23
5.21818e-22
1.84032e-24
1.72279e-23
1.41886e-24
5.00128e-27
3.96453e-27
1.23488e-28
5.76198e-28
7.47404e-28
4.08499e-28
5.54506e-28
6.32516e-28
6.37844e-28
5.62133e-28
5.83539e-28
7.60744e-28
7.70177e-28
6.1964e-28
6.72228e-28
8.30519e-28
8.27503e-28
7.55494e-28
7.96149e-28
8.42959e-28
8.75139e-28
9.65386e-28
9.82816e-28
9.38841e-28
9.83429e-28
9.87284e-28
1.04652e-27
1.24816e-27
1.29203e-27
1.19405e-27
1.32098e-27
1.48224e-27
1.6591e-27
1.79481e-27
2.34669e-27
3.39285e-27
1.52852e-27
1.09087e-28
2.65481e-27
2.12488e-27
2.19043e-27
1.84113e-27
2.64468e-27
3.55797e-27
5.11049e-27
6.8074e-27
1.23544e-26
2.35314e-26
4.67535e-26
1.53383e-25
3.63554e-25
2.61118e-25
8.23735e-23
2.82139e-22
3.60166e-22
5.74222e-23
6.36783e-22
3.48009e-24
2.06937e-23
2.05874e-24
1.35902e-26
5.36744e-27
4.97625e-29
6.48597e-28
8.73115e-28
4.27778e-28
6.07645e-28
6.97755e-28
6.96711e-28
6.10369e-28
6.42203e-28
8.38894e-28
8.31064e-28
6.66627e-28
7.33354e-28
9.12384e-28
8.94481e-28
8.17678e-28
8.70193e-28
9.28772e-28
9.60418e-28
1.0641e-27
1.07835e-27
1.03721e-27
1.09391e-27
1.1109e-27
1.18561e-27
1.43026e-27
1.486e-27
1.4051e-27
1.61215e-27
1.89981e-27
2.24461e-27
2.75867e-27
4.57664e-27
6.43786e-27
7.3223e-29
2.99769e-28
2.82904e-27
2.84962e-27
3.44871e-27
2.82197e-27
4.48131e-27
6.23011e-27
9.41408e-27
1.33086e-26
2.45578e-26
4.72095e-26
9.30816e-26
2.87672e-25
6.25965e-25
2.51005e-25
1.13018e-22
4.54314e-22
3.67896e-22
1.09723e-22
7.45032e-22
5.56351e-24
2.53263e-23
2.7398e-24
3.31031e-26
7.02812e-27
8.02069e-30
7.59788e-28
1.00958e-27
4.50027e-28
6.62199e-28
7.74643e-28
7.58614e-28
6.63972e-28
7.06792e-28
9.25376e-28
8.95734e-28
7.17638e-28
8.01051e-28
1.00329e-27
9.66066e-28
8.86209e-28
9.536e-28
1.02328e-27
1.05473e-27
1.17589e-27
1.18359e-27
1.14682e-27
1.21965e-27
1.24957e-27
1.34081e-27
1.63225e-27
1.68708e-27
1.61021e-27
1.86149e-27
2.17895e-27
2.45272e-27
2.92352e-27
4.57007e-27
1.01889e-27
7.70333e-27
9.14183e-27
6.64316e-28
5.96519e-27
4.31772e-27
4.69909e-27
7.04085e-27
1.05856e-26
1.61684e-26
2.39863e-26
4.4403e-26
8.49908e-26
1.6483e-25
4.79569e-25
9.60003e-25
2.54745e-25
1.57121e-22
7.17848e-22
3.61088e-22
1.94977e-22
9.02243e-22
7.57015e-24
3.22269e-23
3.45302e-24
7.73095e-26
8.00753e-27
1.10752e-30
8.93299e-28
1.17914e-27
4.66158e-28
7.26493e-28
8.5768e-28
8.28363e-28
7.23246e-28
7.78426e-28
1.01571e-27
9.67633e-28
7.72787e-28
8.76627e-28
1.09908e-27
1.04514e-27
9.62228e-28
1.04624e-27
1.12856e-27
1.15922e-27
1.29494e-27
1.302e-27
1.27276e-27
1.36068e-27
1.40937e-27
1.51941e-27
1.86686e-27
1.93947e-27
1.89785e-27
2.26996e-27
2.818e-27
3.48269e-27
5.52925e-27
1.35551e-26
2.53356e-26
2.38257e-26
6.97663e-31
1.5253e-27
7.07713e-27
6.80012e-27
6.84144e-27
1.10246e-26
1.68973e-26
2.62158e-26
4.00189e-26
7.37476e-26
1.39299e-25
2.63597e-25
7.26093e-25
1.33638e-24
3.04843e-25
2.18498e-22
1.05566e-21
3.40562e-22
3.35624e-22
1.11377e-21
8.60815e-24
4.21883e-23
4.03759e-24
1.62287e-25
8.16837e-27
2.16032e-29
1.08772e-27
1.37191e-27
4.77012e-28
8.00898e-28
9.49361e-28
9.06579e-28
7.84318e-28
8.58992e-28
1.11593e-27
1.04505e-27
8.309e-28
9.61023e-28
1.20549e-27
1.13091e-27
1.04324e-27
1.15171e-27
1.24186e-27
1.27443e-27
1.42959e-27
1.4331e-27
1.4103e-27
1.52342e-27
1.589e-27
1.72705e-27
2.15607e-27
2.25954e-27
2.30071e-27
2.92176e-27
4.00201e-27
5.80177e-27
1.22718e-26
4.4083e-26
2.60119e-25
4.62342e-28
2.43455e-26
5.9621e-27
6.65846e-27
1.1229e-26
9.25694e-27
1.68466e-26
2.53895e-26
4.00933e-26
6.21384e-26
1.13698e-25
2.08642e-25
3.85236e-25
1.0061e-24
1.70502e-24
4.24155e-25
3.01945e-22
1.49364e-21
3.04009e-22
5.44122e-22
1.3852e-21
8.6907e-24
5.79558e-23
4.34981e-24
3.01303e-25
7.52214e-27
1.45065e-28
1.39408e-27
1.57475e-27
4.83465e-28
8.88357e-28
1.04826e-27
9.93798e-28
8.52088e-28
9.48423e-28
1.21974e-27
1.1323e-27
8.94008e-28
1.05579e-27
1.31614e-27
1.22736e-27
1.1318e-27
1.26907e-27
1.36538e-27
1.40175e-27
1.57253e-27
1.58036e-27
1.56014e-27
1.70072e-27
1.7801e-27
1.93888e-27
2.42677e-27
2.52253e-27
2.54998e-27
3.15995e-27
4.06261e-27
5.10714e-27
8.34317e-27
1.98534e-26
3.9762e-26
3.02981e-26
6.48983e-29
2.16626e-27
1.356e-26
1.24325e-26
1.43937e-26
2.31503e-26
3.70367e-26
5.67501e-26
9.02832e-26
1.60305e-25
2.89765e-25
5.15416e-25
1.28796e-24
2.00999e-24
6.72163e-25
4.1126e-22
2.03272e-21
2.73248e-22
8.41792e-22
1.71242e-21
7.57715e-24
8.0103e-23
4.29742e-24
5.05838e-25
6.03497e-27
5.00834e-28
1.91549e-27
1.74587e-27
4.94733e-28
9.80117e-28
1.16658e-27
1.08219e-27
9.29676e-28
1.04457e-27
1.33656e-27
1.22397e-27
9.63521e-28
1.15978e-27
1.43793e-27
1.33068e-27
1.22795e-27
1.39994e-27
1.49749e-27
1.54196e-27
1.73015e-27
1.74212e-27
1.72075e-27
1.90035e-27
1.98471e-27
2.17408e-27
2.72409e-27
2.81067e-27
2.82148e-27
3.43515e-27
4.14275e-27
4.56706e-27
5.18637e-27
6.41515e-27
5.55857e-28
1.39931e-26
1.04455e-26
4.82538e-27
1.76865e-26
1.6077e-26
1.95143e-26
3.17566e-26
5.03475e-26
7.65081e-26
1.21129e-25
2.09501e-25
3.7427e-25
6.39449e-25
1.53951e-24
2.23217e-24
1.09057e-24
5.45403e-22
2.64419e-21
2.49095e-22
1.20996e-21
2.13284e-21
5.6848e-24
1.09948e-22
3.93987e-24
7.97488e-25
3.57812e-27
1.10718e-27
2.6763e-27
1.90858e-27
5.00931e-28
1.09205e-27
1.29489e-27
1.1789e-27
1.01994e-27
1.14996e-27
1.45887e-27
1.32595e-27
1.04095e-27
1.27508e-27
1.56385e-27
1.445e-27
1.3342e-27
1.54407e-27
1.64052e-27
1.69742e-27
1.89255e-27
1.92233e-27
1.89847e-27
2.1204e-27
2.211e-27
2.44403e-27
3.06068e-27
3.19388e-27
3.25631e-27
4.07435e-27
5.07568e-27
6.03623e-27
7.2634e-27
1.01568e-26
1.07395e-26
3.62738e-28
8.55389e-28
1.90891e-26
1.76712e-26
2.20798e-26
2.44041e-26
4.21276e-26
6.47912e-26
9.80411e-26
1.5311e-25
2.5754e-25
4.47479e-25
7.39158e-25
1.72202e-24
2.33638e-24
1.76894e-24
7.02719e-22
3.28096e-21
2.50461e-22
1.62905e-21
2.65089e-21
3.70052e-24
1.48422e-22
3.23589e-24
1.15507e-24
1.4087e-27
1.9133e-27
3.82127e-27
2.03493e-27
5.04004e-28
1.22921e-27
1.42982e-27
1.28863e-27
1.11474e-27
1.26799e-27
1.59164e-27
1.43598e-27
1.12228e-27
1.40169e-27
1.69858e-27
1.56855e-27
1.44485e-27
1.70527e-27
1.78653e-27
1.86664e-27
2.0648e-27
2.11632e-27
2.07858e-27
2.35838e-27
2.43237e-27
2.71349e-27
3.37468e-27
3.51201e-27
3.54409e-27
4.40752e-27
5.29589e-27
6.00962e-27
6.52853e-27
7.83552e-27
9.9339e-27
7.9083e-27
3.94949e-27
2.15769e-26
2.44932e-26
2.44461e-26
3.18004e-26
5.12234e-26
7.99179e-26
1.17352e-25
1.81289e-25
2.95922e-25
4.92481e-25
7.92563e-25
1.78963e-24
2.247e-24
2.88023e-24
8.84908e-22
3.92024e-21
2.81661e-22
2.15336e-21
3.25262e-21
2.05556e-24
1.96264e-22
2.2937e-24
1.50999e-24
3.25362e-28
2.92603e-27
5.58327e-27
2.09855e-27
5.06929e-28
1.3976e-27
1.56338e-27
1.41641e-27
1.21305e-27
1.39985e-27
1.72728e-27
1.5593e-27
1.20677e-27
1.54001e-27
1.83635e-27
1.70453e-27
1.55864e-27
1.88053e-27
1.93537e-27
2.04714e-27
2.2391e-27
2.32586e-27
2.25678e-27
2.61072e-27
2.65072e-27
2.98878e-27
3.68344e-27
3.8216e-27
3.79559e-27
4.67506e-27
5.34859e-27
5.6008e-27
5.30689e-27
4.76172e-27
4.44833e-27
6.65751e-27
1.10423e-26
2.4693e-26
2.85536e-26
2.80618e-26
3.81055e-26
5.98698e-26
9.20842e-26
1.31695e-25
1.99539e-25
3.15907e-25
5.08012e-25
7.78148e-25
1.72866e-24
1.97451e-24
4.46126e-24
1.07758e-21
4.49946e-21
3.56547e-22
2.71336e-21
3.8778e-21
9.87844e-25
2.45521e-22
1.4766e-24
1.87739e-24
5.84256e-29
3.95653e-27
8.16532e-27
2.07846e-27
5.21504e-28
1.56403e-27
1.72618e-27
1.53288e-27
1.32741e-27
1.52439e-27
1.88195e-27
1.67657e-27
1.29652e-27
1.67554e-27
1.98573e-27
1.83628e-27
1.67649e-27
2.05605e-27
2.08469e-27
2.22626e-27
2.41373e-27
2.53612e-27
2.42224e-27
2.86487e-27
2.84461e-27
3.25889e-27
3.96966e-27
4.12986e-27
4.02493e-27
4.99522e-27
5.53215e-27
5.72232e-27
5.25682e-27
4.43652e-27
3.57965e-27
7.45531e-27
1.77727e-26
2.90243e-26
3.01802e-26
3.17873e-26
4.2685e-26
6.64238e-26
9.93158e-26
1.38598e-25
2.03898e-25
3.12426e-25
4.85019e-25
6.89462e-25
1.52371e-24
1.59867e-24
6.52182e-24
1.26293e-21
4.90016e-21
5.13568e-22
3.37647e-21
4.57868e-21
9.60446e-25
2.94749e-22
8.79835e-25
2.25218e-24
4.90163e-28
5.12548e-27
1.2249e-26
1.93373e-27
5.6508e-28
1.68755e-27
1.96419e-27
1.60084e-27
1.50266e-27
1.60571e-27
2.06672e-27
1.77238e-27
1.41352e-27
1.78401e-27
2.15198e-27
1.95228e-27
1.81874e-27
2.21036e-27
2.24802e-27
2.39265e-27
2.57784e-27
2.74229e-27
2.58474e-27
3.10227e-27
3.01782e-27
3.50286e-27
4.16504e-27
4.40788e-27
4.15775e-27
5.20978e-27
5.53424e-27
5.79209e-27
5.20336e-27
4.60177e-27
3.36853e-27
9.13993e-27
2.30572e-26
3.15322e-26
3.09294e-26
3.41693e-26
4.52095e-26
6.93896e-26
9.96649e-26
1.36204e-25
1.91493e-25
2.81468e-25
4.14355e-25
5.5937e-25
1.22208e-24
1.23292e-24
8.53746e-24
1.42356e-21
5.26024e-21
8.06916e-22
3.81628e-21
5.52702e-21
1.56513e-24
3.65369e-22
4.4482e-25
2.6852e-24
3.76744e-27
6.16476e-27
1.88992e-26
1.82518e-27
5.94435e-28
1.95105e-27
2.25658e-27
1.7446e-27
1.71334e-27
1.76954e-27
2.34736e-27
1.94532e-27
1.56774e-27
1.97293e-27
2.40623e-27
2.1382e-27
2.009e-27
2.44541e-27
2.47821e-27
2.6373e-27
2.83658e-27
3.02991e-27
2.81206e-27
3.43602e-27
3.25726e-27
3.84463e-27
4.49258e-27
4.77731e-27
4.35358e-27
5.53655e-27
5.67445e-27
5.95772e-27
5.37667e-27
4.89788e-27
3.50747e-27
1.18645e-26
2.76535e-26
3.25952e-26
3.19119e-26
3.54955e-26
4.67646e-26
6.93744e-26
9.67098e-26
1.2619e-25
1.70101e-25
2.36509e-25
3.29223e-25
4.24259e-25
9.31008e-25
9.09793e-25
1.10519e-23
1.58235e-21
5.36531e-21
1.32607e-21
6.77443e-27
2.00274e-27
1.37281e-28
1.48012e-27
5.45012e-28
5.88662e-32
1.38623e-28
4.91423e-29
1.04789e-28
7.08481e-29
9.98906e-29
7.83173e-29
1.12628e-28
9.58047e-29
1.09441e-28
8.89513e-29
1.28361e-28
1.22879e-28
1.25561e-28
1.15942e-28
1.43692e-28
1.42267e-28
1.47812e-28
1.43311e-28
1.50794e-28
1.48432e-28
1.68859e-28
1.68697e-28
1.707e-28
1.70429e-28
1.64976e-28
1.63859e-28
1.87149e-28
1.89407e-28
1.79262e-28
1.72477e-28
1.66044e-28
1.60872e-28
1.59248e-28
1.43505e-28
1.21982e-28
1.03865e-28
1.18055e-28
1.02841e-28
8.54738e-29
7.48479e-29
3.96579e-29
2.5433e-29
9.48517e-30
3.45781e-30
8.93948e-33
2.94026e-30
4.27213e-29
1.88484e-28
8.93702e-28
3.47157e-28
1.14167e-26
5.04357e-25
7.14198e-25
4.08466e-26
5.71915e-25
1.10657e-26
1.92335e-26
1.67914e-26
6.11648e-28
3.84606e-30
2.56191e-28
1.29272e-28
1.48698e-28
2.28164e-28
1.47752e-28
2.21374e-28
1.84493e-28
2.51104e-28
1.98337e-28
2.13011e-28
2.31712e-28
2.96855e-28
2.45536e-28
2.57101e-28
2.77604e-28
3.2414e-28
2.91986e-28
3.14221e-28
2.99682e-28
3.20096e-28
3.33541e-28
3.66833e-28
3.42608e-28
3.60461e-28
3.35054e-28
3.3814e-28
3.68494e-28
4.01549e-28
3.62262e-28
3.47814e-28
3.34108e-28
3.19294e-28
3.17197e-28
3.00033e-28
2.52549e-28
2.46839e-28
2.26939e-28
1.80677e-28
1.71504e-28
1.39231e-28
7.95165e-29
3.85939e-29
1.78188e-29
3.85325e-30
2.90497e-32
1.24779e-29
8.76516e-29
5.68466e-28
1.72798e-27
1.56473e-27
1.5907e-26
1.32731e-24
4.10424e-24
3.63064e-26
1.36952e-24
2.22512e-25
9.59003e-26
2.75314e-26
1.58047e-27
4.31677e-30
2.96456e-28
2.18691e-28
2.01477e-28
3.09273e-28
2.29585e-28
2.89593e-28
2.84504e-28
3.26919e-28
2.95232e-28
2.91414e-28
3.4558e-28
3.9722e-28
3.61163e-28
3.5859e-28
4.04471e-28
4.45078e-28
4.2162e-28
4.39528e-28
4.28878e-28
4.54353e-28
4.77231e-28
5.13271e-28
4.89168e-28
5.08712e-28
4.74221e-28
4.88641e-28
5.22976e-28
5.63293e-28
5.14189e-28
4.96006e-28
4.74252e-28
4.6163e-28
4.58484e-28
4.37189e-28
3.85487e-28
3.64191e-28
2.96586e-28
2.65354e-28
2.46522e-28
1.9557e-28
1.11808e-28
5.79641e-29
2.47028e-29
6.75229e-30
7.90733e-32
1.2789e-29
1.37649e-28
6.81459e-28
2.38845e-27
1.52455e-27
4.86118e-26
2.17363e-24
4.41549e-24
4.83664e-25
4.74844e-24
2.01636e-24
3.10795e-25
1.46506e-25
1.76934e-27
8.38133e-30
3.00859e-28
2.32008e-28
2.11242e-28
3.09948e-28
2.44041e-28
2.89706e-28
2.99788e-28
3.29277e-28
3.08736e-28
2.93792e-28
3.57194e-28
4.03571e-28
3.72798e-28
3.61668e-28
4.16422e-28
4.51654e-28
4.33617e-28
4.45295e-28
4.40673e-28
4.62468e-28
4.88086e-28
5.25128e-28
5.00584e-28
5.18434e-28
4.86743e-28
4.99319e-28
5.34408e-28
5.81392e-28
5.27282e-28
5.1103e-28
4.92037e-28
4.81052e-28
4.86647e-28
4.62818e-28
4.19422e-28
3.71252e-28
2.85508e-28
2.85435e-28
2.56964e-28
2.04525e-28
1.20125e-28
6.10435e-29
2.93821e-29
8.72771e-30
7.09662e-32
1.3368e-29
1.13348e-28
6.10442e-28
1.97701e-27
1.27993e-27
6.45572e-26
3.39048e-24
6.30179e-24
3.06388e-24
8.70186e-24
8.96664e-24
4.6298e-25
5.11313e-25
4.76955e-27
2.50737e-29
3.28496e-28
2.5915e-28
2.16777e-28
3.35524e-28
2.4224e-28
3.11954e-28
3.04948e-28
3.53587e-28
3.14523e-28
3.14152e-28
3.64833e-28
4.27059e-28
3.79936e-28
3.74139e-28
4.29387e-28
4.6981e-28
4.44796e-28
4.59763e-28
4.53e-28
4.78495e-28
5.03894e-28
5.45256e-28
5.13916e-28
5.36906e-28
5.01113e-28
5.16705e-28
5.54135e-28
6.10915e-28
5.4359e-28
5.36026e-28
5.13834e-28
5.11055e-28
5.17833e-28
4.91764e-28
4.46684e-28
3.67694e-28
2.87075e-28
3.1407e-28
2.70895e-28
2.25527e-28
1.29482e-28
7.06693e-29
3.71295e-29
1.41873e-29
2.81628e-31
1.28439e-29
8.95612e-29
5.28337e-28
1.47399e-27
9.32272e-28
9.71126e-26
5.56876e-24
8.22705e-24
1.22375e-23
1.13264e-23
2.53524e-23
4.53351e-25
1.25543e-24
1.32049e-26
6.49811e-29
3.91242e-28
2.94041e-28
2.38405e-28
3.70145e-28
2.46854e-28
3.44025e-28
3.17914e-28
3.89076e-28
3.26408e-28
3.42705e-28
3.85169e-28
4.66053e-28
3.95683e-28
4.02067e-28
4.55306e-28
5.05274e-28
4.6834e-28
4.90572e-28
4.79138e-28
5.12492e-28
5.3636e-28
5.84362e-28
5.44131e-28
5.73836e-28
5.31245e-28
5.54427e-28
5.95473e-28
6.62046e-28
5.78195e-28
5.81041e-28
5.52752e-28
5.61076e-28
5.62263e-28
5.36742e-28
4.85424e-28
3.91663e-28
3.10287e-28
3.53423e-28
3.04773e-28
2.64501e-28
1.47814e-28
9.21407e-29
5.22084e-29
2.76878e-29
1.89928e-30
1.48307e-29
6.83595e-29
4.33847e-28
9.59288e-28
5.51368e-28
1.45018e-25
8.82008e-24
1.02586e-23
3.25892e-23
1.24519e-23
5.5232e-23
3.29256e-25
2.50246e-24
3.25096e-26
1.24831e-28
4.84396e-28
3.2933e-28
2.734e-28
4.03702e-28
2.60575e-28
3.74857e-28
3.40135e-28
4.26168e-28
3.4333e-28
3.73835e-28
4.14873e-28
5.112e-28
4.1644e-28
4.3824e-28
4.8896e-28
5.49151e-28
4.97506e-28
5.30005e-28
5.12437e-28
5.57413e-28
5.78524e-28
6.32502e-28
5.82473e-28
6.20557e-28
5.70112e-28
6.05117e-28
6.48935e-28
7.23366e-28
6.21467e-28
6.35911e-28
6.01067e-28
6.23159e-28
6.17101e-28
5.96892e-28
5.42094e-28
4.35352e-28
3.46424e-28
4.0449e-28
3.63483e-28
3.20928e-28
1.79929e-28
1.30823e-28
8.23704e-29
5.95437e-29
1.08913e-29
2.77875e-29
6.20902e-29
3.46979e-28
5.98442e-28
4.00793e-28
1.9135e-25
1.31893e-23
1.40114e-23
6.72796e-23
1.17405e-23
1.00214e-22
1.75111e-25
4.27037e-24
7.29529e-26
1.98854e-28
6.23955e-28
3.57517e-28
3.15365e-28
4.39965e-28
2.79584e-28
4.04413e-28
3.69372e-28
4.63999e-28
3.65467e-28
4.09555e-28
4.49681e-28
5.59408e-28
4.39919e-28
4.78076e-28
5.26929e-28
5.97901e-28
5.29401e-28
5.74232e-28
5.50116e-28
6.08518e-28
6.23768e-28
6.86822e-28
6.2523e-28
6.72327e-28
6.13816e-28
6.62296e-28
7.07661e-28
7.90689e-28
6.68857e-28
6.96532e-28
6.5633e-28
6.95081e-28
6.80908e-28
6.77358e-28
6.19422e-28
5.07309e-28
4.01127e-28
4.68838e-28
4.52608e-28
4.02351e-28
2.34292e-28
1.99222e-28
1.42478e-28
1.32288e-28
4.58332e-29
8.16932e-29
1.07074e-28
3.69274e-28
6.89218e-28
1.34736e-27
2.3787e-25
1.87651e-23
2.01008e-23
1.15149e-22
1.08262e-23
1.60436e-22
8.01413e-26
6.5006e-24
1.52895e-25
3.00653e-28
8.75763e-28
3.63305e-28
3.6104e-28
4.83429e-28
3.00978e-28
4.35667e-28
4.05156e-28
5.03478e-28
3.91499e-28
4.49039e-28
4.91789e-28
6.10054e-28
4.6588e-28
5.21292e-28
5.71267e-28
6.50115e-28
5.63457e-28
6.23037e-28
5.91944e-28
6.64999e-28
6.74864e-28
7.45808e-28
6.7027e-28
7.29844e-28
6.61834e-28
7.25982e-28
7.74158e-28
8.6373e-28
7.19758e-28
7.65311e-28
7.21079e-28
7.80504e-28
7.61453e-28
7.87492e-28
7.24174e-28
6.15733e-28
4.77546e-28
5.53537e-28
5.87232e-28
5.23702e-28
3.26194e-28
3.211e-28
2.65958e-28
2.95259e-28
1.57353e-28
2.71918e-28
3.46055e-28
7.89466e-28
2.24121e-27
7.09157e-27
2.673e-25
2.56675e-23
3.28741e-23
1.7279e-22
1.02829e-23
2.34877e-22
8.93553e-26
9.04122e-24
2.9835e-25
4.48142e-28
1.26415e-27
3.45478e-28
4.08679e-28
5.37531e-28
3.23854e-28
4.70275e-28
4.46512e-28
5.45852e-28
4.22495e-28
4.91546e-28
5.39761e-28
6.63301e-28
4.95415e-28
5.67782e-28
6.20701e-28
7.05653e-28
6.01605e-28
6.75605e-28
6.39569e-28
7.26405e-28
7.29517e-28
8.10394e-28
7.2021e-28
7.92399e-28
7.15985e-28
7.96693e-28
8.46731e-28
9.45126e-28
7.78315e-28
8.4496e-28
7.99889e-28
8.83544e-28
8.60108e-28
9.37509e-28
8.67377e-28
7.50528e-28
5.82916e-28
6.67836e-28
7.8475e-28
7.10273e-28
4.83375e-28
5.39673e-28
5.17149e-28
6.5355e-28
4.77145e-28
8.4771e-28
1.23753e-27
2.53971e-27
8.7265e-27
2.77627e-26
2.85419e-25
3.4221e-23
5.59121e-23
2.34629e-22
1.28181e-23
3.20473e-22
2.42214e-25
1.17103e-23
5.37551e-25
7.87598e-28
1.9055e-27
2.92277e-28
4.62372e-28
6.01519e-28
3.48931e-28
5.07397e-28
4.94898e-28
5.90839e-28
4.57563e-28
5.3826e-28
5.95019e-28
7.18843e-28
5.28015e-28
6.18334e-28
6.77065e-28
7.63667e-28
6.43447e-28
7.32715e-28
6.92849e-28
7.93056e-28
7.91358e-28
8.79346e-28
7.74471e-28
8.62178e-28
7.76999e-28
8.76762e-28
9.30077e-28
1.03603e-27
8.46119e-28
9.3943e-28
8.95957e-28
1.00734e-27
9.82567e-28
1.1293e-27
1.02396e-27
9.64092e-28
7.38805e-28
8.1666e-28
1.08099e-27
9.95371e-28
7.49067e-28
9.24243e-28
1.00436e-27
1.38602e-27
1.28025e-27
2.35805e-27
3.84668e-27
7.89511e-27
2.74968e-26
8.05194e-26
2.84257e-25
4.55745e-23
1.01348e-22
2.93951e-22
1.79254e-23
4.17641e-22
8.12699e-25
1.44994e-23
9.05363e-25
1.83623e-27
2.79796e-27
2.15906e-28
5.18413e-28
6.83861e-28
3.72726e-28
5.50612e-28
5.4711e-28
6.42093e-28
4.95768e-28
5.90416e-28
6.54378e-28
7.78892e-28
5.6277e-28
6.7402e-28
7.37616e-28
8.2604e-28
6.89172e-28
7.94954e-28
7.52685e-28
8.65422e-28
8.56872e-28
9.54931e-28
8.36307e-28
9.39363e-28
8.46982e-28
9.66484e-28
1.02346e-27
1.13992e-27
9.27195e-28
1.05178e-27
1.01414e-27
1.15689e-27
1.13377e-27
1.3899e-27
1.23212e-27
1.20445e-27
9.77642e-28
1.02012e-27
1.50715e-27
1.43544e-27
1.19077e-27
1.58399e-27
1.89714e-27
2.76917e-27
3.08258e-27
5.78691e-27
1.01546e-26
2.09591e-26
7.02707e-26
1.8659e-25
2.82249e-25
6.1301e-23
1.71447e-22
3.41677e-22
3.12199e-23
5.24733e-22
1.78942e-24
1.72126e-23
1.4122e-24
4.99879e-27
3.98092e-27
1.2833e-28
5.79662e-28
7.87964e-28
3.94258e-28
6.00054e-28
6.04416e-28
6.99771e-28
5.35106e-28
6.49424e-28
7.20398e-28
8.42851e-28
5.98846e-28
7.35961e-28
8.04883e-28
8.92719e-28
7.37109e-28
8.64592e-28
8.18008e-28
9.4414e-28
9.31527e-28
1.03711e-27
9.03475e-28
1.02791e-27
9.26028e-28
1.06807e-27
1.13442e-27
1.25822e-27
1.02269e-27
1.18851e-27
1.15932e-27
1.33967e-27
1.32953e-27
1.74219e-27
1.48108e-27
1.50951e-27
1.31845e-27
1.28836e-27
2.12256e-27
2.1088e-27
1.90511e-27
2.69013e-27
3.48692e-27
5.28644e-27
6.67093e-27
1.27192e-26
2.31919e-26
4.78214e-26
1.52084e-25
3.69818e-25
2.65284e-25
8.256e-23
2.84126e-22
3.61858e-22
5.8008e-23
6.40892e-22
3.39025e-24
2.06588e-23
2.05251e-24
1.35975e-26
5.40077e-27
5.18465e-29
6.53764e-28
9.15491e-28
4.139e-28
6.55584e-28
6.66881e-28
7.63569e-28
5.78908e-28
7.14614e-28
7.89448e-28
9.12539e-28
6.3789e-28
8.04599e-28
8.75344e-28
9.65767e-28
7.89642e-28
9.41905e-28
8.90505e-28
1.03049e-27
1.01142e-27
1.12926e-27
9.7984e-28
1.12726e-27
1.01774e-27
1.18336e-27
1.25915e-27
1.39643e-27
1.13854e-27
1.3517e-27
1.3367e-27
1.55677e-27
1.56392e-27
2.17137e-27
1.74156e-27
1.81839e-27
1.81843e-27
1.61921e-27
2.99902e-27
3.1087e-27
3.0217e-27
4.46584e-27
6.17568e-27
9.61117e-27
1.31537e-26
2.51363e-26
4.67227e-26
9.48657e-26
2.86021e-25
6.35981e-25
2.54855e-25
1.13211e-22
4.57636e-22
3.70014e-22
1.11225e-22
7.50348e-22
5.41675e-24
2.52439e-23
2.73609e-24
3.31638e-26
7.07086e-27
8.33251e-30
7.65296e-28
1.05459e-27
4.36035e-28
7.12464e-28
7.40678e-28
8.30084e-28
6.27829e-28
7.85796e-28
8.66449e-28
9.85784e-28
6.80347e-28
8.80206e-28
9.53261e-28
1.04373e-27
8.46634e-28
1.0288e-27
9.69686e-28
1.12569e-27
1.10194e-27
1.23076e-27
1.06459e-27
1.24149e-27
1.12173e-27
1.31569e-27
1.40476e-27
1.55475e-27
1.27465e-27
1.54445e-27
1.54464e-27
1.80489e-27
1.8387e-27
2.67207e-27
2.0813e-27
2.45916e-27
2.5852e-27
2.02381e-27
4.27104e-27
4.50415e-27
4.68539e-27
7.18017e-27
1.04392e-26
1.65133e-26
2.3765e-26
4.53258e-26
8.42835e-26
1.67636e-25
4.77488e-25
9.73987e-25
2.58269e-25
1.57355e-22
7.23807e-22
3.63765e-22
1.9692e-22
9.09062e-22
7.41263e-24
3.21036e-23
3.45733e-24
7.78546e-26
8.00394e-27
7.65817e-31
8.94586e-28
1.23074e-27
4.50869e-28
7.80441e-28
8.19528e-28
9.05155e-28
6.81647e-28
8.64593e-28
9.46331e-28
1.06674e-27
7.25979e-28
9.64401e-28
1.03428e-27
1.13001e-27
9.09233e-28
1.12574e-27
1.05729e-27
1.23157e-27
1.19728e-27
1.34576e-27
1.16243e-27
1.37044e-27
1.24144e-27
1.46683e-27
1.5691e-27
1.74188e-27
1.44134e-27
1.78027e-27
1.80991e-27
2.13586e-27
2.24254e-27
3.4773e-27
3.08904e-27
3.02816e-27
3.38705e-27
2.77456e-27
5.92122e-27
6.46434e-27
7.0781e-27