/*--------------------------------*- C++ -*----------------------------------*\
| =========                 |                                                 |
| \\      /  F ield         | OpenFOAM: The Open Source CFD Toolbox           |
|  \\    /   O peration     | Version:  2312                                  |
|   \\  /    A nd           | Website:  www.openfoam.com                      |
|    \\/     M anipulation  |                                                 |
\*---------------------------------------------------------------------------*/
FoamFile
{
    version     2.0;
    format      ascii;
    arch        "LSB;label=32;scalar=64";
    class       volScalarField;
    location    "360";
    object      p;
}
// * * * * * * * * * * * * * * * * * * * * * * * * * * * * * * * * * * * * * //

dimensions      [0 2 -2 0 0 0 0];

internalField   nonuniform List<scalar> 
144000
(
4.2051e-10
2.74176e-10
-2.2103e-10
-5.36604e-10
-4.84935e-10
-3.50482e-10
-2.05889e-10
-1.30514e-10
-6.09605e-11
-4.57186e-11
-1.16064e-11
-1.5665e-11
8.69075e-12
-1.93197e-12
2.07235e-11
9.1521e-12
2.77689e-11
1.11351e-11
3.19789e-11
1.82805e-11
3.82702e-11
2.06816e-11
4.09359e-11
2.41313e-11
4.47292e-11
2.75042e-11
4.71397e-11
2.75581e-11
4.76452e-11
2.90466e-11
4.9831e-11
3.14793e-11
5.01338e-11
2.81853e-11
4.7572e-11
2.79538e-11
4.71936e-11
2.77683e-11
4.5154e-11
2.45191e-11
4.02392e-11
2.25299e-11
3.72725e-11
1.78875e-11
3.09729e-11
1.27267e-11
2.47953e-11
1.35049e-11
2.16542e-11
1.52308e-11
1.87001e-11
2.17844e-11
8.6913e-12
1.37852e-11
-2.93919e-11
-7.30019e-12
-8.20418e-11
-1.72279e-10
-7.97077e-10
-1.75495e-10
4.45285e-10
2.86775e-10
-2.27082e-10
-5.41845e-10
-4.87216e-10
-3.50785e-10
-2.06052e-10
-1.30562e-10
-6.12226e-11
-4.58966e-11
-1.19069e-11
-1.58017e-11
8.43734e-12
-2.02217e-12
2.05204e-11
9.13059e-12
2.75874e-11
1.1104e-11
3.18109e-11
1.83022e-11
3.81195e-11
2.06967e-11
4.07937e-11
2.41809e-11
4.46018e-11
2.75676e-11
4.70101e-11
2.7617e-11
4.75181e-11
2.91273e-11
4.97189e-11
3.15769e-11
5.00166e-11
2.82611e-11
4.74563e-11
2.80606e-11
4.70942e-11
2.78804e-11
4.50586e-11
2.46119e-11
4.00815e-11
2.2515e-11
3.70822e-11
1.80112e-11
3.09113e-11
1.28764e-11
2.47533e-11
1.36972e-11
2.1662e-11
1.5416e-11
1.87975e-11
2.20104e-11
8.94266e-12
1.39297e-11
-2.89395e-11
-6.96535e-12
-7.83997e-11
-1.67178e-10
-8.13957e-10
-1.89515e-10
4.75927e-10
2.97519e-10
-2.34336e-10
-5.47364e-10
-4.8989e-10
-3.51357e-10
-2.06144e-10
-1.30677e-10
-6.13693e-11
-4.62051e-11
-1.21779e-11
-1.61043e-11
8.23205e-12
-2.2764e-12
2.03595e-11
8.97622e-12
2.7504e-11
1.09356e-11
3.1702e-11
1.81915e-11
3.80675e-11
2.0578e-11
4.07374e-11
2.41066e-11
4.45745e-11
2.75085e-11
4.69955e-11
2.75502e-11
4.7496e-11
2.90862e-11
4.9715e-11
3.15553e-11
5.00358e-11
2.82111e-11
4.74521e-11
2.80508e-11
4.71212e-11
2.78804e-11
4.50995e-11
2.46141e-11
4.0014e-11
2.23264e-11
3.69287e-11
1.79787e-11
3.10111e-11
1.29655e-11
2.48394e-11
1.38388e-11
2.18229e-11
1.55546e-11
1.89986e-11
2.21942e-11
9.34069e-12
1.4132e-11
-2.83702e-11
-7.16707e-12
-7.42869e-11
-1.55382e-10
-8.3954e-10
-2.04776e-10
5.10111e-10
3.02514e-10
-2.41522e-10
-5.51807e-10
-4.93543e-10
-3.52212e-10
-2.06158e-10
-1.30667e-10
-6.13924e-11
-4.65278e-11
-1.24918e-11
-1.64903e-11
7.98898e-12
-2.60507e-12
2.01539e-11
8.77596e-12
2.74376e-11
1.07178e-11
3.15593e-11
1.80356e-11
3.8031e-11
2.04183e-11
4.06733e-11
2.39974e-11
4.45605e-11
2.74221e-11
4.70087e-11
2.74518e-11
4.7484e-11
2.90129e-11
4.97318e-11
3.15099e-11
5.01077e-11
2.81271e-11
4.74671e-11
2.80074e-11
4.71962e-11
2.78521e-11
4.52091e-11
2.46119e-11
3.99745e-11
2.20456e-11
3.67209e-11
1.78099e-11
3.12183e-11
1.30377e-11
2.50203e-11
1.39335e-11
2.21429e-11
1.56083e-11
1.93887e-11
2.22378e-11
1.01092e-11
1.40505e-11
-2.73156e-11
-8.4465e-12
-6.78608e-11
-1.3908e-10
-8.71779e-10
-2.1762e-10
5.42758e-10
2.94463e-10
-2.47174e-10
-5.51515e-10
-4.97013e-10
-3.53284e-10
-2.06088e-10
-1.30459e-10
-6.12802e-11
-4.68516e-11
-1.29065e-11
-1.69806e-11
7.64878e-12
-3.02315e-12
1.98505e-11
8.53269e-12
2.73448e-11
1.04587e-11
3.13394e-11
1.78447e-11
3.7975e-11
2.02355e-11
4.05622e-11
2.38686e-11
4.45255e-11
2.73293e-11
4.70179e-11
2.73448e-11
4.74465e-11
2.89269e-11
4.97379e-11
3.14643e-11
5.02043e-11
2.80338e-11
4.74693e-11
2.79467e-11
4.72952e-11
2.78132e-11
4.53714e-11
2.46323e-11
3.99542e-11
2.17309e-11
3.63983e-11
1.74727e-11
3.15138e-11
1.30984e-11
2.52857e-11
1.39532e-11
2.26343e-11
1.55205e-11
2.00088e-11
2.20308e-11
1.13552e-11
1.34741e-11
-2.5513e-11
-1.12162e-11
-5.85872e-11
-1.20551e-10
-9.08638e-10
-2.21414e-10
5.71733e-10
2.64269e-10
-2.51631e-10
-5.42737e-10
-4.98857e-10
-3.54492e-10
-2.05936e-10
-1.29993e-10
-6.09921e-11
-4.71646e-11
-1.34403e-11
-1.75983e-11
7.18357e-12
-3.54989e-12
1.94238e-11
8.21268e-12
2.72049e-11
1.01508e-11
3.10268e-11
1.76049e-11
3.78856e-11
2.00261e-11
4.03915e-11
2.37117e-11
4.44598e-11
2.72257e-11
4.70142e-11
2.72285e-11
4.73749e-11
2.88235e-11
4.9727e-11
3.14146e-11
5.03202e-11
2.79323e-11
4.74543e-11
2.78598e-11
4.7418e-11
2.77556e-11
4.55928e-11
2.46799e-11
3.99759e-11
2.13891e-11
3.59113e-11
1.69138e-11
3.18979e-11
1.31353e-11
2.56444e-11
1.38526e-11
2.33187e-11
1.52279e-11
2.09107e-11
2.146e-11
1.3185e-11
1.21966e-11
-2.26959e-11
-1.58521e-11
-4.61221e-11
-1.01646e-10
-9.49757e-10
-2.08162e-10
5.98418e-10
2.03768e-10
-2.57244e-10
-5.22286e-10
-4.97192e-10
-3.55739e-10
-2.05742e-10
-1.2922e-10
-6.04815e-11
-4.74418e-11
-1.40915e-11
-1.83503e-11
6.58001e-12
-4.19309e-12
1.88612e-11
7.80426e-12
2.70001e-11
9.78996e-12
3.06139e-11
1.73035e-11
3.77497e-11
1.97869e-11
4.01534e-11
2.35183e-11
4.43557e-11
2.71056e-11
4.69891e-11
2.71012e-11
4.72639e-11
2.86974e-11
4.96951e-11
3.1355e-11
5.04488e-11
2.78225e-11
4.7422e-11
2.77364e-11
4.75657e-11
2.76689e-11
4.58827e-11
2.47521e-11
4.00926e-11
2.10185e-11
3.518e-11
1.60769e-11
3.23766e-11
1.31327e-11
2.61122e-11
1.35847e-11
2.42211e-11
1.46676e-11
2.2149e-11
2.04097e-11
1.57107e-11
1.00221e-11
-1.86099e-11
-2.26188e-11
-3.02907e-11
-8.34797e-11
-9.96452e-10
-1.7116e-10
6.2656e-10
1.0705e-10
-2.67634e-10
-4.87803e-10
-4.90401e-10
-3.56894e-10
-2.05589e-10
-1.28109e-10
-5.97101e-11
-4.76569e-11
-1.48532e-11
-1.92339e-11
5.83123e-12
-4.95268e-12
1.81569e-11
7.29884e-12
2.67128e-11
9.37664e-12
3.00964e-11
1.6934e-11
3.75531e-11
1.95173e-11
3.98412e-11
2.32832e-11
4.42047e-11
2.69668e-11
4.6932e-11
2.6963e-11
4.71083e-11
2.85461e-11
4.96372e-11
3.12831e-11
5.05803e-11
2.77057e-11
4.73718e-11
2.75695e-11
4.77373e-11
2.75433e-11
4.62511e-11
2.48414e-11
4.03903e-11
2.05814e-11
3.40835e-11
1.49098e-11
3.29596e-11
1.30736e-11
2.67078e-11
1.31057e-11
2.5366e-11
1.37817e-11
2.37973e-11
1.87785e-11
1.90252e-11
6.81198e-12
-1.30799e-11
-3.1584e-11
-1.12939e-11
-6.63602e-11
-1.05066e-09
-1.06281e-10
6.61592e-10
-2.89523e-11
-2.87318e-10
-4.38043e-10
-4.76693e-10
-3.57886e-10
-2.05617e-10
-1.26666e-10
-5.86546e-11
-4.7789e-11
-1.57182e-11
-2.02427e-11
4.93444e-12
-5.82419e-12
1.73101e-11
6.69242e-12
2.63286e-11
8.91323e-12
2.94743e-11
1.64938e-11
3.72834e-11
1.9218e-11
3.94513e-11
2.30044e-11
4.39991e-11
2.68084e-11
4.68335e-11
2.68142e-11
4.69041e-11
2.83688e-11
4.95483e-11
3.11975e-11
5.07045e-11
2.75826e-11
4.73044e-11
2.73539e-11
4.79314e-11
2.7368e-11
4.67119e-11
2.49338e-11
4.09985e-11
2.00246e-11
3.24515e-11
1.33618e-11
3.36628e-11
1.29417e-11
2.745e-11
1.23798e-11
2.67723e-11
1.25254e-11
2.58911e-11
1.64941e-11
2.31722e-11
2.51864e-12
-6.06998e-12
-4.25683e-11
1.03384e-11
-4.99901e-11
-1.11446e-09
-1.21665e-11
7.08508e-10
-2.04122e-10
-3.20556e-10
-3.72937e-10
-4.5452e-10
-3.58244e-10
-2.06021e-10
-1.2494e-10
-5.73092e-11
-4.78245e-11
-1.66799e-11
-2.13698e-11
3.88867e-12
-6.80204e-12
1.6323e-11
5.98454e-12
2.58356e-11
8.40219e-12
2.87508e-11
1.59833e-11
3.69304e-11
1.88897e-11
3.89831e-11
2.26816e-11
4.37331e-11
2.66302e-11
4.66854e-11
2.66552e-11
4.66498e-11
2.8166e-11
4.94244e-11
3.10975e-11
5.08116e-11
2.74532e-11
4.72215e-11
2.70866e-11
4.81459e-11
2.71321e-11
4.72815e-11
2.50147e-11
4.2088e-11
1.92586e-11
3.00683e-11
1.1398e-11
3.45044e-11
1.2723e-11
2.83535e-11
1.13862e-11
2.84449e-11
1.08774e-11
2.84437e-11
1.3549e-11
2.81263e-11
-2.79696e-12
2.29758e-12
-5.51428e-11
3.36466e-11
-3.35958e-11
-1.18881e-09
1.09664e-10
7.71269e-10
-4.14969e-10
-3.70905e-10
-2.93736e-10
-4.22771e-10
-3.57745e-10
-2.06994e-10
-1.23028e-10
-5.56883e-11
-4.77569e-11
-1.77337e-11
-2.26097e-11
2.69342e-12
-7.88152e-12
1.51986e-11
5.17627e-12
2.52251e-11
7.84509e-12
2.79303e-11
1.54043e-11
3.64862e-11
1.85327e-11
3.8438e-11
2.23155e-11
4.34023e-11
2.64321e-11
4.64822e-11
2.64862e-11
4.63454e-11
2.79386e-11
4.92625e-11
3.09828e-11
5.08937e-11
2.73176e-11
4.7125e-11
2.67673e-11
4.83768e-11
2.68265e-11
4.79782e-11
2.50701e-11
4.38847e-11
1.80867e-11
2.66637e-11
9.0078e-12
3.54983e-11
1.24057e-11
2.94211e-11
1.01245e-11
3.03695e-11
8.84348e-12
3.14331e-11
9.99185e-12
3.37823e-11
-8.95611e-12
1.17383e-11
-6.86673e-11
5.7466e-11
-1.61815e-11
-1.27339e-09
2.54738e-10
8.51667e-10
-6.54983e-10
-4.40525e-10
-2.02918e-10
-3.8092e-10
-3.55967e-10
-2.08691e-10
-1.21069e-10
-5.38292e-11
-4.75869e-11
-1.88755e-11
-2.39576e-11
1.34808e-12
-9.05955e-12
1.39399e-11
4.26954e-12
2.449e-11
7.24208e-12
2.70182e-11
1.47597e-11
3.5945e-11
1.81463e-11
3.78183e-11
2.19076e-11
4.30037e-11
2.62142e-11
4.62199e-11
2.63067e-11
4.59921e-11
2.76883e-11
4.90597e-11
3.0854e-11
5.09437e-11
2.71765e-11
4.70155e-11
2.63993e-11
4.86181e-11
2.64428e-11
4.8821e-11
2.50787e-11
4.67827e-11
1.63338e-11
2.18498e-11
6.20495e-12
3.66418e-11
1.19784e-11
3.0638e-11
8.61261e-12
3.25112e-11
6.44405e-12
3.47901e-11
5.9325e-12
3.996e-11
-1.56755e-11
2.18435e-11
-8.23712e-11
8.05123e-11
3.07881e-12
-1.36622e-09
4.16586e-10
9.5041e-10
-9.15407e-10
-5.3039e-10
-1.03993e-10
-3.28919e-10
-3.52366e-10
-2.11192e-10
-1.19233e-10
-5.17919e-11
-4.73184e-11
-2.00989e-11
-2.54075e-11
-1.46243e-13
-1.03329e-11
1.25508e-11
3.26722e-12
2.36262e-11
6.59257e-12
2.60201e-11
1.40531e-11
3.53029e-11
1.77289e-11
3.71271e-11
2.14594e-11
4.25349e-11
2.59764e-11
4.58967e-11
2.61167e-11
4.55909e-11
2.74178e-11
4.88135e-11
3.07124e-11
5.09552e-11
2.70318e-11
4.68913e-11
2.59909e-11
4.88582e-11
2.59834e-11
4.98017e-11
2.50525e-11
5.11935e-11
1.3815e-11
1.52581e-11
3.10397e-12
3.79467e-11
1.1449e-11
3.19778e-11
6.88882e-12
3.48076e-11
3.7955e-12
3.83981e-11
1.53507e-12
4.64152e-11
-2.25951e-11
3.21185e-11
-9.54371e-11
1.01719e-10
2.46909e-11
-1.46484e-09
5.89379e-10
1.06606e-09
-1.18615e-09
-6.39617e-10
-1.05235e-12
-2.67275e-10
-3.46368e-10
-2.14491e-10
-1.17709e-10
-4.96609e-11
-4.69594e-11
-2.13936e-11
-2.69515e-11
-1.78638e-12
-1.16979e-11
1.1037e-11
2.17344e-12
2.26316e-11
5.89551e-12
2.4942e-11
1.32886e-11
3.45578e-11
1.72788e-11
3.63681e-11
2.09753e-11
4.19946e-11
2.57186e-11
4.55111e-11
2.59159e-11
4.51438e-11
2.71309e-11
4.85215e-11
3.05606e-11
5.09209e-11
2.68877e-11
4.6746e-11
2.55604e-11
4.90706e-11
2.54823e-11
5.08363e-11
2.51067e-11
5.73867e-11
9.78637e-12
6.58061e-12
-4.98935e-14
3.94553e-11
1.08686e-11
3.34186e-11
5.02173e-12
3.71848e-11
9.91843e-13
4.21096e-11
-2.9891e-12
5.28575e-11
-2.93071e-11
4.20264e-11
-1.07058e-10
1.201e-10
4.8851e-11
-1.56602e-09
7.62159e-10
1.19526e-09
-1.45799e-09
-7.6604e-10
1.01181e-10
-1.97278e-10
-3.37446e-10
-2.18492e-10
-1.16701e-10
-4.755e-11
-4.6525e-11
-2.27476e-11
-2.85802e-11
-3.56797e-12
-1.31507e-11
9.40451e-12
9.92978e-13
2.15072e-11
5.15003e-12
2.37896e-11
1.24712e-11
3.37096e-11
1.67942e-11
3.55447e-11
2.0458e-11
4.13824e-11
2.54407e-11
4.50627e-11
2.57051e-11
4.46519e-11
2.68319e-11
4.81806e-11
3.04017e-11
5.08337e-11
2.67505e-11
4.65709e-11
2.51288e-11
4.92284e-11
2.49781e-11
5.18306e-11
2.52227e-11
6.65608e-11
2.44134e-12
-5.3713e-12
-3.31479e-12
4.10714e-11
1.02632e-11
3.49213e-11
3.09745e-12
3.95444e-11
-1.83526e-12
4.57551e-11
-7.40073e-12
5.89749e-11
-3.5399e-11
5.10492e-11
-1.16541e-10
1.34979e-10
7.53302e-11
-1.66535e-09
9.27974e-10
1.33261e-09
-1.71508e-09
-9.06145e-10
1.97737e-10
-1.20985e-10
-3.25167e-10
-2.23005e-10
-1.16417e-10
-4.56043e-11
-4.60419e-11
-2.4149e-11
-3.02849e-11
-5.48713e-12
-1.46891e-11
7.65879e-12
-2.69277e-13
2.02554e-11
4.35514e-12
2.25682e-11
1.16059e-11
3.27596e-11
1.62734e-11
3.46597e-11
1.9911e-11
4.06983e-11
2.51427e-11
4.45514e-11
2.5485e-11
4.41164e-11
2.65255e-11
4.77884e-11
3.02392e-11
5.06883e-11
2.66242e-11
4.63615e-11
2.47059e-11
4.93275e-11
2.44705e-11
5.27765e-11
2.4811e-11
8.1471e-11
-1.59539e-12
-2.15259e-11
-7.0658e-12
4.23449e-11
9.5753e-12
3.63821e-11
1.1895e-12
4.17659e-11
-4.54433e-12
4.91507e-11
-1.145e-11
6.44608e-11
-4.04855e-11
5.8742e-11
-1.23368e-10
1.45982e-10
1.03426e-10
-1.75739e-09
1.07899e-09
1.47157e-09
-1.94952e-09
-1.05499e-09
2.84083e-10
-4.07884e-11
-3.09129e-10
-2.27696e-10
-1.17021e-10
-4.39832e-11
-4.55424e-11
-2.55829e-11
-3.20542e-11
-7.53843e-12
-1.63104e-11
5.80567e-12
-1.60794e-12
1.8881e-11
3.51068e-12
2.12826e-11
1.06981e-11
3.17108e-11
1.57153e-11
3.37157e-11
1.9338e-11
3.99431e-11
2.48251e-11
4.39783e-11
2.52573e-11
4.35373e-11
2.62166e-11
4.73413e-11
3.0078e-11
5.04779e-11
2.65188e-11
4.61009e-11
2.43284e-11
4.93046e-11
2.41119e-11
5.33401e-11
2.42752e-11
9.13049e-11
-1.82404e-14
-3.18326e-11
-9.95787e-12
4.32425e-11
8.8817e-12
3.77612e-11
-5.87628e-13
4.37358e-11
-6.98735e-12
5.21103e-11
-1.4896e-11
6.90384e-11
-4.42371e-11
6.47613e-11
-1.2722e-10
1.53128e-10
1.32144e-10
-1.83729e-09
1.20878e-09
1.60446e-09
-2.1525e-09
-1.20626e-09
3.56443e-10
4.06295e-11
-2.8908e-10
-2.32137e-10
-1.18637e-10
-4.28569e-11
-4.50678e-11
-2.70325e-11
-3.38743e-11
-9.71476e-12
-1.80107e-11
3.85237e-12
-3.01685e-12
1.73896e-11
2.61706e-12
1.9938e-11
9.75313e-12
3.0567e-11
1.51196e-11
3.27155e-11
1.87433e-11
3.91182e-11
2.44886e-11
4.3344e-11
2.5024e-11
4.29148e-11
2.59116e-11
4.68366e-11
2.99244e-11
5.01932e-11
2.64487e-11
4.57647e-11
2.40493e-11
4.90676e-11
2.41268e-11
5.30529e-11
2.49018e-11
8.17395e-11
6.53989e-14
-2.11146e-11
-9.9077e-12
4.39564e-11
8.3306e-12
3.90501e-11
-2.09973e-12
4.53527e-11
-9.0212e-12
5.44621e-11
-1.75316e-11
7.24826e-11
-4.64044e-11
6.88892e-11
-1.27969e-10
1.56668e-10
1.60281e-10
-1.90064e-09
1.31255e-09
1.72342e-09
-2.31647e-09
-1.35307e-09
4.11767e-10
1.20322e-10
-2.65008e-10
-2.35894e-10
-1.21346e-10
-4.24038e-11
-4.46714e-11
-2.84832e-11
-3.57299e-11
-1.2008e-11
-1.97867e-11
1.80571e-12
-4.48972e-12
1.57887e-11
1.67577e-12
1.8539e-11
8.77663e-12
2.93333e-11
1.44867e-11
3.16614e-11
1.81309e-11
3.82259e-11
2.41344e-11
4.265e-11
2.47873e-11
4.22493e-11
2.56152e-11
4.62726e-11
2.97814e-11
4.98329e-11
2.64143e-11
4.53573e-11
2.38545e-11
4.86654e-11
2.43677e-11
5.22501e-11
2.55335e-11
6.65855e-11
5.2501e-12
-1.49736e-12
-8.71641e-12
4.4042e-11
7.85383e-12
4.01145e-11
-3.29133e-12
4.65115e-11
-1.05109e-11
5.60624e-11
-1.92233e-11
7.46238e-11
-4.68385e-11
7.1025e-11
-1.25637e-10
1.57005e-10
1.86674e-10
-1.9436e-09
1.38656e-09
1.82116e-09
-2.43586e-09
-1.48867e-09
4.47967e-10
1.9539e-10
-2.37128e-10
-2.38546e-10
-1.25179e-10
-4.27995e-11
-4.44214e-11
-2.99274e-11
-3.7608e-11
-1.44112e-11
-2.16367e-11
-3.29194e-13
-6.0212e-12
1.40857e-11
6.88293e-13
1.70889e-11
7.77337e-12
2.80151e-11
1.38172e-11
3.05554e-11
1.75046e-11
3.72684e-11
2.37638e-11
4.18974e-11
2.45498e-11
4.15413e-11
2.5332e-11
4.56489e-11
2.96521e-11
4.93965e-11
2.64155e-11
4.4884e-11
2.3726e-11
4.81515e-11
2.46656e-11
5.13379e-11
2.55321e-11
5.6836e-11
1.31505e-11
1.13149e-11
-7.3181e-12
4.36711e-11
7.48392e-12
4.08824e-11
-4.08482e-12
4.71398e-11
-1.13636e-11
5.68182e-11
-1.97897e-11
7.53603e-11
-4.54728e-11
7.11593e-11
-1.20362e-10
1.54559e-10
2.10445e-10
-1.96321e-09
1.42811e-09
1.89239e-09
-2.50675e-09
-1.60705e-09
4.63945e-10
2.63257e-10
-2.05841e-10
-2.39683e-10
-1.30089e-10
-4.41874e-11
-4.43898e-11
-3.13615e-11
-3.94953e-11
-1.69165e-11
-2.35587e-11
-2.5485e-12
-7.60657e-12
1.22891e-11
-3.42971e-13
1.55907e-11
6.74742e-12
2.6619e-11
1.31126e-11
2.93986e-11
1.68671e-11
3.62484e-11
2.33787e-11
4.10889e-11
2.4314e-11
4.07903e-11
2.50659e-11
4.49643e-11
2.9541e-11
4.88823e-11
2.64598e-11
4.4335e-11
2.36816e-11
4.74989e-11
2.50586e-11
5.0254e-11
2.5532e-11
5.06634e-11
1.647e-11
2.11692e-11
-5.07754e-12
4.32652e-11
7.34023e-12
4.13238e-11
-4.40554e-12
4.71906e-11
-1.15169e-11
5.66765e-11
-1.92086e-11
7.46661e-11
-4.2316e-11
6.9363e-11
-1.12339e-10
1.49856e-10
2.31005e-10
-1.95655e-09
1.43526e-09
1.93009e-09
-2.52705e-09
-1.70389e-09
4.595e-10
3.21795e-10
-1.71759e-10
-2.38995e-10
-1.35968e-10
-4.66731e-11
-4.46489e-11
-3.27862e-11
-4.13783e-11
-1.95141e-11
-2.55496e-11
-4.84725e-12
-9.24176e-12
1.04075e-11
-1.41493e-12
1.40477e-11
5.7018e-12
2.5151e-11
1.23746e-11
2.81927e-11
1.6221e-11
3.5169e-11
2.29806e-11
4.02271e-11
2.40822e-11
3.99971e-11
2.48199e-11
4.422e-11
2.94493e-11
4.8292e-11
2.65466e-11
4.3713e-11
2.37129e-11
4.67208e-11
2.55162e-11
4.90559e-11
2.56649e-11
4.63103e-11
1.83029e-11
2.88201e-11
-2.20575e-12
4.27872e-11
7.42431e-12
4.13725e-11
-4.23081e-12
4.66341e-11
-1.09438e-11
5.56263e-11
-1.7495e-11
7.25846e-11
-3.74498e-11
6.58072e-11
-1.01867e-10
1.43224e-10
2.47882e-10
-1.92264e-09
1.4073e-09
1.93223e-09
-2.49674e-09
-1.77403e-09
4.35219e-10
3.69483e-10
-1.35705e-10
-2.3633e-10
-1.42694e-10
-5.0333e-11
-4.52721e-11
-3.42087e-11
-4.32473e-11
-2.21941e-11
-2.76059e-11
-7.21986e-12
-1.09249e-11
8.44916e-12
-2.52373e-12
1.24638e-11
4.63802e-12
2.36172e-11
1.16059e-11
2.69401e-11
1.55679e-11
3.40331e-11
2.25703e-11
3.93149e-11
2.38567e-11
3.91641e-11
2.45958e-11
4.34192e-11
2.93764e-11
4.76315e-11
2.66733e-11
4.3029e-11
2.38022e-11
4.58658e-11
2.59668e-11
4.78935e-11
2.58017e-11
4.3285e-11
1.91868e-11
3.44972e-11
9.47384e-13
4.22015e-11
7.75262e-12
4.1002e-11
-3.55602e-12
4.5478e-11
-9.65008e-12
5.37016e-11
-1.47007e-11
6.91818e-11
-3.10454e-11
6.08177e-11
-8.92573e-11
1.34743e-10
2.61063e-10
-1.86114e-09
1.34486e-09
1.89793e-09
-2.41797e-09
-1.81683e-09
3.9259e-10
4.05738e-10
-9.84702e-11
-2.3164e-10
-1.50137e-10
-5.52178e-11
-4.63315e-11
-3.56441e-11
-4.50996e-11
-2.49522e-11
-2.97283e-11
-9.6637e-12
-1.26589e-11
6.41878e-12
-3.66643e-12
1.08422e-11
3.55507e-12
2.20211e-11
1.08088e-11
2.56427e-11
1.49077e-11
3.28466e-11
2.21472e-11
3.83549e-11
2.36393e-11
3.82944e-11
2.43942e-11
4.25661e-11
2.93198e-11
4.6904e-11
2.68385e-11
4.22899e-11
2.39387e-11
4.49478e-11
2.63942e-11
4.67874e-11
2.59106e-11
4.1265e-11
1.97632e-11
3.84792e-11
4.21465e-12
4.15144e-11
8.35893e-12
4.02234e-11
-2.39409e-12
4.37621e-11
-7.6715e-12
5.09785e-11
-1.0918e-11
6.47726e-11
-2.33438e-11
5.4655e-11
-7.4672e-11
1.24134e-10
2.70922e-10
-1.77236e-09
1.24944e-09
1.82793e-09
-2.29388e-09
-1.83246e-09
3.33776e-10
4.30574e-10
-6.07117e-11
-2.24911e-10
-1.58158e-10
-6.13666e-11
-4.78983e-11
-3.71109e-11
-4.69322e-11
-2.77884e-11
-3.19186e-11
-1.21805e-11
-1.4448e-11
4.31721e-12
-4.83828e-12
9.18409e-12
2.45277e-12
2.03639e-11
9.98756e-12
2.43005e-11
1.42405e-11
3.16089e-11
2.1712e-11
3.73477e-11
2.34334e-11
3.73893e-11
2.4216e-11
4.16629e-11
2.92776e-11
4.61125e-11
2.70425e-11
4.15021e-11
2.41129e-11
4.39727e-11
2.68014e-11
4.57233e-11
2.60108e-11
3.9936e-11
2.01845e-11
4.10607e-11
7.51073e-12
4.07281e-11
9.26051e-12
3.90576e-11
-7.81867e-13
4.15403e-11
-5.07451e-12
4.75928e-11
-6.29329e-12
5.95029e-11
-1.45776e-11
4.75158e-11
-5.80429e-11
1.10709e-10
2.77874e-10
-1.65686e-09
1.12262e-09
4.22868e-10
2.73552e-10
-2.22303e-10
-5.37409e-10
-4.85579e-10
-3.50372e-10
-2.05433e-10
-1.3006e-10
-6.07833e-11
-4.59103e-11
-1.2036e-11
-1.62234e-11
8.06778e-12
-2.59084e-12
2.00754e-11
8.51872e-12
2.72838e-11
1.08015e-11
3.17505e-11
1.80974e-11
3.81779e-11
2.06364e-11
4.09208e-11
2.40897e-11
4.47087e-11
2.74228e-11
4.71378e-11
2.75386e-11
4.76647e-11
2.89737e-11
4.98201e-11
3.13281e-11
5.00848e-11
2.79565e-11
4.75402e-11
2.77213e-11
4.72921e-11
2.75754e-11
4.54984e-11
2.45874e-11
4.1138e-11
2.34084e-11
3.77124e-11
1.84209e-11
3.12833e-11
1.28475e-11
2.49044e-11
1.36664e-11
2.19185e-11
1.55836e-11
1.91788e-11
2.23593e-11
9.58807e-12
1.49182e-11
-2.79282e-11
-5.49975e-12
-8.02924e-11
-1.72053e-10
-8.00459e-10
-1.75989e-10
4.4767e-10
2.86183e-10
-2.28375e-10
-5.42634e-10
-4.87832e-10
-3.50667e-10
-2.05583e-10
-1.30103e-10
-6.10437e-11
-4.60917e-11
-1.23415e-11
-1.63666e-11
7.80803e-12
-2.68869e-12
1.98645e-11
8.48757e-12
2.70977e-11
1.0766e-11
3.15796e-11
1.81146e-11
3.8027e-11
2.06512e-11
4.07779e-11
2.41375e-11
4.45804e-11
2.74846e-11
4.7011e-11
2.76014e-11
4.75403e-11
2.90574e-11
4.9709e-11
3.14278e-11
4.99679e-11
2.80369e-11
4.74221e-11
2.78338e-11
4.7188e-11
2.76969e-11
4.53988e-11
2.47017e-11
4.10158e-11
2.34642e-11
3.75853e-11
1.85666e-11
3.1226e-11
1.29985e-11
2.48639e-11
1.38587e-11
2.19278e-11
1.57701e-11
1.92772e-11
2.25853e-11
9.84449e-12
1.50684e-11
-2.74675e-11
-5.15684e-12
-7.66365e-11
-1.66938e-10
-8.17361e-10
-1.9004e-10
4.78294e-10
2.96968e-10
-2.35649e-10
-5.48121e-10
-4.90502e-10
-3.51232e-10
-2.0566e-10
-1.30214e-10
-6.11886e-11
-4.64054e-11
-1.26196e-11
-1.66788e-11
7.59416e-12
-2.95346e-12
1.96938e-11
8.31958e-12
2.70065e-11
1.05912e-11
3.14675e-11
1.7998e-11
3.79747e-11
2.05329e-11
4.07222e-11
2.40609e-11
4.4553e-11
2.7423e-11
4.70002e-11
2.75399e-11
4.75236e-11
2.90196e-11
4.97082e-11
3.1408e-11
4.99888e-11
2.79915e-11
4.74173e-11
2.78283e-11
4.72121e-11
2.77041e-11
4.54388e-11
2.47151e-11
4.10022e-11
2.33616e-11
3.75393e-11
1.85948e-11
3.13357e-11
1.30859e-11
2.49511e-11
1.39994e-11
2.20893e-11
1.59088e-11
1.94791e-11
2.27678e-11
1.02465e-11
1.52752e-11
-2.68978e-11
-5.35708e-12
-7.25067e-11
-1.55075e-10
-8.42918e-10
-2.05398e-10
5.124e-10
3.02005e-10
-2.42866e-10
-5.52521e-10
-4.9409e-10
-3.52075e-10
-2.05657e-10
-1.30194e-10
-6.12072e-11
-4.6732e-11
-1.29416e-11
-1.70753e-11
7.34107e-12
-3.2943e-12
1.94768e-11
8.10258e-12
2.69276e-11
1.03643e-11
3.132e-11
1.78346e-11
3.79363e-11
2.03739e-11
4.06595e-11
2.39492e-11
4.45385e-11
2.73333e-11
4.70158e-11
2.74482e-11
4.75185e-11
2.89514e-11
4.97285e-11
3.13659e-11
5.00613e-11
2.79143e-11
4.74303e-11
2.77919e-11
4.72814e-11
2.76844e-11
4.55444e-11
2.4709e-11
4.1035e-11
2.31693e-11
3.74868e-11
1.85503e-11
3.15662e-11
1.31541e-11
2.51338e-11
1.4094e-11
2.24097e-11
1.59625e-11
1.98705e-11
2.2809e-11
1.10163e-11
1.51988e-11
-2.58485e-11
-6.63842e-12
-6.60582e-11
-1.3867e-10
-8.75085e-10
-2.18371e-10
5.4491e-10
2.93988e-10
-2.48564e-10
-5.52189e-10
-4.97512e-10
-3.53129e-10
-2.05563e-10
-1.29969e-10
-6.10854e-11
-4.70569e-11
-1.33638e-11
-1.75761e-11
6.9906e-12
-3.72499e-12
1.91612e-11
7.84241e-12
2.68177e-11
1.00936e-11
3.10938e-11
1.76346e-11
3.78758e-11
2.0192e-11
4.05504e-11
2.38185e-11
4.45022e-11
2.72367e-11
4.70245e-11
2.73494e-11
4.74885e-11
2.88735e-11
4.97373e-11
3.1327e-11
5.01556e-11
2.78324e-11
4.74261e-11
2.77448e-11
4.73671e-11
2.76603e-11
4.56929e-11
2.47082e-11
4.11023e-11
2.29104e-11
3.73764e-11
1.84298e-11
3.19063e-11
1.32094e-11
2.54034e-11
1.4116e-11
2.29021e-11
1.58747e-11
2.04919e-11
2.25989e-11
1.22602e-11
1.46279e-11
-2.40544e-11
-9.41361e-12
-5.67593e-11
-1.20021e-10
-9.11821e-10
-2.22297e-10
5.7371e-10
2.63813e-10
-2.5308e-10
-5.43385e-10
-4.99256e-10
-3.54315e-10
-2.05381e-10
-1.29481e-10
-6.07817e-11
-4.73663e-11
-1.39028e-11
-1.82025e-11
6.51637e-12
-4.26324e-12
1.8723e-11
7.50384e-12
2.66575e-11
9.77187e-12
3.07734e-11
1.73849e-11
3.77793e-11
1.99835e-11
4.03822e-11
2.3661e-11
4.44341e-11
2.71294e-11
4.70166e-11
2.72423e-11
4.74236e-11
2.87818e-11
4.9727e-11
3.12887e-11
5.0264e-11
2.77487e-11
4.73974e-11
2.76818e-11
4.74645e-11
2.76289e-11
4.58836e-11
2.4715e-11
4.12177e-11
2.25772e-11
3.71792e-11
1.82095e-11
3.23621e-11
1.32403e-11
2.57705e-11
1.40221e-11
2.35889e-11
1.55823e-11
2.13954e-11
2.20242e-11
1.40843e-11
1.33554e-11
-2.12468e-11
-1.40593e-11
-4.4271e-11
-1.00989e-10
-9.52774e-10
-2.09158e-10
6.00213e-10
2.03321e-10
-2.58764e-10
-5.22937e-10
-4.9752e-10
-3.55538e-10
-2.05154e-10
-1.28679e-10
-6.02492e-11
-4.76344e-11
-1.4556e-11
-1.89606e-11
5.90604e-12
-4.91568e-12
1.81503e-11
7.07875e-12
2.64308e-11
9.39573e-12
3.03511e-11
1.70734e-11
3.76336e-11
1.97449e-11
4.01465e-11
2.34685e-11
4.43264e-11
2.70065e-11
4.6983e-11
2.71251e-11
4.73172e-11
2.86716e-11
4.96924e-11
3.12465e-11
5.03787e-11
2.76652e-11
4.73411e-11
2.75962e-11
4.757e-11
2.75858e-11
4.61167e-11
2.47297e-11
4.14024e-11
2.21546e-11
3.68676e-11
1.78693e-11
3.29409e-11
1.32311e-11
2.62525e-11
1.37671e-11
2.44964e-11
1.5023e-11
2.26328e-11
2.09697e-11
1.66009e-11
1.11847e-11
-1.71685e-11
-2.08392e-11
-2.84203e-11
-8.26979e-11
-9.9928e-10
-1.72234e-10
6.28174e-10
1.06603e-10
-2.69225e-10
-4.88489e-10
-4.90668e-10
-3.56672e-10
-2.04968e-10
-1.27536e-10
-5.94508e-11
-4.78348e-11
-1.53159e-11
-1.9847e-11
5.15343e-12
-5.68135e-12
1.74381e-11
6.55969e-12
2.61214e-11
8.96642e-12
2.9823e-11
1.66939e-11
3.74248e-11
1.94753e-11
3.98361e-11
2.32366e-11
4.41705e-11
2.68664e-11
4.69132e-11
2.69975e-11
4.71627e-11
2.85408e-11
4.96275e-11
3.11987e-11
5.04885e-11
2.75842e-11
4.72542e-11
2.74842e-11
4.76783e-11
2.75287e-11
4.63899e-11
2.47526e-11
4.16816e-11
2.16213e-11
3.64134e-11
1.7396e-11
3.36492e-11
1.31636e-11
2.68696e-11
1.33087e-11
2.56499e-11
1.41398e-11
2.42833e-11
1.93335e-11
1.99036e-11
7.97618e-12
-1.16422e-11
-2.98192e-11
-9.41019e-12
-6.54683e-11
-1.05328e-09
-1.07383e-10
6.63073e-10
-2.94195e-11
-2.88992e-10
-4.38796e-10
-4.76916e-10
-3.57567e-10
-2.04965e-10
-1.26058e-10
-5.83643e-11
-4.79468e-11
-1.61749e-11
-2.08547e-11
4.25611e-12
-6.55519e-12
1.6586e-11
5.94335e-12
2.57161e-11
8.48724e-12
2.9189e-11
1.62442e-11
3.71407e-11
1.91754e-11
3.94467e-11
2.29631e-11
4.39584e-11
2.67088e-11
4.67979e-11
2.686e-11
4.69553e-11
2.83888e-11
4.95264e-11
3.11442e-11
5.05822e-11
2.75078e-11
4.71355e-11
2.73431e-11
4.77836e-11
2.74558e-11
4.67011e-11
2.47833e-11
4.20849e-11
2.09536e-11
3.57903e-11
1.6781e-11
3.44926e-11
1.30181e-11
2.7641e-11
1.2612e-11
2.70692e-11
1.2888e-11
2.63798e-11
1.7044e-11
2.40372e-11
3.68145e-12
-4.63132e-12
-4.08182e-11
1.22355e-11
-4.90122e-11
-1.11691e-09
-1.32279e-11
7.09923e-10
-2.04627e-10
-3.22317e-10
-3.73777e-10
-4.54735e-10
-3.57916e-10
-2.05336e-10
-1.24296e-10
-5.69859e-11
-4.79579e-11
-1.71268e-11
-2.19771e-11
3.21316e-12
-7.5313e-12
1.55965e-11
5.22965e-12
2.52041e-11
7.96165e-12
2.84529e-11
1.57253e-11
3.67715e-11
1.88459e-11
3.89774e-11
2.26478e-11
4.36845e-11
2.65337e-11
4.66295e-11
2.67131e-11
4.66929e-11
2.82155e-11
4.93853e-11
3.10821e-11
5.06502e-11
2.74361e-11
4.69861e-11
2.71715e-11
4.78805e-11
2.73658e-11
4.70462e-11
2.48212e-11
4.26449e-11
2.0128e-11
3.49838e-11
1.60225e-11
3.54723e-11
1.27762e-11
2.85809e-11
1.16555e-11
2.876e-11
1.12455e-11
2.89358e-11
1.40936e-11
2.89773e-11
-1.63913e-12
3.74174e-12
-5.34068e-11
3.55579e-11
-3.25522e-11
-1.19113e-09
1.08703e-10
7.72673e-10
-4.15501e-10
-3.72734e-10
-2.94675e-10
-4.23014e-10
-3.57408e-10
-2.06276e-10
-1.22349e-10
-5.5332e-11
-4.78633e-11
-1.81675e-11
-2.32087e-11
2.02382e-12
-8.60508e-12
1.44724e-11
4.41971e-12
2.45774e-11
7.39203e-12
2.76197e-11
1.51393e-11
3.63099e-11
1.84873e-11
3.8429e-11
2.22911e-11
4.33444e-11
2.63412e-11
4.64032e-11
2.65567e-11
4.63756e-11
2.80212e-11
4.9201e-11
3.10114e-11
5.06852e-11
2.73684e-11
4.68083e-11
2.69687e-11
4.79639e-11
2.72572e-11
4.74195e-11
2.48649e-11
4.33903e-11
1.91208e-11
3.39872e-11
1.51277e-11
3.65821e-11
1.2425e-11
2.96919e-11
1.04371e-11
3.07091e-11
9.21863e-12
3.19282e-11
1.05303e-11
3.46192e-11
-7.80707e-12
1.31911e-11
-6.69428e-11
5.93905e-11
-1.50799e-11
-1.27562e-09
2.53888e-10
8.53066e-10
-6.5552e-10
-4.42375e-10
-2.03955e-10
-3.81221e-10
-3.55637e-10
-2.07949e-10
-1.20358e-10
-5.34418e-11
-4.76653e-11
-1.92941e-11
-2.45458e-11
6.86782e-13
-9.77394e-12
1.32166e-11
3.51515e-12
2.38293e-11
6.77901e-12
2.66951e-11
1.44892e-11
3.57506e-11
1.8099e-11
3.7804e-11
2.1894e-11
4.29351e-11
2.6131e-11
4.61159e-11
2.63903e-11
4.60052e-11
2.78065e-11
4.89719e-11
3.09315e-11
5.06819e-11
2.73033e-11
4.66052e-11
2.67353e-11
4.80287e-11
2.71292e-11
4.78124e-11
2.49085e-11
4.43435e-11
1.79352e-11
3.28032e-11
1.41128e-11
3.78047e-11
1.19605e-11
3.09621e-11
8.9741e-12
3.28778e-11
6.83796e-12
3.52885e-11
6.46439e-12
4.07834e-11
-1.45387e-11
2.33066e-11
-8.06554e-11
8.24444e-11
4.23671e-12
-1.36836e-09
4.15814e-10
9.51846e-10
-9.15943e-10
-5.32238e-10
-1.05118e-10
-3.29298e-10
-3.52059e-10
-2.10435e-10
-1.18495e-10
-5.13766e-11
-4.73694e-11
-2.05014e-11
-2.59833e-11
-7.97542e-13
-1.10353e-11
1.18327e-11
2.51838e-12
2.29556e-11
6.12228e-12
2.56851e-11
1.37788e-11
3.50906e-11
1.76796e-11
3.71054e-11
2.14579e-11
4.24545e-11
2.59028e-11
4.57666e-11
2.62135e-11
4.55837e-11
2.75726e-11
4.86967e-11
3.08416e-11
5.06366e-11
2.72391e-11
4.63793e-11
2.64743e-11
4.8069e-11
2.69827e-11
4.82116e-11
2.49437e-11
4.55088e-11
1.65981e-11
3.1458e-11
1.30051e-11
3.9111e-11
1.13915e-11
3.23647e-11
7.30445e-12
3.52038e-11
4.19672e-12
3.89017e-11
2.06036e-12
4.72255e-11
-2.14735e-11
3.35922e-11
-9.37279e-11
1.03663e-10
2.58982e-11
-1.46695e-09
5.88785e-10
1.06759e-09
-1.1867e-09
-6.41441e-10
-2.24069e-12
-2.67741e-10
-3.46098e-10
-2.1373e-10
-1.1695e-10
-4.92223e-11
-4.69851e-11
-2.17803e-11
-2.75141e-11
-2.42688e-12
-1.23862e-11
1.03259e-11
1.4329e-12
2.19542e-11
5.42076e-12
2.45962e-11
1.30124e-11
3.4328e-11
1.72276e-11
3.63374e-11
2.09857e-11
4.1902e-11
2.56555e-11
4.53549e-11
2.60254e-11
4.51142e-11
2.73215e-11
4.83751e-11
3.07414e-11
5.05458e-11
2.71748e-11
4.61324e-11
2.61909e-11
4.8078e-11
2.68212e-11
4.85973e-11
2.4959e-11
4.68534e-11
1.51908e-11
3.00278e-11
1.18407e-11
4.04563e-11
1.07403e-11
3.38605e-11
5.48755e-12
3.76081e-11
1.40148e-12
4.26191e-11
-2.47069e-12
5.36551e-11
-2.8203e-11
4.35089e-11
-1.05353e-10
1.22059e-10
5.01051e-11
-1.56814e-09
7.61642e-10
1.19689e-09
-1.4585e-09
-7.67795e-10
9.99603e-11
-1.97835e-10
-3.37228e-10
-2.17738e-10
-1.15929e-10
-4.70935e-11
-4.65286e-11
-2.31197e-11
-2.91299e-11
-4.19772e-12
-1.3824e-11
8.70169e-12
2.62763e-13
2.08257e-11
4.67333e-12
2.34342e-11
1.21948e-11
3.34635e-11
1.67411e-11
3.55038e-11
2.04798e-11
4.12776e-11
2.53882e-11
4.48815e-11
2.58259e-11
4.45997e-11
2.70558e-11
4.80063e-11
3.0631e-11
5.0407e-11
2.71102e-11
4.58651e-11
2.58919e-11
4.80487e-11
2.66491e-11
4.8946e-11
2.49337e-11
4.82726e-11
1.38629e-11
2.86666e-11
1.06615e-11
4.17772e-11
1.00381e-11
3.53996e-11
3.60142e-12
3.99899e-11