/*--------------------------------*- C++ -*----------------------------------*\
| =========                 |                                                 |
| \\      /  F ield         | OpenFOAM: The Open Source CFD Toolbox           |
|  \\    /   O peration     | Version:  2312                                  |
|   \\  /    A nd           | Website:  www.openfoam.com                      |
|    \\/     M anipulation  |                                                 |
\*---------------------------------------------------------------------------*/
FoamFile
{
    version     2.0;
    format      ascii;
    arch        "LSB;label=32;scalar=64";
    class       volScalarField;
    location    "360";
    object      pMean;
}
// * * * * * * * * * * * * * * * * * * * * * * * * * * * * * * * * * * * * * //

dimensions      [0 2 -2 0 0 0 0];

internalField   nonuniform List<scalar> 
144000
(
1.24807e-09
5.44328e-10
-7.01003e-10
-1.18338e-09
-9.55599e-10
-6.21158e-10
-3.27404e-10
-1.6787e-10
-3.4288e-11
3.58828e-12
6.12594e-11
5.55581e-11
9.20571e-11
7.19206e-11
1.03234e-10
7.87147e-11
1.04943e-10
7.11952e-11
9.91653e-11
6.81987e-11
9.76084e-11
6.13984e-11
9.21516e-11
5.65018e-11
8.99116e-11
5.31624e-11
8.73097e-11
4.64274e-11
8.25747e-11
4.20366e-11
8.13971e-11
4.02762e-11
7.92635e-11
3.18112e-11
7.26917e-11
2.67681e-11
7.02258e-11
2.30819e-11
6.67139e-11
1.60121e-11
6.0068e-11
1.16667e-11
5.79797e-11
5.21529e-12
5.0053e-11
-3.51537e-12
4.12662e-11
-4.45728e-12
3.80581e-11
-6.25706e-13
3.62895e-11
1.56059e-11
3.29525e-11
3.37097e-11
5.73215e-12
6.54726e-11
2.11578e-11
1.83841e-10
-1.63472e-09
-3.97138e-10
1.29533e-09
5.74097e-10
-7.13309e-10
-1.19284e-09
-9.58247e-10
-6.21159e-10
-3.2765e-10
-1.68263e-10
-3.49727e-11
2.96726e-12
6.05738e-11
5.50919e-11
9.15344e-11
7.15968e-11
1.02832e-10
7.85334e-11
1.04619e-10
7.10274e-11
9.88687e-11
6.81339e-11
9.73656e-11
6.13448e-11
9.19175e-11
5.65121e-11
8.97067e-11
5.3207e-11
8.71137e-11
4.6476e-11
8.23745e-11
4.2122e-11
8.1213e-11
4.04003e-11
7.90765e-11
3.19184e-11
7.24835e-11
2.69305e-11
7.00304e-11
2.32689e-11
6.65104e-11
1.61923e-11
5.976e-11
1.17803e-11
5.76492e-11
5.49358e-12
4.98165e-11
-3.18251e-12
4.0999e-11
-4.01888e-12
3.78105e-11
-1.46151e-13
3.60547e-11
1.61783e-11
3.27873e-11
3.42007e-11
5.51057e-12
6.49551e-11
2.60142e-11
2.03167e-10
-1.66292e-09
-4.3918e-10
1.36046e-09
5.78353e-10
-7.33931e-10
-1.19429e-09
-9.57664e-10
-6.1995e-10
-3.27063e-10
-1.68393e-10
-3.53708e-11
2.09725e-12
5.98122e-11
5.42564e-11
9.0981e-11
7.09137e-11
1.02418e-10
7.80512e-11
1.04403e-10
7.05685e-11
9.86361e-11
6.77896e-11
9.72716e-11
6.10245e-11
9.18223e-11
5.62611e-11
8.96844e-11
5.29961e-11
8.71272e-11
4.62585e-11
8.23732e-11
4.19408e-11
8.12501e-11
4.02687e-11
7.91639e-11
3.17466e-11
7.25137e-11
2.68143e-11
7.01133e-11
2.31773e-11
6.66084e-11
1.61028e-11
5.96984e-11
1.15162e-11
5.75444e-11
5.41748e-12
4.99426e-11
-3.11716e-12
4.10547e-11
-3.85541e-12
3.79392e-11
4.14762e-14
3.6164e-11
1.64106e-11
3.30756e-11
3.42656e-11
6.08288e-12
6.16623e-11
3.06596e-11
2.34202e-10
-1.71346e-09
-4.65718e-10
1.42774e-09
5.2947e-10
-7.56703e-10
-1.17908e-09
-9.52759e-10
-6.17587e-10
-3.25423e-10
-1.67647e-10
-3.52157e-11
1.33803e-12
5.89218e-11
5.31985e-11
9.02445e-11
7.00404e-11
1.01824e-10
7.74253e-11
1.04111e-10
6.99736e-11
9.82564e-11
6.73312e-11
9.71253e-11
6.06135e-11
9.16404e-11
5.5934e-11
8.96118e-11
5.274e-11
8.71295e-11
4.59918e-11
8.2328e-11
4.17136e-11
8.12618e-11
4.01165e-11
7.92811e-11
3.15481e-11
7.25096e-11
2.66678e-11
7.02014e-11
2.30787e-11
6.67379e-11
1.60372e-11
5.95981e-11
1.11821e-11
5.7336e-11
5.20389e-12
5.01344e-11
-3.04442e-12
4.11375e-11
-3.73301e-12
3.82062e-11
1.0051e-13
3.64948e-11
1.62923e-11
3.40948e-11
3.32588e-11
8.49958e-12
5.33468e-11
4.24478e-11
2.61225e-10
-1.77893e-09
-4.47942e-10
1.48579e-09
4.0322e-10
-7.78012e-10
-1.13387e-09
-9.40811e-10
-6.14839e-10
-3.23263e-10
-1.6597e-10
-3.44244e-11
7.67526e-13
5.78745e-11
5.19493e-11
8.9272e-11
6.89822e-11
1.00989e-10
7.6669e-11
1.03683e-10
6.92671e-11
9.76687e-11
6.67729e-11
9.6865e-11
6.01459e-11
9.13013e-11
5.55583e-11
8.94272e-11
5.24722e-11
8.70513e-11
4.57219e-11
8.21642e-11
4.14791e-11
8.11756e-11
3.99992e-11
7.9356e-11
3.13843e-11
7.23897e-11
2.65452e-11
7.02195e-11
2.30333e-11
6.68261e-11
1.60884e-11
5.93822e-11
1.09259e-11
5.68803e-11
4.86335e-12
5.02771e-11
-2.86267e-12
4.11544e-11
-3.62858e-12
3.85408e-11
5.93889e-15
3.70819e-11
1.56544e-11
3.60633e-11
3.06964e-11
1.35341e-11
3.9321e-11
6.37006e-11
2.76704e-10
-1.85547e-09
-3.64127e-10
1.53721e-09
1.87707e-10
-8.01013e-10
-1.0527e-09
-9.18902e-10
-6.12635e-10
-3.21324e-10
-1.63614e-10
-3.31264e-11
3.31244e-13
5.66167e-11
5.04766e-11
8.80394e-11
6.77284e-11
9.99055e-11
7.57689e-11
1.03107e-10
6.84696e-11
9.68761e-11
6.61186e-11
9.6479e-11
5.96353e-11
9.08049e-11
5.51353e-11
8.91237e-11
5.22001e-11
8.68822e-11
4.54606e-11
8.18712e-11
4.12457e-11
8.09828e-11
3.99207e-11
7.93663e-11
3.12705e-11
7.21401e-11
2.64475e-11
7.01483e-11
2.30532e-11
6.68547e-11
1.62983e-11
5.90412e-11
1.07833e-11
5.60931e-11
4.33987e-12
5.03181e-11
-2.5615e-12
4.11058e-11
-3.56994e-12
3.89636e-11
-3.21822e-13
3.80165e-11
1.42791e-11
3.92529e-11
2.61461e-11
2.18723e-11
1.92882e-11
9.48459e-11
2.78968e-10
-1.94629e-09
-2.04963e-10
1.59105e-09
-1.16823e-10
-8.33505e-10
-9.34234e-10
-8.84086e-10
-6.1126e-10
-3.20315e-10
-1.60853e-10
-3.14378e-11
-7.23503e-14
5.50671e-11
4.87168e-11
8.64994e-11
6.62614e-11
9.85598e-11
7.4711e-11
1.0237e-10
6.75931e-11
9.589e-11
6.53746e-11
9.59669e-11
5.91023e-11
9.01592e-11
5.46761e-11
8.87043e-11
5.19372e-11
8.66153e-11
4.52261e-11
8.1452e-11
4.10265e-11
8.06798e-11
3.989e-11
7.93015e-11
3.12252e-11
7.17633e-11
2.63841e-11
6.99825e-11
2.31478e-11
6.68236e-11
1.66853e-11
5.86387e-11
1.07827e-11
5.4856e-11
3.56406e-12
5.02626e-11
-2.13973e-12
4.10105e-11
-3.61687e-12
3.95051e-11
-9.79281e-13
3.94075e-11
1.2006e-11
4.38285e-11
1.93755e-11
3.36247e-11
-5.91529e-12
1.33901e-10
2.70337e-10
-2.05303e-09
2.67099e-11
1.65519e-09
-4.95528e-10
-8.82431e-10
-7.82453e-10
-8.34289e-10
-6.10558e-10
-3.2081e-10
-1.57957e-10
-2.94586e-11
-5.12266e-13
5.31698e-11
4.66079e-11
8.45904e-11
6.45508e-11
9.69206e-11
7.34714e-11
1.01434e-10
6.66359e-11
9.47128e-11
6.45414e-11
9.53136e-11
5.85566e-11
8.93695e-11
5.41918e-11
8.81676e-11
5.1694e-11
8.62473e-11
4.50343e-11
8.09121e-11
4.08356e-11
8.02675e-11
3.9919e-11
7.91501e-11
3.12625e-11
7.12648e-11
2.6359e-11
6.97244e-11
2.33155e-11
6.675e-11
1.7254e-11
5.82947e-11
1.08993e-11
5.30025e-11
2.45617e-12
5.01226e-11
-1.61677e-12
4.09069e-11
-3.81985e-12
4.02037e-11
-2.03498e-12
4.13107e-11
8.76855e-12
4.97485e-11
1.06373e-11
4.81998e-11
-3.42561e-11
1.76451e-10
2.55965e-10
-2.17303e-09
3.12634e-10
1.73557e-09
-9.23155e-10
-9.53094e-10
-6.06048e-10
-7.68604e-10
-6.09823e-10
-3.23269e-10
-1.55239e-10
-2.73013e-11
-1.02985e-12
5.08659e-11
4.41235e-11
8.22837e-11
6.25703e-11
9.49671e-11
7.20252e-11
1.0026e-10
6.55873e-11
9.33376e-11
6.3615e-11
9.44956e-11
5.79957e-11
8.84329e-11
5.36869e-11
8.75071e-11
5.14724e-11
8.57699e-11
4.48944e-11
8.02541e-11
4.06834e-11
7.97489e-11
4.00129e-11
7.89044e-11
3.13892e-11
7.06601e-11
2.63741e-11
6.93827e-11
2.35403e-11
6.66688e-11
1.79867e-11
5.82072e-11
1.10888e-11
5.03018e-11
9.53814e-13
4.99376e-11
-1.01465e-12
4.08326e-11
-4.20942e-12
4.10718e-11
-3.48461e-12
4.3708e-11
4.68074e-12
5.67284e-11
5.31836e-13
6.43786e-11
-6.30462e-11
2.17435e-10
2.41684e-10
-2.30051e-09
6.25397e-10
1.8326e-09
-1.37037e-09
-1.0476e-09
-4.16521e-10
-6.87626e-10
-6.0807e-10
-3.27931e-10
-1.53026e-10
-2.50602e-11
-1.63594e-12
4.81709e-11
4.12697e-11
7.95724e-11
6.03189e-11
9.26948e-11
7.03717e-11
9.88236e-11
6.44352e-11
9.17668e-11
6.25917e-11
9.34957e-11
5.74129e-11
8.73495e-11
5.31593e-11
8.67151e-11
5.12749e-11
8.51723e-11
4.48e-11
7.94813e-11
4.05703e-11
7.9125e-11
4.0172e-11
7.85561e-11
3.16051e-11
6.99601e-11
2.64261e-11
6.89668e-11
2.38085e-11
6.66097e-11
1.88586e-11
5.86218e-11
1.1249e-11
4.64703e-11
-9.90585e-13
4.97546e-11
-3.59092e-13
4.08184e-11
-4.78479e-12
4.20917e-11
-5.27091e-12
4.6486e-11
1.32249e-14
6.42723e-11
-1.00076e-11
8.06186e-11
-8.94453e-11
2.52346e-10
2.31811e-10
-2.42614e-09
9.38439e-10
1.94151e-09
-1.80507e-09
-1.16468e-09
-2.26618e-10
-5.93383e-10
-6.04142e-10
-3.34787e-10
-1.5165e-10
-2.28889e-11
-2.32428e-12
4.51128e-11
3.80703e-11
7.64684e-11
5.78093e-11
9.01157e-11
6.8512e-11
9.7118e-11
6.31789e-11
9.00027e-11
6.14739e-11
9.23055e-11
5.68004e-11
8.61198e-11
5.26081e-11
8.57862e-11
5.10925e-11
8.44484e-11
4.47484e-11
7.86e-11
4.04993e-11
7.83956e-11
4.03915e-11
7.81004e-11
3.19004e-11
6.91796e-11
2.6516e-11
6.84802e-11
2.40935e-11
6.66204e-11
1.98426e-11
5.98414e-11
1.11404e-11
4.11731e-11
-3.3928e-12
4.96149e-11
3.37821e-13
4.08564e-11
-5.50793e-12
4.31913e-11
-7.27528e-12
4.94328e-11
-4.86214e-12
7.17658e-11
-1.99808e-11
9.53638e-11
-1.11051e-10
2.78005e-10
2.287e-10
-2.53876e-09
1.22674e-09
2.05388e-09
-2.20156e-09
-1.29917e-09
-4.77863e-11
-4.89049e-10
-5.96893e-10
-3.43573e-10
-1.51435e-10
-2.09414e-11
-3.09019e-12
4.17366e-11
3.45616e-11
7.29929e-11
5.50613e-11
8.72411e-11
6.64599e-11
9.51419e-11
6.18193e-11
8.80553e-11
6.02691e-11
9.09195e-11
5.61511e-11
8.47478e-11
5.2032e-11
8.47175e-11
5.09216e-11
8.3595e-11
4.47325e-11
7.7615e-11
4.04675e-11
7.75614e-11
4.06634e-11
7.75403e-11
3.2266e-11
6.83243e-11
2.66409e-11
6.79287e-11
2.43686e-11
6.67399e-11
2.08856e-11
6.23792e-11
1.0543e-11
3.39313e-11
-6.2015e-12
4.95489e-11
1.05581e-12
4.09092e-11
-6.30527e-12
4.4295e-11
-9.33568e-12
5.22869e-11
-9.5168e-12
7.85865e-11
-2.84178e-11
1.07315e-10
-1.26147e-10
2.9278e-10
2.32899e-10
-2.62834e-09
1.47076e-09
2.15979e-09
-2.53933e-09
-1.4435e-09
1.10273e-10
-3.78562e-10
-5.85308e-10
-3.5375e-10
-1.52639e-10
-1.94183e-11
-3.93362e-12
3.80987e-11
3.07894e-11
6.91788e-11
5.20953e-11
8.40957e-11
6.42275e-11
9.29048e-11
6.03614e-11
8.59401e-11
5.89871e-11
8.93407e-11
5.54618e-11
8.32414e-11
5.14344e-11
8.3513e-11
5.07553e-11
8.26169e-11
4.47448e-11
7.65322e-11
4.04705e-11
7.66244e-11
4.09794e-11
7.68727e-11
3.26934e-11
6.74018e-11
2.68013e-11
6.73091e-11
2.46243e-11
6.69642e-11
2.19815e-11
6.68177e-11
9.16911e-12
2.42536e-11
-9.25463e-12
4.95864e-11
1.80063e-12
4.09346e-11
-7.09591e-12
4.52492e-11
-1.12485e-11
5.47804e-11
-1.35335e-11
8.41644e-11
-3.4584e-11
1.15581e-10
-1.3387e-10
2.96482e-10
2.43095e-10
-2.68688e-09
1.65785e-09
2.24958e-09
-2.80565e-09
-1.58933e-09
2.40638e-10
-2.66262e-10
-5.68643e-10
-3.64602e-10
-1.55428e-10
-1.85139e-11
-4.86618e-12
3.42589e-11
2.6807e-11
6.50615e-11
4.89451e-11
8.07091e-11
6.18403e-11
9.04225e-11
5.88148e-11
8.36758e-11
5.76378e-11
8.7576e-11
5.47312e-11
8.16117e-11
5.08195e-11
8.21778e-11
5.05885e-11
8.15188e-11
4.47784e-11
7.53586e-11
4.0506e-11
7.559e-11
4.13323e-11
7.60955e-11
3.31756e-11
6.64121e-11
2.70122e-11
6.65984e-11
2.4893e-11
6.71924e-11
2.31997e-11
7.35687e-11
6.04757e-12
1.17321e-11
-1.22776e-11
4.97854e-11
2.62514e-12
4.09081e-11
-7.77414e-12
4.59458e-11
-1.28166e-11
5.66704e-11
-1.65467e-11
8.8073e-11
-3.801e-11
1.19737e-10
-1.34156e-10
2.90216e-10
2.56895e-10
-2.70931e-09
1.78255e-09
2.31413e-09
-2.99364e-09
-1.72781e-09
3.39193e-10
-1.56559e-10
-5.46556e-10
-3.75338e-10
-1.59871e-10
-1.8433e-11
-5.91826e-12
3.02756e-11
2.26663e-11
6.06781e-11
4.56357e-11
7.71077e-11
5.93191e-11
8.77136e-11
5.71873e-11
8.12787e-11
5.62326e-11
8.56391e-11
5.39582e-11
7.987e-11
5.01901e-11
8.07202e-11
5.04172e-11
8.03069e-11
4.48279e-11
7.4104e-11
4.05719e-11
7.44644e-11
4.1716e-11
7.52109e-11
3.37095e-11
6.53538e-11
2.72879e-11
6.57802e-11
2.52056e-11
6.73351e-11
2.4408e-11
8.40194e-11
9.85523e-14
-4.85869e-12
-1.5334e-11
4.99986e-11
3.52184e-12
4.07847e-11
-8.22902e-12
4.62763e-11
-1.38765e-11
5.7761e-11
-1.83101e-11
9.00596e-11
-3.85039e-11
1.1979e-10
-1.27599e-10
2.75721e-10
2.71649e-10
-2.69305e-09
1.84492e-09
2.34617e-09
-3.10324e-09
-1.85062e-09
4.0455e-10
-5.35561e-11
-5.19124e-10
-3.8514e-10
-1.65934e-10
-1.93753e-11
-7.1395e-12
2.6199e-11
1.84167e-11
5.60652e-11
4.2188e-11
7.33176e-11
5.6684e-11
8.48019e-11
5.54862e-11
7.87654e-11
5.47821e-11
8.3545e-11
5.31432e-11
7.80281e-11
4.95492e-11
7.91502e-11
5.02375e-11
7.89905e-11
4.48898e-11
7.27775e-11
4.06657e-11
7.32553e-11
4.2123e-11
7.42257e-11
3.42859e-11
6.42368e-11
2.76206e-11
6.48732e-11
2.55453e-11
6.74132e-11
2.50292e-11
1.01222e-10
-2.38466e-12
-2.64883e-11
-1.86274e-11
4.96094e-11
4.37383e-12
4.04353e-11
-8.40142e-12
4.61305e-11
-1.43128e-11
5.79181e-11
-1.86851e-11
9.00404e-11
-3.61198e-11
1.16109e-10
-1.15224e-10
2.55251e-10
2.84854e-10
-2.6381e-09
1.84923e-09
2.34005e-09
-3.1383e-09
-1.95033e-09
4.37562e-10
3.92712e-11
-4.86836e-10
-3.93256e-10
-1.73491e-10
-2.15159e-11
-8.59488e-12
2.20715e-11
1.41057e-11
5.12565e-11
3.86213e-11
6.93633e-11
5.39554e-11
8.17111e-11
5.37201e-11
7.6152e-11
5.32957e-11
8.13114e-11
5.22872e-11
7.60964e-11
4.88989e-11
7.74785e-11
5.00462e-11
7.75811e-11
4.49605e-11
7.13892e-11
4.07849e-11
7.19695e-11
4.25496e-11
7.31453e-11
3.49075e-11
6.30478e-11
2.80483e-11
6.38002e-11
2.61161e-11
6.69497e-11
2.56283e-11
1.11535e-10
-3.36882e-14
-4.00421e-11
-2.03718e-11
4.86774e-11
5.2733e-12
3.9876e-11
-8.20051e-12
4.54572e-11
-1.40457e-11
5.7081e-11
-1.76409e-11
8.80864e-11
-3.11029e-11
1.09341e-10
-9.82828e-11
2.31079e-10
2.94429e-10
-2.54623e-09
1.80206e-09
2.29341e-09
-3.10601e-09
-2.02176e-09
4.40814e-10
1.19182e-10
-4.50485e-10
-3.99029e-10
-1.82319e-10
-2.49845e-11
-1.03561e-11
1.79291e-11
9.77829e-12
4.6287e-11
3.4953e-11
6.52694e-11
5.11495e-11
7.84639e-11
5.18971e-11
7.34546e-11
5.17817e-11
7.89548e-11
5.13918e-11
7.40888e-11
4.82413e-11
7.57191e-11
4.98405e-11
7.6089e-11
4.50365e-11
6.99477e-11
4.09282e-11
7.0614e-11
4.29943e-11
7.19694e-11
3.55836e-11
6.17645e-11
2.86269e-11
6.24448e-11
2.71645e-11
6.53237e-11
2.73374e-11
9.81023e-11
1.38785e-12
-2.73677e-11
-1.83442e-11
4.76127e-11
6.40964e-12
3.91747e-11
-7.53563e-12
4.42552e-11
-1.30342e-11
5.52738e-11
-1.52378e-11
8.44051e-11
-2.3864e-11
1.00286e-10
-7.81344e-11
2.05158e-10
2.98836e-10
-2.42127e-09
1.71194e-09
2.20576e-09
-3.01585e-09
-2.06137e-09
4.18202e-10
1.84266e-10
-4.11151e-10
-4.0196e-10
-1.92112e-10
-2.98632e-11
-1.25009e-11
1.37958e-11
5.47454e-12
4.11905e-11
3.12015e-11
6.1057e-11
4.82808e-11
7.5082e-11
5.00241e-11
7.06874e-11
5.02469e-11
7.64922e-11
5.04587e-11
7.20153e-11
4.75776e-11
7.38834e-11
4.96177e-11
7.45252e-11
4.51146e-11
6.84629e-11
4.10921e-11
6.91993e-11
4.34497e-11
7.07116e-11
3.62962e-11
6.04144e-11
2.93093e-11
6.09123e-11
2.84737e-11
6.30828e-11
2.90658e-11
7.78076e-11
6.81357e-12
-6.09262e-12
-1.43902e-11
4.59702e-11
7.61232e-12
3.82092e-11
-6.43577e-12
4.2511e-11
-1.13142e-11
5.25645e-11
-1.16351e-11
7.93051e-11
-1.49182e-11
8.97555e-11
-5.61193e-11
1.79202e-10
2.97225e-10
-2.26784e-09
1.58799e-09
2.07894e-09
-2.87813e-09
-2.06766e-09
3.74373e-10
2.3353e-10
-3.7005e-10
-4.01762e-10
-2.0255e-10
-3.61878e-11
-1.51128e-11
9.67834e-12
1.22543e-12
3.59964e-11
2.73776e-11
5.67427e-11
4.53607e-11
7.15872e-11
4.81071e-11
6.78626e-11
4.86962e-11
7.39395e-11
4.94889e-11
6.98854e-11
4.69079e-11
7.19823e-11
4.93763e-11
7.29006e-11
4.51924e-11
6.69436e-11
4.12732e-11
6.77354e-11
4.39099e-11
6.93857e-11
3.70324e-11
5.90225e-11
3.00505e-11
5.9305e-11
2.98067e-11
6.07925e-11
3.00967e-11
6.43778e-11
1.51815e-11
9.38276e-12
-1.03834e-11
4.3692e-11
8.79616e-12
3.69245e-11
-4.93512e-12
4.02549e-11
-8.95605e-12
4.90897e-11
-7.04069e-12
7.31509e-11
-4.8151e-12
7.85747e-11
-3.34407e-11
1.54624e-10
2.89437e-10
-2.09144e-09
1.43914e-09
1.91542e-09
-2.70319e-09
-2.0402e-09
3.1452e-10
2.66733e-10
-3.28509e-10
-3.98365e-10
-2.13298e-10
-4.39426e-11
-1.8272e-11
5.56875e-12
-2.94596e-12
3.07306e-11
2.34907e-11
5.23404e-11
4.23975e-11
6.79993e-11
4.61518e-11
6.49901e-11
4.71324e-11
7.1312e-11
4.84828e-11
6.77073e-11
4.62312e-11
7.00262e-11
4.91147e-11
7.1226e-11
4.52669e-11
6.53969e-11
4.14679e-11
6.62296e-11
4.43722e-11
6.80006e-11
3.77932e-11
5.75868e-11
3.08567e-11
5.76076e-11
3.11694e-11
5.84171e-11
3.09425e-11
5.5634e-11
2.01269e-11
2.01773e-11
-6.02245e-12
4.13856e-11
1.01056e-11
3.53903e-11
-3.03589e-12
3.7577e-11
-6.05035e-12
4.50164e-11
-1.69832e-12
6.63274e-11
5.91444e-12
6.74604e-11
-1.11157e-11
1.32155e-10
2.75939e-10
-1.8971e-09
1.27307e-09
1.71921e-09
-2.50159e-09
-1.98039e-09
2.43827e-10
2.84506e-10
-2.87765e-10
-3.9188e-10
-2.24029e-10
-5.30543e-11
-2.20412e-11
1.45317e-12
-7.02259e-12
2.54186e-11
1.95509e-11
4.78634e-11
3.93975e-11
6.43356e-11
4.41632e-11
6.20799e-11
4.55567e-11
6.86232e-11
4.74423e-11
6.54891e-11
4.5546e-11
6.80251e-11
4.88312e-11
6.95115e-11
4.53358e-11
6.38305e-11
4.16718e-11
6.46914e-11
4.48305e-11
6.65699e-11
3.8568e-11
5.61221e-11
3.17058e-11
5.58516e-11
3.25148e-11
5.60406e-11
3.17861e-11
4.94742e-11
2.29393e-11
2.7893e-11
-1.18652e-12
3.92658e-11
1.15704e-11
3.36339e-11
-7.93542e-13
3.45698e-11
-2.71662e-12
4.05271e-11
4.13013e-12
5.92214e-11
1.67806e-11
5.70292e-11
1.00822e-11
1.12179e-10
2.57486e-10
-1.68984e-09
1.09698e-09
1.49506e-09
-2.28369e-09
-1.89107e-09
1.67365e-10
2.88243e-10
-2.48877e-10
-3.82577e-10
-2.34454e-10
-6.33981e-11
-2.64618e-11
-2.68704e-12
-1.09948e-11
2.00835e-11
1.55675e-11
4.3325e-11
3.63632e-11
6.06118e-11
4.21469e-11
5.91415e-11
4.39677e-11
6.58848e-11
4.63692e-11
6.32384e-11
4.48493e-11
6.59882e-11
4.8523e-11
6.77664e-11
4.53967e-11
6.22528e-11
4.18798e-11
6.31319e-11
4.52757e-11
6.51078e-11
3.9344e-11
5.46507e-11
3.25621e-11
5.40892e-11
3.37719e-11
5.38025e-11
3.25643e-11
4.50361e-11
2.46875e-11
3.33298e-11
3.86366e-12
3.73193e-11
1.31483e-11
3.16702e-11
1.70753e-12
3.13309e-11
9.13485e-13
3.5829e-11
1.01898e-11
5.21917e-11
2.73573e-11
4.77448e-11
2.96039e-11
9.46884e-11
2.34803e-10
-1.47418e-09
9.1779e-10
1.24877e-09
-2.05992e-09
-1.77665e-09
8.97744e-11
2.80039e-10
-2.12622e-10
-3.70826e-10
-2.44355e-10
-7.48455e-11
-3.15672e-11
-6.88188e-12
-1.48671e-11
1.47378e-11
1.15427e-11
3.87332e-11
3.32902e-11
5.6837e-11
4.01068e-11
5.61828e-11
4.23608e-11
6.31041e-11
4.52646e-11
6.09616e-11
4.41364e-11
6.39233e-11
4.81863e-11
6.59977e-11
4.54474e-11
6.06717e-11
4.20866e-11
6.1561e-11
4.56995e-11
6.36257e-11
4.01127e-11
5.31896e-11
3.34011e-11
5.23511e-11
3.49126e-11
5.17424e-11
3.32401e-11
4.18436e-11
2.5937e-11
3.69623e-11
8.85944e-12
3.5523e-11
1.48161e-11
2.95483e-11
4.38671e-12
2.79751e-11
4.71202e-12
3.11256e-11
1.62461e-11
4.55555e-11
3.73148e-11
3.9948e-11
4.71628e-11
7.95396e-11
2.08364e-10
-1.25448e-09
7.4238e-10
9.87081e-10
-1.83868e-09
-1.64226e-09
1.47372e-11
2.62238e-10
-1.79527e-10
-3.57023e-10
-2.53566e-10
-8.72747e-11
-3.7387e-11
-1.11677e-11
-1.86475e-11
9.38587e-12
7.47639e-12
3.40887e-11
3.01717e-11
5.30144e-11
3.80481e-11
5.32089e-11
4.07329e-11
6.02843e-11
4.41317e-11
5.86616e-11
4.34038e-11
6.18334e-11
4.78186e-11
6.42095e-11
4.54878e-11
5.90916e-11
4.22878e-11
5.99848e-11
4.60951e-11
6.2132e-11
4.08703e-11
5.17503e-11
3.42075e-11
5.06478e-11
3.59362e-11
4.98524e-11
3.38262e-11
3.95304e-11
2.69704e-11
3.91597e-11
1.3643e-11
3.38762e-11
1.65662e-11
2.73339e-11
7.16314e-12
2.46092e-11
8.55212e-12
2.65995e-11
2.20903e-11
3.95514e-11
4.64229e-11
3.38567e-11
6.26452e-11
6.64512e-11
1.78618e-10
-1.03484e-09
5.76318e-10
1.25079e-09
5.47019e-10
-6.99212e-10
-1.1822e-09
-9.54462e-10
-6.18742e-10
-3.24359e-10
-1.65059e-10
-3.22705e-11
4.5761e-12
6.14364e-11
5.51769e-11
9.13451e-11
7.09774e-11
1.02198e-10
7.76173e-11
1.04007e-10
7.04704e-11
9.86347e-11
6.77607e-11
9.73289e-11
6.1217e-11
9.20579e-11
5.63925e-11
8.98505e-11
5.30318e-11
8.72905e-11
4.64132e-11
8.26411e-11
4.20012e-11
8.14443e-11
4.01515e-11
7.925e-11
3.15823e-11
7.26714e-11
2.65138e-11
7.03204e-11
2.28514e-11
6.70165e-11
1.60862e-11
6.09609e-11
1.27651e-11
5.83836e-11
5.68981e-12
5.00717e-11
-3.86579e-12
4.06138e-11
-5.11775e-12
3.71948e-11
-1.44301e-12
3.52081e-11
1.45782e-11
3.17409e-11
3.28624e-11
4.62258e-12
6.52082e-11
2.10852e-11
1.82353e-10
-1.63744e-09
-3.98644e-10
1.29813e-09
5.77046e-10
-7.11586e-10
-1.19169e-09
-9.57077e-10
-6.18723e-10
-3.24578e-10
-1.65437e-10
-3.29503e-11
3.95243e-12
6.07449e-11
5.47021e-11
9.08136e-11
7.06432e-11
1.01786e-10
7.7423e-11
1.03677e-10
7.02973e-11
9.83343e-11
6.76902e-11
9.7085e-11
6.11632e-11
9.18226e-11
5.64006e-11
8.96439e-11
5.30739e-11
8.7097e-11
4.64668e-11
8.24437e-11
4.20903e-11
8.12608e-11
4.02778e-11
7.90626e-11
3.16943e-11
7.246e-11
2.66816e-11
7.01201e-11
2.30471e-11
6.68087e-11
1.62873e-11
6.06987e-11
1.29482e-11
5.81187e-11
5.98809e-12
4.98341e-11
-3.53463e-12
4.03451e-11
-4.68349e-12
3.69443e-11
-9.66859e-13
3.49673e-11
1.51435e-11
3.15752e-11
3.33499e-11
4.40715e-12
6.47062e-11
2.59682e-11
2.01754e-10
-1.66567e-09
-4.40901e-10
1.36349e-09
5.81904e-10
-7.32302e-10
-1.19328e-09
-9.56476e-10
-6.17492e-10
-3.23951e-10
-1.65547e-10
-3.33316e-11
3.08383e-12
5.99762e-11
5.38551e-11
9.02492e-11
6.99471e-11
1.01359e-10
7.69226e-11
1.03447e-10
6.98293e-11
9.80969e-11
6.73377e-11
9.6989e-11
6.08432e-11
9.17281e-11
5.61466e-11
8.96207e-11
5.28589e-11
8.71134e-11
4.6256e-11
8.24494e-11
4.19133e-11
8.13014e-11
4.01476e-11
7.91512e-11
3.15274e-11
7.24896e-11
2.65694e-11
7.01989e-11
2.29615e-11
6.69051e-11
1.62044e-11
6.07021e-11
1.27735e-11
5.81292e-11
5.9803e-12
4.99648e-11
-3.4732e-12
4.03967e-11
-4.52307e-12
3.70674e-11
-7.80911e-13
3.50729e-11
1.53685e-11
3.18633e-11
3.34114e-11
4.97773e-12
6.14e-11
3.06656e-11
2.33117e-10
-1.71634e-09
-4.68172e-10
1.43093e-09
5.33899e-10
-7.55133e-10
-1.17828e-09
-9.51579e-10
-6.15101e-10
-3.22268e-10
-1.64761e-10
-3.31502e-11
2.33218e-12
5.9081e-11
5.27854e-11
8.95007e-11
6.90592e-11
1.00751e-10
7.62745e-11
1.03137e-10
6.92215e-11
9.77106e-11
6.68688e-11
9.68379e-11
6.04327e-11
9.15482e-11
5.58166e-11
8.9547e-11
5.2597e-11
8.7116e-11
4.5997e-11
8.24132e-11
4.16927e-11
8.13184e-11
3.99983e-11
7.92685e-11
3.1336e-11
7.24831e-11
2.64296e-11
7.028e-11
2.28692e-11
6.70286e-11
1.6122e-11
6.06892e-11
1.25283e-11
5.80915e-11
5.9251e-12
5.01808e-11
-3.41033e-12
4.04812e-11
-4.4028e-12
3.7332e-11
-7.27016e-13
3.54032e-11
1.523e-11
3.28921e-11
3.2393e-11
7.40033e-12
5.30598e-11
4.24808e-11
2.60612e-10
-1.78187e-09
-4.51383e-10
1.48878e-09
4.08479e-10
-7.76428e-10
-1.13327e-09
-9.39626e-10
-6.12356e-10
-3.2004e-10
-1.63024e-10
-3.23112e-11
1.77972e-12
5.8035e-11
5.15279e-11
8.85175e-11
6.79867e-11
9.99016e-11
7.54939e-11
1.02683e-10
6.84979e-11
9.71144e-11
6.62981e-11
9.65694e-11
5.9966e-11
9.12124e-11
5.54394e-11
8.93603e-11
5.23225e-11
8.70334e-11
4.57361e-11
8.22596e-11
4.14695e-11
8.12367e-11
3.98885e-11
7.93391e-11
3.11853e-11
7.23555e-11
2.63214e-11
7.02814e-11
2.28357e-11
6.70986e-11
1.61238e-11
6.05921e-11
1.23076e-11
5.7859e-11
5.87705e-12
5.03814e-11
-3.24372e-12
4.05013e-11
-4.29928e-12
3.76722e-11
-8.25928e-13
3.59958e-11
1.45797e-11
3.48676e-11
2.98099e-11
1.24311e-11
3.90085e-11
6.37504e-11
2.76514e-10
-1.85835e-09
-3.68555e-10
1.53995e-09
1.93587e-10
-7.99356e-10
-1.05228e-09
-9.17703e-10
-6.10131e-10
-3.18033e-10
-1.60594e-10
-3.09614e-11
1.36832e-12
5.67825e-11
5.00498e-11
8.72776e-11
6.67229e-11
9.88056e-11
7.45715e-11
1.02079e-10
6.76811e-11
9.63113e-11
6.56311e-11
9.61716e-11
5.94561e-11
9.07202e-11
5.50169e-11
8.90538e-11
5.20439e-11
8.68544e-11
4.54848e-11
8.19755e-11
4.12524e-11
8.10453e-11
3.98241e-11
7.9338e-11
3.10932e-11
7.20878e-11
2.62516e-11
7.01804e-11
2.28769e-11
6.70917e-11
1.6244e-11
6.03988e-11
1.21256e-11
5.73608e-11
5.8212e-12
5.05309e-11
-2.96447e-12
4.04613e-11
-4.23536e-12
3.81064e-11
-1.15779e-12
3.6945e-11
1.31863e-11
3.80602e-11
2.52391e-11
2.07624e-11
1.8933e-11
9.48835e-11
2.79189e-10
-1.94898e-09
-2.10083e-10
1.59328e-09
-1.10608e-10
-8.31708e-10
-9.33965e-10
-8.82893e-10
-6.08728e-10
-3.16958e-10
-1.57761e-10
-2.92104e-11
1.00601e-12
5.52479e-11
4.8292e-11
8.57348e-11
6.525e-11
9.74513e-11
7.3495e-11
1.01312e-10
6.67844e-11
9.53129e-11
6.48748e-11
9.56446e-11
5.89233e-11
9.00786e-11
5.45612e-11
8.86298e-11
5.17765e-11
8.65719e-11
4.52611e-11
8.15612e-11
4.10555e-11
8.07383e-11
3.98164e-11
7.92536e-11
3.10806e-11
7.16795e-11
2.62346e-11
6.99646e-11
2.30105e-11
6.69967e-11
1.65034e-11
6.01279e-11
1.19863e-11
5.65384e-11
5.74184e-12
5.0634e-11
-2.57279e-12
4.03827e-11
-4.26651e-12
3.86667e-11
-1.81413e-12
3.83574e-11
1.08976e-11
4.26406e-11
1.84549e-11
3.25109e-11
-6.32472e-12
1.33922e-10
2.70899e-10
-2.05541e-09
2.11853e-11
1.65682e-09
-4.89264e-10
-8.80428e-10
-7.82279e-10
-8.33132e-10
-6.07998e-10
-3.1739e-10
-1.54793e-10
-2.7167e-11
6.16645e-13
5.33699e-11
4.61888e-11
8.38281e-11
6.35387e-11
9.58073e-11
7.22422e-11
1.00349e-10
6.58073e-11
9.4122e-11
6.403e-11
9.49736e-11
5.8377e-11
8.92915e-11
5.40837e-11
8.80862e-11
5.15315e-11
8.6183e-11
4.50809e-11
8.10206e-11
4.08938e-11
8.03155e-11
3.98782e-11
7.90702e-11
3.11642e-11
7.11323e-11
2.62765e-11
6.96312e-11
2.3243e-11
6.68153e-11
1.69132e-11
5.98245e-11
1.18752e-11
5.5364e-11
5.61353e-12
5.06952e-11
-2.09126e-12
4.03013e-11
-4.44166e-12
3.93931e-11
-2.86502e-12
4.02858e-11
7.65026e-12
4.85658e-11
9.70032e-12
4.70966e-11
-3.47282e-11
1.76462e-10
2.56791e-10
-2.17507e-09
3.06984e-10
1.73666e-09
-9.17159e-10
-9.50911e-10
-6.05908e-10
-7.67487e-10
-6.07242e-10
-3.19793e-10
-1.52003e-10
-2.49383e-11
1.54485e-13
5.1092e-11
4.37159e-11
8.15284e-11
6.15633e-11
9.38525e-11
7.07893e-11
9.91511e-11
6.47404e-11
9.27326e-11
6.30938e-11
9.41359e-11
5.78152e-11
8.83559e-11
5.35889e-11
8.74172e-11
5.13116e-11
8.56794e-11
4.49539e-11
8.03556e-11
4.07774e-11
7.97789e-11
4.00145e-11
7.87805e-11
3.13518e-11
7.04595e-11
2.63837e-11
6.91814e-11
2.35755e-11
6.65623e-11
1.74679e-11
5.95406e-11
1.17732e-11
5.38083e-11
5.44134e-12
5.07346e-11
-1.55289e-12
4.02559e-11
-4.7916e-12
4.02979e-11
-4.30418e-12
4.27128e-11
3.55757e-12
5.55534e-11
-4.23312e-13
6.32938e-11
-6.35908e-11
2.1744e-10
2.42658e-10
-2.30228e-09
6.19972e-10
1.83331e-09
-1.36495e-09
-1.04533e-09
-4.16373e-10
-6.86555e-10
-6.05476e-10
-3.24407e-10
-1.49718e-10
-2.26281e-11
-3.95672e-13
4.84269e-11
4.08784e-11
7.88278e-11
5.93226e-11
9.15842e-11
6.91355e-11
9.76956e-11
6.35735e-11
9.11473e-11
6.20629e-11
9.31152e-11
5.72312e-11
8.72708e-11
5.30745e-11
8.66148e-11
5.11196e-11
8.50518e-11
4.4874e-11
7.95699e-11
4.07056e-11
7.91297e-11
4.02246e-11
7.83783e-11
3.16424e-11
6.96729e-11
2.65568e-11
6.86203e-11
2.40034e-11
6.62347e-11
1.81644e-11
5.93341e-11
1.16443e-11
5.18532e-11
5.21783e-12
5.07681e-11
-9.86158e-13
4.02758e-11
-5.31673e-12
4.1363e-11
-6.074e-12
4.55277e-11
-1.10896e-12
6.31095e-11
-1.09813e-11
7.95661e-11
-9.00632e-11
2.52357e-10
2.32831e-10
-2.42778e-09
9.33593e-10
1.94208e-09
-1.80037e-09
-1.16243e-09
-2.26428e-10
-5.92363e-10
-6.01549e-10
-3.31226e-10
-1.48279e-10
-2.03936e-11
-1.02973e-12
4.54005e-11
3.76989e-11
7.57377e-11
5.68288e-11
8.9013e-11
6.72811e-11
9.59756e-11
6.23067e-11
8.93696e-11
6.09401e-11
9.19038e-11
5.6618e-11
8.60363e-11
5.25385e-11
8.56736e-11
5.09463e-11
8.42955e-11
4.48381e-11
7.86686e-11
4.06795e-11
7.83684e-11
4.05028e-11
7.78592e-11
3.20248e-11
6.87875e-11
2.67949e-11
6.79535e-11
2.45162e-11
6.58442e-11
1.89875e-11
5.92574e-11
1.14505e-11
4.95135e-11
4.94059e-12
5.08013e-11
-4.03412e-13
4.03535e-11
-5.98167e-12
4.25149e-11
-8.0561e-12
4.85145e-11
-5.97932e-12
7.06209e-11
-2.09718e-11
9.43566e-11
-1.11735e-10
2.78033e-10
2.29696e-10
-2.54038e-09
1.22268e-09
2.05448e-09
-2.19766e-09
-1.29701e-09
-4.75264e-11
-4.88085e-10
-5.94321e-10
-3.39989e-10
-1.48012e-10
-1.8394e-11
-1.74555e-12
4.20561e-11
3.42121e-11
7.22796e-11
5.41008e-11
8.61502e-11
6.52396e-11
9.39902e-11
6.09408e-11
8.74096e-11
5.9733e-11
9.04971e-11
5.59684e-11
8.4657e-11
5.19797e-11
8.45913e-11
5.07871e-11
8.34089e-11
4.48385e-11
7.76586e-11
4.06942e-11
7.7498e-11
4.0838e-11
7.72286e-11
3.24863e-11
6.78127e-11
2.70885e-11
6.71827e-11
2.50973e-11
6.5395e-11
1.99056e-11
5.93598e-11
1.11861e-11
4.68093e-11
4.63716e-12
5.08296e-11
1.8922e-13
4.04591e-11
-6.71228e-12
4.36765e-11
-1.0089e-11
5.14111e-11
-1.06264e-11
7.74631e-11
-2.94235e-11
1.0636e-10
-1.26882e-10
2.92821e-10
2.3383e-10
-2.63005e-09
1.46753e-09
2.16061e-09
-2.53622e-09
-1.44152e-09
1.10622e-10
-3.7765e-10
-5.82776e-10
-3.50159e-10
-1.49179e-10
-1.68293e-11
-2.5446e-12
3.8449e-11
3.04633e-11
6.84833e-11
5.11587e-11
8.30199e-11
6.30224e-11
9.17487e-11
5.94817e-11
8.52836e-11
5.84517e-11
8.88991e-11
5.52795e-11
8.31415e-11
5.13997e-11
8.33725e-11
5.06344e-11
8.23974e-11
4.48669e-11
7.65477e-11
4.07434e-11
7.65228e-11
4.1219e-11
7.6488e-11
3.30133e-11
6.67625e-11
2.74312e-11
6.63157e-11
2.57334e-11
6.48807e-11
2.08878e-11
5.96559e-11
1.08658e-11
4.3795e-11
4.34095e-12
5.08228e-11
8.0049e-13
4.05503e-11
-7.42957e-12
4.46931e-11
-1.1972e-11
5.39492e-11
-1.46311e-11
8.30647e-11
-3.56004e-11
1.1468e-10
-1.3464e-10
2.96536e-10
2.43938e-10
-2.68877e-09
1.65548e-09
2.25079e-09
-2.80333e-09
-1.58762e-09
2.4108e-10
-2.65384e-10
-5.66164e-10
-3.61022e-10
-1.51945e-10
-1.58953e-11
-3.44002e-12
3.46366e-11
2.65037e-11
6.43836e-11
4.80339e-11
7.96491e-11
6.06536e-11
8.92663e-11
5.79376e-11
8.30107e-11
5.71058e-11
8.71172e-11
5.45499e-11
8.15012e-11
5.0802e-11
8.2023e-11
5.0482e-11
8.12677e-11
4.49155e-11
7.5345e-11
4.08222e-11
7.54516e-11
4.16345e-11
7.56422e-11
3.35906e-11
6.56503e-11
2.78195e-11
6.53584e-11
2.64133e-11
6.42901e-11
2.19022e-11
6.0114e-11
1.05553e-11
4.05855e-11
4.0962e-12
5.07378e-11
1.45391e-12
4.05769e-11
-8.04133e-12
4.54481e-11
-1.35102e-11
5.5884e-11
-1.76289e-11
8.7e-11
-3.90334e-11
1.1889e-10
-1.34944e-10
2.9029e-10
2.57627e-10
-2.71149e-09
1.78102e-09
2.31582e-09
-2.99203e-09
-1.72641e-09
3.39735e-10
-1.557e-10
-5.44139e-10
-3.71786e-10
-1.5638e-10
-1.57977e-11
-4.46313e-12
3.06774e-11
2.23847e-11
6.00174e-11
4.47492e-11
7.60654e-11
5.81534e-11
8.6561e-11
5.63158e-11
8.06076e-11
5.57063e-11
8.51654e-11
5.37783e-11
7.97483e-11
5.01886e-11
8.05519e-11
5.03245e-11
8.00274e-11
4.49775e-11
7.40622e-11
4.09264e-11
7.42937e-11
4.20739e-11
7.46988e-11
3.42066e-11
6.44869e-11
2.82494e-11
6.43167e-11
2.71284e-11
6.36032e-11
2.29105e-11
6.06031e-11
1.03888e-11
3.74176e-11
3.95746e-12
5.05167e-11
2.17395e-12
4.04823e-11
-8.44302e-12
4.58297e-11
-1.45426e-11
5.70159e-11
-1.93753e-11
8.90133e-11
-3.953e-11
1.18993e-10
-1.28387e-10
2.75815e-10
2.7226e-10
-2.69554e-09
1.84417e-09
2.34837e-09