/*--------------------------------*- C++ -*----------------------------------*\
| =========                 |                                                 |
| \\      /  F ield         | OpenFOAM: The Open Source CFD Toolbox           |
|  \\    /   O peration     | Version:  2312                                  |
|   \\  /    A nd           | Website:  www.openfoam.com                      |
|    \\/     M anipulation  |                                                 |
\*---------------------------------------------------------------------------*/
FoamFile
{
    version     2.0;
    format      ascii;
    arch        "LSB;label=32;scalar=64";
    class       volScalarField;
    location    "700";
    object      k;
}
// * * * * * * * * * * * * * * * * * * * * * * * * * * * * * * * * * * * * * //

dimensions      [0 2 -2 0 0 0 0];

internalField   nonuniform List<scalar> 
144000
(
8.44723e-06
8.44588e-06
8.44958e-06
8.44563e-06
8.4798e-06
8.44653e-06
8.48203e-06
8.47726e-06
8.4807e-06
8.44956e-06
8.44813e-06
8.44738e-06
8.45017e-06
8.44795e-06
8.47934e-06
8.47818e-06
8.44754e-06
8.44933e-06
8.44878e-06
8.47925e-06
8.47738e-06
8.44979e-06
8.44874e-06
8.48158e-06
8.44954e-06
8.44716e-06
8.4791e-06
8.44863e-06
8.44702e-06
8.47676e-06
8.44308e-06
8.48178e-06
8.44943e-06
8.48229e-06
8.47813e-06
8.48285e-06
8.45211e-06
8.48328e-06
8.45116e-06
8.45015e-06
8.48182e-06
8.44514e-06
8.45062e-06
8.44837e-06
8.48187e-06
8.47879e-06
8.44821e-06
8.45238e-06
8.44787e-06
8.44995e-06
8.44543e-06
8.47688e-06
8.44613e-06
8.45225e-06
8.47826e-06
8.48015e-06
8.44737e-06
8.45006e-06
8.44636e-06
8.4455e-06
1.77248e-05
1.77232e-05
1.77281e-05
1.77265e-05
1.77039e-05
1.77181e-05
1.77065e-05
1.76942e-05
1.76932e-05
1.77155e-05
1.77242e-05
1.7724e-05
1.77277e-05
1.77272e-05
1.77076e-05
1.76952e-05
1.77137e-05
1.7724e-05
1.77285e-05
1.77076e-05
1.76906e-05
1.77129e-05
1.77256e-05
1.77052e-05
1.772e-05
1.77265e-05
1.77041e-05
1.77193e-05
1.7726e-05
1.77025e-05
1.77137e-05
1.77007e-05
1.77194e-05
1.77066e-05
1.76948e-05
1.7695e-05
1.772e-05
1.77056e-05
1.77195e-05
1.77277e-05
1.77078e-05
1.7716e-05
1.77262e-05
1.77268e-05
1.77093e-05
1.76963e-05
1.77133e-05
1.77282e-05
1.77271e-05
1.773e-05
1.77278e-05
1.77019e-05
1.77134e-05
1.77296e-05
1.77066e-05
1.76964e-05
1.7714e-05
1.77241e-05
1.77253e-05
1.77238e-05
2.18037e-05
2.18018e-05
2.18048e-05
2.18068e-05
2.17777e-05
2.17928e-05
2.17776e-05
2.17642e-05
2.17569e-05
2.17822e-05
2.17987e-05
2.18003e-05
2.18036e-05
2.18054e-05
2.17832e-05
2.17645e-05
2.17838e-05
2.17967e-05
2.18056e-05
2.17839e-05
2.17591e-05
2.17794e-05
2.17995e-05
2.17754e-05
2.17909e-05
2.18042e-05
2.17773e-05
2.17919e-05
2.1804e-05
2.17777e-05
2.17906e-05
2.17691e-05
2.17902e-05
2.17763e-05
2.17637e-05
2.17573e-05
2.17865e-05
2.17725e-05
2.17883e-05
2.1802e-05
2.17796e-05
2.1791e-05
2.18002e-05
2.1804e-05
2.17827e-05
2.17654e-05
2.17823e-05
2.17999e-05
2.18041e-05
2.18071e-05
2.18094e-05
2.17786e-05
2.17869e-05
2.18031e-05
2.17819e-05
2.17642e-05
2.17844e-05
2.17963e-05
2.18033e-05
2.18028e-05
2.35738e-05
2.35722e-05
2.35727e-05
2.35766e-05
2.35537e-05
2.35622e-05
2.35508e-05
2.35405e-05
2.3529e-05
2.35454e-05
2.35637e-05
2.35679e-05
2.35701e-05
2.35738e-05
2.3559e-05
2.35398e-05
2.35512e-05
2.35615e-05
2.35722e-05
2.35595e-05
2.35358e-05
2.35452e-05
2.35644e-05
2.35475e-05
2.35562e-05
2.35715e-05
2.3552e-05
2.35592e-05
2.3572e-05
2.35537e-05
2.35625e-05
2.3543e-05
2.35565e-05
2.35478e-05
2.35387e-05
2.35281e-05
2.35491e-05
2.35415e-05
2.35521e-05
2.35669e-05
2.35519e-05
2.356e-05
2.35661e-05
2.35719e-05
2.35568e-05
2.35402e-05
2.35493e-05
2.3563e-05
2.35709e-05
2.35734e-05
2.35793e-05
2.35568e-05
2.35583e-05
2.35679e-05
2.35568e-05
2.35384e-05
2.35515e-05
2.35611e-05
2.35709e-05
2.35717e-05
2.42219e-05
2.42212e-05
2.42198e-05
2.42238e-05
2.42089e-05
2.42124e-05
2.42043e-05
2.41982e-05
2.4186e-05
2.41934e-05
2.4208e-05
2.42142e-05
2.42158e-05
2.42201e-05
2.42125e-05
2.41969e-05
2.42017e-05
2.42075e-05
2.42171e-05
2.42115e-05
2.41953e-05
2.41969e-05
2.42089e-05
2.41999e-05
2.42038e-05
2.42163e-05
2.42057e-05
2.42082e-05
2.42178e-05
2.42079e-05
2.42138e-05
2.41991e-05
2.42052e-05
2.41999e-05
2.41951e-05
2.41841e-05
2.41958e-05
2.41923e-05
2.41984e-05
2.42111e-05
2.42033e-05
2.4209e-05
2.4212e-05
2.42183e-05
2.42097e-05
2.41966e-05
2.41999e-05
2.42073e-05
2.42161e-05
2.42181e-05
2.42252e-05
2.42129e-05
2.42105e-05
2.4214e-05
2.42094e-05
2.41954e-05
2.42016e-05
2.42071e-05
2.42164e-05
2.42182e-05
2.4307e-05
2.43073e-05
2.43053e-05
2.43085e-05
2.42997e-05
2.43007e-05
2.42948e-05
2.42916e-05
2.4282e-05
2.42838e-05
2.42916e-05
2.42986e-05
2.42998e-05
2.43039e-05
2.43006e-05
2.42909e-05
2.42918e-05
2.4294e-05
2.43002e-05
2.42987e-05
2.42908e-05
2.4288e-05
2.4294e-05
2.42899e-05
2.42912e-05
2.42995e-05
2.42952e-05
2.42958e-05
2.43019e-05
2.42973e-05
2.4302e-05
2.42923e-05
2.42938e-05
2.42899e-05
2.42877e-05
2.42793e-05
2.42842e-05
2.42821e-05
2.42854e-05
2.42943e-05
2.42912e-05
2.42957e-05
2.42971e-05
2.43023e-05
2.42983e-05
2.42897e-05
2.42903e-05
2.42927e-05
2.42994e-05
2.43011e-05
2.43077e-05
2.43028e-05
2.43002e-05
2.42999e-05
2.42981e-05
2.42893e-05
2.42914e-05
2.42936e-05
2.43e-05
2.43021e-05
2.41014e-05
2.41029e-05
2.4101e-05
2.4103e-05
2.40983e-05
2.40984e-05
2.4094e-05
2.40924e-05
2.40864e-05
2.40851e-05
2.40879e-05
2.40937e-05
2.40945e-05
2.40978e-05
2.40968e-05
2.40921e-05
2.40916e-05
2.40917e-05
2.40946e-05
2.40946e-05
2.40924e-05
2.40887e-05
2.4091e-05
2.40891e-05
2.40893e-05
2.40938e-05
2.40929e-05
2.4093e-05
2.40966e-05
2.40949e-05
2.40988e-05
2.40932e-05
2.40928e-05
2.40892e-05
2.40885e-05
2.4083e-05
2.40843e-05
2.40822e-05
2.40838e-05
2.40891e-05
2.40883e-05
2.40921e-05
2.40927e-05
2.40966e-05
2.40949e-05
2.40905e-05
2.40904e-05
2.40902e-05
2.40939e-05
2.40952e-05
2.41002e-05
2.40992e-05
2.40986e-05
2.40965e-05
2.40958e-05
2.40907e-05
2.40912e-05
2.40915e-05
2.40947e-05
2.40966e-05
2.37405e-05
2.37425e-05
2.37411e-05
2.37422e-05
2.37397e-05
2.37397e-05
2.37365e-05
2.37357e-05
2.37326e-05
2.37301e-05
2.37307e-05
2.37339e-05
2.37345e-05
2.37368e-05
2.37367e-05
2.37351e-05
2.37346e-05
2.37339e-05
2.37348e-05
2.37351e-05
2.3735e-05
2.3733e-05
2.37332e-05
2.37321e-05
2.37318e-05
2.37337e-05
2.37342e-05
2.37343e-05
2.37363e-05
2.37359e-05
2.3739e-05
2.37363e-05
2.37356e-05
2.37324e-05
2.37323e-05
2.37292e-05
2.37288e-05
2.37266e-05
2.37272e-05
2.37298e-05
2.37296e-05
2.37328e-05
2.37331e-05
2.37358e-05
2.37353e-05
2.37335e-05
2.37336e-05
2.37325e-05
2.37343e-05
2.37349e-05
2.3738e-05
2.37384e-05
2.37396e-05
2.37375e-05
2.37372e-05
2.37345e-05
2.37344e-05
2.37339e-05
2.37352e-05
2.37364e-05
2.32918e-05
2.32936e-05
2.32927e-05
2.32932e-05
2.32919e-05
2.3292e-05
2.32897e-05
2.32894e-05
2.3288e-05
2.32859e-05
2.32853e-05
2.32867e-05
2.32869e-05
2.32882e-05
2.32884e-05
2.32882e-05
2.32881e-05
2.32874e-05
2.32873e-05
2.32873e-05
2.32881e-05
2.32873e-05
2.32868e-05
2.32858e-05
2.32856e-05
2.32861e-05
2.32868e-05
2.32869e-05
2.32881e-05
2.3288e-05
2.32905e-05
2.32893e-05
2.3289e-05
2.32866e-05
2.32867e-05
2.3285e-05
2.32844e-05
2.32821e-05
2.32822e-05
2.32831e-05
2.32829e-05
2.32853e-05
2.32854e-05
2.32871e-05
2.32871e-05
2.32868e-05
2.32873e-05
2.32861e-05
2.3287e-05
2.32871e-05
2.32886e-05
2.32893e-05
2.32913e-05
2.32897e-05
2.32896e-05
2.32884e-05
2.32882e-05
2.32876e-05
2.32879e-05
2.32885e-05
2.27894e-05
2.27906e-05
2.279e-05
2.27902e-05
2.27894e-05
2.27896e-05
2.2788e-05
2.27879e-05
2.27873e-05
2.27861e-05
2.2785e-05
2.27856e-05
2.27855e-05
2.2786e-05
2.27861e-05
2.27862e-05
2.27866e-05
2.27862e-05
2.27857e-05
2.27854e-05
2.27863e-05
2.27861e-05
2.27857e-05
2.27848e-05
2.27848e-05
2.27847e-05
2.27851e-05
2.27852e-05
2.27857e-05
2.27858e-05
2.27876e-05
2.27872e-05
2.27873e-05
2.27857e-05
2.27859e-05
2.27851e-05
2.27845e-05
2.27826e-05
2.27823e-05
2.27824e-05
2.2782e-05
2.27837e-05
2.27837e-05
2.27847e-05
2.27847e-05
2.27849e-05
2.27858e-05
2.2785e-05
2.27854e-05
2.27852e-05
2.27859e-05
2.27863e-05
2.27883e-05
2.27872e-05
2.27873e-05
2.27869e-05
2.27869e-05
2.27865e-05
2.27863e-05
2.27866e-05
2.22506e-05
2.22511e-05
2.22507e-05
2.22506e-05
2.22501e-05
2.22503e-05
2.22492e-05
2.22492e-05
2.2249e-05
2.22485e-05
2.22474e-05
2.22477e-05
2.22474e-05
2.22475e-05
2.22474e-05
2.22475e-05
2.2248e-05
2.22478e-05
2.22474e-05
2.22468e-05
2.22475e-05
2.22476e-05
2.22474e-05
2.22468e-05
2.22469e-05
2.22466e-05
2.22467e-05
2.22468e-05
2.22468e-05
2.22469e-05
2.22482e-05
2.22482e-05
2.22484e-05
2.22474e-05
2.22477e-05
2.22473e-05
2.22469e-05
2.22455e-05
2.22453e-05
2.2245e-05
2.22443e-05
2.22454e-05
2.22454e-05
2.22459e-05
2.22459e-05
2.22462e-05
2.22472e-05
2.22467e-05
2.22469e-05
2.22467e-05
2.2247e-05
2.22471e-05
2.22487e-05
2.2248e-05
2.22481e-05
2.22481e-05
2.22483e-05
2.22481e-05
2.22479e-05
2.2248e-05
2.16845e-05
2.16846e-05
2.16842e-05
2.1684e-05
2.16835e-05
2.16837e-05
2.16829e-05
2.16831e-05
2.1683e-05
2.16828e-05
2.16821e-05
2.16823e-05
2.16819e-05
2.16818e-05
2.16814e-05
2.16816e-05
2.1682e-05
2.16819e-05
2.16816e-05
2.1681e-05
2.16815e-05
2.16817e-05
2.16816e-05
2.16812e-05
2.16814e-05
2.16811e-05
2.1681e-05
2.1681e-05
2.16809e-05
2.16809e-05
2.16818e-05
2.16818e-05
2.16821e-05
2.16815e-05
2.16818e-05
2.16817e-05
2.16815e-05
2.16805e-05
2.16803e-05
2.16801e-05
2.16792e-05
2.168e-05
2.168e-05
2.16802e-05
2.16802e-05
2.16803e-05
2.16812e-05
2.16809e-05
2.16811e-05
2.16809e-05
2.1681e-05
2.1681e-05
2.16821e-05
2.16816e-05
2.16817e-05
2.16818e-05
2.16821e-05
2.16821e-05
2.16819e-05
2.1682e-05
2.10965e-05
2.10965e-05
2.10961e-05
2.10958e-05
2.10953e-05
2.10954e-05
2.10949e-05
2.1095e-05
2.1095e-05
2.1095e-05
2.10946e-05
2.10947e-05
2.10944e-05
2.10942e-05
2.10938e-05
2.10938e-05
2.10942e-05
2.10941e-05
2.10938e-05
2.10933e-05
2.10937e-05
2.10939e-05
2.10939e-05
2.10936e-05
2.10938e-05
2.10936e-05
2.10934e-05
2.10935e-05
2.10933e-05
2.10932e-05
2.10938e-05
2.10938e-05
2.1094e-05
2.10936e-05
2.1094e-05
2.10939e-05
2.10939e-05
2.10933e-05
2.10932e-05
2.10929e-05
2.10922e-05
2.10928e-05
2.10927e-05
2.10927e-05
2.10927e-05
2.10927e-05
2.10934e-05
2.10932e-05
2.10934e-05
2.10932e-05
2.10932e-05
2.10931e-05
2.10939e-05
2.10936e-05
2.10935e-05
2.10937e-05
2.1094e-05
2.1094e-05
2.1094e-05
2.10941e-05
2.04901e-05
2.04901e-05
2.04897e-05
2.04894e-05
2.04888e-05
2.04889e-05
2.04885e-05
2.04886e-05
2.04886e-05
2.04886e-05
2.04885e-05
2.04886e-05
2.04884e-05
2.04881e-05
2.04877e-05
2.04877e-05
2.0488e-05
2.04879e-05
2.04877e-05
2.04873e-05
2.04876e-05
2.04878e-05
2.04878e-05
2.04876e-05
2.04878e-05
2.04876e-05
2.04874e-05
2.04875e-05
2.04873e-05
2.04871e-05
2.04876e-05
2.04875e-05
2.04877e-05
2.04874e-05
2.04877e-05
2.04877e-05
2.04878e-05
2.04874e-05
2.04874e-05
2.04872e-05
2.04867e-05
2.04871e-05
2.0487e-05
2.04869e-05
2.04867e-05
2.04868e-05
2.04873e-05
2.04872e-05
2.04873e-05
2.04872e-05
2.04871e-05
2.0487e-05
2.04876e-05
2.04873e-05
2.04872e-05
2.04873e-05
2.04876e-05
2.04876e-05
2.04877e-05
2.04877e-05
1.98679e-05
1.98678e-05
1.98675e-05
1.98672e-05
1.98667e-05
1.98667e-05
1.98664e-05
1.98664e-05
1.98665e-05
1.98665e-05
1.98664e-05
1.98666e-05
1.98664e-05
1.98662e-05
1.98659e-05
1.98658e-05
1.98661e-05
1.9866e-05
1.98658e-05
1.98655e-05
1.98657e-05
1.98658e-05
1.98658e-05
1.98657e-05
1.98659e-05
1.98658e-05
1.98656e-05
1.98656e-05
1.98655e-05
1.98653e-05
1.98656e-05
1.98656e-05
1.98657e-05
1.98655e-05
1.98657e-05
1.98657e-05
1.98658e-05
1.98656e-05
1.98656e-05
1.98655e-05
1.98652e-05
1.98654e-05
1.98654e-05
1.98652e-05
1.9865e-05
1.98651e-05
1.98655e-05
1.98654e-05
1.98655e-05
1.98654e-05
1.98652e-05
1.98651e-05
1.98656e-05
1.98654e-05
1.98652e-05
1.98653e-05
1.98655e-05
1.98655e-05
1.98656e-05
1.98656e-05
1.9232e-05
1.9232e-05
1.92317e-05
1.92315e-05
1.92309e-05
1.92309e-05
1.92306e-05
1.92306e-05
1.92307e-05
1.92307e-05
1.92306e-05
1.92308e-05
1.92307e-05
1.92306e-05
1.92303e-05
1.92302e-05
1.92304e-05
1.92304e-05
1.92302e-05
1.92299e-05
1.92301e-05
1.92302e-05
1.92302e-05
1.92301e-05
1.92302e-05
1.92302e-05
1.923e-05
1.92301e-05
1.923e-05
1.92297e-05
1.923e-05
1.92299e-05
1.923e-05
1.92298e-05
1.923e-05
1.923e-05
1.92301e-05
1.923e-05
1.923e-05
1.923e-05
1.92298e-05
1.923e-05
1.92299e-05
1.92298e-05
1.92296e-05
1.92296e-05
1.92299e-05
1.92299e-05
1.92299e-05
1.92299e-05
1.92297e-05
1.92296e-05
1.92299e-05
1.92298e-05
1.92296e-05
1.92297e-05
1.92298e-05
1.92299e-05
1.92299e-05
1.92299e-05
1.85844e-05
1.85844e-05
1.85842e-05
1.85839e-05
1.85834e-05
1.85834e-05
1.85831e-05
1.85831e-05
1.85832e-05
1.85832e-05
1.85831e-05
1.85833e-05
1.85832e-05
1.85831e-05
1.85829e-05
1.85828e-05
1.8583e-05
1.8583e-05
1.85829e-05
1.85826e-05
1.85827e-05
1.85828e-05
1.85828e-05
1.85828e-05
1.85829e-05
1.85828e-05
1.85827e-05
1.85827e-05
1.85826e-05
1.85824e-05
1.85826e-05
1.85826e-05
1.85826e-05
1.85825e-05
1.85826e-05
1.85826e-05
1.85827e-05
1.85826e-05
1.85827e-05
1.85826e-05
1.85825e-05
1.85827e-05
1.85826e-05
1.85825e-05
1.85823e-05
1.85823e-05
1.85826e-05
1.85826e-05
1.85826e-05
1.85826e-05
1.85824e-05
1.85823e-05
1.85826e-05
1.85825e-05
1.85823e-05
1.85824e-05
1.85825e-05
1.85825e-05
1.85825e-05
1.85825e-05
1.7927e-05
1.7927e-05
1.79268e-05
1.79266e-05
1.79261e-05
1.79261e-05
1.79258e-05
1.79257e-05
1.79258e-05
1.79258e-05
1.79258e-05
1.79259e-05
1.79259e-05
1.79258e-05
1.79256e-05
1.79255e-05
1.79257e-05
1.79257e-05
1.79256e-05
1.79254e-05
1.79255e-05
1.79256e-05
1.79256e-05
1.79255e-05
1.79256e-05
1.79256e-05
1.79255e-05
1.79254e-05
1.79253e-05
1.79251e-05
1.79253e-05
1.79253e-05
1.79254e-05
1.79252e-05
1.79253e-05
1.79253e-05
1.79254e-05
1.79253e-05
1.79253e-05
1.79254e-05
1.79253e-05
1.79254e-05
1.79254e-05
1.79254e-05
1.79252e-05
1.79252e-05
1.79254e-05
1.79254e-05
1.79254e-05
1.79254e-05
1.79253e-05
1.79251e-05
1.79254e-05
1.79253e-05
1.79252e-05
1.79252e-05
1.79253e-05
1.79253e-05
1.79253e-05
1.79253e-05
1.72618e-05
1.72617e-05
1.72615e-05
1.72613e-05
1.72609e-05
1.72609e-05
1.72606e-05
1.72606e-05
1.72606e-05
1.72606e-05
1.72606e-05
1.72607e-05
1.72607e-05
1.72606e-05
1.72605e-05
1.72604e-05
1.72605e-05
1.72605e-05
1.72605e-05
1.72603e-05
1.72604e-05
1.72604e-05
1.72604e-05
1.72604e-05
1.72605e-05
1.72605e-05
1.72604e-05
1.72603e-05
1.72602e-05
1.726e-05
1.72602e-05
1.72601e-05
1.72602e-05
1.72601e-05
1.72602e-05
1.72602e-05
1.72603e-05
1.72602e-05
1.72602e-05
1.72602e-05
1.72602e-05
1.72603e-05
1.72603e-05
1.72603e-05
1.72602e-05
1.72601e-05
1.72603e-05
1.72603e-05
1.72603e-05
1.72603e-05
1.72602e-05
1.72601e-05
1.72602e-05
1.72602e-05
1.72601e-05
1.72601e-05
1.72602e-05
1.72602e-05
1.72602e-05
1.72602e-05
1.65907e-05
1.65907e-05
1.65906e-05
1.65904e-05
1.659e-05
1.659e-05
1.65897e-05
1.65897e-05
1.65897e-05
1.65897e-05
1.65897e-05
1.65898e-05
1.65898e-05
1.65897e-05
1.65896e-05
1.65895e-05
1.65897e-05
1.65896e-05
1.65896e-05
1.65895e-05
1.65895e-05
1.65896e-05
1.65896e-05
1.65896e-05
1.65896e-05
1.65896e-05
1.65895e-05
1.65895e-05
1.65893e-05
1.65892e-05
1.65893e-05
1.65893e-05
1.65893e-05
1.65893e-05
1.65893e-05
1.65893e-05
1.65894e-05
1.65894e-05
1.65893e-05
1.65894e-05
1.65893e-05
1.65894e-05
1.65894e-05
1.65894e-05
1.65894e-05
1.65894e-05
1.65895e-05
1.65895e-05
1.65895e-05
1.65894e-05
1.65893e-05
1.65892e-05
1.65894e-05
1.65894e-05
1.65893e-05
1.65893e-05
1.65894e-05
1.65894e-05
1.65894e-05
1.65894e-05
1.59165e-05
1.59165e-05
1.59164e-05
1.59162e-05
1.59159e-05
1.59158e-05
1.59157e-05
1.59156e-05
1.59156e-05
1.59156e-05
1.59156e-05
1.59157e-05
1.59157e-05
1.59156e-05
1.59156e-05
1.59155e-05
1.59155e-05
1.59155e-05
1.59155e-05
1.59154e-05
1.59155e-05
1.59155e-05
1.59155e-05
1.59155e-05
1.59155e-05
1.59155e-05
1.59155e-05
1.59154e-05
1.59153e-05
1.59151e-05
1.59152e-05
1.59152e-05
1.59153e-05
1.59152e-05
1.59152e-05
1.59152e-05
1.59153e-05
1.59153e-05
1.59153e-05
1.59153e-05
1.59153e-05
1.59154e-05
1.59154e-05
1.59154e-05
1.59154e-05
1.59154e-05
1.59155e-05
1.59155e-05
1.59154e-05
1.59154e-05
1.59153e-05
1.59152e-05
1.59153e-05
1.59153e-05
1.59152e-05
1.59153e-05
1.59153e-05
1.59153e-05
1.59153e-05
1.59153e-05
1.52422e-05
1.52421e-05
1.5242e-05
1.52419e-05
1.52417e-05
1.52416e-05
1.52415e-05
1.52414e-05
1.52414e-05
1.52414e-05
1.52414e-05
1.52415e-05
1.52415e-05
1.52414e-05
1.52414e-05
1.52413e-05
1.52413e-05
1.52413e-05
1.52413e-05
1.52412e-05
1.52413e-05
1.52413e-05
1.52413e-05
1.52413e-05
1.52413e-05
1.52413e-05
1.52413e-05
1.52412e-05
1.52411e-05
1.5241e-05
1.5241e-05
1.52411e-05
1.52411e-05
1.52411e-05
1.5241e-05
1.52411e-05
1.52411e-05
1.52411e-05
1.52411e-05
1.52412e-05
1.52411e-05
1.52412e-05
1.52412e-05
1.52412e-05
1.52412e-05
1.52412e-05
1.52413e-05
1.52413e-05
1.52413e-05
1.52412e-05
1.52411e-05
1.5241e-05
1.52412e-05
1.52411e-05
1.52411e-05
1.52411e-05
1.52411e-05
1.52411e-05
1.52412e-05
1.52412e-05
1.4572e-05
1.4572e-05
1.45719e-05
1.45718e-05
1.45716e-05
1.45715e-05
1.45714e-05
1.45713e-05
1.45714e-05
1.45714e-05
1.45714e-05
1.45714e-05
1.45714e-05
1.45714e-05
1.45713e-05
1.45713e-05
1.45713e-05
1.45713e-05
1.45713e-05
1.45712e-05
1.45712e-05
1.45713e-05
1.45713e-05
1.45713e-05
1.45713e-05
1.45713e-05
1.45713e-05
1.45712e-05
1.45711e-05
1.4571e-05
1.4571e-05
1.4571e-05
1.45711e-05
1.4571e-05
1.45711e-05
1.45711e-05
1.45711e-05
1.45711e-05
1.45711e-05
1.45711e-05
1.45711e-05
1.45712e-05
1.45712e-05
1.45712e-05
1.45712e-05
1.45712e-05
1.45712e-05
1.45712e-05
1.45712e-05
1.45712e-05
1.45711e-05
1.4571e-05
1.45711e-05
1.45711e-05
1.45711e-05
1.45711e-05
1.45711e-05
1.45711e-05
1.45712e-05
1.45712e-05
1.39123e-05
1.39122e-05
1.39122e-05
1.39121e-05
1.39119e-05
1.39119e-05
1.39118e-05
1.39118e-05
1.39118e-05
1.39118e-05
1.39118e-05
1.39118e-05
1.39118e-05
1.39118e-05
1.39118e-05
1.39117e-05
1.39117e-05
1.39117e-05
1.39117e-05
1.39117e-05
1.39117e-05
1.39117e-05
1.39117e-05
1.39117e-05
1.39117e-05
1.39117e-05
1.39117e-05
1.39117e-05
1.39116e-05
1.39115e-05
1.39115e-05
1.39115e-05
1.39115e-05
1.39115e-05
1.39115e-05
1.39115e-05
1.39115e-05
1.39115e-05
1.39115e-05
1.39116e-05
1.39116e-05
1.39116e-05
1.39116e-05
1.39116e-05
1.39116e-05
1.39116e-05
1.39117e-05
1.39117e-05
1.39117e-05
1.39116e-05
1.39116e-05
1.39115e-05
1.39116e-05
1.39116e-05
1.39116e-05
1.39116e-05
1.39116e-05
1.39116e-05
1.39116e-05
1.39116e-05
1.3273e-05
1.3273e-05
1.3273e-05
1.32729e-05
1.32728e-05
1.32728e-05
1.32727e-05
1.32727e-05
1.32727e-05
1.32727e-05
1.32727e-05
1.32727e-05
1.32727e-05
1.32727e-05
1.32727e-05
1.32726e-05
1.32727e-05
1.32727e-05
1.32726e-05
1.32726e-05
1.32726e-05
1.32727e-05
1.32727e-05
1.32727e-05
1.32727e-05
1.32727e-05
1.32726e-05
1.32726e-05
1.32725e-05
1.32725e-05
1.32725e-05
1.32725e-05
1.32725e-05
1.32725e-05
1.32725e-05
1.32725e-05
1.32725e-05
1.32725e-05
1.32725e-05
1.32725e-05
1.32725e-05
1.32725e-05
1.32725e-05
1.32725e-05
1.32726e-05
1.32726e-05
1.32726e-05
1.32726e-05
1.32726e-05
1.32726e-05
1.32726e-05
1.32725e-05
1.32726e-05
1.32726e-05
1.32725e-05
1.32725e-05
1.32726e-05
1.32726e-05
1.32726e-05
1.32726e-05
8.48026e-06
8.44758e-06
8.45097e-06
8.4454e-06
8.44697e-06
8.44578e-06
8.47905e-06
8.47804e-06
8.4531e-06
8.44879e-06
8.48166e-06
8.44842e-06
8.48232e-06
8.47956e-06
8.45206e-06
8.45013e-06
8.48107e-06
8.45054e-06
8.44936e-06
8.48084e-06
8.47721e-06
8.48357e-06
8.44999e-06
8.45051e-06
8.44833e-06
8.44476e-06
8.44758e-06
8.44472e-06
8.48037e-06
8.44442e-06
8.47902e-06
8.44815e-06
8.4484e-06
8.4793e-06
8.4808e-06
8.45062e-06
8.45386e-06
8.44583e-06
8.48196e-06
8.44422e-06
8.48474e-06
8.44642e-06
8.48378e-06
8.44497e-06
8.44739e-06
8.44658e-06
8.44531e-06
8.44557e-06
8.44802e-06
8.44952e-06
8.47695e-06
8.48052e-06
8.44779e-06
8.48305e-06
8.44875e-06
8.45211e-06
8.48076e-06
8.48339e-06
8.45088e-06
8.48245e-06
1.76973e-05
1.77139e-05
1.77284e-05
1.77265e-05
1.77252e-05
1.77256e-05
1.77069e-05
1.76901e-05
1.77166e-05
1.77274e-05
1.77059e-05
1.77206e-05
1.7708e-05
1.76946e-05
1.77173e-05
1.77285e-05
1.77055e-05
1.7721e-05
1.77294e-05
1.77095e-05
1.7693e-05
1.76945e-05
1.77166e-05
1.77263e-05
1.77284e-05
1.77252e-05
1.77258e-05
1.77246e-05
1.7705e-05
1.77165e-05
1.76998e-05
1.77152e-05
1.77263e-05
1.77053e-05
1.7694e-05
1.77138e-05
1.77315e-05
1.77271e-05
1.77067e-05
1.77166e-05
1.7705e-05
1.77175e-05
1.77062e-05
1.77163e-05
1.77229e-05
1.7724e-05
1.77235e-05
1.77238e-05
1.77251e-05
1.77307e-05
1.77062e-05
1.7694e-05
1.77158e-05
1.77045e-05
1.77165e-05
1.77298e-05
1.77082e-05
1.76989e-05
1.77208e-05
1.77073e-05
2.17654e-05
2.17835e-05
2.18014e-05
2.18068e-05
2.18047e-05
2.18055e-05
2.1784e-05
2.17578e-05
2.17808e-05
2.18021e-05
2.17769e-05
2.17937e-05
2.17795e-05
2.17618e-05
2.1783e-05
2.18032e-05
2.17769e-05
2.17919e-05
2.18059e-05
2.17849e-05
2.17639e-05
2.17564e-05
2.17828e-05
2.17985e-05
2.18056e-05
2.18062e-05
2.18049e-05
2.1805e-05
2.17784e-05
2.17929e-05
2.1771e-05
2.17856e-05
2.18019e-05
2.17797e-05
2.17599e-05
2.17791e-05
2.18021e-05
2.18063e-05
2.17794e-05
2.17929e-05
2.17728e-05
2.17905e-05
2.17742e-05
2.17904e-05
2.17986e-05
2.18019e-05
2.18025e-05
2.18033e-05
2.18025e-05
2.18084e-05
2.17847e-05
2.17611e-05
2.17859e-05
2.17718e-05
2.17862e-05
2.18034e-05
2.1782e-05
2.17644e-05
2.17901e-05
2.17767e-05
2.35388e-05
2.355e-05
2.35646e-05
2.35756e-05
2.35747e-05
2.35757e-05
2.35617e-05
2.35348e-05
2.35449e-05
2.35664e-05
2.35493e-05
2.35607e-05
2.35522e-05
2.35358e-05
2.35466e-05
2.35678e-05
2.35497e-05
2.35576e-05
2.35719e-05
2.35595e-05
2.35422e-05
2.35277e-05
2.35458e-05
2.35618e-05
2.35712e-05
2.35763e-05
2.3575e-05
2.35759e-05
2.3554e-05
2.35636e-05
2.35463e-05
2.35532e-05
2.35681e-05
2.35548e-05
2.35343e-05
2.35438e-05
2.35622e-05
2.35742e-05
2.35533e-05
2.3563e-05
2.35451e-05
2.3558e-05
2.3545e-05
2.3558e-05
2.35658e-05
2.35706e-05
2.3572e-05
2.35737e-05
2.35716e-05
2.35759e-05
2.35624e-05
2.35366e-05
2.35528e-05
2.35426e-05
2.35517e-05
2.35675e-05
2.35557e-05
2.35367e-05
2.35546e-05
2.35471e-05
2.41939e-05
2.41996e-05
2.42084e-05
2.42207e-05
2.4222e-05
2.42235e-05
2.4216e-05
2.4196e-05
2.41963e-05
2.42097e-05
2.42014e-05
2.42084e-05
2.4204e-05
2.41928e-05
2.4196e-05
2.4211e-05
2.42021e-05
2.42055e-05
2.4216e-05
2.42109e-05
2.42012e-05
2.41849e-05
2.41937e-05
2.42058e-05
2.42145e-05
2.42228e-05
2.42225e-05
2.42243e-05
2.42091e-05
2.42142e-05
2.42026e-05
2.42042e-05
2.42135e-05
2.42078e-05
2.41924e-05
2.41947e-05
2.42035e-05
2.42187e-05
2.4206e-05
2.42126e-05
2.41993e-05
2.4207e-05
2.41975e-05
2.42061e-05
2.42123e-05
2.42176e-05
2.42194e-05
2.42221e-05
2.42199e-05
2.42218e-05
2.42157e-05
2.41959e-05
2.42029e-05
2.41958e-05
2.42003e-05
2.42113e-05
2.42068e-05
2.41925e-05
2.42019e-05
2.41979e-05
2.42862e-05
2.4289e-05
2.4293e-05
2.43026e-05
2.43059e-05
2.43082e-05
2.43048e-05
2.42937e-05
2.42874e-05
2.42945e-05
2.42907e-05
2.42949e-05
2.42927e-05
2.42868e-05
2.42858e-05
2.42943e-05
2.42911e-05
2.42925e-05
2.4299e-05
2.42976e-05
2.4294e-05
2.42816e-05
2.4284e-05
2.42903e-05
2.42967e-05
2.43057e-05
2.43065e-05
2.43095e-05
2.43e-05
2.43024e-05
2.42954e-05
2.42941e-05
2.42986e-05
2.42966e-05
2.42878e-05
2.42862e-05
2.42885e-05
2.43002e-05
2.42943e-05
2.42995e-05
2.42906e-05
2.42949e-05
2.4288e-05
2.42932e-05
2.42972e-05
2.43022e-05
2.43041e-05
2.43073e-05
2.4306e-05
2.43061e-05
2.43039e-05
2.42915e-05
2.42929e-05
2.42873e-05
2.42891e-05
2.42948e-05
2.42941e-05
2.42857e-05
2.42895e-05
2.42867e-05
2.40871e-05
2.40888e-05
2.40899e-05
2.40954e-05
2.40993e-05
2.41022e-05
2.41009e-05
2.40967e-05
2.4089e-05
2.40916e-05
2.40895e-05
2.40919e-05
2.40906e-05
2.40885e-05
2.40859e-05
2.40899e-05
2.40893e-05
2.40899e-05
2.40934e-05
2.40932e-05
2.4093e-05
2.40862e-05
2.40853e-05
2.40873e-05
2.40909e-05
2.40983e-05
2.40999e-05
2.41036e-05
2.40985e-05
2.40996e-05
2.40959e-05
2.40936e-05
2.4095e-05
2.40945e-05
2.40903e-05
2.40879e-05
2.40863e-05
2.40936e-05
2.40913e-05
2.40957e-05
2.40903e-05
2.40929e-05
2.4088e-05
2.40909e-05
2.4093e-05
2.40969e-05
2.40987e-05
2.41019e-05
2.41017e-05
2.41008e-05
2.41001e-05
2.40937e-05
2.40929e-05
2.4088e-05
2.40885e-05
2.40903e-05
2.4091e-05
2.40867e-05
2.40878e-05
2.40859e-05
2.37309e-05
2.37321e-05
2.37319e-05
2.37344e-05
2.37374e-05
2.37405e-05
2.37402e-05
2.37394e-05
2.37343e-05
2.37341e-05
2.37323e-05
2.37337e-05
2.37324e-05
2.37322e-05
2.37302e-05
2.37313e-05
2.37313e-05
2.37317e-05
2.37333e-05
2.37334e-05
2.37347e-05
2.37317e-05
2.37299e-05
2.37302e-05
2.37316e-05
2.37362e-05
2.37379e-05
2.37417e-05
2.37394e-05
2.37403e-05
2.37385e-05
2.37367e-05
2.37364e-05
2.37361e-05
2.37344e-05
2.3733e-05
2.37295e-05
2.37335e-05
2.37326e-05
2.37361e-05
2.3733e-05
2.37349e-05
2.37315e-05
2.37331e-05
2.3734e-05
2.37364e-05
2.37381e-05
2.37406e-05
2.37413e-05
2.37402e-05
2.37402e-05
2.37375e-05
2.37363e-05
2.37321e-05
2.37322e-05
2.37318e-05
2.37324e-05
2.37304e-05
2.37304e-05
2.37289e-05
2.32853e-05
2.32861e-05
2.32855e-05
2.32865e-05
2.32882e-05
2.32908e-05
2.32908e-05
2.32916e-05
2.32892e-05
2.32882e-05
2.32861e-05
2.3287e-05
2.32857e-05
2.32862e-05
2.32852e-05
2.32847e-05
2.32848e-05
2.32849e-05
2.32856e-05
2.32855e-05
2.32872e-05
2.32862e-05
2.32849e-05
2.32845e-05
2.3285e-05
2.32872e-05
2.32885e-05
2.32917e-05
2.3291e-05
2.32919e-05
2.32911e-05
2.32904e-05
2.32892e-05
2.32891e-05
2.32884e-05
2.32878e-05
2.32846e-05
2.32864e-05
2.32856e-05
2.32882e-05
2.32865e-05
2.3288e-05
2.32857e-05
2.32867e-05
2.3287e-05
2.32882e-05
2.32896e-05
2.32911e-05
2.32924e-05
2.32915e-05
2.32916e-05
2.32908e-05
2.329e-05
2.32868e-05
2.32868e-05
2.32856e-05
2.32857e-05
2.32847e-05
2.32844e-05
2.3283e-05
2.27848e-05
2.27853e-05
2.27846e-05
2.27849e-05
2.27856e-05
2.27873e-05
2.27874e-05
2.27888e-05
2.27878e-05
2.2787e-05
2.27853e-05
2.27857e-05
2.27847e-05
2.27852e-05
2.27848e-05
2.27838e-05
2.27838e-05
2.27837e-05
2.27839e-05
2.27836e-05
2.2785e-05
2.27848e-05
2.27844e-05
2.27839e-05
2.2784e-05
2.27849e-05
2.27857e-05
2.27879e-05
2.27879e-05
2.27889e-05
2.27886e-05
2.27886e-05
2.27877e-05
2.27875e-05
2.27871e-05
2.2787e-05
2.27847e-05
2.27853e-05
2.27845e-05
2.27862e-05
2.27852e-05
2.27863e-05
2.27849e-05
2.27856e-05
2.27856e-05
2.27861e-05
2.27872e-05
2.27878e-05
2.27892e-05
2.27887e-05
2.27887e-05
2.27887e-05
2.27884e-05
2.27862e-05
2.27863e-05
2.2785e-05
2.27847e-05
2.27838e-05
2.27836e-05
2.27824e-05
2.22471e-05
2.22474e-05
2.22467e-05
2.22467e-05
2.22469e-05
2.22478e-05
2.22478e-05
2.22491e-05
2.22489e-05
2.22484e-05
2.22472e-05
2.22475e-05
2.22466e-05
2.2247e-05
2.22469e-05
2.2246e-05
2.22459e-05
2.22457e-05
2.22455e-05
2.22451e-05
2.22461e-05
2.22462e-05
2.22462e-05
2.2246e-05
2.2246e-05
2.22463e-05
2.22468e-05
2.2248e-05
2.22481e-05
2.22492e-05
2.22491e-05
2.22495e-05
2.22489e-05
2.22488e-05
2.22486e-05
2.22488e-05
2.22472e-05
2.22473e-05
2.22466e-05
2.22476e-05
2.22469e-05
2.22478e-05
2.22469e-05
2.22474e-05
2.22474e-05
2.22476e-05
2.22482e-05
2.22485e-05
2.22495e-05
2.22492e-05
2.22492e-05
2.22494e-05
2.22494e-05
2.22482e-05
2.22483e-05
2.22473e-05
2.22467e-05
2.2246e-05
2.22457e-05
2.22448e-05
2.16819e-05
2.1682e-05
2.16814e-05
2.16812e-05
2.16811e-05
2.16815e-05
2.16814e-05
2.16824e-05
2.16824e-05
2.16822e-05
2.16815e-05
2.16817e-05
2.1681e-05
2.16813e-05
2.16813e-05
2.16806e-05
2.16805e-05
2.16801e-05
2.16799e-05
2.16794e-05
2.16801e-05
2.16802e-05
2.16804e-05
2.16804e-05
2.16805e-05
2.16805e-05
2.16807e-05
2.16814e-05
2.16814e-05
2.16824e-05
2.16824e-05
2.16829e-05
2.16825e-05
2.16825e-05
2.16826e-05
2.16828e-05
2.16818e-05
2.16817e-05
2.16811e-05
2.16818e-05
2.16813e-05
2.16819e-05
2.16813e-05
2.16817e-05
2.16817e-05
2.16817e-05
2.16821e-05
2.16823e-05
2.16828e-05
2.16826e-05
2.16826e-05
2.16828e-05
2.16831e-05
2.16823e-05
2.16825e-05
2.16819e-05
2.16812e-05
2.16806e-05
2.16804e-05
2.16796e-05
2.10947e-05
2.10947e-05
2.10941e-05
2.10938e-05
2.10935e-05
2.10937e-05
2.10935e-05
2.10942e-05
2.10942e-05
2.1094e-05
2.10937e-05
2.10939e-05
2.10934e-05
2.10936e-05
2.10936e-05
2.10932e-05
2.1093e-05
2.10927e-05
2.10924e-05
2.10919e-05
2.10924e-05
2.10925e-05
2.10927e-05
2.10927e-05
2.10928e-05
2.10928e-05
2.10929e-05
2.10933e-05
2.10933e-05
2.1094e-05
2.1094e-05
2.10946e-05
2.10943e-05
2.10944e-05
2.10945e-05
2.10948e-05
2.10941e-05
2.1094e-05
2.10936e-05
2.1094e-05
2.10937e-05
2.10942e-05
2.10938e-05
2.1094e-05
2.1094e-05
2.1094e-05
2.10943e-05
2.10944e-05
2.10947e-05
2.10945e-05
2.10943e-05
2.10945e-05
2.10949e-05
2.10944e-05
2.10947e-05
2.10943e-05
2.10937e-05
2.10932e-05
2.1093e-05
2.10924e-05
2.04888e-05
2.04888e-05
2.04884e-05
2.0488e-05
2.04876e-05
2.04876e-05
2.04874e-05
2.04878e-05
2.04878e-05
2.04877e-05
2.04874e-05
2.04876e-05
2.04874e-05
2.04874e-05
2.04875e-05
2.04872e-05
2.04871e-05
2.04868e-05
2.04865e-05
2.0486e-05
2.04864e-05
2.04865e-05
2.04866e-05
2.04866e-05
2.04867e-05
2.04868e-05
2.04868e-05
2.04871e-05
2.0487e-05
2.04876e-05
2.04876e-05
2.0488e-05
2.04879e-05
2.04879e-05
2.0488e-05
2.04883e-05
2.04879e-05
2.04878e-05
2.04875e-05
2.04879e-05
2.04876e-05
2.0488e-05
2.04877e-05
2.04879e-05
2.04879e-05
2.0488e-05
2.04881e-05
2.04881e-05
2.04883e-05
2.04882e-05
2.0488e-05
2.04881e-05
2.04884e-05
2.04881e-05
2.04884e-05
2.04881e-05
2.04877e-05
2.04873e-05
2.04872e-05
2.04867e-05
1.98671e-05
1.98671e-05
1.98668e-05
1.98664e-05
1.98659e-05
1.98658e-05
1.98655e-05
1.98658e-05
1.98658e-05
1.98657e-05
1.98654e-05
1.98656e-05
1.98654e-05
1.98655e-05
1.98656e-05
1.98653e-05
1.98652e-05
1.9865e-05
1.98648e-05
1.98643e-05
1.98646e-05
1.98647e-05
1.98648e-05
1.98648e-05
1.98648e-05
1.98649e-05
1.98649e-05
1.98651e-05
1.98651e-05
1.98655e-05
1.98655e-05
1.98658e-05
1.98657e-05
1.98657e-05
1.98658e-05
1.98661e-05
1.98658e-05
1.98657e-05
1.98655e-05
1.98658e-05
1.98657e-05
1.9866e-05
1.98658e-05
1.9866e-05
1.9866e-05
1.9866e-05
1.98661e-05
1.98661e-05
1.98663e-05
1.98662e-05
1.98659e-05
1.9866e-05
1.98663e-05
1.9866e-05
1.98663e-05
1.98661e-05
1.98658e-05
1.98655e-05
1.98654e-05
1.9865e-05
1.92315e-05
1.92315e-05
1.92313e-05
1.92309e-05
1.92305e-05
1.92303e-05
1.923e-05
1.92302e-05
1.92302e-05
1.92301e-05
1.92298e-05
1.92299e-05
1.92298e-05
1.92299e-05
1.923e-05
1.92298e-05
1.92297e-05
1.92295e-05
1.92293e-05
1.92289e-05
1.92291e-05
1.92292e-05
1.92292e-05
1.92292e-05
1.92293e-05
1.92293e-05
1.92293e-05
1.92295e-05
1.92294e-05
1.92298e-05
1.92298e-05
1.923e-05
1.92299e-05
1.92299e-05
1.923e-05
1.92302e-05
1.923e-05
1.923e-05
1.92298e-05
1.92301e-05
1.923e-05
1.92303e-05
1.92302e-05
1.92303e-05
1.92303e-05
1.92303e-05