/*--------------------------------*- C++ -*----------------------------------*\
| =========                 |                                                 |
| \\      /  F ield         | OpenFOAM: The Open Source CFD Toolbox           |
|  \\    /   O peration     | Version:  2312                                  |
|   \\  /    A nd           | Website:  www.openfoam.com                      |
|    \\/     M anipulation  |                                                 |
\*---------------------------------------------------------------------------*/
FoamFile
{
    version     2.0;
    format      ascii;
    arch        "LSB;label=32;scalar=64";
    class       volScalarField;
    location    "700";
    object      k_0;
}
// * * * * * * * * * * * * * * * * * * * * * * * * * * * * * * * * * * * * * //

dimensions      [0 2 -2 0 0 0 0];

internalField   nonuniform List<scalar> 
144000
(
8.44894e-06
8.44758e-06
8.45128e-06
8.44734e-06
8.48151e-06
8.44823e-06
8.48374e-06
8.47897e-06
8.48241e-06
8.45126e-06
8.44983e-06
8.44908e-06
8.45188e-06
8.44966e-06
8.48105e-06
8.47989e-06
8.44924e-06
8.45103e-06
8.45049e-06
8.48096e-06
8.47909e-06
8.4515e-06
8.45044e-06
8.48329e-06
8.45124e-06
8.44887e-06
8.48081e-06
8.45033e-06
8.44873e-06
8.47847e-06
8.44478e-06
8.4835e-06
8.45113e-06
8.484e-06
8.47984e-06
8.48456e-06
8.45381e-06
8.48499e-06
8.45287e-06
8.45185e-06
8.48353e-06
8.44684e-06
8.45232e-06
8.45008e-06
8.48358e-06
8.4805e-06
8.44991e-06
8.45409e-06
8.44958e-06
8.45166e-06
8.44713e-06
8.47859e-06
8.44783e-06
8.45396e-06
8.47997e-06
8.48186e-06
8.44908e-06
8.45176e-06
8.44807e-06
8.44721e-06
1.77281e-05
1.77265e-05
1.77314e-05
1.77298e-05
1.77072e-05
1.77214e-05
1.77098e-05
1.76975e-05
1.76965e-05
1.77189e-05
1.77275e-05
1.77273e-05
1.7731e-05
1.77306e-05
1.77109e-05
1.76985e-05
1.7717e-05
1.77273e-05
1.77319e-05
1.77109e-05
1.76939e-05
1.77163e-05
1.77289e-05
1.77085e-05
1.77233e-05
1.77298e-05
1.77074e-05
1.77227e-05
1.77293e-05
1.77058e-05
1.7717e-05
1.7704e-05
1.77227e-05
1.77099e-05
1.76981e-05
1.76983e-05
1.77234e-05
1.77089e-05
1.77228e-05
1.7731e-05
1.77111e-05
1.77193e-05
1.77295e-05
1.77301e-05
1.77126e-05
1.76996e-05
1.77166e-05
1.77315e-05
1.77304e-05
1.77333e-05
1.77311e-05
1.77053e-05
1.77167e-05
1.7733e-05
1.77099e-05
1.76997e-05
1.77173e-05
1.77274e-05
1.77286e-05
1.77271e-05
2.18076e-05
2.18057e-05
2.18087e-05
2.18107e-05
2.17815e-05
2.17966e-05
2.17814e-05
2.1768e-05
2.17608e-05
2.17861e-05
2.18026e-05
2.18042e-05
2.18075e-05
2.18093e-05
2.17871e-05
2.17684e-05
2.17877e-05
2.18006e-05
2.18095e-05
2.17877e-05
2.1763e-05
2.17832e-05
2.18034e-05
2.17793e-05
2.17948e-05
2.18081e-05
2.17812e-05
2.17958e-05
2.18079e-05
2.17816e-05
2.17945e-05
2.17729e-05
2.17941e-05
2.17802e-05
2.17676e-05
2.17611e-05
2.17904e-05
2.17764e-05
2.17922e-05
2.18059e-05
2.17834e-05
2.17948e-05
2.18041e-05
2.18079e-05
2.17865e-05
2.17693e-05
2.17862e-05
2.18037e-05
2.18079e-05
2.1811e-05
2.18133e-05
2.17824e-05
2.17908e-05
2.1807e-05
2.17858e-05
2.17681e-05
2.17882e-05
2.18002e-05
2.18072e-05
2.18067e-05
2.35778e-05
2.35762e-05
2.35767e-05
2.35807e-05
2.35578e-05
2.35662e-05
2.35548e-05
2.35445e-05
2.3533e-05
2.35494e-05
2.35678e-05
2.35719e-05
2.35742e-05
2.35779e-05
2.35631e-05
2.35438e-05
2.35553e-05
2.35655e-05
2.35763e-05
2.35636e-05
2.35398e-05
2.35492e-05
2.35684e-05
2.35515e-05
2.35603e-05
2.35755e-05
2.35561e-05
2.35632e-05
2.35761e-05
2.35578e-05
2.35665e-05
2.3547e-05
2.35605e-05
2.35518e-05
2.35428e-05
2.35321e-05
2.35531e-05
2.35455e-05
2.35562e-05
2.3571e-05
2.35559e-05
2.35641e-05
2.35702e-05
2.3576e-05
2.35608e-05
2.35442e-05
2.35533e-05
2.3567e-05
2.35749e-05
2.35774e-05
2.35833e-05
2.35609e-05
2.35624e-05
2.3572e-05
2.35608e-05
2.35424e-05
2.35555e-05
2.35651e-05
2.35749e-05
2.35757e-05
2.4226e-05
2.42253e-05
2.42238e-05
2.42279e-05
2.4213e-05
2.42164e-05
2.42083e-05
2.42022e-05
2.419e-05
2.41974e-05
2.42121e-05
2.42183e-05
2.42198e-05
2.42241e-05
2.42165e-05
2.4201e-05
2.42058e-05
2.42116e-05
2.42211e-05
2.42155e-05
2.41993e-05
2.4201e-05
2.42129e-05
2.4204e-05
2.42079e-05
2.42204e-05
2.42097e-05
2.42122e-05
2.42219e-05
2.42119e-05
2.42179e-05
2.42032e-05
2.42092e-05
2.4204e-05
2.41991e-05
2.41881e-05
2.41999e-05
2.41963e-05
2.42025e-05
2.42151e-05
2.42074e-05
2.4213e-05
2.42161e-05
2.42224e-05
2.42137e-05
2.42006e-05
2.4204e-05
2.42113e-05
2.42201e-05
2.42222e-05
2.42292e-05
2.42169e-05
2.42145e-05
2.4218e-05
2.42134e-05
2.41995e-05
2.42057e-05
2.42111e-05
2.42205e-05
2.42222e-05
2.43109e-05
2.43112e-05
2.43093e-05
2.43124e-05
2.43037e-05
2.43046e-05
2.42988e-05
2.42955e-05
2.4286e-05
2.42878e-05
2.42955e-05
2.43026e-05
2.43038e-05
2.43078e-05
2.43045e-05
2.42948e-05
2.42958e-05
2.42979e-05
2.43042e-05
2.43026e-05
2.42948e-05
2.4292e-05
2.4298e-05
2.42938e-05
2.42952e-05
2.43034e-05
2.42991e-05
2.42997e-05
2.43059e-05
2.43013e-05
2.4306e-05
2.42963e-05
2.42978e-05
2.42939e-05
2.42917e-05
2.42832e-05
2.42882e-05
2.4286e-05
2.42893e-05
2.42982e-05
2.42952e-05
2.42997e-05
2.43011e-05
2.43063e-05
2.43022e-05
2.42936e-05
2.42943e-05
2.42966e-05
2.43034e-05
2.43051e-05
2.43116e-05
2.43068e-05
2.43042e-05
2.43039e-05
2.43021e-05
2.42932e-05
2.42954e-05
2.42976e-05
2.4304e-05
2.43061e-05
2.41053e-05
2.41067e-05
2.41048e-05
2.41069e-05
2.41021e-05
2.41022e-05
2.40979e-05
2.40963e-05
2.40902e-05
2.4089e-05
2.40918e-05
2.40975e-05
2.40984e-05
2.41017e-05
2.41006e-05
2.40959e-05
2.40954e-05
2.40956e-05
2.40985e-05
2.40985e-05
2.40962e-05
2.40926e-05
2.40949e-05
2.40929e-05
2.40932e-05
2.40976e-05
2.40968e-05
2.40969e-05
2.41005e-05
2.40987e-05
2.41026e-05
2.40971e-05
2.40967e-05
2.40931e-05
2.40924e-05
2.40869e-05
2.40881e-05
2.40861e-05
2.40877e-05
2.40929e-05
2.40921e-05
2.4096e-05
2.40966e-05
2.41004e-05
2.40988e-05
2.40944e-05
2.40942e-05
2.40941e-05
2.40978e-05
2.4099e-05
2.41041e-05
2.4103e-05
2.41025e-05
2.41003e-05
2.40996e-05
2.40946e-05
2.4095e-05
2.40953e-05
2.40985e-05
2.41004e-05
2.37442e-05
2.37462e-05
2.37448e-05
2.37459e-05
2.37434e-05
2.37434e-05
2.37402e-05
2.37395e-05
2.37363e-05
2.37338e-05
2.37345e-05
2.37376e-05
2.37382e-05
2.37406e-05
2.37405e-05
2.37389e-05
2.37384e-05
2.37376e-05
2.37385e-05
2.37388e-05
2.37387e-05
2.37367e-05
2.37369e-05
2.37358e-05
2.37355e-05
2.37374e-05
2.37379e-05
2.3738e-05
2.37401e-05
2.37396e-05
2.37427e-05
2.374e-05
2.37393e-05
2.37361e-05
2.3736e-05
2.37329e-05
2.37326e-05
2.37303e-05
2.37309e-05
2.37335e-05
2.37334e-05
2.37366e-05
2.37368e-05
2.37395e-05
2.3739e-05
2.37373e-05
2.37373e-05
2.37362e-05
2.37381e-05
2.37386e-05
2.37417e-05
2.37422e-05
2.37433e-05
2.37412e-05
2.37409e-05
2.37382e-05
2.37381e-05
2.37376e-05
2.37389e-05
2.37401e-05
2.32954e-05
2.32972e-05
2.32963e-05
2.32968e-05
2.32955e-05
2.32956e-05
2.32933e-05
2.3293e-05
2.32916e-05
2.32894e-05
2.32888e-05
2.32903e-05
2.32905e-05
2.32918e-05
2.3292e-05
2.32918e-05
2.32917e-05
2.3291e-05
2.32909e-05
2.32909e-05
2.32917e-05
2.32909e-05
2.32904e-05
2.32894e-05
2.32892e-05
2.32896e-05
2.32904e-05
2.32905e-05
2.32916e-05
2.32916e-05
2.3294e-05
2.32929e-05
2.32926e-05
2.32902e-05
2.32903e-05
2.32886e-05
2.32879e-05
2.32856e-05
2.32858e-05
2.32866e-05
2.32864e-05
2.32889e-05
2.3289e-05
2.32907e-05
2.32907e-05
2.32904e-05
2.32909e-05
2.32897e-05
2.32906e-05
2.32907e-05
2.32922e-05
2.32929e-05
2.32949e-05
2.32933e-05
2.32931e-05
2.32919e-05
2.32918e-05
2.32912e-05
2.32915e-05
2.32921e-05
2.27929e-05
2.2794e-05
2.27934e-05
2.27936e-05
2.27928e-05
2.2793e-05
2.27914e-05
2.27913e-05
2.27907e-05
2.27895e-05
2.27884e-05
2.2789e-05
2.27889e-05
2.27894e-05
2.27895e-05
2.27897e-05
2.279e-05
2.27896e-05
2.27892e-05
2.27888e-05
2.27897e-05
2.27896e-05
2.27891e-05
2.27882e-05
2.27883e-05
2.27881e-05
2.27885e-05
2.27886e-05
2.27891e-05
2.27892e-05
2.2791e-05
2.27906e-05
2.27907e-05
2.27892e-05
2.27893e-05
2.27885e-05
2.27879e-05
2.2786e-05
2.27858e-05
2.27859e-05
2.27854e-05
2.27871e-05
2.27871e-05
2.27881e-05
2.27882e-05
2.27883e-05
2.27892e-05
2.27884e-05
2.27888e-05
2.27887e-05
2.27893e-05
2.27897e-05
2.27917e-05
2.27906e-05
2.27907e-05
2.27903e-05
2.27904e-05
2.27899e-05
2.27898e-05
2.27901e-05
2.22538e-05
2.22544e-05
2.22539e-05
2.22539e-05
2.22534e-05
2.22536e-05
2.22524e-05
2.22524e-05
2.22523e-05
2.22518e-05
2.22507e-05
2.2251e-05
2.22506e-05
2.22507e-05
2.22506e-05
2.22508e-05
2.22513e-05
2.2251e-05
2.22506e-05
2.225e-05
2.22508e-05
2.22509e-05
2.22507e-05
2.225e-05
2.22502e-05
2.22499e-05
2.225e-05
2.225e-05
2.22501e-05
2.22502e-05
2.22515e-05
2.22514e-05
2.22517e-05
2.22507e-05
2.2251e-05
2.22506e-05
2.22502e-05
2.22488e-05
2.22485e-05
2.22483e-05
2.22475e-05
2.22487e-05
2.22487e-05
2.22492e-05
2.22492e-05
2.22494e-05
2.22505e-05
2.22499e-05
2.22502e-05
2.225e-05
2.22503e-05
2.22504e-05
2.22519e-05
2.22513e-05
2.22514e-05
2.22514e-05
2.22516e-05
2.22514e-05
2.22511e-05
2.22513e-05
2.16876e-05
2.16877e-05
2.16873e-05
2.16871e-05
2.16866e-05
2.16868e-05
2.1686e-05
2.16861e-05
2.16861e-05
2.16859e-05
2.16852e-05
2.16854e-05
2.1685e-05
2.16848e-05
2.16845e-05
2.16847e-05
2.16851e-05
2.1685e-05
2.16847e-05
2.1684e-05
2.16846e-05
2.16848e-05
2.16847e-05
2.16843e-05
2.16845e-05
2.16842e-05
2.1684e-05
2.16841e-05
2.1684e-05
2.1684e-05
2.16849e-05
2.16849e-05
2.16852e-05
2.16846e-05
2.16849e-05
2.16848e-05
2.16846e-05
2.16836e-05
2.16834e-05
2.16831e-05
2.16823e-05
2.16831e-05
2.16831e-05
2.16832e-05
2.16832e-05
2.16834e-05
2.16843e-05
2.1684e-05
2.16842e-05
2.1684e-05
2.16841e-05
2.16841e-05
2.16851e-05
2.16847e-05
2.16848e-05
2.16849e-05
2.16852e-05
2.16851e-05
2.1685e-05
2.16851e-05
2.10994e-05
2.10994e-05
2.1099e-05
2.10987e-05
2.10982e-05
2.10983e-05
2.10978e-05
2.10979e-05
2.10979e-05
2.10979e-05
2.10975e-05
2.10976e-05
2.10973e-05
2.10971e-05
2.10967e-05
2.10967e-05
2.10971e-05
2.1097e-05
2.10967e-05
2.10962e-05
2.10966e-05
2.10968e-05
2.10968e-05
2.10965e-05
2.10967e-05
2.10965e-05
2.10963e-05
2.10964e-05
2.10962e-05
2.10961e-05
2.10967e-05
2.10967e-05
2.10969e-05
2.10965e-05
2.10969e-05
2.10968e-05
2.10968e-05
2.10962e-05
2.10961e-05
2.10958e-05
2.10951e-05
2.10957e-05
2.10956e-05
2.10956e-05
2.10956e-05
2.10956e-05
2.10963e-05
2.10961e-05
2.10963e-05
2.10961e-05
2.10961e-05
2.1096e-05
2.10968e-05
2.10965e-05
2.10964e-05
2.10966e-05
2.10969e-05
2.10969e-05
2.10969e-05
2.1097e-05
2.04928e-05
2.04928e-05
2.04924e-05
2.04921e-05
2.04916e-05
2.04916e-05
2.04912e-05
2.04913e-05
2.04913e-05
2.04913e-05
2.04912e-05
2.04913e-05
2.04911e-05
2.04909e-05
2.04905e-05
2.04904e-05
2.04907e-05
2.04907e-05
2.04905e-05
2.049e-05
2.04903e-05
2.04905e-05
2.04905e-05
2.04903e-05
2.04905e-05
2.04903e-05
2.04901e-05
2.04902e-05
2.049e-05
2.04898e-05
2.04903e-05
2.04903e-05
2.04904e-05
2.04901e-05
2.04904e-05
2.04904e-05
2.04905e-05
2.04901e-05
2.04901e-05
2.04899e-05
2.04894e-05
2.04898e-05
2.04897e-05
2.04896e-05
2.04895e-05
2.04895e-05
2.04901e-05
2.04899e-05
2.049e-05
2.04899e-05
2.04898e-05
2.04897e-05
2.04903e-05
2.04901e-05
2.04899e-05
2.04901e-05
2.04904e-05
2.04904e-05
2.04904e-05
2.04905e-05
1.98704e-05
1.98704e-05
1.98701e-05
1.98698e-05
1.98692e-05
1.98692e-05
1.98689e-05
1.9869e-05
1.9869e-05
1.9869e-05
1.98689e-05
1.98691e-05
1.98689e-05
1.98687e-05
1.98684e-05
1.98683e-05
1.98686e-05
1.98685e-05
1.98684e-05
1.9868e-05
1.98682e-05
1.98683e-05
1.98683e-05
1.98682e-05
1.98684e-05
1.98683e-05
1.98681e-05
1.98682e-05
1.9868e-05
1.98678e-05
1.98681e-05
1.98681e-05
1.98682e-05
1.9868e-05
1.98682e-05
1.98682e-05
1.98683e-05
1.98681e-05
1.98681e-05
1.98681e-05
1.98677e-05
1.9868e-05
1.98679e-05
1.98678e-05
1.98675e-05
1.98676e-05
1.9868e-05
1.98679e-05
1.9868e-05
1.98679e-05
1.98677e-05
1.98676e-05
1.98681e-05
1.98679e-05
1.98678e-05
1.98679e-05
1.98681e-05
1.98681e-05
1.98681e-05
1.98682e-05
1.92344e-05
1.92343e-05
1.9234e-05
1.92338e-05
1.92332e-05
1.92332e-05
1.92329e-05
1.92329e-05
1.9233e-05
1.9233e-05
1.9233e-05
1.92331e-05
1.9233e-05
1.92329e-05
1.92326e-05
1.92325e-05
1.92328e-05
1.92327e-05
1.92326e-05
1.92322e-05
1.92324e-05
1.92325e-05
1.92325e-05
1.92325e-05
1.92326e-05
1.92325e-05
1.92324e-05
1.92324e-05
1.92323e-05
1.92321e-05
1.92323e-05
1.92323e-05
1.92324e-05
1.92322e-05
1.92323e-05
1.92323e-05
1.92324e-05
1.92323e-05
1.92324e-05
1.92324e-05
1.92321e-05
1.92323e-05
1.92323e-05
1.92321e-05
1.92319e-05
1.92319e-05
1.92323e-05
1.92322e-05
1.92322e-05
1.92322e-05
1.9232e-05
1.92319e-05
1.92323e-05
1.92322e-05
1.9232e-05
1.9232e-05
1.92322e-05
1.92322e-05
1.92322e-05
1.92323e-05
1.85866e-05
1.85865e-05
1.85863e-05
1.85861e-05
1.85856e-05
1.85855e-05
1.85852e-05
1.85852e-05
1.85853e-05
1.85853e-05
1.85853e-05
1.85854e-05
1.85854e-05
1.85852e-05
1.8585e-05
1.85849e-05
1.85851e-05
1.85851e-05
1.8585e-05
1.85847e-05
1.85849e-05
1.85849e-05
1.85849e-05
1.85849e-05
1.8585e-05
1.85849e-05
1.85848e-05
1.85848e-05
1.85847e-05
1.85845e-05
1.85847e-05
1.85847e-05
1.85848e-05
1.85846e-05
1.85847e-05
1.85847e-05
1.85848e-05
1.85847e-05
1.85848e-05
1.85848e-05
1.85846e-05
1.85848e-05
1.85848e-05
1.85847e-05
1.85845e-05
1.85844e-05
1.85847e-05
1.85847e-05
1.85847e-05
1.85847e-05
1.85845e-05
1.85844e-05
1.85847e-05
1.85846e-05
1.85844e-05
1.85845e-05
1.85846e-05
1.85846e-05
1.85846e-05
1.85846e-05
1.7929e-05
1.79289e-05
1.79287e-05
1.79285e-05
1.7928e-05
1.7928e-05
1.79277e-05
1.79277e-05
1.79277e-05
1.79277e-05
1.79277e-05
1.79279e-05
1.79278e-05
1.79277e-05
1.79275e-05
1.79275e-05
1.79276e-05
1.79276e-05
1.79275e-05
1.79273e-05
1.79274e-05
1.79275e-05
1.79275e-05
1.79275e-05
1.79275e-05
1.79275e-05
1.79274e-05
1.79274e-05
1.79272e-05
1.79271e-05
1.79272e-05
1.79272e-05
1.79273e-05
1.79272e-05
1.79272e-05
1.79272e-05
1.79273e-05
1.79273e-05
1.79273e-05
1.79273e-05
1.79272e-05
1.79274e-05
1.79273e-05
1.79273e-05
1.79271e-05
1.79271e-05
1.79273e-05
1.79273e-05
1.79274e-05
1.79273e-05
1.79272e-05
1.7927e-05
1.79273e-05
1.79272e-05
1.79271e-05
1.79271e-05
1.79272e-05
1.79272e-05
1.79272e-05
1.79272e-05
1.72635e-05
1.72634e-05
1.72632e-05
1.7263e-05
1.72626e-05
1.72626e-05
1.72623e-05
1.72623e-05
1.72623e-05
1.72624e-05
1.72623e-05
1.72624e-05
1.72624e-05
1.72623e-05
1.72622e-05
1.72621e-05
1.72623e-05
1.72622e-05
1.72622e-05
1.7262e-05
1.72621e-05
1.72622e-05
1.72622e-05
1.72621e-05
1.72622e-05
1.72622e-05
1.72621e-05
1.7262e-05
1.72619e-05
1.72617e-05
1.72619e-05
1.72619e-05
1.72619e-05
1.72618e-05
1.72619e-05
1.72619e-05
1.7262e-05
1.72619e-05
1.72619e-05
1.72619e-05
1.72619e-05
1.7262e-05
1.7262e-05
1.7262e-05
1.72619e-05
1.72618e-05
1.72621e-05
1.72621e-05
1.72621e-05
1.7262e-05
1.72619e-05
1.72618e-05
1.7262e-05
1.72619e-05
1.72618e-05
1.72618e-05
1.72619e-05
1.72619e-05
1.72619e-05
1.72619e-05
1.65922e-05
1.65922e-05
1.65921e-05
1.65919e-05
1.65915e-05
1.65915e-05
1.65913e-05
1.65912e-05
1.65912e-05
1.65913e-05
1.65912e-05
1.65913e-05
1.65913e-05
1.65913e-05
1.65911e-05
1.6591e-05
1.65912e-05
1.65912e-05
1.65911e-05
1.6591e-05
1.65911e-05
1.65911e-05
1.65911e-05
1.65911e-05
1.65911e-05
1.65911e-05
1.6591e-05
1.6591e-05
1.65908e-05
1.65907e-05
1.65908e-05
1.65908e-05
1.65909e-05
1.65908e-05
1.65908e-05
1.65908e-05
1.65909e-05
1.65909e-05
1.65908e-05
1.65909e-05
1.65908e-05
1.6591e-05
1.65909e-05
1.6591e-05
1.65909e-05
1.65909e-05
1.6591e-05
1.6591e-05
1.6591e-05
1.6591e-05
1.65909e-05
1.65907e-05
1.65909e-05
1.65909e-05
1.65908e-05
1.65908e-05
1.65909e-05
1.65909e-05
1.65909e-05
1.65909e-05
1.59178e-05
1.59178e-05
1.59177e-05
1.59175e-05
1.59172e-05
1.59171e-05
1.5917e-05
1.59169e-05
1.59169e-05
1.59169e-05
1.59169e-05
1.5917e-05
1.5917e-05
1.59169e-05
1.59169e-05
1.59168e-05
1.59169e-05
1.59168e-05
1.59168e-05
1.59167e-05
1.59168e-05
1.59168e-05
1.59168e-05
1.59168e-05
1.59168e-05
1.59168e-05
1.59168e-05
1.59167e-05
1.59166e-05
1.59164e-05
1.59165e-05
1.59165e-05
1.59166e-05
1.59165e-05
1.59165e-05
1.59165e-05
1.59166e-05
1.59166e-05
1.59166e-05
1.59166e-05
1.59166e-05
1.59167e-05
1.59167e-05
1.59167e-05
1.59167e-05
1.59167e-05
1.59168e-05
1.59168e-05
1.59168e-05
1.59167e-05
1.59166e-05
1.59165e-05
1.59166e-05
1.59166e-05
1.59165e-05
1.59166e-05
1.59166e-05
1.59166e-05
1.59166e-05
1.59166e-05
1.52433e-05
1.52432e-05
1.52431e-05
1.5243e-05
1.52428e-05
1.52427e-05
1.52426e-05
1.52425e-05
1.52425e-05
1.52425e-05
1.52425e-05
1.52426e-05
1.52426e-05
1.52425e-05
1.52425e-05
1.52424e-05
1.52424e-05
1.52424e-05
1.52424e-05
1.52423e-05
1.52424e-05
1.52424e-05
1.52424e-05
1.52424e-05
1.52424e-05
1.52424e-05
1.52424e-05
1.52423e-05
1.52422e-05
1.52421e-05
1.52422e-05
1.52422e-05
1.52422e-05
1.52422e-05
1.52421e-05
1.52422e-05
1.52422e-05
1.52422e-05
1.52422e-05
1.52423e-05
1.52422e-05
1.52423e-05
1.52423e-05
1.52423e-05
1.52423e-05
1.52423e-05
1.52424e-05
1.52424e-05
1.52424e-05
1.52423e-05
1.52422e-05
1.52421e-05
1.52423e-05
1.52422e-05
1.52422e-05
1.52422e-05
1.52422e-05
1.52422e-05
1.52423e-05
1.52423e-05
1.45729e-05
1.45729e-05
1.45728e-05
1.45727e-05
1.45725e-05
1.45724e-05
1.45723e-05
1.45722e-05
1.45723e-05
1.45723e-05
1.45723e-05
1.45723e-05
1.45723e-05
1.45723e-05
1.45722e-05
1.45721e-05
1.45722e-05
1.45722e-05
1.45722e-05
1.45721e-05
1.45721e-05
1.45722e-05
1.45722e-05
1.45722e-05
1.45722e-05
1.45722e-05
1.45722e-05
1.45721e-05
1.4572e-05
1.45719e-05
1.45719e-05
1.45719e-05
1.4572e-05
1.45719e-05
1.4572e-05
1.4572e-05
1.4572e-05
1.4572e-05
1.4572e-05
1.4572e-05
1.4572e-05
1.4572e-05
1.4572e-05
1.45721e-05
1.45721e-05
1.45721e-05
1.45721e-05
1.45721e-05
1.45721e-05
1.45721e-05
1.4572e-05
1.45719e-05
1.4572e-05
1.4572e-05
1.4572e-05
1.4572e-05
1.4572e-05
1.4572e-05
1.45721e-05
1.45721e-05
1.3913e-05
1.39129e-05
1.39129e-05
1.39128e-05
1.39126e-05
1.39126e-05
1.39125e-05
1.39124e-05
1.39125e-05
1.39125e-05
1.39125e-05
1.39125e-05
1.39125e-05
1.39125e-05
1.39125e-05
1.39124e-05
1.39124e-05
1.39124e-05
1.39124e-05
1.39124e-05
1.39124e-05
1.39124e-05
1.39124e-05
1.39124e-05
1.39124e-05
1.39124e-05
1.39124e-05
1.39123e-05
1.39123e-05
1.39122e-05
1.39122e-05
1.39122e-05
1.39122e-05
1.39122e-05
1.39122e-05
1.39122e-05
1.39122e-05
1.39122e-05
1.39122e-05
1.39123e-05
1.39123e-05
1.39123e-05
1.39123e-05
1.39123e-05
1.39123e-05
1.39123e-05
1.39124e-05
1.39124e-05
1.39124e-05
1.39123e-05
1.39123e-05
1.39122e-05
1.39123e-05
1.39123e-05
1.39123e-05
1.39123e-05
1.39123e-05
1.39123e-05
1.39123e-05
1.39123e-05
1.32735e-05
1.32735e-05
1.32735e-05
1.32735e-05
1.32733e-05
1.32733e-05
1.32732e-05
1.32732e-05
1.32732e-05
1.32732e-05
1.32732e-05
1.32732e-05
1.32732e-05
1.32732e-05
1.32732e-05
1.32731e-05
1.32732e-05
1.32732e-05
1.32732e-05
1.32731e-05
1.32731e-05
1.32732e-05
1.32732e-05
1.32732e-05
1.32732e-05
1.32732e-05
1.32731e-05
1.32731e-05
1.3273e-05
1.3273e-05
1.3273e-05
1.3273e-05
1.3273e-05
1.3273e-05
1.3273e-05
1.3273e-05
1.3273e-05
1.3273e-05
1.3273e-05
1.3273e-05
1.3273e-05
1.3273e-05
1.3273e-05
1.3273e-05
1.32731e-05
1.32731e-05
1.32731e-05
1.32731e-05
1.32731e-05
1.32731e-05
1.32731e-05
1.3273e-05
1.32731e-05
1.32731e-05
1.3273e-05
1.32731e-05
1.32731e-05
1.32731e-05
1.32731e-05
1.32731e-05
8.48197e-06
8.44929e-06
8.45268e-06
8.4471e-06
8.44867e-06
8.44749e-06
8.48076e-06
8.47975e-06
8.45481e-06
8.45049e-06
8.48337e-06
8.45012e-06
8.48403e-06
8.48127e-06
8.45376e-06
8.45183e-06
8.48278e-06
8.45224e-06
8.45107e-06
8.48255e-06
8.47892e-06
8.48528e-06
8.4517e-06
8.45221e-06
8.45004e-06
8.44646e-06
8.44928e-06
8.44642e-06
8.48208e-06
8.44613e-06
8.48073e-06
8.44985e-06
8.4501e-06
8.48101e-06
8.48251e-06
8.45233e-06
8.45556e-06
8.44753e-06
8.48367e-06
8.44593e-06
8.48645e-06
8.44812e-06
8.48549e-06
8.44667e-06
8.44909e-06
8.44828e-06
8.44701e-06
8.44728e-06
8.44973e-06
8.45123e-06
8.47866e-06
8.48223e-06
8.4495e-06
8.48476e-06
8.45046e-06
8.45381e-06
8.48247e-06
8.4851e-06
8.45259e-06
8.48416e-06
1.77007e-05
1.77172e-05
1.77317e-05
1.77298e-05
1.77285e-05
1.77289e-05
1.77102e-05
1.76935e-05
1.77199e-05
1.77307e-05
1.77092e-05
1.77239e-05
1.77114e-05
1.76979e-05
1.77206e-05
1.77318e-05
1.77088e-05
1.77243e-05
1.77327e-05
1.77128e-05
1.76963e-05
1.76978e-05
1.77199e-05
1.77296e-05
1.77317e-05
1.77286e-05
1.77291e-05
1.77279e-05
1.77083e-05
1.77198e-05
1.77032e-05
1.77185e-05
1.77296e-05
1.77087e-05
1.76973e-05
1.77171e-05
1.77348e-05
1.77305e-05
1.771e-05
1.77199e-05
1.77083e-05
1.77208e-05
1.77095e-05
1.77196e-05
1.77262e-05
1.77273e-05
1.77268e-05
1.77271e-05
1.77284e-05
1.7734e-05
1.77095e-05
1.76973e-05
1.77191e-05
1.77078e-05
1.77198e-05
1.77332e-05
1.77115e-05
1.77023e-05
1.77241e-05
1.77106e-05
2.17692e-05
2.17873e-05
2.18052e-05
2.18107e-05
2.18085e-05
2.18094e-05
2.17879e-05
2.17616e-05
2.17847e-05
2.1806e-05
2.17808e-05
2.17976e-05
2.17834e-05
2.17656e-05
2.17869e-05
2.18071e-05
2.17807e-05
2.17957e-05
2.18098e-05
2.17888e-05
2.17678e-05
2.17602e-05
2.17867e-05
2.18024e-05
2.18095e-05
2.18101e-05
2.18088e-05
2.18089e-05
2.17822e-05
2.17968e-05
2.17748e-05
2.17895e-05
2.18058e-05
2.17836e-05
2.17638e-05
2.1783e-05
2.18059e-05
2.18102e-05
2.17832e-05
2.17967e-05
2.17767e-05
2.17943e-05
2.17781e-05
2.17943e-05
2.18024e-05
2.18058e-05
2.18064e-05
2.18071e-05
2.18063e-05
2.18123e-05
2.17885e-05
2.17649e-05
2.17898e-05
2.17757e-05
2.17901e-05
2.18073e-05
2.17859e-05
2.17683e-05
2.1794e-05
2.17805e-05
2.35428e-05
2.3554e-05
2.35687e-05
2.35797e-05
2.35787e-05
2.35797e-05
2.35658e-05
2.35389e-05
2.35489e-05
2.35704e-05
2.35533e-05
2.35648e-05
2.35562e-05
2.35398e-05
2.35507e-05
2.35718e-05
2.35538e-05
2.35617e-05
2.35759e-05
2.35635e-05
2.35463e-05
2.35317e-05
2.35498e-05
2.35658e-05
2.35752e-05
2.35804e-05
2.3579e-05
2.35799e-05
2.35581e-05
2.35676e-05
2.35503e-05
2.35572e-05
2.35722e-05
2.35589e-05
2.35383e-05
2.35478e-05
2.35662e-05
2.35782e-05
2.35573e-05
2.3567e-05
2.35492e-05
2.35621e-05
2.35491e-05
2.35621e-05
2.35698e-05
2.35746e-05
2.3576e-05
2.35777e-05
2.35757e-05
2.35799e-05
2.35664e-05
2.35406e-05
2.35568e-05
2.35467e-05
2.35557e-05
2.35716e-05
2.35597e-05
2.35407e-05
2.35587e-05
2.35511e-05
2.4198e-05
2.42036e-05
2.42124e-05
2.42248e-05
2.4226e-05
2.42276e-05
2.42201e-05
2.42e-05
2.42003e-05
2.42138e-05
2.42054e-05
2.42124e-05
2.4208e-05
2.41968e-05
2.42e-05
2.4215e-05
2.42061e-05
2.42095e-05
2.422e-05
2.42149e-05
2.42052e-05
2.41889e-05
2.41978e-05
2.42098e-05
2.42186e-05
2.42269e-05
2.42266e-05
2.42284e-05
2.42132e-05
2.42182e-05
2.42066e-05
2.42082e-05
2.42176e-05
2.42118e-05
2.41965e-05
2.41988e-05
2.42076e-05
2.42227e-05
2.421e-05
2.42166e-05
2.42033e-05
2.4211e-05
2.42015e-05
2.42102e-05
2.42163e-05
2.42216e-05
2.42234e-05
2.42261e-05
2.4224e-05
2.42259e-05
2.42198e-05
2.42e-05
2.42069e-05
2.41998e-05
2.42043e-05
2.42154e-05
2.42108e-05
2.41966e-05
2.4206e-05
2.42019e-05
2.42902e-05
2.4293e-05
2.42969e-05
2.43066e-05
2.43099e-05
2.43122e-05
2.43088e-05
2.42977e-05
2.42914e-05
2.42984e-05
2.42947e-05
2.42988e-05
2.42967e-05
2.42908e-05
2.42898e-05
2.42982e-05
2.42951e-05
2.42965e-05
2.4303e-05
2.43016e-05
2.4298e-05
2.42856e-05
2.42879e-05
2.42942e-05
2.43006e-05
2.43096e-05
2.43105e-05
2.43134e-05
2.4304e-05
2.43063e-05
2.42994e-05
2.42981e-05
2.43026e-05
2.43006e-05
2.42918e-05
2.42902e-05
2.42924e-05
2.43042e-05
2.42983e-05
2.43035e-05
2.42945e-05
2.42989e-05
2.4292e-05
2.42971e-05
2.43012e-05
2.43061e-05
2.43081e-05
2.43113e-05
2.431e-05
2.431e-05
2.43079e-05
2.42954e-05
2.42968e-05
2.42912e-05
2.4293e-05
2.42988e-05
2.42981e-05
2.42897e-05
2.42934e-05
2.42907e-05
2.4091e-05
2.40927e-05
2.40937e-05
2.40992e-05
2.41031e-05
2.4106e-05
2.41048e-05
2.41006e-05
2.40928e-05
2.40954e-05
2.40934e-05
2.40958e-05
2.40945e-05
2.40924e-05
2.40897e-05
2.40938e-05
2.40931e-05
2.40938e-05
2.40973e-05
2.40971e-05
2.40969e-05
2.40901e-05
2.40892e-05
2.40912e-05
2.40948e-05
2.41021e-05
2.41037e-05
2.41075e-05
2.41023e-05
2.41035e-05
2.40998e-05
2.40975e-05
2.40989e-05
2.40983e-05
2.40941e-05
2.40918e-05
2.40902e-05
2.40974e-05
2.40952e-05
2.40996e-05
2.40941e-05
2.40968e-05
2.40918e-05
2.40947e-05
2.40969e-05
2.41008e-05
2.41026e-05
2.41057e-05
2.41055e-05
2.41046e-05
2.4104e-05
2.40976e-05
2.40968e-05
2.40918e-05
2.40924e-05
2.40942e-05
2.40949e-05
2.40906e-05
2.40916e-05
2.40898e-05
2.37346e-05
2.37358e-05
2.37356e-05
2.37381e-05
2.37412e-05
2.37442e-05
2.3744e-05
2.37431e-05
2.3738e-05
2.37379e-05
2.3736e-05
2.37374e-05
2.37361e-05
2.37359e-05
2.37339e-05
2.3735e-05
2.37351e-05
2.37354e-05
2.37371e-05
2.37371e-05
2.37385e-05
2.37354e-05
2.37336e-05
2.37339e-05
2.37354e-05
2.37399e-05
2.37416e-05
2.37455e-05
2.37432e-05
2.3744e-05
2.37422e-05
2.37405e-05
2.37401e-05
2.37399e-05
2.37381e-05
2.37367e-05
2.37332e-05
2.37372e-05
2.37363e-05
2.37398e-05
2.37367e-05
2.37386e-05
2.37352e-05
2.37368e-05
2.37377e-05
2.37402e-05
2.37418e-05
2.37443e-05
2.3745e-05
2.37439e-05
2.37439e-05
2.37412e-05
2.374e-05
2.37358e-05
2.37359e-05
2.37355e-05
2.37361e-05
2.37341e-05
2.37341e-05
2.37327e-05
2.32889e-05
2.32897e-05
2.32891e-05
2.32901e-05
2.32918e-05
2.32944e-05
2.32944e-05
2.32952e-05
2.32928e-05
2.32918e-05
2.32897e-05
2.32905e-05
2.32893e-05
2.32898e-05
2.32888e-05
2.32883e-05
2.32884e-05
2.32885e-05
2.32891e-05
2.32891e-05
2.32907e-05
2.32898e-05
2.32885e-05
2.32881e-05
2.32885e-05
2.32908e-05
2.32921e-05
2.32953e-05
2.32946e-05
2.32955e-05
2.32947e-05
2.3294e-05
2.32928e-05
2.32927e-05
2.3292e-05
2.32914e-05
2.32881e-05
2.329e-05
2.32892e-05
2.32918e-05
2.32901e-05
2.32915e-05
2.32893e-05
2.32902e-05
2.32906e-05
2.32918e-05
2.32932e-05
2.32947e-05
2.3296e-05
2.32951e-05
2.32952e-05
2.32944e-05
2.32936e-05
2.32904e-05
2.32904e-05
2.32891e-05
2.32893e-05
2.32883e-05
2.3288e-05
2.32866e-05
2.27882e-05
2.27887e-05
2.2788e-05
2.27883e-05
2.2789e-05
2.27907e-05
2.27908e-05
2.27922e-05
2.27913e-05
2.27904e-05
2.27887e-05
2.27891e-05
2.27881e-05
2.27886e-05
2.27882e-05
2.27872e-05
2.27872e-05
2.27872e-05
2.27873e-05
2.2787e-05
2.27884e-05
2.27883e-05
2.27878e-05
2.27873e-05
2.27874e-05
2.27884e-05
2.27892e-05
2.27913e-05
2.27913e-05
2.27923e-05
2.2792e-05
2.2792e-05
2.27911e-05
2.2791e-05
2.27905e-05
2.27904e-05
2.27881e-05
2.27887e-05
2.2788e-05
2.27896e-05
2.27886e-05
2.27898e-05
2.27883e-05
2.2789e-05
2.27891e-05
2.27895e-05
2.27906e-05
2.27913e-05
2.27926e-05
2.27921e-05
2.27922e-05
2.27921e-05
2.27918e-05
2.27897e-05
2.27897e-05
2.27884e-05
2.27881e-05
2.27872e-05
2.2787e-05
2.27858e-05
2.22504e-05
2.22506e-05
2.22499e-05
2.22499e-05
2.22501e-05
2.2251e-05
2.2251e-05
2.22523e-05
2.22521e-05
2.22516e-05
2.22504e-05
2.22507e-05
2.22499e-05
2.22503e-05
2.22502e-05
2.22493e-05
2.22491e-05
2.22489e-05
2.22488e-05
2.22483e-05
2.22494e-05
2.22495e-05
2.22495e-05
2.22493e-05
2.22493e-05
2.22496e-05
2.225e-05
2.22513e-05
2.22514e-05
2.22524e-05
2.22524e-05
2.22528e-05
2.22522e-05
2.2252e-05
2.22518e-05
2.22521e-05
2.22505e-05
2.22506e-05
2.22499e-05
2.22509e-05
2.22502e-05
2.22511e-05
2.22502e-05
2.22506e-05
2.22507e-05
2.22508e-05
2.22515e-05
2.22518e-05
2.22527e-05
2.22524e-05
2.22524e-05
2.22527e-05
2.22527e-05
2.22514e-05
2.22515e-05
2.22505e-05
2.22499e-05
2.22492e-05
2.2249e-05
2.2248e-05
2.1685e-05
2.16851e-05
2.16845e-05
2.16843e-05
2.16842e-05
2.16845e-05
2.16845e-05
2.16855e-05
2.16855e-05
2.16852e-05
2.16846e-05
2.16848e-05
2.16841e-05
2.16844e-05
2.16844e-05
2.16837e-05
2.16835e-05
2.16832e-05
2.1683e-05
2.16824e-05
2.16832e-05
2.16833e-05
2.16835e-05
2.16835e-05
2.16835e-05
2.16836e-05
2.16838e-05
2.16845e-05
2.16845e-05
2.16855e-05
2.16855e-05
2.1686e-05
2.16856e-05
2.16856e-05
2.16856e-05
2.16859e-05
2.16849e-05
2.16848e-05
2.16842e-05
2.16848e-05
2.16844e-05
2.1685e-05
2.16844e-05
2.16848e-05
2.16848e-05
2.16848e-05
2.16852e-05
2.16854e-05
2.16859e-05
2.16857e-05
2.16856e-05
2.16859e-05
2.16862e-05
2.16854e-05
2.16856e-05
2.16849e-05
2.16843e-05
2.16837e-05
2.16835e-05
2.16827e-05
2.10976e-05
2.10976e-05
2.10971e-05
2.10967e-05
2.10964e-05
2.10966e-05
2.10964e-05
2.10971e-05
2.10971e-05
2.1097e-05
2.10966e-05
2.10968e-05
2.10963e-05
2.10965e-05
2.10965e-05
2.10961e-05
2.10959e-05
2.10956e-05
2.10953e-05
2.10948e-05
2.10953e-05
2.10954e-05
2.10956e-05
2.10956e-05
2.10957e-05
2.10957e-05
2.10958e-05
2.10962e-05
2.10962e-05
2.10969e-05
2.10969e-05
2.10975e-05
2.10972e-05
2.10973e-05
2.10974e-05
2.10977e-05
2.1097e-05
2.10969e-05
2.10965e-05
2.10969e-05
2.10966e-05
2.10971e-05
2.10967e-05
2.10969e-05
2.10969e-05
2.10969e-05
2.10972e-05
2.10973e-05
2.10976e-05
2.10974e-05
2.10972e-05
2.10975e-05
2.10978e-05
2.10973e-05
2.10976e-05
2.10972e-05
2.10966e-05
2.10961e-05
2.10959e-05
2.10953e-05
2.04916e-05
2.04916e-05
2.04911e-05
2.04907e-05
2.04904e-05
2.04903e-05
2.04901e-05
2.04905e-05
2.04905e-05
2.04904e-05
2.04901e-05
2.04903e-05
2.04901e-05
2.04902e-05
2.04903e-05
2.04899e-05
2.04898e-05
2.04895e-05
2.04893e-05
2.04887e-05
2.04891e-05
2.04892e-05
2.04893e-05
2.04893e-05
2.04895e-05
2.04895e-05
2.04895e-05
2.04898e-05
2.04898e-05
2.04903e-05
2.04903e-05
2.04907e-05
2.04906e-05
2.04906e-05
2.04907e-05
2.04911e-05
2.04906e-05
2.04905e-05
2.04902e-05
2.04906e-05
2.04904e-05
2.04907e-05
2.04905e-05
2.04906e-05
2.04907e-05
2.04907e-05
2.04908e-05
2.04909e-05
2.04911e-05
2.04909e-05
2.04907e-05
2.04908e-05
2.04912e-05
2.04908e-05
2.04911e-05
2.04908e-05
2.04904e-05
2.049e-05
2.04899e-05
2.04894e-05
1.98696e-05
1.98696e-05
1.98693e-05
1.98689e-05
1.98684e-05
1.98684e-05
1.9868e-05
1.98683e-05
1.98683e-05
1.98682e-05
1.9868e-05
1.98681e-05
1.9868e-05
1.9868e-05
1.98681e-05
1.98679e-05
1.98678e-05
1.98675e-05
1.98673e-05
1.98668e-05
1.98672e-05
1.98672e-05
1.98673e-05
1.98673e-05
1.98674e-05
1.98674e-05
1.98674e-05
1.98676e-05
1.98676e-05
1.9868e-05
1.9868e-05
1.98683e-05
1.98682e-05
1.98682e-05
1.98683e-05
1.98686e-05
1.98683e-05
1.98683e-05
1.98681e-05
1.98684e-05
1.98682e-05
1.98686e-05
1.98684e-05
1.98685e-05
1.98685e-05
1.98685e-05
1.98687e-05
1.98687e-05
1.98688e-05
1.98687e-05
1.98684e-05
1.98685e-05
1.98688e-05
1.98685e-05
1.98688e-05
1.98686e-05
1.98683e-05
1.9868e-05
1.98679e-05
1.98675e-05
1.92339e-05
1.92338e-05
1.92336e-05
1.92332e-05
1.92328e-05
1.92327e-05
1.92323e-05
1.92325e-05
1.92325e-05
1.92324e-05
1.92321e-05
1.92323e-05
1.92322e-05
1.92322e-05
1.92323e-05
1.92321e-05
1.9232e-05
1.92318e-05
1.92316e-05
1.92312e-05
1.92315e-05
1.92315e-05
1.92315e-05
1.92315e-05
1.92316e-05
1.92316e-05
1.92316e-05
1.92318e-05
1.92318e-05
1.92321e-05
1.92321e-05
1.92323e-05
1.92322e-05
1.92322e-05
1.92323e-05
1.92326e-05
1.92324e-05
1.92323e-05
1.92321e-05
1.92324e-05
1.92323e-05
1.92326e-05
1.92325e-05
1.92326e-05
1.92326e-05
1.92327e-05
1.92327e-05