/*--------------------------------*- C++ -*----------------------------------*\
| =========                 |                                                 |
| \\      /  F ield         | OpenFOAM: The Open Source CFD Toolbox           |
|  \\    /   O peration     | Version:  2312                                  |
|   \\  /    A nd           | Website:  www.openfoam.com                      |
|    \\/     M anipulation  |                                                 |
\*---------------------------------------------------------------------------*/
FoamFile
{
    version     2.0;
    format      ascii;
    arch        "LSB;label=32;scalar=64";
    class       volScalarField;
    location    "700";
    object      nut;
}
// * * * * * * * * * * * * * * * * * * * * * * * * * * * * * * * * * * * * * //

dimensions      [0 2 -1 0 0 0 0];

internalField   nonuniform List<scalar> 
144000
(
8.16221e-06
8.16156e-06
8.16335e-06
8.16144e-06
8.17793e-06
8.16187e-06
8.17901e-06
8.17671e-06
8.17837e-06
8.16334e-06
8.16265e-06
8.16228e-06
8.16363e-06
8.16256e-06
8.17771e-06
8.17715e-06
8.16236e-06
8.16323e-06
8.16296e-06
8.17767e-06
8.17676e-06
8.16345e-06
8.16294e-06
8.17879e-06
8.16333e-06
8.16218e-06
8.17759e-06
8.16289e-06
8.16211e-06
8.17647e-06
8.16021e-06
8.17889e-06
8.16327e-06
8.17913e-06
8.17713e-06
8.17941e-06
8.16457e-06
8.17961e-06
8.16411e-06
8.16362e-06
8.17891e-06
8.1612e-06
8.16385e-06
8.16276e-06
8.17893e-06
8.17744e-06
8.16269e-06
8.1647e-06
8.16252e-06
8.16353e-06
8.16134e-06
8.17653e-06
8.16168e-06
8.16464e-06
8.17719e-06
8.1781e-06
8.16228e-06
8.16358e-06
8.16179e-06
8.16138e-06
1.18234e-05
1.18228e-05
1.18245e-05
1.18239e-05
1.18164e-05
1.18211e-05
1.18173e-05
1.18132e-05
1.18128e-05
1.18203e-05
1.18232e-05
1.18231e-05
1.18243e-05
1.18242e-05
1.18176e-05
1.18135e-05
1.18197e-05
1.18231e-05
1.18246e-05
1.18176e-05
1.1812e-05
1.18194e-05
1.18236e-05
1.18168e-05
1.18218e-05
1.18239e-05
1.18165e-05
1.18216e-05
1.18238e-05
1.18159e-05
1.18197e-05
1.18153e-05
1.18216e-05
1.18173e-05
1.18134e-05
1.18134e-05
1.18218e-05
1.1817e-05
1.18216e-05
1.18243e-05
1.18177e-05
1.18204e-05
1.18238e-05
1.1824e-05
1.18182e-05
1.18139e-05
1.18195e-05
1.18245e-05
1.18241e-05
1.18251e-05
1.18244e-05
1.18157e-05
1.18196e-05
1.1825e-05
1.18173e-05
1.18139e-05
1.18198e-05
1.18231e-05
1.18236e-05
1.1823e-05
1.31134e-05
1.31129e-05
1.31137e-05
1.31144e-05
1.31056e-05
1.31101e-05
1.31056e-05
1.31015e-05
1.30993e-05
1.31069e-05
1.31119e-05
1.31124e-05
1.31134e-05
1.31139e-05
1.31073e-05
1.31016e-05
1.31074e-05
1.31113e-05
1.3114e-05
1.31074e-05
1.31e-05
1.31061e-05
1.31122e-05
1.31049e-05
1.31096e-05
1.31136e-05
1.31055e-05
1.31099e-05
1.31135e-05
1.31056e-05
1.31095e-05
1.3103e-05
1.31094e-05
1.31052e-05
1.31014e-05
1.30994e-05
1.31082e-05
1.3104e-05
1.31088e-05
1.31129e-05
1.31062e-05
1.31096e-05
1.31124e-05
1.31135e-05
1.31071e-05
1.31019e-05
1.3107e-05
1.31123e-05
1.31135e-05
1.31144e-05
1.31151e-05
1.31059e-05
1.31084e-05
1.31132e-05
1.31069e-05
1.31015e-05
1.31076e-05
1.31112e-05
1.31133e-05
1.31132e-05
1.36353e-05
1.36349e-05
1.3635e-05
1.36361e-05
1.36295e-05
1.3632e-05
1.36287e-05
1.36257e-05
1.36224e-05
1.36271e-05
1.36324e-05
1.36336e-05
1.36343e-05
1.36353e-05
1.36311e-05
1.36255e-05
1.36288e-05
1.36318e-05
1.36349e-05
1.36312e-05
1.36243e-05
1.3627e-05
1.36326e-05
1.36277e-05
1.36302e-05
1.36347e-05
1.3629e-05
1.36311e-05
1.36348e-05
1.36295e-05
1.3632e-05
1.36264e-05
1.36303e-05
1.36278e-05
1.36252e-05
1.36221e-05
1.36282e-05
1.3626e-05
1.36291e-05
1.36333e-05
1.3629e-05
1.36313e-05
1.36331e-05
1.36348e-05
1.36304e-05
1.36256e-05
1.36282e-05
1.36322e-05
1.36345e-05
1.36352e-05
1.36369e-05
1.36304e-05
1.36308e-05
1.36336e-05
1.36304e-05
1.36251e-05
1.36289e-05
1.36317e-05
1.36345e-05
1.36347e-05
1.38215e-05
1.38213e-05
1.38209e-05
1.3822e-05
1.38178e-05
1.38188e-05
1.38165e-05
1.38147e-05
1.38112e-05
1.38133e-05
1.38175e-05
1.38193e-05
1.38197e-05
1.3821e-05
1.38188e-05
1.38144e-05
1.38157e-05
1.38174e-05
1.38201e-05
1.38185e-05
1.38139e-05
1.38144e-05
1.38178e-05
1.38152e-05
1.38163e-05
1.38199e-05
1.38169e-05
1.38176e-05
1.38203e-05
1.38175e-05
1.38192e-05
1.3815e-05
1.38167e-05
1.38152e-05
1.38138e-05
1.38107e-05
1.3814e-05
1.3813e-05
1.38148e-05
1.38184e-05
1.38162e-05
1.38178e-05
1.38187e-05
1.38205e-05
1.3818e-05
1.38143e-05
1.38152e-05
1.38173e-05
1.38198e-05
1.38204e-05
1.38224e-05
1.38189e-05
1.38182e-05
1.38192e-05
1.38179e-05
1.38139e-05
1.38157e-05
1.38173e-05
1.38199e-05
1.38204e-05
1.38457e-05
1.38458e-05
1.38453e-05
1.38462e-05
1.38437e-05
1.38439e-05
1.38423e-05
1.38413e-05
1.38386e-05
1.38391e-05
1.38414e-05
1.38434e-05
1.38437e-05
1.38449e-05
1.38439e-05
1.38412e-05
1.38414e-05
1.3842e-05
1.38438e-05
1.38434e-05
1.38411e-05
1.38403e-05
1.38421e-05
1.38409e-05
1.38413e-05
1.38436e-05
1.38424e-05
1.38425e-05
1.38443e-05
1.3843e-05
1.38443e-05
1.38416e-05
1.3842e-05
1.38409e-05
1.38403e-05
1.38378e-05
1.38393e-05
1.38386e-05
1.38396e-05
1.38421e-05
1.38413e-05
1.38425e-05
1.38429e-05
1.38444e-05
1.38433e-05
1.38408e-05
1.3841e-05
1.38417e-05
1.38436e-05
1.38441e-05
1.38459e-05
1.38446e-05
1.38438e-05
1.38437e-05
1.38432e-05
1.38407e-05
1.38413e-05
1.38419e-05
1.38437e-05
1.38444e-05
1.37871e-05
1.37875e-05
1.3787e-05
1.37875e-05
1.37862e-05
1.37862e-05
1.3785e-05
1.37845e-05
1.37828e-05
1.37824e-05
1.37832e-05
1.37849e-05
1.37851e-05
1.3786e-05
1.37857e-05
1.37844e-05
1.37843e-05
1.37843e-05
1.37851e-05
1.37851e-05
1.37845e-05
1.37834e-05
1.37841e-05
1.37835e-05
1.37836e-05
1.37849e-05
1.37846e-05
1.37847e-05
1.37857e-05
1.37852e-05
1.37863e-05
1.37847e-05
1.37846e-05
1.37836e-05
1.37834e-05
1.37818e-05
1.37822e-05
1.37816e-05
1.3782e-05
1.37835e-05
1.37833e-05
1.37844e-05
1.37846e-05
1.37857e-05
1.37852e-05
1.3784e-05
1.37839e-05
1.37839e-05
1.37849e-05
1.37853e-05
1.37867e-05
1.37864e-05
1.37863e-05
1.37857e-05
1.37855e-05
1.3784e-05
1.37841e-05
1.37842e-05
1.37851e-05
1.37857e-05
1.36834e-05
1.3684e-05
1.36836e-05
1.36839e-05
1.36832e-05
1.36832e-05
1.36823e-05
1.36821e-05
1.36812e-05
1.36805e-05
1.36806e-05
1.36815e-05
1.36817e-05
1.36824e-05
1.36824e-05
1.36819e-05
1.36818e-05
1.36815e-05
1.36818e-05
1.36819e-05
1.36819e-05
1.36813e-05
1.36813e-05
1.3681e-05
1.36809e-05
1.36815e-05
1.36816e-05
1.36817e-05
1.36823e-05
1.36821e-05
1.3683e-05
1.36822e-05
1.3682e-05
1.36811e-05
1.36811e-05
1.36802e-05
1.36801e-05
1.36794e-05
1.36796e-05
1.36804e-05
1.36803e-05
1.36812e-05
1.36813e-05
1.36821e-05
1.36819e-05
1.36814e-05
1.36815e-05
1.36812e-05
1.36817e-05
1.36818e-05
1.36827e-05
1.36829e-05
1.36832e-05
1.36826e-05
1.36825e-05
1.36817e-05
1.36817e-05
1.36815e-05
1.36819e-05
1.36823e-05
1.35535e-05
1.35541e-05
1.35538e-05
1.35539e-05
1.35535e-05
1.35536e-05
1.35529e-05
1.35528e-05
1.35524e-05
1.35518e-05
1.35516e-05
1.3552e-05
1.35521e-05
1.35525e-05
1.35525e-05
1.35525e-05
1.35525e-05
1.35523e-05
1.35522e-05
1.35522e-05
1.35524e-05
1.35522e-05
1.35521e-05
1.35518e-05
1.35517e-05
1.35519e-05
1.35521e-05
1.35521e-05
1.35524e-05
1.35524e-05
1.35531e-05
1.35528e-05
1.35527e-05
1.3552e-05
1.3552e-05
1.35516e-05
1.35514e-05
1.35507e-05
1.35507e-05
1.3551e-05
1.35509e-05
1.35516e-05
1.35517e-05
1.35522e-05
1.35522e-05
1.35521e-05
1.35522e-05
1.35519e-05
1.35521e-05
1.35522e-05
1.35526e-05
1.35528e-05
1.35534e-05
1.35529e-05
1.35529e-05
1.35525e-05
1.35525e-05
1.35523e-05
1.35524e-05
1.35526e-05
1.34066e-05
1.34069e-05
1.34067e-05
1.34068e-05
1.34066e-05
1.34066e-05
1.34061e-05
1.34061e-05
1.34059e-05
1.34056e-05
1.34052e-05
1.34054e-05
1.34054e-05
1.34056e-05
1.34056e-05
1.34056e-05
1.34057e-05
1.34056e-05
1.34055e-05
1.34054e-05
1.34056e-05
1.34056e-05
1.34055e-05
1.34052e-05
1.34052e-05
1.34052e-05
1.34053e-05
1.34053e-05
1.34055e-05
1.34055e-05
1.3406e-05
1.34059e-05
1.34059e-05
1.34055e-05
1.34055e-05
1.34053e-05
1.34051e-05
1.34045e-05
1.34045e-05
1.34045e-05
1.34044e-05
1.34049e-05
1.34049e-05
1.34052e-05
1.34052e-05
1.34052e-05
1.34055e-05
1.34053e-05
1.34054e-05
1.34053e-05
1.34055e-05
1.34056e-05
1.34062e-05
1.34059e-05
1.34059e-05
1.34058e-05
1.34058e-05
1.34057e-05
1.34057e-05
1.34057e-05
1.32471e-05
1.32473e-05
1.32471e-05
1.32471e-05
1.3247e-05
1.3247e-05
1.32467e-05
1.32467e-05
1.32466e-05
1.32465e-05
1.32462e-05
1.32463e-05
1.32462e-05
1.32462e-05
1.32462e-05
1.32462e-05
1.32464e-05
1.32463e-05
1.32462e-05
1.3246e-05
1.32462e-05
1.32462e-05
1.32462e-05
1.3246e-05
1.3246e-05
1.32459e-05
1.3246e-05
1.3246e-05
1.3246e-05
1.3246e-05
1.32464e-05
1.32464e-05
1.32465e-05
1.32462e-05
1.32463e-05
1.32462e-05
1.3246e-05
1.32456e-05
1.32455e-05
1.32455e-05
1.32452e-05
1.32456e-05
1.32456e-05
1.32457e-05
1.32457e-05
1.32458e-05
1.32461e-05
1.3246e-05
1.3246e-05
1.3246e-05
1.32461e-05
1.32461e-05
1.32465e-05
1.32464e-05
1.32464e-05
1.32464e-05
1.32464e-05
1.32464e-05
1.32463e-05
1.32464e-05
1.30775e-05
1.30776e-05
1.30774e-05
1.30774e-05
1.30772e-05
1.30773e-05
1.30771e-05
1.30771e-05
1.30771e-05
1.3077e-05
1.30768e-05
1.30769e-05
1.30767e-05
1.30767e-05
1.30766e-05
1.30766e-05
1.30768e-05
1.30767e-05
1.30766e-05
1.30765e-05
1.30766e-05
1.30767e-05
1.30767e-05
1.30765e-05
1.30766e-05
1.30765e-05
1.30765e-05
1.30765e-05
1.30764e-05
1.30764e-05
1.30767e-05
1.30767e-05
1.30768e-05
1.30766e-05
1.30767e-05
1.30767e-05
1.30766e-05
1.30763e-05
1.30763e-05
1.30762e-05
1.30759e-05
1.30762e-05
1.30762e-05
1.30762e-05
1.30762e-05
1.30763e-05
1.30765e-05
1.30764e-05
1.30765e-05
1.30764e-05
1.30765e-05
1.30765e-05
1.30768e-05
1.30767e-05
1.30767e-05
1.30767e-05
1.30768e-05
1.30768e-05
1.30767e-05
1.30768e-05
1.2899e-05
1.2899e-05
1.28989e-05
1.28988e-05
1.28986e-05
1.28987e-05
1.28985e-05
1.28985e-05
1.28985e-05
1.28985e-05
1.28984e-05
1.28985e-05
1.28984e-05
1.28983e-05
1.28982e-05
1.28982e-05
1.28983e-05
1.28983e-05
1.28982e-05
1.2898e-05
1.28981e-05
1.28982e-05
1.28982e-05
1.28981e-05
1.28982e-05
1.28981e-05
1.2898e-05
1.28981e-05
1.2898e-05
1.2898e-05
1.28982e-05
1.28982e-05
1.28982e-05
1.28981e-05
1.28982e-05
1.28982e-05
1.28982e-05
1.2898e-05
1.2898e-05
1.28979e-05
1.28977e-05
1.28979e-05
1.28978e-05
1.28978e-05
1.28978e-05
1.28979e-05
1.28981e-05
1.2898e-05
1.2898e-05
1.2898e-05
1.2898e-05
1.2898e-05
1.28982e-05
1.28981e-05
1.28981e-05
1.28981e-05
1.28982e-05
1.28982e-05
1.28982e-05
1.28983e-05
1.27123e-05
1.27122e-05
1.27121e-05
1.2712e-05
1.27119e-05
1.27119e-05
1.27118e-05
1.27118e-05
1.27118e-05
1.27118e-05
1.27118e-05
1.27118e-05
1.27117e-05
1.27117e-05
1.27115e-05
1.27115e-05
1.27116e-05
1.27116e-05
1.27115e-05
1.27114e-05
1.27115e-05
1.27115e-05
1.27115e-05
1.27115e-05
1.27115e-05
1.27115e-05
1.27114e-05
1.27114e-05
1.27114e-05
1.27113e-05
1.27115e-05
1.27115e-05
1.27115e-05
1.27114e-05
1.27115e-05
1.27115e-05
1.27115e-05
1.27114e-05
1.27114e-05
1.27114e-05
1.27112e-05
1.27113e-05
1.27113e-05
1.27113e-05
1.27112e-05
1.27112e-05
1.27114e-05
1.27114e-05
1.27114e-05
1.27114e-05
1.27113e-05
1.27113e-05
1.27115e-05
1.27114e-05
1.27114e-05
1.27114e-05
1.27115e-05
1.27115e-05
1.27115e-05
1.27115e-05
1.25178e-05
1.25177e-05
1.25176e-05
1.25176e-05
1.25174e-05
1.25174e-05
1.25173e-05
1.25173e-05
1.25173e-05
1.25173e-05
1.25173e-05
1.25173e-05
1.25173e-05
1.25172e-05
1.25171e-05
1.25171e-05
1.25172e-05
1.25172e-05
1.25171e-05
1.2517e-05
1.25171e-05
1.25171e-05
1.25171e-05
1.25171e-05
1.25171e-05
1.25171e-05
1.2517e-05
1.2517e-05
1.2517e-05
1.25169e-05
1.2517e-05
1.2517e-05
1.25171e-05
1.2517e-05
1.25171e-05
1.25171e-05
1.25171e-05
1.2517e-05
1.2517e-05
1.2517e-05
1.25169e-05
1.2517e-05
1.2517e-05
1.25169e-05
1.25169e-05
1.25169e-05
1.2517e-05
1.2517e-05
1.2517e-05
1.2517e-05
1.25169e-05
1.25169e-05
1.2517e-05
1.2517e-05
1.25169e-05
1.2517e-05
1.2517e-05
1.2517e-05
1.2517e-05
1.25171e-05
1.23158e-05
1.23158e-05
1.23157e-05
1.23156e-05
1.23155e-05
1.23155e-05
1.23154e-05
1.23153e-05
1.23154e-05
1.23154e-05
1.23154e-05
1.23154e-05
1.23154e-05
1.23153e-05
1.23153e-05
1.23152e-05
1.23153e-05
1.23153e-05
1.23152e-05
1.23151e-05
1.23152e-05
1.23152e-05
1.23152e-05
1.23152e-05
1.23152e-05
1.23152e-05
1.23152e-05
1.23152e-05
1.23152e-05
1.23151e-05
1.23152e-05
1.23152e-05
1.23152e-05
1.23151e-05
1.23152e-05
1.23152e-05
1.23152e-05
1.23152e-05
1.23152e-05
1.23152e-05
1.23151e-05
1.23152e-05
1.23151e-05
1.23151e-05
1.2315e-05
1.2315e-05
1.23151e-05
1.23151e-05
1.23151e-05
1.23151e-05
1.23151e-05
1.2315e-05
1.23152e-05
1.23151e-05
1.23151e-05
1.23151e-05
1.23151e-05
1.23151e-05
1.23151e-05
1.23152e-05
1.21067e-05
1.21067e-05
1.21066e-05
1.21065e-05
1.21064e-05
1.21063e-05
1.21062e-05
1.21062e-05
1.21063e-05
1.21063e-05
1.21063e-05
1.21063e-05
1.21063e-05
1.21063e-05
1.21062e-05
1.21062e-05
1.21062e-05
1.21062e-05
1.21062e-05
1.21061e-05
1.21061e-05
1.21062e-05
1.21062e-05
1.21061e-05
1.21062e-05
1.21062e-05
1.21061e-05
1.21061e-05
1.21061e-05
1.2106e-05
1.21061e-05
1.21061e-05
1.21061e-05
1.21061e-05
1.21061e-05
1.21061e-05
1.21061e-05
1.21061e-05
1.21061e-05
1.21061e-05
1.21061e-05
1.21061e-05
1.21061e-05
1.21061e-05
1.2106e-05
1.2106e-05
1.21061e-05
1.21061e-05
1.21061e-05
1.21061e-05
1.2106e-05
1.2106e-05
1.21061e-05
1.21061e-05
1.2106e-05
1.2106e-05
1.2106e-05
1.2106e-05
1.21061e-05
1.21061e-05
1.18906e-05
1.18906e-05
1.18906e-05
1.18905e-05
1.18903e-05
1.18903e-05
1.18902e-05
1.18902e-05
1.18902e-05
1.18902e-05
1.18902e-05
1.18903e-05
1.18903e-05
1.18902e-05
1.18902e-05
1.18901e-05
1.18902e-05
1.18902e-05
1.18902e-05
1.18901e-05
1.18901e-05
1.18901e-05
1.18901e-05
1.18901e-05
1.18902e-05
1.18902e-05
1.18901e-05
1.18901e-05
1.18901e-05
1.189e-05
1.18901e-05
1.18901e-05
1.18901e-05
1.189e-05
1.18901e-05
1.18901e-05
1.18901e-05
1.18901e-05
1.18901e-05
1.18901e-05
1.18901e-05
1.18901e-05
1.18901e-05
1.18901e-05
1.189e-05
1.189e-05
1.18901e-05
1.18901e-05
1.18901e-05
1.18901e-05
1.189e-05
1.189e-05
1.18901e-05
1.18901e-05
1.189e-05
1.189e-05
1.189e-05
1.189e-05
1.18901e-05
1.18901e-05
1.16679e-05
1.16679e-05
1.16678e-05
1.16678e-05
1.16676e-05
1.16676e-05
1.16675e-05
1.16675e-05
1.16675e-05
1.16675e-05
1.16675e-05
1.16676e-05
1.16676e-05
1.16675e-05
1.16675e-05
1.16675e-05
1.16675e-05
1.16675e-05
1.16675e-05
1.16674e-05
1.16675e-05
1.16675e-05
1.16675e-05
1.16675e-05
1.16675e-05
1.16675e-05
1.16674e-05
1.16674e-05
1.16674e-05
1.16673e-05
1.16674e-05
1.16674e-05
1.16674e-05
1.16674e-05
1.16674e-05
1.16674e-05
1.16674e-05
1.16674e-05
1.16674e-05
1.16674e-05
1.16674e-05
1.16674e-05
1.16674e-05
1.16674e-05
1.16674e-05
1.16674e-05
1.16674e-05
1.16674e-05
1.16674e-05
1.16674e-05
1.16674e-05
1.16673e-05
1.16674e-05
1.16674e-05
1.16673e-05
1.16674e-05
1.16674e-05
1.16674e-05
1.16674e-05
1.16674e-05
1.14389e-05
1.14389e-05
1.14388e-05
1.14388e-05
1.14386e-05
1.14386e-05
1.14385e-05
1.14385e-05
1.14385e-05
1.14385e-05
1.14385e-05
1.14386e-05
1.14386e-05
1.14385e-05
1.14385e-05
1.14385e-05
1.14385e-05
1.14385e-05
1.14385e-05
1.14384e-05
1.14385e-05
1.14385e-05
1.14385e-05
1.14385e-05
1.14385e-05
1.14385e-05
1.14385e-05
1.14384e-05
1.14384e-05
1.14383e-05
1.14384e-05
1.14384e-05
1.14384e-05
1.14384e-05
1.14384e-05
1.14384e-05
1.14384e-05
1.14384e-05
1.14384e-05
1.14384e-05
1.14384e-05
1.14384e-05
1.14384e-05
1.14384e-05
1.14384e-05
1.14384e-05
1.14385e-05
1.14385e-05
1.14385e-05
1.14384e-05
1.14384e-05
1.14384e-05
1.14384e-05
1.14384e-05
1.14384e-05
1.14384e-05
1.14384e-05
1.14384e-05
1.14384e-05
1.14384e-05
1.1204e-05
1.1204e-05
1.1204e-05
1.12039e-05
1.12038e-05
1.12038e-05
1.12037e-05
1.12037e-05
1.12037e-05
1.12037e-05
1.12037e-05
1.12038e-05
1.12038e-05
1.12037e-05
1.12037e-05
1.12037e-05
1.12037e-05
1.12037e-05
1.12037e-05
1.12037e-05
1.12037e-05
1.12037e-05
1.12037e-05
1.12037e-05
1.12037e-05
1.12037e-05
1.12037e-05
1.12037e-05
1.12036e-05
1.12036e-05
1.12036e-05
1.12036e-05
1.12036e-05
1.12036e-05
1.12036e-05
1.12036e-05
1.12036e-05
1.12036e-05
1.12036e-05
1.12036e-05
1.12036e-05
1.12036e-05
1.12036e-05
1.12036e-05
1.12036e-05
1.12036e-05
1.12037e-05
1.12037e-05
1.12037e-05
1.12036e-05
1.12036e-05
1.12036e-05
1.12036e-05
1.12036e-05
1.12036e-05
1.12036e-05
1.12036e-05
1.12036e-05
1.12036e-05
1.12036e-05
1.09641e-05
1.09641e-05
1.09641e-05
1.0964e-05
1.09639e-05
1.09639e-05
1.09639e-05
1.09638e-05
1.09639e-05
1.09639e-05
1.09639e-05
1.09639e-05
1.09639e-05
1.09639e-05
1.09638e-05
1.09638e-05
1.09638e-05
1.09638e-05
1.09638e-05
1.09638e-05
1.09638e-05
1.09638e-05
1.09638e-05
1.09638e-05
1.09638e-05
1.09638e-05
1.09638e-05
1.09638e-05
1.09638e-05
1.09637e-05
1.09637e-05
1.09637e-05
1.09637e-05
1.09637e-05
1.09637e-05
1.09637e-05
1.09637e-05
1.09637e-05
1.09637e-05
1.09638e-05
1.09637e-05
1.09638e-05
1.09638e-05
1.09638e-05
1.09638e-05
1.09638e-05
1.09638e-05
1.09638e-05
1.09638e-05
1.09638e-05
1.09638e-05
1.09637e-05
1.09638e-05
1.09638e-05
1.09638e-05
1.09637e-05
1.09638e-05
1.09638e-05
1.09638e-05
1.09638e-05
1.07204e-05
1.07204e-05
1.07203e-05
1.07203e-05
1.07202e-05
1.07202e-05
1.07202e-05
1.07201e-05
1.07202e-05
1.07202e-05
1.07201e-05
1.07202e-05
1.07202e-05
1.07202e-05
1.07201e-05
1.07201e-05
1.07201e-05
1.07201e-05
1.07201e-05
1.07201e-05
1.07201e-05
1.07201e-05
1.07201e-05
1.07201e-05
1.07201e-05
1.07201e-05
1.07201e-05
1.07201e-05
1.07201e-05
1.072e-05
1.072e-05
1.072e-05
1.072e-05
1.072e-05
1.072e-05
1.072e-05
1.072e-05
1.072e-05
1.072e-05
1.07201e-05
1.07201e-05
1.07201e-05
1.07201e-05
1.07201e-05
1.07201e-05
1.07201e-05
1.07201e-05
1.07201e-05
1.07201e-05
1.07201e-05
1.07201e-05
1.072e-05
1.07201e-05
1.07201e-05
1.07201e-05
1.072e-05
1.07201e-05
1.07201e-05
1.07201e-05
1.07201e-05
1.04749e-05
1.04749e-05
1.04749e-05
1.04748e-05
1.04748e-05
1.04748e-05
1.04747e-05
1.04747e-05
1.04747e-05
1.04747e-05
1.04747e-05
1.04747e-05
1.04747e-05
1.04747e-05
1.04747e-05
1.04747e-05
1.04747e-05
1.04747e-05
1.04747e-05
1.04747e-05
1.04747e-05
1.04747e-05
1.04747e-05
1.04747e-05
1.04747e-05
1.04747e-05
1.04747e-05
1.04747e-05
1.04746e-05
1.04746e-05
1.04746e-05
1.04746e-05
1.04746e-05
1.04746e-05
1.04746e-05
1.04746e-05
1.04746e-05
1.04746e-05
1.04746e-05
1.04746e-05
1.04746e-05
1.04746e-05
1.04746e-05
1.04746e-05
1.04746e-05
1.04746e-05
1.04747e-05
1.04747e-05
1.04747e-05
1.04747e-05
1.04746e-05
1.04746e-05
1.04746e-05
1.04746e-05
1.04746e-05
1.04746e-05
1.04746e-05
1.04746e-05
1.04746e-05
1.04746e-05
1.02314e-05
1.02314e-05
1.02314e-05
1.02314e-05
1.02313e-05
1.02313e-05
1.02313e-05
1.02313e-05
1.02313e-05
1.02313e-05
1.02313e-05
1.02313e-05
1.02313e-05
1.02313e-05
1.02313e-05
1.02313e-05
1.02313e-05
1.02313e-05
1.02313e-05
1.02313e-05
1.02313e-05
1.02313e-05
1.02313e-05
1.02313e-05
1.02313e-05
1.02313e-05
1.02313e-05
1.02313e-05
1.02312e-05
1.02312e-05
1.02312e-05
1.02312e-05
1.02312e-05
1.02312e-05
1.02312e-05
1.02312e-05
1.02312e-05
1.02312e-05
1.02312e-05
1.02312e-05
1.02312e-05
1.02312e-05
1.02312e-05
1.02312e-05
1.02312e-05
1.02312e-05
1.02313e-05
1.02313e-05
1.02313e-05
1.02312e-05
1.02312e-05
1.02312e-05
1.02312e-05
1.02312e-05
1.02312e-05
1.02312e-05
1.02312e-05
1.02312e-05
1.02312e-05
1.02312e-05
8.17816e-06
8.16238e-06
8.16402e-06
8.16133e-06
8.16209e-06
8.16151e-06
8.17757e-06
8.17708e-06
8.16505e-06
8.16296e-06
8.17883e-06
8.16279e-06
8.17915e-06
8.17782e-06
8.16454e-06
8.16361e-06
8.17855e-06
8.16381e-06
8.16324e-06
8.17843e-06
8.17668e-06
8.17975e-06
8.16355e-06
8.1638e-06
8.16275e-06
8.16102e-06
8.16238e-06
8.161e-06
8.17821e-06
8.16086e-06
8.17756e-06
8.16266e-06
8.16278e-06
8.17769e-06
8.17841e-06
8.16385e-06
8.16541e-06
8.16154e-06
8.17897e-06
8.16076e-06
8.18031e-06
8.16182e-06
8.17985e-06
8.16112e-06
8.16229e-06
8.1619e-06
8.16128e-06
8.16141e-06
8.1626e-06
8.16332e-06
8.17656e-06
8.17828e-06
8.16248e-06
8.1795e-06
8.16295e-06
8.16457e-06
8.17839e-06
8.17966e-06
8.16398e-06
8.17921e-06
1.18142e-05
1.18197e-05
1.18246e-05
1.18239e-05
1.18235e-05
1.18236e-05
1.18174e-05
1.18118e-05
1.18206e-05
1.18242e-05
1.18171e-05
1.1822e-05
1.18178e-05
1.18133e-05
1.18209e-05
1.18246e-05
1.18169e-05
1.18221e-05
1.18249e-05
1.18183e-05
1.18128e-05
1.18133e-05
1.18206e-05
1.18239e-05
1.18246e-05
1.18235e-05
1.18237e-05
1.18233e-05
1.18168e-05
1.18206e-05
1.1815e-05
1.18202e-05
1.18239e-05
1.18169e-05
1.18131e-05
1.18197e-05
1.18256e-05
1.18242e-05
1.18173e-05
1.18206e-05
1.18168e-05
1.18209e-05
1.18172e-05
1.18205e-05
1.18227e-05
1.18231e-05
1.18229e-05
1.1823e-05
1.18235e-05
1.18253e-05
1.18172e-05
1.18131e-05
1.18204e-05
1.18166e-05
1.18206e-05
1.18251e-05
1.18178e-05
1.18147e-05
1.1822e-05
1.18175e-05
1.31019e-05
1.31073e-05
1.31127e-05
1.31144e-05
1.31137e-05
1.3114e-05
1.31075e-05
1.30996e-05
1.31065e-05
1.31129e-05
1.31054e-05
1.31104e-05
1.31061e-05
1.31008e-05
1.31072e-05
1.31133e-05
1.31053e-05
1.31099e-05
1.31141e-05
1.31078e-05
1.31015e-05
1.30992e-05
1.31071e-05
1.31119e-05
1.3114e-05
1.31142e-05
1.31138e-05
1.31138e-05
1.31058e-05
1.31102e-05
1.31036e-05
1.3108e-05
1.31129e-05
1.31062e-05
1.31003e-05
1.3106e-05
1.31129e-05
1.31142e-05
1.31061e-05
1.31102e-05
1.31041e-05
1.31094e-05
1.31045e-05
1.31094e-05
1.31119e-05
1.31129e-05
1.31131e-05
1.31133e-05
1.3113e-05
1.31148e-05
1.31077e-05
1.31006e-05
1.31081e-05
1.31038e-05
1.31082e-05
1.31133e-05
1.31069e-05
1.31016e-05
1.31093e-05
1.31053e-05
1.36252e-05
1.36284e-05
1.36327e-05
1.36359e-05
1.36356e-05
1.36359e-05
1.36318e-05
1.36241e-05
1.3627e-05
1.36332e-05
1.36282e-05
1.36315e-05
1.36291e-05
1.36243e-05
1.36275e-05
1.36336e-05
1.36284e-05
1.36306e-05
1.36348e-05
1.36312e-05
1.36262e-05
1.3622e-05
1.36272e-05
1.36319e-05
1.36346e-05
1.36361e-05
1.36357e-05
1.36359e-05
1.36296e-05
1.36324e-05
1.36274e-05
1.36294e-05
1.36337e-05
1.36298e-05
1.36239e-05
1.36266e-05
1.3632e-05
1.36354e-05
1.36294e-05
1.36322e-05
1.3627e-05
1.36308e-05
1.3627e-05
1.36308e-05
1.3633e-05
1.36344e-05
1.36348e-05
1.36353e-05
1.36347e-05
1.36359e-05
1.3632e-05
1.36246e-05
1.36292e-05
1.36263e-05
1.36289e-05
1.36335e-05
1.36301e-05
1.36246e-05
1.36298e-05
1.36276e-05
1.38135e-05
1.38151e-05
1.38176e-05
1.38212e-05
1.38215e-05
1.3822e-05
1.38198e-05
1.38141e-05
1.38142e-05
1.3818e-05
1.38156e-05
1.38176e-05
1.38164e-05
1.38132e-05
1.38141e-05
1.38184e-05
1.38158e-05
1.38168e-05
1.38198e-05
1.38184e-05
1.38156e-05
1.38109e-05
1.38134e-05
1.38169e-05
1.38194e-05
1.38218e-05
1.38217e-05
1.38222e-05
1.38179e-05
1.38193e-05
1.3816e-05
1.38164e-05
1.38191e-05
1.38175e-05
1.38131e-05
1.38137e-05
1.38163e-05
1.38206e-05
1.38169e-05
1.38188e-05
1.3815e-05
1.38172e-05
1.38145e-05
1.3817e-05
1.38187e-05
1.38203e-05
1.38208e-05
1.38215e-05
1.38209e-05
1.38215e-05
1.38197e-05
1.38141e-05
1.38161e-05
1.3814e-05
1.38153e-05
1.38185e-05
1.38172e-05
1.38131e-05
1.38158e-05
1.38146e-05
1.38398e-05
1.38406e-05
1.38418e-05
1.38445e-05
1.38454e-05
1.38461e-05
1.38451e-05
1.3842e-05
1.38402e-05
1.38422e-05
1.38411e-05
1.38423e-05
1.38417e-05
1.384e-05
1.38397e-05
1.38421e-05
1.38412e-05
1.38416e-05
1.38435e-05
1.38431e-05
1.38421e-05
1.38385e-05
1.38392e-05
1.3841e-05
1.38428e-05
1.38454e-05
1.38456e-05
1.38464e-05
1.38438e-05
1.38444e-05
1.38425e-05
1.38421e-05
1.38434e-05
1.38428e-05
1.38403e-05
1.38398e-05
1.38405e-05
1.38438e-05
1.38421e-05
1.38436e-05
1.38411e-05
1.38423e-05
1.38403e-05
1.38418e-05
1.3843e-05
1.38444e-05
1.38449e-05
1.38458e-05
1.38455e-05
1.38455e-05
1.38449e-05
1.38413e-05
1.38417e-05
1.38401e-05
1.38406e-05
1.38423e-05
1.38421e-05
1.38397e-05
1.38408e-05
1.384e-05
1.3783e-05
1.37835e-05
1.37838e-05
1.37853e-05
1.37865e-05
1.37873e-05
1.37869e-05
1.37857e-05
1.37835e-05
1.37842e-05
1.37837e-05
1.37844e-05
1.3784e-05
1.37834e-05
1.37826e-05
1.37838e-05
1.37836e-05
1.37838e-05
1.37848e-05
1.37847e-05
1.37847e-05
1.37827e-05
1.37825e-05
1.3783e-05
1.37841e-05
1.37862e-05
1.37866e-05
1.37877e-05
1.37862e-05
1.37866e-05
1.37855e-05
1.37848e-05
1.37852e-05
1.37851e-05
1.37839e-05
1.37832e-05
1.37827e-05
1.37848e-05
1.37842e-05
1.37854e-05
1.37839e-05
1.37846e-05
1.37832e-05
1.37841e-05
1.37847e-05
1.37858e-05
1.37863e-05
1.37872e-05
1.37871e-05
1.37869e-05
1.37867e-05
1.37849e-05
1.37846e-05
1.37832e-05
1.37834e-05
1.37839e-05
1.37841e-05
1.37829e-05
1.37832e-05
1.37826e-05
1.36807e-05
1.3681e-05
1.3681e-05
1.36817e-05
1.36826e-05
1.36835e-05
1.36834e-05
1.36831e-05
1.36817e-05
1.36816e-05
1.36811e-05
1.36815e-05
1.36811e-05
1.36811e-05
1.36805e-05
1.36808e-05
1.36808e-05
1.36809e-05
1.36814e-05
1.36814e-05
1.36818e-05
1.36809e-05
1.36804e-05
1.36805e-05
1.36809e-05
1.36822e-05
1.36827e-05
1.36838e-05
1.36831e-05
1.36834e-05
1.36829e-05
1.36824e-05
1.36823e-05
1.36822e-05
1.36817e-05
1.36813e-05
1.36803e-05
1.36814e-05
1.36812e-05
1.36822e-05
1.36813e-05
1.36818e-05
1.36808e-05
1.36813e-05
1.36816e-05
1.36823e-05
1.36828e-05
1.36835e-05
1.36837e-05
1.36834e-05
1.36834e-05
1.36826e-05
1.36822e-05
1.3681e-05
1.36811e-05
1.36809e-05
1.36811e-05
1.36805e-05
1.36805e-05
1.36801e-05
1.35516e-05
1.35519e-05
1.35517e-05
1.3552e-05
1.35525e-05
1.35532e-05
1.35532e-05
1.35535e-05
1.35528e-05
1.35525e-05
1.35519e-05
1.35521e-05
1.35518e-05
1.35519e-05
1.35516e-05
1.35515e-05
1.35515e-05
1.35515e-05
1.35517e-05
1.35517e-05
1.35522e-05
1.35519e-05
1.35515e-05
1.35514e-05
1.35515e-05
1.35522e-05
1.35526e-05
1.35535e-05
1.35533e-05
1.35536e-05
1.35533e-05
1.35531e-05
1.35528e-05
1.35528e-05
1.35525e-05
1.35524e-05
1.35514e-05
1.35519e-05
1.35517e-05
1.35525e-05
1.3552e-05
1.35524e-05
1.35518e-05
1.3552e-05
1.35521e-05
1.35525e-05
1.35529e-05
1.35533e-05
1.35537e-05
1.35534e-05
1.35535e-05
1.35532e-05
1.3553e-05
1.35521e-05
1.35521e-05
1.35517e-05
1.35517e-05
1.35515e-05
1.35514e-05
1.3551e-05
1.34052e-05
1.34053e-05
1.34051e-05
1.34052e-05
1.34054e-05
1.34059e-05
1.3406e-05
1.34064e-05
1.34061e-05
1.34059e-05
1.34053e-05
1.34055e-05
1.34052e-05
1.34053e-05
1.34052e-05
1.34049e-05
1.34049e-05
1.34049e-05
1.34049e-05
1.34049e-05
1.34053e-05
1.34052e-05
1.34051e-05
1.34049e-05
1.3405e-05
1.34052e-05
1.34055e-05
1.34061e-05
1.34061e-05
1.34064e-05
1.34063e-05
1.34063e-05
1.34061e-05
1.3406e-05
1.34059e-05
1.34058e-05
1.34052e-05
1.34053e-05
1.34051e-05
1.34056e-05
1.34053e-05
1.34057e-05
1.34052e-05
1.34054e-05
1.34055e-05
1.34056e-05
1.34059e-05
1.34061e-05
1.34065e-05
1.34063e-05
1.34064e-05
1.34063e-05
1.34063e-05
1.34056e-05
1.34056e-05
1.34053e-05
1.34052e-05
1.34049e-05
1.34048e-05
1.34045e-05
1.32461e-05
1.32462e-05
1.3246e-05
1.3246e-05
1.3246e-05
1.32463e-05
1.32463e-05
1.32467e-05
1.32466e-05
1.32465e-05
1.32461e-05
1.32462e-05
1.32459e-05
1.32461e-05
1.3246e-05
1.32458e-05
1.32457e-05
1.32457e-05
1.32456e-05
1.32455e-05
1.32458e-05
1.32458e-05
1.32458e-05
1.32458e-05
1.32458e-05
1.32459e-05
1.3246e-05
1.32463e-05
1.32464e-05
1.32467e-05
1.32467e-05
1.32468e-05
1.32466e-05
1.32466e-05
1.32465e-05
1.32466e-05
1.32461e-05
1.32461e-05
1.32459e-05
1.32462e-05
1.3246e-05
1.32463e-05
1.3246e-05
1.32462e-05
1.32462e-05
1.32462e-05
1.32464e-05
1.32465e-05
1.32468e-05
1.32467e-05
1.32467e-05
1.32468e-05
1.32468e-05
1.32464e-05
1.32464e-05
1.32461e-05
1.3246e-05
1.32457e-05
1.32457e-05
1.32454e-05
1.30767e-05
1.30768e-05
1.30766e-05
1.30765e-05
1.30765e-05
1.30766e-05
1.30766e-05
1.30769e-05
1.30769e-05
1.30768e-05
1.30766e-05
1.30767e-05
1.30765e-05
1.30766e-05
1.30766e-05
1.30764e-05
1.30763e-05
1.30762e-05
1.30761e-05
1.3076e-05
1.30762e-05
1.30762e-05
1.30763e-05
1.30763e-05
1.30763e-05
1.30763e-05
1.30764e-05
1.30766e-05
1.30766e-05
1.30769e-05
1.30769e-05
1.3077e-05
1.30769e-05
1.30769e-05
1.30769e-05
1.3077e-05
1.30767e-05
1.30767e-05
1.30765e-05
1.30767e-05
1.30766e-05
1.30767e-05
1.30766e-05
1.30767e-05
1.30767e-05
1.30767e-05
1.30768e-05
1.30769e-05
1.3077e-05
1.3077e-05
1.30769e-05
1.3077e-05
1.30771e-05
1.30769e-05
1.30769e-05
1.30767e-05
1.30765e-05
1.30763e-05
1.30763e-05
1.3076e-05
1.28984e-05
1.28984e-05
1.28983e-05
1.28982e-05
1.28981e-05
1.28981e-05
1.28981e-05
1.28983e-05
1.28983e-05
1.28982e-05
1.28981e-05
1.28982e-05
1.28981e-05
1.28981e-05
1.28981e-05
1.2898e-05
1.28979e-05
1.28978e-05
1.28978e-05
1.28976e-05
1.28977e-05
1.28978e-05
1.28978e-05
1.28978e-05
1.28979e-05
1.28979e-05
1.28979e-05
1.2898e-05
1.2898e-05
1.28982e-05
1.28982e-05
1.28984e-05
1.28983e-05
1.28984e-05
1.28984e-05
1.28985e-05
1.28983e-05
1.28982e-05
1.28981e-05
1.28982e-05
1.28981e-05
1.28983e-05
1.28982e-05
1.28982e-05
1.28982e-05
1.28982e-05
1.28983e-05
1.28983e-05
1.28984e-05
1.28984e-05
1.28983e-05
1.28984e-05
1.28985e-05
1.28983e-05
1.28984e-05
1.28983e-05
1.28981e-05
1.2898e-05
1.28979e-05
1.28977e-05
1.27119e-05
1.27119e-05
1.27117e-05
1.27116e-05
1.27115e-05
1.27115e-05
1.27114e-05
1.27116e-05
1.27116e-05
1.27115e-05
1.27114e-05
1.27115e-05
1.27114e-05
1.27114e-05
1.27115e-05
1.27114e-05
1.27113e-05
1.27112e-05
1.27112e-05
1.2711e-05
1.27111e-05
1.27111e-05
1.27112e-05
1.27112e-05
1.27112e-05
1.27112e-05
1.27112e-05
1.27113e-05
1.27113e-05
1.27115e-05
1.27115e-05
1.27116e-05
1.27116e-05
1.27116e-05
1.27116e-05
1.27117e-05
1.27116e-05
1.27116e-05
1.27115e-05
1.27116e-05
1.27115e-05
1.27116e-05
1.27115e-05
1.27116e-05
1.27116e-05
1.27116e-05
1.27117e-05
1.27117e-05
1.27117e-05
1.27117e-05
1.27116e-05
1.27116e-05
1.27117e-05
1.27116e-05
1.27117e-05
1.27116e-05
1.27115e-05
1.27114e-05
1.27113e-05
1.27112e-05
1.25175e-05
1.25175e-05
1.25174e-05
1.25173e-05
1.25171e-05
1.25171e-05
1.2517e-05
1.25171e-05
1.25171e-05
1.25171e-05
1.2517e-05
1.2517e-05
1.2517e-05
1.2517e-05
1.2517e-05
1.2517e-05
1.25169e-05
1.25168e-05
1.25168e-05
1.25166e-05
1.25167e-05
1.25167e-05
1.25168e-05
1.25168e-05
1.25168e-05
1.25168e-05
1.25168e-05
1.25169e-05
1.25169e-05
1.2517e-05
1.2517e-05
1.25171e-05
1.25171e-05
1.25171e-05
1.25171e-05
1.25172e-05
1.25171e-05
1.25171e-05
1.2517e-05
1.25171e-05
1.25171e-05
1.25172e-05
1.25171e-05
1.25172e-05
1.25172e-05
1.25172e-05
1.25172e-05
1.25172e-05
1.25172e-05
1.25172e-05
1.25171e-05
1.25172e-05
1.25173e-05
1.25172e-05
1.25172e-05
1.25172e-05
1.25171e-05
1.2517e-05
1.2517e-05
1.25169e-05
1.23157e-05
1.23157e-05
1.23156e-05
1.23155e-05
1.23153e-05
1.23153e-05
1.23152e-05
1.23152e-05
1.23152e-05
1.23152e-05
1.23151e-05
1.23152e-05
1.23151e-05
1.23151e-05
1.23152e-05
1.23151e-05
1.23151e-05
1.2315e-05
1.23149e-05
1.23148e-05
1.23149e-05
1.23149e-05
1.23149e-05
1.23149e-05
1.23149e-05
1.23149e-05
1.23149e-05
1.2315e-05
1.2315e-05
1.23151e-05
1.23151e-05
1.23152e-05
1.23151e-05
1.23151e-05
1.23152e-05
1.23152e-05
1.23152e-05
1.23152e-05
1.23151e-05
1.23152e-05
1.23152e-05
1.23153e-05
1.23152e-05
1.23153e-05
1.23153e-05