/*--------------------------------*- C++ -*----------------------------------*\
| =========                 |                                                 |
| \\      /  F ield         | OpenFOAM: The Open Source CFD Toolbox           |
|  \\    /   O peration     | Version:  2312                                  |
|   \\  /    A nd           | Website:  www.openfoam.com                      |
|    \\/     M anipulation  |                                                 |
\*---------------------------------------------------------------------------*/
FoamFile
{
    version     2.0;
    format      ascii;
    arch        "LSB;label=32;scalar=64";
    class       volScalarField;
    location    "700";
    object      p;
}
// * * * * * * * * * * * * * * * * * * * * * * * * * * * * * * * * * * * * * //

dimensions      [0 2 -2 0 0 0 0];

internalField   nonuniform List<scalar> 
144000
(
3.54403e-09
-1.32725e-08
-1.00964e-07
-1.33313e-07
4.31504e-08
-1.37653e-08
-4.20673e-08
1.40058e-07
1.66779e-07
4.32287e-08
-4.74354e-09
-1.13717e-09
-6.33406e-08
-1.0053e-07
-1.88989e-08
1.33595e-07
5.76595e-08
-6.99842e-08
-1.3802e-07
9.74136e-09
2.3913e-07
1.1534e-07
-7.60129e-08
4.85426e-08
4.37316e-08
-1.19979e-07
4.47251e-08
-6.50108e-09
-1.23969e-07
7.51933e-08
8.20034e-08
8.28775e-08
1.51028e-08
1.18479e-08
1.86673e-07
2.0213e-07
1.76568e-08
3.84196e-08
1.19015e-07
-7.67512e-08
9.04426e-08
1.4012e-07
2.93407e-09
-3.69868e-08
1.03366e-08
1.98137e-07
1.04623e-07
-6.0247e-08
-5.5582e-08
-9.71269e-08
-1.27899e-07
1.03837e-07
7.39764e-08
-1.62447e-07
-2.90761e-08
1.38781e-07
5.80844e-08
-2.5745e-08
-2.62063e-08
-1.68405e-08
3.61267e-09
-1.28269e-08
-9.97994e-08
-1.2164e-07
4.176e-08
-1.30627e-08
-3.07588e-08
1.38282e-07
1.53705e-07
3.20524e-08
-3.42097e-09
-6.37696e-10
-6.25343e-08
-8.72084e-08
-8.88568e-09
1.19227e-07
4.62307e-08
-6.7865e-08
-1.24901e-07
1.90493e-08
2.24206e-07
1.0549e-07
-6.18155e-08
4.70081e-08
3.27492e-08
-1.06378e-07
4.31181e-08
-1.77859e-08
-1.11198e-07
7.41585e-08
8.18253e-08
8.27486e-08
1.57475e-08
2.34634e-08
1.8477e-07
1.9015e-07
1.91968e-08
3.71899e-08
1.08098e-07
-6.33005e-08
8.87886e-08
1.2816e-07
4.57638e-09
-2.33017e-08
2.02471e-08
1.83776e-07
9.36522e-08
-5.8946e-08
-5.51002e-08
-9.59342e-08
-1.16132e-07
1.017e-07
6.29476e-08
-1.48184e-07
-1.91153e-08
1.24123e-07
4.66712e-08
-2.46687e-08
-2.56952e-08
-1.69358e-08
3.41423e-09
-1.23619e-08
-9.76901e-08
-1.17672e-07
3.96229e-08
-1.17179e-08
-2.71018e-08
1.35068e-07
1.47907e-07
2.90953e-08
-1.38909e-09
5.69367e-11
-6.11659e-08
-8.09342e-08
-7.28807e-09
1.11438e-07
4.27949e-08
-6.40687e-08
-1.18579e-07
1.96538e-08
2.1561e-07
1.03937e-07
-5.52159e-08
4.41557e-08
3.00981e-08
-1.00437e-07
4.04672e-08
-2.06934e-08
-1.05841e-07
7.26225e-08
8.13085e-08
8.26348e-08
1.70501e-08
2.73752e-08
1.81354e-07
1.85656e-07
2.15746e-08
3.54342e-08
1.05401e-07
-5.72564e-08
8.58308e-08
1.23802e-07
7.55576e-09
-1.66911e-08
2.16963e-08
1.75879e-07
9.0617e-08
-5.68449e-08
-5.44308e-08
-9.35816e-08
-1.12268e-07
9.79984e-08
6.01033e-08
-1.40862e-07
-1.73927e-08
1.16471e-07
4.31918e-08
-2.29647e-08
-2.48378e-08
-1.70206e-08
3.05534e-09
-1.21677e-08
-9.48174e-08
-1.14572e-07
3.68219e-08
-9.83867e-09
-2.46522e-08
1.30165e-07
1.42815e-07
2.81114e-08
9.32056e-10
8.73018e-10
-5.91921e-08
-7.56422e-08
-7.75756e-09
1.03648e-07
4.08979e-08
-5.93698e-08
-1.12348e-07
1.83212e-08
2.0659e-07
1.04089e-07
-4.9084e-08
4.05606e-08
2.90911e-08
-9.50806e-08
3.68383e-08
-2.15063e-08
-1.0104e-07
7.05351e-08
8.0644e-08
8.24752e-08
1.933e-08
3.00677e-08
1.76535e-07
1.81876e-07
2.44376e-08
3.35771e-08
1.04054e-07
-5.14146e-08
8.18609e-08
1.20517e-07
1.13325e-08
-1.07949e-08
2.132e-08
1.67682e-07
8.90641e-08
-5.40671e-08
-5.38506e-08
-9.03532e-08
-1.09197e-07
9.27878e-08
5.84638e-08
-1.33461e-07
-1.77917e-08
1.09052e-07
4.13041e-08
-2.09434e-08
-2.38469e-08
-1.69242e-08
2.61777e-09
-1.22098e-08
-9.12166e-08
-1.10963e-07
3.36696e-08
-7.58628e-09
-2.21223e-08
1.24145e-07
1.372e-07
2.74837e-08
3.40195e-09
1.91413e-09
-5.66397e-08
-6.99124e-08
-8.73303e-09
9.48645e-08
3.9015e-08
-5.4029e-08
-1.04959e-07
1.67212e-08
1.96232e-07
1.04257e-07
-4.23243e-08
3.64074e-08
2.82236e-08
-8.91506e-08
3.24648e-08
-2.16354e-08
-9.56619e-08
6.79897e-08
7.98699e-08
8.22507e-08
2.25159e-08
3.27974e-08
1.70436e-07
1.77405e-07
2.79703e-08
3.16605e-08
1.02629e-07
-4.46399e-08
7.71057e-08
1.1687e-07
1.55848e-08
-4.35086e-09
2.07493e-08
1.58168e-07
8.747e-08
-5.06993e-08
-5.33117e-08
-8.63289e-08
-1.05526e-07
8.60948e-08
5.68754e-08
-1.24601e-07
-1.87771e-08
1.00562e-07
3.94688e-08
-1.87435e-08
-2.27495e-08
-1.66155e-08
2.14664e-09
-1.23962e-08
-8.70074e-08
-1.06926e-07
3.00736e-08
-5.13329e-09
-1.95869e-08
1.17406e-07
1.31245e-07
2.70021e-08
5.81713e-09
3.23081e-09
-5.36142e-08
-6.40016e-08
-9.96256e-09
8.54853e-08
3.7074e-08
-4.83197e-08
-9.6759e-08
1.51142e-08
1.85049e-07
1.04285e-07
-3.52033e-08
3.19483e-08
2.73827e-08
-8.28556e-08
2.77124e-08
-2.11801e-08
-8.99114e-08
6.51261e-08
7.90007e-08
8.19802e-08
2.60171e-08
3.5481e-08
1.63576e-07
1.72288e-07
3.21618e-08
2.97415e-08
1.01071e-07
-3.71521e-08
7.18881e-08
1.12901e-07
1.99221e-08
2.4632e-09
2.02285e-08
1.4772e-07
8.57298e-08
-4.6908e-08
-5.2762e-08
-8.16795e-08
-1.01334e-07
7.84933e-08
5.52821e-08
-1.15e-07
-2.01107e-08
9.13388e-08
3.75513e-08
-1.65092e-08
-2.15344e-08
-1.6126e-08
1.66545e-09
-1.26462e-08
-8.23803e-08
-1.02642e-07
2.61471e-08
-2.60825e-09
-1.71588e-08
1.10223e-07
1.25189e-07
2.66442e-08
7.96491e-09
4.77904e-09
-5.0266e-08
-5.8129e-08
-1.13411e-08
7.5986e-08
3.5077e-08
-4.25262e-08
-8.81806e-08
1.36254e-08
1.73494e-07
1.03966e-07
-2.8047e-08
2.7458e-08
2.65489e-08
-7.64664e-08
2.28891e-08
-2.01746e-08
-8.39946e-08
6.20488e-08
7.80328e-08
8.16844e-08
2.97097e-08
3.80193e-08
1.56333e-07
1.66685e-07
3.67924e-08
2.79443e-08
9.93878e-08
-2.91639e-08
6.65025e-08
1.08828e-07
2.41835e-08
9.3312e-09
1.98839e-08
1.36835e-07
8.38587e-08
-4.28431e-08
-5.21849e-08
-7.66636e-08
-9.67932e-08
7.04478e-08
5.36928e-08
-1.0523e-07
-2.16227e-08
8.21523e-08
3.55699e-08
-1.43554e-08
-2.02485e-08
-1.55315e-08
1.17768e-09
-1.29012e-08
-7.75207e-08
-9.82024e-08
2.20829e-08
-1.3842e-10
-1.48314e-08
1.02801e-07
1.19104e-07
2.63997e-08
9.72483e-09
6.46702e-09
-4.67415e-08
-5.255e-08
-1.26784e-08
6.66855e-08
3.29827e-08
-3.68534e-08
-7.95059e-08
1.23559e-08
1.61898e-07
1.03221e-07
-2.10332e-08
2.31492e-08
2.56561e-08
-7.0111e-08
1.82006e-08
-1.87282e-08
-7.79767e-08
5.88314e-08
7.69438e-08
8.13644e-08
3.35372e-08
4.04511e-08
1.48945e-07
1.607e-07
4.16272e-08
2.63909e-08
9.75243e-08
-2.07814e-08
6.12083e-08
1.0471e-07
2.82015e-08
1.60285e-08
1.98407e-08
1.25881e-07
8.18181e-08
-3.85914e-08
-5.15532e-08
-7.15308e-08
-9.20056e-08
6.22036e-08
5.20404e-08
-9.55735e-08
-2.31919e-08
7.3262e-08
3.35182e-08
-1.23384e-08
-1.8945e-08
-1.49166e-08
6.74863e-10
-1.31244e-08
-7.25726e-08
-9.36647e-08
1.80252e-08
2.20807e-09
-1.25721e-08
9.52856e-08
1.1301e-07
2.62716e-08
1.10685e-08
8.21237e-09
-4.3137e-08
-4.73268e-08
-1.38327e-08
5.78137e-08
3.09208e-08
-3.14274e-08
-7.09156e-08
1.13476e-08
1.50522e-07
1.02046e-07
-1.4306e-08
1.91545e-08
2.46627e-08
-6.3834e-08
1.37676e-08
-1.69613e-08
-7.19003e-08
5.55402e-08
7.57103e-08
8.09964e-08
3.74348e-08
4.28607e-08
1.41546e-07
1.54439e-07
4.64695e-08
2.51316e-08
9.54089e-08
-1.22561e-08
5.61802e-08
1.00575e-07
3.18402e-08
2.22103e-08
2.01651e-08
1.15136e-07
7.95755e-08
-3.42048e-08
-5.08187e-08
-6.64646e-08
-8.70532e-08
5.39944e-08
5.02551e-08
-8.61951e-08
-2.45905e-08
6.47253e-08
3.14098e-08
-1.04741e-08
-1.76526e-08
-1.4334e-08
1.51005e-10
-1.32938e-08
-6.76424e-08
-8.90827e-08
1.40654e-08
4.37553e-09
-1.03627e-08
8.77979e-08
1.06968e-07
2.62615e-08
1.20225e-08
9.95403e-09
-3.9504e-08
-4.24877e-08
-1.47305e-08
4.9518e-08
2.89116e-08
-2.63294e-08
-6.25511e-08
1.06083e-08
1.39544e-07
1.00453e-07
-7.93265e-09
1.55528e-08
2.35856e-08
-5.76781e-08
9.66341e-09
-1.49888e-08
-6.58373e-08
5.22504e-08
7.43241e-08
8.05453e-08
4.13163e-08
4.517e-08
1.34283e-07
1.48016e-07
5.11626e-08
2.4224e-08
9.30199e-08
-4.21967e-09
5.15453e-08
9.64659e-08
3.50275e-08
2.77616e-08
2.08647e-08
1.04804e-07
7.71188e-08
-2.97347e-08
-4.99288e-08
-6.15845e-08
-8.20109e-08
4.59953e-08
4.82832e-08
-7.72123e-08
-2.57525e-08
5.64759e-08
2.92904e-08
-8.76373e-09
-1.63818e-08
-1.37971e-08
-3.92035e-10
-1.33952e-08
-6.2809e-08
-8.4502e-08
1.02646e-08
6.31492e-09
-8.1982e-09
8.04571e-08
1.01045e-07
2.63581e-08
1.26397e-08
1.16376e-08
-3.58696e-08
-3.80466e-08
-1.5339e-08
4.18756e-08
2.69368e-08
-2.16131e-08
-5.4537e-08
1.01353e-08
1.29081e-07
9.84615e-08
-1.96548e-09
1.24075e-08
2.24582e-08
-5.17017e-08
5.94163e-09
-1.2917e-08
-5.98522e-08
4.90427e-08
7.27949e-08
7.99804e-08
4.50789e-08
4.73298e-08
1.27351e-07
1.4153e-07
5.55863e-08
2.37641e-08
9.03731e-08
3.74492e-09
4.74274e-08
9.24306e-08
3.77484e-08
3.26166e-08
2.19093e-08
9.50601e-08
7.44433e-08
-2.52427e-08
-4.88364e-08
-5.69705e-08
-7.69454e-08
3.83436e-08
4.60899e-08
-6.87128e-08
-2.66624e-08
4.91136e-08
2.72016e-08
-7.20298e-09
-1.51358e-08
-1.32981e-08
-9.46248e-10
-1.34182e-08
-5.81289e-08
-7.99577e-08
6.66655e-09
7.98547e-09
-6.08004e-09
7.33762e-08
9.52697e-08
2.65334e-08
1.2966e-08
1.3211e-08
-3.22522e-08
-3.39997e-08
-1.56506e-08
3.49219e-08
2.49828e-08
-1.73082e-08
-4.69503e-08
9.92135e-09
1.19207e-07
9.61019e-08
3.55927e-09
9.76197e-09
2.12854e-08
-4.59629e-08
2.65716e-09
-1.08327e-08
-5.39826e-08
4.59805e-08
7.11497e-08
7.92823e-08
4.86319e-08
4.93475e-08
1.20847e-07
1.3506e-07
5.96477e-08
2.37896e-08
8.74901e-08
1.13916e-08
4.39206e-08
8.85106e-08
4.00159e-08
3.67478e-08
2.32494e-08
8.6012e-08
7.15478e-08
-2.07982e-08
-4.7504e-08
-5.26775e-08
-7.19169e-08
3.11564e-08
4.36623e-08
-6.07616e-08
-2.73118e-08
4.19852e-08
2.51528e-08
-5.78638e-09
-1.39166e-08
-1.28265e-08
-1.49984e-09
-1.33561e-08
-5.36401e-08
-7.54754e-08
3.30523e-09
9.35828e-09
-4.01424e-09
6.66425e-08
8.97339e-08
2.67583e-08
1.30442e-08
1.46258e-08
-2.86693e-08
-3.03262e-08
-1.56748e-08
2.86696e-08
2.30471e-08
-1.34309e-08
-3.98388e-08
9.95116e-09
1.09972e-07
9.34164e-08
8.61887e-09
7.63385e-09
2.00654e-08
-4.04913e-08
-1.34603e-10
-8.79817e-09
-4.82563e-08
4.30843e-08
6.94277e-08
7.84443e-08
5.19146e-08
5.12274e-08
1.14819e-07
1.28672e-07
6.32806e-08
2.42835e-08
8.44068e-08
1.85989e-08
4.10789e-08
8.47395e-08
4.18549e-08
4.01585e-08
2.48207e-08
7.77279e-08
6.84421e-08
-1.64721e-08
-4.59066e-08
-4.87369e-08
-6.69791e-08
2.45211e-08
4.10083e-08
-5.34034e-08
-2.76869e-08
3.55755e-08
2.313e-08
-4.54064e-09
-1.27304e-08
-1.23763e-08
-2.04026e-09
-1.32086e-08
-4.93669e-08
-7.10713e-08
2.0893e-10
1.04197e-08
-2.01359e-09
6.03061e-08
8.40768e-08
2.70128e-08
1.29308e-08
1.58373e-08
-2.51424e-08
-2.69929e-08
-1.54284e-08
2.31153e-08
2.11322e-08
-9.98623e-09
-3.32314e-08
1.01988e-08
1.014e-07
9.04586e-08
1.32018e-08
6.01896e-09
1.88041e-08
-3.52982e-08
-2.43494e-09
-6.85224e-09
-4.26975e-08
4.03824e-08
6.76708e-08
7.74707e-08
5.48864e-08
5.2964e-08
1.09282e-07
1.22428e-07
6.64577e-08
2.52143e-08
8.11761e-08
2.52817e-08
3.8913e-08
8.1141e-08
4.33178e-08
4.28762e-08
2.65476e-08
7.02492e-08
6.5151e-08
-1.23312e-08
-4.40364e-08
-4.51589e-08
-6.21769e-08
1.84943e-08
3.81547e-08
-4.66659e-08
-2.77876e-08
2.93754e-08
2.11147e-08
-3.48632e-09
-1.15921e-08
-1.19501e-08
-2.55984e-09
-1.29861e-08
-4.53295e-08
-6.6754e-08
-2.59822e-09
1.11752e-08
-9.73545e-11
5.43994e-08
7.85328e-08
2.72803e-08
1.26784e-08
1.68103e-08
-2.16963e-08
-2.39749e-08
-1.49227e-08
1.82399e-08
1.92442e-08
-6.97596e-09
-2.71394e-08
1.06287e-08
9.3491e-08
8.72876e-08
1.73042e-08
4.8964e-09
1.75181e-08
-3.04226e-08
-4.25828e-09
-5.015e-09
-3.73258e-08
3.79092e-08
6.59139e-08
7.63711e-08
5.75243e-08
5.45565e-08
1.04228e-07
1.1638e-07
6.8756e-08
2.64299e-08
7.78618e-08
3.13755e-08
3.7399e-08
7.77188e-08
4.44778e-08
4.49637e-08
2.83486e-08
6.35904e-08
6.17123e-08
-8.43564e-09
-4.19054e-08
-4.19413e-08
-5.75444e-08
1.31071e-08
3.5143e-08
-4.05641e-08
-2.76208e-08
2.38738e-08
1.91255e-08
-2.63846e-09
-1.05256e-08
-1.15587e-08
-3.05855e-09
-1.27099e-08
-4.15422e-08
-6.25279e-08
-5.09724e-09
1.16439e-08
1.71155e-09
4.89479e-08
7.31134e-08
2.75376e-08
1.23342e-08
1.75289e-08
-1.83582e-08
-2.11957e-08
-1.41702e-08
1.40164e-08
1.73941e-08
-4.36852e-09
-2.15588e-08
1.12014e-08
8.62423e-08
8.39628e-08
2.0929e-08
4.23335e-09
1.62326e-08
-2.58737e-08
-5.62356e-09
-3.29752e-09
-3.21573e-08
3.56904e-08
6.41839e-08
7.51593e-08
5.98177e-08
5.60153e-08
9.96371e-08
1.10584e-07
7.06624e-08
2.80695e-08
7.45313e-08
3.68326e-08
3.6491e-08
7.44918e-08
4.53965e-08
4.64855e-08
3.01467e-08
5.7714e-08
5.81734e-08
-4.83743e-09
-3.95419e-08
-3.90553e-08
-5.31067e-08
8.36898e-09
3.20287e-08
-3.51e-08
-2.72051e-08
1.89086e-08
1.71709e-08
-1.96787e-09
-9.55269e-09
-1.11965e-08
-3.53132e-09
-1.24091e-08
-3.80217e-08
-5.83964e-08
-7.27721e-09
1.18485e-08
3.39236e-09
4.39703e-08
6.78362e-08
2.77567e-08
1.19439e-08
1.79888e-08
-1.51597e-08
-1.86381e-08
-1.32044e-08
1.04167e-08
1.55989e-08
-2.13812e-09
-1.64901e-08
1.18788e-08
7.9638e-08
8.05401e-08
2.40858e-08
3.98876e-09
1.49779e-08
-2.16616e-08
-6.55551e-09
-1.70772e-09
-2.72057e-08
3.3742e-08
6.25023e-08
7.3852e-08
6.17624e-08
5.73233e-08
9.54848e-08
1.05087e-07
7.20266e-08
2.99533e-08
7.12474e-08
4.16232e-08
3.61281e-08
7.14768e-08
4.61161e-08
4.75101e-08
3.18756e-08
5.26785e-08
5.45911e-08
-1.57797e-09
-3.69859e-08
-3.64674e-08
-4.88821e-08
4.27139e-09
2.88766e-08
-3.02464e-08
-2.65722e-08
1.44705e-08
1.52576e-08
-1.47132e-09
-8.68531e-09
-1.08278e-08
-3.96994e-09
-1.211e-08
-3.47657e-08
-5.43665e-08
-9.13803e-09
1.18106e-08
4.92958e-09
3.94786e-08
6.27126e-08
2.79045e-08
1.15496e-08
1.81921e-08
-1.21326e-08
-1.62775e-08
-1.21898e-08
7.41235e-09
1.38793e-08
-2.48819e-10
-1.19308e-08
1.26259e-08
7.36521e-08
7.70716e-08
2.67902e-08
4.11609e-09
1.37852e-08
-1.77901e-08
-7.08719e-09
-2.53026e-10
-2.24823e-08
3.20724e-08
6.08865e-08
7.24683e-08
6.336e-08
5.84702e-08
9.17388e-08
9.99272e-08
7.28742e-08
3.20129e-08
6.80658e-08
4.57354e-08
3.62375e-08
6.86742e-08
4.66816e-08
4.81115e-08
3.34803e-08
4.83336e-08
5.10284e-08
1.32702e-09
-3.42834e-08
-3.41313e-08
-4.48851e-08
7.90425e-10
2.57516e-08
-2.5961e-08
-2.5762e-08
1.05315e-08
1.33911e-08
-1.14456e-09
-7.9255e-09
-1.04496e-08
-4.38189e-09
-1.18313e-08
-3.17675e-08
-5.04488e-08
-1.06883e-08
1.15527e-08
6.31057e-09
3.54753e-08
5.77831e-08
2.79464e-08
1.11858e-08
1.81557e-08
-9.30441e-09
-1.409e-08
-1.10103e-08
4.97128e-09
1.22562e-08
1.33212e-09
-7.87131e-09
1.34109e-08
6.82508e-08
7.36044e-08
2.90642e-08
4.56525e-09
1.26807e-08
-1.42557e-08
-7.25581e-09
1.06914e-09
-1.79969e-08
3.06827e-08
5.93497e-08
7.10291e-08
6.46184e-08
5.95746e-08
8.83573e-08
9.51377e-08
7.32467e-08
3.41835e-08
6.50317e-08
4.91724e-08
3.67401e-08
6.60821e-08
4.7132e-08
4.83647e-08
3.49209e-08
4.47112e-08
4.75472e-08
3.86611e-09
-3.14805e-08
-3.19958e-08
-4.11271e-08
-2.11081e-09
2.27088e-08
-2.22196e-08
-2.48133e-08
7.05482e-09
1.15781e-08
-9.74474e-10
-7.26887e-09
-1.00409e-08
-4.76507e-09
-1.1584e-08
-2.90208e-08
-4.66559e-08
-1.19407e-08
1.11063e-08
7.52397e-09
3.19459e-08
5.30828e-08
2.78586e-08
1.08767e-08
1.79016e-08
-6.69778e-09
-1.20579e-08
-9.72548e-09
3.05663e-09
1.07479e-08
2.63568e-09
-4.29363e-09
1.42043e-08
6.33946e-08
7.01801e-08
3.09348e-08
5.28621e-09
1.16875e-08
-1.10502e-08
-7.09947e-09
2.27246e-09
-1.37583e-08
2.95657e-08
5.7901e-08
6.9556e-08
6.55471e-08
6.04957e-08
8.53087e-08
9.07373e-08
7.31912e-08
3.6418e-08
6.21849e-08
5.19522e-08
3.75578e-08
6.37083e-08
4.74957e-08
4.83413e-08
3.61627e-08
4.16965e-08
4.42015e-08
6.03306e-09
-2.86221e-08
-3.00142e-08
-3.76145e-08
-4.48087e-09
1.97877e-08
-1.89827e-08
-2.37563e-08
3.99878e-09
9.82487e-09
-9.41675e-10
-6.70994e-09
-9.59498e-09
-5.11389e-09
-1.13731e-08
-2.65192e-08
-4.30005e-08
-1.29098e-08
1.05066e-08
8.56058e-09
2.88654e-08
4.86384e-08
2.76318e-08
1.06355e-08
1.74556e-08
-4.32967e-09
-1.01679e-08
-8.36893e-09
1.62811e-09
9.3698e-09
3.69376e-09
-1.1718e-09
1.49799e-08
5.90385e-08
6.6834e-08
3.2432e-08
6.23037e-09
1.08273e-08
-8.1601e-09
-6.65629e-09
3.33692e-09
-9.77442e-09
2.87061e-08
5.65467e-08
6.80736e-08
6.6163e-08
6.125e-08
8.25607e-08
8.6733e-08
7.27569e-08
3.86148e-08
5.95591e-08
5.4106e-08
3.86169e-08
6.15561e-08
4.77914e-08
4.81081e-08
3.71932e-08
3.92357e-08
4.1037e-08
7.83626e-09
-2.57523e-08
-2.81468e-08
-3.43481e-08
-6.37664e-09
1.70046e-08
-1.61995e-08
-2.2612e-08
1.32111e-09
8.13275e-09
-1.02402e-09
-6.24572e-09
-9.11528e-09
-5.4223e-09
-1.11973e-08
-2.42544e-08
-3.94942e-08
-1.36136e-08
9.78859e-09
9.41709e-09
2.62049e-08
4.43171e-08
2.72614e-08
1.04653e-08
1.6849e-08
-2.20987e-09
-8.41033e-09
-6.97216e-09
6.42104e-10
8.13813e-09
4.53909e-09
1.52837e-09
1.57186e-08
5.51317e-08
6.35946e-08
3.35889e-08
7.34072e-09
1.01152e-08
-5.56779e-09
-5.96345e-09
4.31609e-09
-6.05026e-09
2.80797e-08
5.52871e-08
6.661e-08
6.6492e-08
6.18454e-08
8.00778e-08
8.31221e-08
7.20004e-08
4.07401e-08
5.71769e-08
5.56735e-08
3.98462e-08
5.96204e-08
4.80281e-08
4.77282e-08
3.80095e-08
3.72575e-08
3.80916e-08
9.3058e-09
-2.29129e-08
-2.63619e-08
-3.13249e-08
-7.857e-09
1.43835e-08
-1.38184e-08
-2.14089e-08
-1.00997e-09
6.50343e-09
-1.20012e-09
-5.8768e-09
-8.61259e-09
-5.68114e-09
-1.10507e-08
-2.22158e-08
-3.61469e-08
-1.40729e-08
8.91118e-09
1.00963e-08
2.39356e-08
4.03022e-08
2.67469e-08
1.03629e-08
1.61173e-08
-3.38872e-10
-6.77934e-09
-5.56974e-09
4.74847e-11
7.07207e-09
5.2049e-09
3.84814e-09
1.64137e-08
5.16204e-08
6.04827e-08
3.44411e-08
8.57414e-09
9.55709e-09
-3.25169e-09
-5.05874e-09
5.22225e-09
-2.58619e-09
2.7655e-08
5.41081e-08
6.51956e-08
6.65675e-08
6.22891e-08
7.78248e-08
7.98863e-08
7.09834e-08
4.27492e-08
5.50496e-08
5.6704e-08
4.11762e-08
5.78896e-08
4.82037e-08
4.72577e-08
3.86174e-08
3.56886e-08
3.53925e-08
1.04674e-08
-2.01399e-08
-2.46355e-08
-2.85397e-08
-8.97931e-09
1.19422e-08
-1.17903e-08
-2.01759e-08
-3.02078e-09
4.94666e-09
-1.45025e-09
-5.60637e-09
-8.1065e-09
-5.88224e-09
-1.09253e-08
-2.03914e-08
-3.29654e-08
-1.43098e-08
8.08359e-09
1.06068e-08
2.20233e-08
3.66006e-08
2.60955e-08
1.03211e-08
1.52968e-08
1.28822e-09
-5.27251e-09
-4.19412e-09
-2.22934e-10
6.19227e-09
5.7243e-09
5.83027e-09
1.70575e-08
4.84524e-08
5.75134e-08
3.50268e-08
9.88889e-09
9.15427e-09
-1.18772e-09
-3.9805e-09
6.07005e-09
6.22739e-10
2.73989e-08
5.29957e-08
6.38553e-08
6.64287e-08
6.25892e-08
7.57677e-08
7.70026e-08
6.97659e-08
4.46056e-08
5.31827e-08
5.72614e-08
4.2539e-08
5.63488e-08
4.83239e-08
4.67418e-08
3.90311e-08
3.44598e-08
3.2954e-08
1.13515e-08
-1.74609e-08
-2.29508e-08
-2.59777e-08
-9.79771e-09
9.68347e-09
-1.00667e-08
-1.89326e-08
-4.73635e-09
3.46655e-09
-1.75278e-09
-5.43442e-09
-7.61999e-09
-6.02231e-09
-1.08131e-08
-1.87688e-08
-2.99531e-08
-1.4351e-08
7.17976e-09
1.09624e-08
2.04298e-08
3.3212e-08
2.53217e-08
1.03327e-08
1.44194e-08
2.68466e-09
-3.88954e-09
-2.88857e-09
-2.27277e-10
5.5129e-09
6.13202e-09
7.51262e-09
1.76391e-08
4.55807e-08
5.46961e-08
3.53846e-08
1.12504e-08
8.90307e-09
6.49053e-10
-2.76547e-09
6.87473e-09
3.58679e-09
2.72828e-08
5.19437e-08
6.26018e-08
6.61156e-08
6.27566e-08
7.38749e-08
7.44432e-08
6.8401e-08
4.62941e-08
5.15754e-08
5.7412e-08
4.38773e-08
5.49803e-08
4.83934e-08
4.62124e-08
3.92709e-08
3.35053e-08
3.07787e-08
1.19927e-08
-1.48963e-08
-2.12995e-08
-2.36251e-08
-1.03584e-08
7.61046e-09
-8.60075e-09
-1.76922e-08
-6.18386e-09
2.06081e-09
-2.04431e-09
-5.34434e-09
-7.17585e-09
1.60001e-07
6.38601e-08
-1.02181e-07
-7.35458e-08
-3.39197e-08
-1.16959e-07
-3.33392e-09
2.18857e-07
3.09749e-08
-1.41582e-07
4.35826e-08
-1.86688e-08
-5.15281e-08
1.6703e-07
2.30327e-08
-1.32855e-07
4.23545e-08
1.06155e-08
-1.59369e-07
9.17312e-09
1.99929e-07
2.0208e-07
5.98199e-08
-2.56428e-08
-3.36606e-08
-3.48925e-08
-9.95885e-09
-9.29619e-08
3.58768e-08
5.87166e-08
9.25906e-08
1.20591e-07
-7.40471e-08
7.81511e-08
2.43817e-07
1.02762e-07
-7.12867e-08
-5.3161e-08
1.09707e-07
6.84739e-08
1.00943e-07
6.4674e-08
4.39333e-08
1.27302e-07
2.4327e-08
3.05036e-08
1.49964e-08
-1.41379e-08
-6.16199e-08
-1.81383e-07
-4.37584e-08
1.83045e-07
-1.95937e-08
3.30454e-09
4.50582e-08
-1.50653e-07
-3.47926e-08
1.1784e-07
-4.92145e-08
-6.47717e-08
1.45889e-07
5.33058e-08
-1.00652e-07
-7.34942e-08
-3.29503e-08
-1.03867e-07
5.80694e-09
2.04055e-07
2.1186e-08
-1.28086e-07
4.27902e-08
-1.76006e-08
-4.09177e-08
1.52584e-07
1.28601e-08
-1.19262e-07
4.07525e-08
-3.53539e-10
-1.45506e-07
1.9311e-08
1.97699e-07
1.89203e-07
4.92599e-08
-2.43013e-08
-3.28868e-08
-3.4918e-08
-8.90944e-09
-8.08062e-08
3.44915e-08
5.85467e-08
9.11675e-08
1.09425e-07
-5.96209e-08
8.76501e-08
2.29591e-07
9.18832e-08
-6.90875e-08
-4.10889e-08
1.08941e-07
6.83247e-08
1.00683e-07
6.52403e-08
4.29141e-08
1.15497e-07
2.52989e-08
3.08882e-08
1.54338e-08
-1.38451e-08
-6.05175e-08
-1.68315e-07
-3.49841e-08
1.69303e-07
-1.86133e-08
2.23792e-09
3.39831e-08
-1.3636e-07
-2.49938e-08
1.04217e-07
-4.72165e-08
-5.4026e-08
1.38231e-07
5.07818e-08
-9.8161e-08
-7.33288e-08
-3.11625e-08
-9.76296e-08
6.31585e-09
1.95905e-07
1.98766e-08
-1.22258e-07
4.15301e-08
-1.57745e-08
-3.84211e-08
1.45276e-07
1.14092e-08
-1.13352e-07
3.79621e-08
-3.01852e-09
-1.37973e-07
2.16776e-08
1.93802e-07
1.83063e-07
4.66637e-08
-2.1989e-08
-3.18102e-08
-3.53054e-08
-6.99917e-09
-7.62663e-08
3.26171e-08
5.82351e-08
8.87991e-08
1.06606e-07
-5.20753e-08
8.87894e-08
2.21672e-07
8.90068e-08
-6.52609e-08
-3.67837e-08
1.07665e-07
6.76665e-08
1.00353e-07
6.59792e-08
4.11074e-08
1.11318e-07
2.68357e-08
3.12922e-08
1.58571e-08
-1.36498e-08
-5.83896e-08
-1.62126e-07
-3.4899e-08
1.63012e-07
-1.71067e-08
6.1772e-10
3.13341e-08
-1.28784e-07
-2.37129e-08
9.78568e-08
-4.38355e-08
-5.12758e-08
1.30271e-07
4.9731e-08
-9.48243e-08
-7.30396e-08
-2.91921e-08
-9.17223e-08
4.85341e-09
1.87302e-07
2.07524e-08
-1.16907e-07
3.95011e-08
-1.33277e-08
-3.74198e-08
1.37825e-07
1.21808e-08
-1.07796e-07
3.41739e-08
-3.95587e-09
-1.30283e-07
2.24246e-08
1.88617e-07
1.77326e-07
4.57482e-08
-1.93513e-08
-3.04985e-08
-3.53099e-08
-4.76897e-09
-7.26219e-08
3.04368e-08
5.80202e-08
8.59679e-08
1.05172e-07
-4.45244e-08
8.77508e-08
2.13659e-07
8.77503e-08
-6.00629e-08
-3.35988e-08
1.05848e-07
6.69689e-08
9.95854e-08
6.67498e-08
3.91928e-08
1.07996e-07
2.88506e-08
3.16158e-08
1.62134e-08
-1.36199e-08
-5.58339e-08
-1.56048e-07
-3.70119e-08
1.56815e-07
-1.49367e-08
-1.45431e-09
3.01494e-08
-1.21099e-07
-2.44527e-08
9.17496e-08
-3.96121e-08
-4.98379e-08
1.20977e-07
4.86265e-08
-9.06908e-08
-7.25696e-08
-2.70752e-08
-8.48617e-08
3.07019e-09
1.77273e-07
2.21473e-08
-1.10937e-07
3.68403e-08
-1.03145e-08
-3.64874e-08
1.29007e-07
1.35814e-08
-1.01438e-07
2.96191e-08
-4.5611e-09
-1.21457e-07
2.30289e-08
1.82266e-07
1.70705e-07
4.49555e-08
-1.65572e-08
-2.8821e-08
-3.5042e-08
-2.32039e-09
-6.84634e-08
2.79634e-08
5.78872e-08
8.27583e-08
1.03607e-07
-3.60642e-08
8.61476e-08
2.04664e-07
8.6511e-08
-5.38563e-08
-3.01502e-08
1.0357e-07
6.62918e-08
9.83241e-08
6.76919e-08
3.72376e-08
1.04287e-07
3.12381e-08
3.19137e-08
1.65939e-08
-1.36262e-08
-5.297e-08
-1.48828e-07
-3.96121e-08
1.49557e-07
-1.22032e-08
-4.46292e-09
2.90033e-08
-1.11977e-07
-2.55749e-08
8.47264e-08
-3.47528e-08
-4.8281e-08
1.10753e-07
4.73787e-08
-8.59299e-08
-7.19186e-08
-2.48805e-08
-7.7258e-08
1.2326e-09
1.66162e-07
2.38167e-08
-1.04576e-07
3.36828e-08
-6.89127e-09
-3.55757e-08
1.19304e-07
1.54052e-08
-9.45061e-08
2.46297e-08
-4.89684e-09
-1.11868e-07
2.35168e-08
1.75066e-07
1.63352e-07
4.41212e-08
-1.37793e-08
-2.67578e-08
-3.45271e-08
2.34039e-10
-6.37874e-08
2.52962e-08
5.78031e-08
7.93231e-08
1.01837e-07
-2.70272e-08
8.42031e-08
1.95019e-07
8.51997e-08
-4.70257e-08
-2.64962e-08
1.00969e-07
6.56171e-08
9.65733e-08
6.88613e-08
3.5317e-08
1.00247e-07
3.38117e-08
3.22177e-08
1.70499e-08
-1.35747e-08
-4.99003e-08
-1.40682e-07
-4.24548e-08
1.41421e-07
-9.06884e-09
-7.82084e-09
2.78199e-08
-1.01849e-07
-2.68509e-08
7.70483e-08
-2.95238e-08
-4.65731e-08
1.00094e-07
4.59986e-08
-8.07524e-08
-7.1117e-08
-2.2773e-08
-6.93601e-08
-5.04639e-10
1.54542e-07
2.57036e-08
-9.80614e-08
3.01264e-08
-3.28549e-09
-3.46731e-08
1.09271e-07
1.75353e-08
-8.72959e-08
1.9522e-08
-4.97392e-09
-1.02025e-07
2.37891e-08
1.67385e-07
1.55851e-07
4.33499e-08
-1.1202e-08
-2.43953e-08
-3.38217e-08
2.69725e-09
-5.87093e-08
2.25764e-08
5.7756e-08
7.58961e-08
9.99135e-08
-1.79065e-08
8.19791e-08
1.85219e-07
8.39536e-08
-3.99221e-08
-2.29121e-08
9.81341e-08
6.49388e-08
9.43926e-08
7.0166e-08
3.35982e-08
9.60022e-08
3.63762e-08
3.25226e-08
1.75784e-08
-1.34187e-08
-4.67642e-08
-1.31951e-07
-4.53709e-08
1.32684e-07
-5.63439e-09
-1.11662e-08
2.65285e-08
-9.15718e-08
-2.80901e-08
6.90835e-08
-2.42879e-08
-4.47478e-08
8.93411e-08
4.44305e-08
-7.53229e-08
-7.0174e-08
-2.09112e-08
-6.13801e-08
-2.00824e-09
1.42859e-07
2.77454e-08
-9.14946e-08
2.62685e-08
2.87014e-10
-3.36849e-08
9.92899e-08
1.98381e-08
-8.00164e-08
1.45438e-08
-4.88384e-09
-9.2298e-08
2.38489e-08
1.59494e-07
1.48517e-07
4.26387e-08
-8.93035e-09
-2.18385e-08
-3.29853e-08
4.85752e-09
-5.33154e-08
1.99141e-08
5.77318e-08
7.26898e-08
9.78514e-08
-9.03994e-09
7.95257e-08
1.75601e-07
8.3222e-08
-3.27739e-08
-1.94563e-08
9.50992e-08
6.42225e-08
9.18143e-08
7.15334e-08
3.2243e-08
9.16213e-08
3.87878e-08
3.28133e-08
1.81484e-08
-1.31447e-08
-4.36962e-08
-1.22881e-07
-4.81363e-08
1.23577e-07
-1.97874e-09
-1.43178e-08
2.5008e-08
-8.15085e-08
-2.90875e-08
6.10695e-08
-1.92984e-08
-4.27699e-08
7.87432e-08
4.26226e-08
-6.97549e-08
-6.90645e-08
-1.93923e-08
-5.35192e-08
-3.22305e-09
1.3143e-07
2.98687e-08
-8.4909e-08
2.22144e-08
3.66343e-09
-3.25418e-08
8.95053e-08
2.20956e-08
-7.28183e-08
9.87374e-09
-4.70592e-09
-8.29538e-08
2.37319e-08
1.51547e-07
1.4137e-07
4.19907e-08
-6.9859e-09
-1.91594e-08
-3.20376e-08
6.68081e-09
-4.77129e-08
1.73816e-08
5.77e-08
6.98396e-08
9.56832e-08
-6.28755e-10
7.6854e-08
1.66337e-07
8.26121e-08
-2.56761e-08
-1.60292e-08
9.19076e-08
6.36102e-08
8.88907e-08
7.28804e-08
3.13555e-08
8.71748e-08
4.09651e-08
3.30882e-08
1.872e-08
-1.27543e-08
-4.08076e-08
-1.13668e-07
-5.05698e-08
1.14207e-07
1.80912e-09
-1.71281e-08
2.32043e-08
-7.182e-08
-2.97309e-08
5.31772e-08
-1.47351e-08
-4.06166e-08
6.85048e-08
4.05496e-08
-6.41431e-08
-6.77494e-08
-1.8254e-08
-4.59799e-08
-4.14497e-09
1.20359e-07
3.19553e-08
-7.8307e-08
1.80781e-08
6.72793e-09
-3.1213e-08
8.00098e-08
2.41624e-08
-6.57864e-08
5.63204e-09
-4.47512e-09
-7.40261e-08
2.34554e-08
1.43628e-07
1.34558e-07
4.1434e-08
-5.34742e-09
-1.64339e-08
-3.09568e-08
8.12095e-09
-4.20177e-08
1.50462e-08
5.76152e-08
6.74055e-08
9.34549e-08
7.23157e-09
7.41175e-08
1.57489e-07
8.20664e-08
-1.86666e-08
-1.26555e-08
8.85868e-08
6.30851e-08
8.57016e-08
7.41065e-08
3.09411e-08
8.27449e-08
4.28694e-08
3.33472e-08
1.9259e-08
-1.22471e-08
-3.81541e-08
-1.04485e-07
-5.2548e-08
1.04712e-07
5.62372e-09
-1.94747e-08
2.11264e-08
-6.25768e-08
-2.99876e-08
4.55539e-08
-1.07069e-08
-3.8291e-08
5.87897e-08
3.82065e-08
-5.85789e-08
-6.61916e-08
-1.74898e-08
-3.89141e-08
-4.75468e-09
1.09755e-07
3.40219e-08
-7.16869e-08
1.3974e-08
9.39633e-09
-2.96887e-08
7.08847e-08
2.59488e-08
-5.89605e-08
1.89198e-09
-4.20852e-09
-6.55489e-08
2.30215e-08
1.35801e-07
1.28078e-07
4.0994e-08
-3.99044e-09
-1.37456e-08
-2.97054e-08
9.16684e-09
-3.63284e-08
1.29624e-08
5.74303e-08
6.53976e-08
9.12046e-08
1.45063e-08
7.14363e-08
1.49067e-07
8.15744e-08
-1.1798e-08
-9.38225e-09
8.51737e-08
6.2653e-08
8.23169e-08
7.51111e-08
3.10314e-08
7.84162e-08
4.44811e-08
3.35654e-08
1.9747e-08
-1.16167e-08
-3.57611e-08
-9.54871e-08
-5.39874e-08
9.51726e-08
9.3513e-09
-2.12738e-08
1.88152e-08
-5.44276e-08
-2.98667e-08
3.82926e-08
-7.27153e-09
-3.58128e-08
4.97166e-08
3.56041e-08
-5.31507e-08
-6.43729e-08
-1.7065e-08
-3.24143e-08
-5.0515e-09
9.95942e-08
3.58481e-08
-6.50588e-08
1.00066e-08
1.16118e-08
-2.79704e-08
6.22027e-08
2.7391e-08
-5.23664e-08
-1.30553e-09
-3.91058e-09
-5.75748e-08
2.24441e-08
1.28121e-07
1.21938e-07
4.06726e-08
-2.88913e-09
-1.11512e-08
-2.82547e-08
9.83617e-09
-3.07253e-08
1.11644e-08
5.70922e-08
6.37955e-08
8.89574e-08
2.11819e-08
6.88687e-08
1.4107e-07
8.1118e-08
-5.13527e-09
-6.19387e-09
8.17249e-08
6.23128e-08
7.88101e-08
7.58094e-08
3.15667e-08
7.42652e-08
4.57907e-08
3.37395e-08
2.01781e-08
-1.08569e-08
-3.36487e-08
-8.68009e-08
-5.48377e-08
8.56625e-08
1.28817e-08
-2.248e-08
1.63331e-08
-4.66941e-08
-2.93867e-08
3.14692e-08
-4.45085e-09
-3.32145e-08
4.13679e-08
3.27684e-08
-4.79405e-08
-6.22918e-08
-1.69296e-08
-2.65328e-08
-5.03799e-09
9.00121e-08
3.72676e-08
-5.84529e-08
6.26517e-09
1.33444e-08
-2.60708e-08
5.40252e-08
2.84459e-08
-4.60308e-08
-3.94241e-09
-3.58034e-09
-5.01335e-08
2.17665e-08
1.20631e-07
1.16114e-07
4.04439e-08
-2e-09
-8.69426e-09
-2.65949e-08
1.01535e-08
-2.52797e-08
9.67732e-09
5.65928e-08
6.25577e-08
8.67314e-08
2.72507e-08
6.64619e-08
1.33501e-07
8.06691e-08
1.26838e-09
-3.0579e-09
7.82902e-08
6.20546e-08
7.52597e-08
7.61417e-08
3.24921e-08
7.03525e-08
4.67984e-08
3.38746e-08
2.05522e-08
-9.96724e-09
-3.1803e-08
-7.85253e-08
-5.5078e-08
7.62657e-08
1.61126e-08
-2.30863e-08
1.37418e-08
-3.99074e-08
-2.85746e-08
2.51722e-08
-2.2385e-09
-3.05386e-08
3.38039e-08
2.97407e-08
-4.30171e-08
-5.99616e-08
-1.70285e-08
-2.12998e-08
-4.73562e-09
8.10496e-08
3.85877e-08
-5.19169e-08
2.81554e-09
1.45896e-08
-2.40134e-08
4.64069e-08
2.90994e-08
-3.99815e-08
-6.01964e-09
-3.22245e-09
-4.32286e-08
2.10465e-08
1.13371e-07
1.10571e-07
4.02947e-08
-1.26317e-09
-6.414e-09
-2.47349e-08
1.01892e-08
-2.00588e-08
8.51943e-09
5.59205e-08
6.16325e-08
8.45419e-08
3.27134e-08
6.4258e-08
1.2636e-07
8.02035e-08
7.03243e-09
4.47696e-11
7.49073e-08
6.18589e-08
7.17467e-08
7.60791e-08
3.37251e-08
6.67191e-08
4.75152e-08
3.39758e-08
2.08705e-08
-8.95456e-09
-3.01955e-08
-7.07446e-08
-5.47116e-08
6.70689e-08
1.89529e-08
-2.31252e-08
1.11115e-08
-3.35696e-08
-2.74624e-08
1.94595e-08
-6.05626e-10
-2.78356e-08
2.70358e-08
2.65745e-08
-3.84287e-08
-5.74082e-08
-1.73087e-08
-1.67334e-08
-4.17571e-09
7.27404e-08
3.95354e-08
-4.55046e-08
-2.79302e-10
1.53625e-08
-2.18313e-08
3.93776e-08
2.93312e-08
-3.42426e-08
-7.55374e-09
-2.84215e-09
-3.68524e-08
2.03256e-08
1.06374e-07
1.05277e-07
4.02164e-08
-6.10086e-10
-4.33646e-09