/*--------------------------------*- C++ -*----------------------------------*\
| =========                 |                                                 |
| \\      /  F ield         | OpenFOAM: The Open Source CFD Toolbox           |
|  \\    /   O peration     | Version:  2312                                  |
|   \\  /    A nd           | Website:  www.openfoam.com                      |
|    \\/     M anipulation  |                                                 |
\*---------------------------------------------------------------------------*/
FoamFile
{
    version     2.0;
    format      ascii;
    arch        "LSB;label=32;scalar=64";
    class       volScalarField;
    location    "700";
    object      pMean;
}
// * * * * * * * * * * * * * * * * * * * * * * * * * * * * * * * * * * * * * //

dimensions      [0 2 -2 0 0 0 0];

internalField   nonuniform List<scalar> 
144000
(
1.38856e-08
-1.76388e-08
-1.60454e-07
-2.06878e-07
7.1633e-08
-1.55187e-08
-6.43778e-08
2.15889e-07
2.57782e-07
6.47964e-08
-1.63551e-08
-4.66312e-09
-9.86835e-08
-1.66778e-07
-3.53934e-08
2.04098e-07
8.50573e-08
-1.20462e-07
-2.24638e-07
1.59593e-08
3.79079e-07
1.77155e-07
-1.35052e-07
6.36895e-08
5.81958e-08
-2.02536e-07
5.62588e-08
-1.66299e-08
-2.05959e-07
1.00963e-07
1.18551e-07
1.17688e-07
1.03801e-08
5.32146e-10
2.69887e-07
2.9197e-07
2.03576e-09
3.79959e-08
1.64757e-07
-1.32481e-07
1.19951e-07
1.98337e-07
-1.48248e-08
-7.9844e-08
4.40654e-09
2.93132e-07
1.51924e-07
-1.03314e-07
-1.04565e-07
-1.65722e-07
-2.03808e-07
1.58568e-07
1.16882e-07
-2.57206e-07
-5.42694e-08
2.17793e-07
9.56504e-08
-3.8153e-08
-4.64666e-08
-2.64019e-08
1.40438e-08
-1.7145e-08
-1.58431e-07
-1.89234e-07
6.9234e-08
-1.42035e-08
-4.72218e-08
2.1273e-07
2.37892e-07
4.80959e-08
-1.42741e-08
-3.85362e-09
-9.72931e-08
-1.46705e-07
-2.05018e-08
1.82064e-07
6.78338e-08
-1.16875e-07
-2.04439e-07
2.97671e-08
3.56041e-07
1.6249e-07
-1.134e-07
6.10214e-08
4.17248e-08
-1.81874e-07
5.34824e-08
-3.34085e-08
-1.86651e-07
9.91499e-08
1.18348e-07
1.17551e-07
1.159e-08
1.8104e-08
2.66579e-07
2.73865e-07
4.81811e-09
3.59751e-08
1.48388e-07
-1.12056e-07
1.16976e-07
1.80202e-07
-1.19959e-08
-5.88302e-08
1.91985e-08
2.71003e-07
1.35576e-07
-1.01194e-07
-1.03954e-07
-1.63614e-07
-1.86011e-07
1.54779e-07
1.00413e-07
-2.35295e-07
-3.94617e-08
1.95402e-07
7.85606e-08
-3.64113e-08
-4.58435e-08
-2.64163e-08
1.37584e-08
-1.6752e-08
-1.54384e-07
-1.8302e-07
6.49507e-08
-1.15356e-08
-4.15181e-08
2.06165e-07
2.28238e-07
4.4355e-08
-1.044e-08
-2.63393e-09
-9.46291e-08
-1.36631e-07
-1.91616e-08
1.6856e-07
6.28283e-08
-1.09639e-07
-1.93396e-07
2.95071e-08
3.4067e-07
1.61003e-07
-1.02048e-07
5.54346e-08
3.80876e-08
-1.71815e-07
4.81012e-08
-3.71699e-08
-1.77693e-07
9.61249e-08
1.17398e-07
1.17256e-07
1.43524e-08
2.41772e-08
2.59761e-07
2.66692e-07
9.49941e-09
3.27617e-08
1.44607e-07
-1.01816e-07
1.11171e-07
1.73216e-07
-6.26358e-09
-4.77167e-08
2.03963e-08
2.57107e-07
1.31355e-07
-9.70786e-08
-1.02875e-07
-1.59089e-07
-1.79807e-07
1.47291e-07
9.62588e-08
-2.22363e-07
-3.78356e-08
1.82191e-07
7.36337e-08
-3.30766e-08
-4.4229e-08
-2.63116e-08
1.31984e-08
-1.67604e-08
-1.48954e-07
-1.78062e-07
5.94165e-08
-7.99479e-09
-3.76661e-08
1.96845e-07
2.19424e-07
4.37191e-08
-5.97926e-09
-1.11226e-09
-9.08375e-08
-1.27885e-07
-2.11324e-08
1.54739e-07
6.00915e-08
-1.00702e-07
-1.82102e-07
2.61097e-08
3.2419e-07
1.62159e-07
-9.10857e-08
4.84893e-08
3.70141e-08
-1.62384e-07
4.09637e-08
-3.75675e-08
-1.69338e-07
9.20971e-08
1.16051e-07
1.16805e-07
1.8952e-08
2.83619e-08
2.50251e-07
2.60379e-07
1.52168e-08
2.93685e-08
1.42869e-07
-9.15724e-08
1.03694e-07
1.67743e-07
7.99897e-10
-3.75002e-08
1.8744e-08
2.42372e-07
1.29266e-07
-9.15926e-08
-1.01743e-07
-1.52992e-07
-1.7468e-07
1.36963e-07
9.41537e-08
-2.0886e-07
-3.95875e-08
1.68866e-07
7.10743e-08
-2.90468e-08
-4.22306e-08
-2.58922e-08
1.24878e-08
-1.70451e-08
-1.42295e-07
-1.72105e-07
5.32561e-08
-3.95213e-09
-3.35541e-08
1.85792e-07
2.09594e-07
4.33675e-08
-1.40676e-09
8.44873e-10
-8.6051e-08
-1.18104e-07
-2.35586e-08
1.39302e-07
5.70807e-08
-9.08483e-08
-1.68876e-07
2.25691e-08
3.05518e-07
1.63029e-07
-7.89495e-08
4.07827e-08
3.59275e-08
-1.51847e-07
3.28033e-08
-3.70053e-08
-1.5986e-07
8.73295e-08
1.14414e-07
1.16222e-07
2.46738e-08
3.27089e-08
2.38948e-07
2.52664e-07
2.21273e-08
2.59669e-08
1.40698e-07
-7.96433e-08
9.52289e-08
1.61483e-07
8.36772e-09
-2.63248e-08
1.71647e-08
2.25439e-07
1.26736e-07
-8.51371e-08
-1.00518e-07
-1.45619e-07
-1.68358e-07
1.24394e-07
9.16987e-08
-1.93031e-07
-4.19974e-08
1.53522e-07
6.82851e-08
-2.48029e-08
-3.99553e-08
-2.51375e-08
1.16719e-08
-1.74323e-08
-1.34632e-07
-1.65293e-07
4.639e-08
2.92503e-10
-2.9281e-08
1.73644e-07
1.99062e-07
4.29701e-08
2.8501e-09
3.25574e-09
-8.04847e-08
-1.07493e-07
-2.60205e-08
1.2294e-07
5.37201e-08
-8.06145e-08
-1.54333e-07
1.93283e-08
2.85286e-07
1.63189e-07
-6.6133e-08
3.28134e-08
3.46096e-08
-1.40589e-07
2.42843e-08
-3.5678e-08
-1.49581e-07
8.20582e-08
1.12514e-07
1.15545e-07
3.08212e-08
3.71217e-08
2.26664e-07
2.4363e-07
3.00223e-08
2.26999e-08
1.37958e-07
-6.64262e-08
8.63037e-08
1.54571e-07
1.58897e-08
-1.45636e-08
1.60789e-08
2.07056e-07
1.23604e-07
-7.80421e-08
-9.91337e-08
-1.3734e-07
-1.60988e-07
1.10679e-07
8.88648e-08
-1.76061e-07
-4.46168e-08
1.37292e-07
6.5073e-08
-2.06453e-08
-3.74231e-08
-2.41268e-08
1.07592e-08
-1.78047e-08
-1.26301e-07
-1.57978e-07
3.90732e-08
4.51368e-09
-2.5047e-08
1.60881e-07
1.88229e-07
4.25983e-08
6.46964e-09
5.9646e-09
-7.44266e-08
-9.70652e-08
-2.83829e-08
1.06545e-07
5.00697e-08
-7.04427e-08
-1.39277e-07
1.65065e-08
2.64635e-07
1.62466e-07
-5.32303e-08
2.50446e-08
3.30593e-08
-1.29091e-07
1.59026e-08
-3.36322e-08
-1.38863e-07
7.64692e-08
1.10337e-07
1.14788e-07
3.72024e-08
4.14336e-08
2.13967e-07
2.33616e-07
3.84551e-08
1.98194e-08
1.34699e-07
-5.23593e-08
7.73924e-08
1.47395e-07
2.3104e-08
-2.82083e-09
1.56081e-08
1.88185e-07
1.19966e-07
-7.0548e-08
-9.75466e-08
-1.28636e-07
-1.52947e-07
9.64096e-08
8.57438e-08
-1.58898e-07
-4.71979e-08
1.21237e-07
6.15436e-08
-1.675e-08
-3.47464e-08
-2.29965e-08
9.73397e-09
-1.81033e-08
-1.17634e-07
-1.5035e-07
3.16433e-08
8.50143e-09
-2.08713e-08
1.47881e-07
1.77259e-07
4.23177e-08
9.32964e-09
8.77759e-09
-6.81379e-08
-8.71896e-08
-3.03956e-08
9.07644e-08
4.62873e-08
-6.06533e-08
-1.2424e-07
1.41968e-08
2.44091e-07
1.60817e-07
-4.06073e-08
1.78373e-08
3.12234e-08
-1.17593e-07
7.98983e-09
-3.10522e-08
-1.27892e-07
7.0734e-08
1.07862e-07
1.13928e-07
4.369e-08
4.56722e-08
2.01256e-07
2.22898e-07
4.69847e-08
1.75486e-08
1.30887e-07
-3.80012e-08
6.89464e-08
1.40113e-07
2.97187e-08
8.27634e-09
1.58635e-08
1.69536e-07
1.15824e-07
-6.2818e-08
-9.56794e-08
-1.19921e-07
-1.44494e-07
8.20801e-08
8.22742e-08
-1.42062e-07
-4.94575e-08
1.05749e-07
5.77559e-08
-1.31977e-08
-3.20198e-08
-2.18527e-08
8.58027e-09
-1.8297e-08
-1.08884e-07
-1.42517e-07
2.43522e-08
1.21086e-08
-1.67339e-08
1.34945e-07
1.6628e-07
4.21552e-08
1.1456e-08
1.15487e-08
-6.17854e-08
-7.79837e-08
-3.1877e-08
7.60045e-08
4.25273e-08
-5.14567e-08
-1.09562e-07
1.24365e-08
2.2412e-07
1.58249e-07
-2.85557e-08
1.14275e-08
2.9099e-08
-1.06249e-07
7.616e-10
-2.81623e-08
-1.16848e-07
6.50237e-08
1.0509e-07
1.1291e-07
5.01316e-08
4.98367e-08
1.88814e-07
2.11751e-07
5.52406e-08
1.59933e-08
1.26476e-07
-2.38131e-08
6.1308e-08
1.32821e-07
3.55384e-08
1.83092e-08
1.68677e-08
1.51619e-07
1.11167e-07
-5.49915e-08
-9.34292e-08
-1.11476e-07
-1.35824e-07
6.81248e-08
7.83751e-08
-1.25887e-07
-5.11542e-08
9.0978e-08
5.37863e-08
-1.0014e-08
-2.93007e-08
-2.07502e-08
7.29977e-09
-1.83753e-08
-1.00236e-07
-1.34564e-07
1.73708e-08
1.52346e-08
-1.26409e-08
1.22339e-07
1.55435e-07
4.21002e-08
1.29411e-08
1.41692e-08
-5.54597e-08
-6.94947e-08
-3.27495e-08
6.24815e-08
3.88063e-08
-4.298e-08
-9.54725e-08
1.12229e-08
2.05044e-07
1.54801e-07
-1.72152e-08
5.95673e-09
2.67562e-08
-9.52252e-08
-5.6369e-09
-2.51658e-08
-1.05917e-07
5.94984e-08
1.02063e-07
1.11681e-07
5.63487e-08
5.38052e-08
1.76923e-07
2.00434e-07
6.29332e-08
1.52866e-08
1.21508e-07
-1.01001e-08
5.46859e-08
1.25626e-07
4.04881e-08
2.70933e-08
1.855e-08
1.34805e-07
1.06016e-07
-4.72157e-08
-9.07185e-08
-1.03472e-07
-1.27096e-07
5.48705e-08
7.40051e-08
-1.10616e-07
-5.22339e-08
7.70011e-08
4.97268e-08
-7.20384e-09
-2.66237e-08
-1.97001e-08
5.91821e-09
-1.83457e-08
-9.18334e-08
-1.26567e-07
1.08188e-08
1.77994e-08
-8.62178e-09
1.10296e-07
1.4482e-07
4.21214e-08
1.38887e-08
1.65414e-08
-4.92207e-08
-6.17358e-08
-3.30106e-08
5.03e-08
3.5123e-08
-3.52919e-08
-8.21839e-08
1.05282e-08
1.87064e-07
1.50545e-07
-6.7065e-09
1.51825e-09
2.42675e-08
-8.46412e-08
-1.11093e-08
-2.22202e-08
-9.5241e-08
5.42916e-08
9.88508e-08
1.10207e-07
6.21608e-08
5.75032e-08
1.65835e-07
1.89157e-07
6.98491e-08
1.54948e-08
1.16097e-07
2.86201e-09
4.92314e-08
1.18638e-07
4.45791e-08
3.45524e-08
2.07847e-08
1.19337e-07
1.0042e-07
-3.96473e-08
-8.75113e-08
-9.60064e-08
-1.18444e-07
4.25634e-08
6.91728e-08
-9.64284e-08
-5.26953e-08
6.40155e-08
4.56362e-08
-4.78022e-09
-2.40171e-08
-1.8682e-08
4.47319e-09
-1.82259e-08
-8.37796e-08
-1.18587e-07
4.78339e-09
1.97537e-08
-4.71844e-09
9.8991e-08
1.34475e-07
4.21763e-08
1.43982e-08
1.85801e-08
-4.31231e-08
-5.46877e-08
-3.26967e-08
3.95031e-08
3.14956e-08
-2.8436e-08
-6.98238e-08
1.03079e-08
1.70312e-07
1.45588e-07
2.8795e-09
-1.85481e-09
2.16794e-08
-7.46149e-08
-1.55755e-08
-1.9427e-08
-8.49099e-08
4.94958e-08
9.55345e-08
1.0848e-07
6.74338e-08
6.09169e-08
1.55672e-07
1.78091e-07
7.58376e-08
1.65827e-08
1.10362e-07
1.48448e-08
4.50206e-08
1.11952e-07
4.78706e-08
4.06943e-08
2.34205e-08
1.0536e-07
9.44481e-08
-3.24342e-08
-8.38091e-08
-8.91338e-08
-1.09981e-07
3.13745e-08
6.39318e-08
-8.34397e-08
-5.25526e-08
5.21157e-08
4.15361e-08
-2.76866e-09
-2.15155e-08
-1.76787e-08
3.0058e-09
-1.80427e-08
-7.61503e-08
-1.10674e-07
-6.69716e-10
2.10842e-08
-9.79512e-10
8.85391e-08
1.24415e-07
4.22254e-08
1.45685e-08
2.02219e-08
-3.72226e-08
-4.83041e-08
-3.18633e-08
3.00867e-08
2.7954e-08
-2.24065e-08
-5.84598e-08
1.05014e-08
1.5486e-07
1.40058e-07
1.14851e-08
-4.18483e-09
1.90402e-08
-6.52272e-08
-1.9026e-08
-1.68376e-08
-7.4991e-08
4.5173e-08
9.21938e-08
1.06513e-07
7.20852e-08
6.40383e-08
1.46467e-07
1.67382e-07
8.0806e-08
1.84482e-08
1.04436e-07
2.56837e-08
4.20451e-08
1.05631e-07
5.04474e-08
4.55858e-08
2.62957e-08
9.29425e-08
8.82005e-08
-2.57009e-08
-7.96491e-08
-8.2864e-08
-1.01798e-07
2.14011e-08
5.83749e-08
-7.17193e-08
-5.18408e-08
4.13422e-08
3.7437e-08
-1.18065e-09
-1.91645e-08
-1.66875e-08
1.55317e-09
-1.78301e-08
-6.90017e-08
-1.02868e-07
-5.49192e-09
2.18167e-08
2.54156e-09
7.90017e-08
1.14663e-07
4.22316e-08
1.44949e-08
2.14313e-08
-3.15758e-08
-4.25229e-08
-3.05691e-08
2.20102e-08
2.45274e-08
-1.71831e-08
-4.81173e-08
1.10359e-08
1.40732e-07
1.34096e-07
1.90835e-08
-5.53594e-09
1.64135e-08
-5.6536e-08
-2.15096e-08
-1.44675e-08
-6.55359e-08
4.13715e-08
8.88971e-08
1.04335e-07
7.60771e-08
6.68579e-08
1.38196e-07
1.57154e-07
8.4717e-08
2.09628e-08
9.84612e-08
3.52824e-08
4.02239e-08
9.97126e-08
5.24313e-08
4.93389e-08
2.92524e-08
8.20887e-08
8.1796e-08
-1.95433e-08
-7.50997e-08
-7.71776e-08
-9.39647e-08
1.26789e-08
5.26193e-08
-6.12888e-08
-5.06167e-08
3.17031e-08
3.33778e-08
-2.41801e-12
-1.70141e-08
-1.57133e-08
1.46241e-10
-1.76246e-08
-6.23744e-08
-9.52089e-08
-9.65178e-09
2.20098e-08
5.78966e-09
7.04044e-08
1.05262e-07
4.21573e-08
1.42639e-08
2.2202e-08
-2.62384e-08
-3.72721e-08
-2.88629e-08
1.52072e-08
2.12428e-08
-1.27357e-08
-3.87898e-08
1.18342e-08
1.27915e-07
1.27839e-07
2.56745e-08
-6.00317e-09
1.38721e-08
-4.85772e-08
-2.30991e-08
-1.23113e-08
-5.65848e-08
3.81169e-08
8.56977e-08
1.01982e-07
7.9403e-08
6.93795e-08
1.30804e-07
1.47507e-07
8.75839e-08
2.3989e-08
9.25814e-08
4.35875e-08
3.94274e-08
9.42253e-08
5.39412e-08
5.20891e-08
3.21497e-08
7.27518e-08
7.53621e-08
-1.40292e-08
-7.02527e-08
-7.20248e-08
-8.6531e-08
5.19436e-09
4.67958e-08
-5.2125e-08
-4.89552e-08
2.31817e-08
2.94039e-08
8.02786e-10
-1.51059e-08
-1.47528e-08
-1.18826e-09
-1.7457e-08
-5.62934e-08
-8.77378e-08
-1.31381e-08
2.17331e-08
8.71458e-09
6.27468e-08
9.62695e-08
4.1966e-08
1.39518e-08
2.25512e-08
-2.12621e-08
-3.24861e-08
-2.68277e-08
9.59711e-09
1.81312e-08
-8.99402e-09
-3.04545e-08
1.2822e-08
1.16371e-07
1.21419e-07
3.12808e-08
-5.69826e-09
1.14895e-08
-4.13634e-08
-2.38771e-08
-1.03561e-08
-4.81672e-08
3.54121e-08
8.26358e-08
9.94974e-08
8.20762e-08
7.16049e-08
1.24218e-07
1.38518e-07
8.9463e-08
2.73756e-08
8.69238e-08
5.05888e-08
3.94993e-08
8.91946e-08
5.50711e-08
5.39769e-08
3.48714e-08
6.48465e-08
6.90255e-08
-9.19717e-09
-6.52093e-08
-6.73343e-08
-7.953e-08
-1.10466e-09
4.1035e-08
-4.41696e-08
-4.69452e-08
1.57373e-08
2.55461e-08
1.27357e-09
-1.34612e-08
-1.37928e-08
-2.42544e-09
-1.73451e-08
-5.07639e-08
-8.04975e-08
-1.59624e-08
2.1058e-08
1.12789e-08
5.60088e-08
8.77397e-08
4.16222e-08
1.36203e-08
2.25112e-08
-1.66902e-08
-2.81197e-08
-2.45454e-08
5.09127e-09
1.52292e-08
-5.89035e-09
-2.3078e-08
1.39314e-08
1.06034e-07
1.14953e-07
3.59442e-08
-4.73905e-09
9.33253e-09
-3.48857e-08
-2.39375e-08
-8.58394e-09
-4.03017e-08
3.32415e-08
7.97401e-08
9.69262e-08
8.41232e-08
7.35274e-08
1.18362e-07
1.30239e-07
9.04418e-08
3.09707e-08
8.15937e-08
5.63148e-08
4.02724e-08
8.46287e-08
5.59011e-08
5.51456e-08
3.73306e-08
5.82564e-08
6.29048e-08
-5.05543e-09
-6.00695e-08
-6.30286e-08
-7.29827e-08
-6.29936e-09
3.54518e-08
-3.73309e-08
-4.46806e-08
9.30322e-09
2.18263e-08
1.43996e-09
-1.2081e-08
-1.28291e-08
-3.55033e-09
-1.72913e-08
-4.57763e-08
-7.35318e-08
-1.81564e-08
2.0051e-08
1.34613e-08
5.01526e-08
7.97249e-08
4.10967e-08
1.33163e-08
2.2128e-08
-1.25546e-08
-2.41356e-08
-2.20864e-08
1.59438e-09
1.25736e-08
-3.34761e-09
-1.6615e-08
1.51013e-08
9.68215e-08
1.08542e-07
3.97225e-08
-3.25705e-09
7.45603e-09
-2.9116e-08
-2.33808e-08
-6.9744e-09
-3.2998e-08
3.15745e-08
7.70287e-08
9.43155e-08
8.55816e-08
7.51535e-08
1.13155e-07
1.22695e-07
9.06285e-08
3.46388e-08
7.66711e-08
6.08267e-08
4.15772e-08
8.05213e-08
5.65013e-08
5.5735e-08
3.9467e-08
5.28448e-08
5.7104e-08
-1.5867e-09
-5.49256e-08
-5.90301e-08
-6.68995e-08
-1.04911e-08
3.01324e-08
-3.15204e-08
-4.22467e-08
3.79904e-09
1.82624e-08
1.33907e-09
-1.09512e-08
-1.18709e-08
-4.55238e-09
-1.72848e-08
-4.13132e-08
-6.68822e-08
-1.97646e-08
1.87813e-08
1.52551e-08
4.51232e-08
7.22602e-08
4.03675e-08
1.30736e-08
2.14606e-08
-8.87291e-09
-2.05069e-08
-1.95273e-08
-9.93523e-10
1.01987e-08
-1.28771e-09
-1.10092e-08
1.62794e-08
8.86369e-08
1.02272e-07
4.26862e-08
-1.3679e-09
5.89402e-09
-2.4013e-08
-2.23072e-08
-5.49598e-09
-2.62569e-08
3.03678e-08
7.45088e-08
9.17116e-08
8.64979e-08
7.64883e-08
1.08521e-07
1.15891e-07
9.01422e-08
3.82598e-08
7.22115e-08
6.42094e-08
4.32512e-08
7.68676e-08
5.69257e-08
5.58752e-08
4.12457e-08
4.84642e-08
5.17051e-08
1.24391e-09
-4.98588e-08
-5.52726e-08
-6.12812e-08
-1.37917e-08
2.5137e-08
-2.66385e-08
-3.97141e-08
-8.61858e-10
1.48697e-08
1.01794e-09
-1.00499e-08
-1.09265e-08
-5.42274e-09
-1.73064e-08
-3.73511e-08
-6.05849e-08
-2.0838e-08
1.73215e-08
1.66642e-08
4.08502e-08
6.53648e-08
3.94286e-08
1.29128e-08
2.05719e-08
-5.64858e-09
-1.72127e-08
-1.69379e-08
-2.77675e-09
8.13375e-09
3.64001e-10
-6.19404e-09
1.74236e-08
8.13796e-08
9.62095e-08
4.49136e-08
8.14948e-10
4.67044e-09
-1.95253e-08
-2.08122e-08
-4.11765e-09
-2.00712e-08
2.95673e-08
7.21769e-08
8.91588e-08
8.69264e-08
7.75364e-08
1.0439e-07
1.09806e-07
8.91064e-08
4.17288e-08
6.82496e-08
6.65677e-08
4.51524e-08
7.36551e-08
5.72118e-08
5.56835e-08
4.26587e-08
4.49698e-08
4.67668e-08
3.48916e-09
-4.49398e-08
-5.17053e-08
-5.61194e-08
-1.63164e-08
2.05015e-08
-2.25749e-08
-3.71397e-08
-4.76621e-09
1.16596e-08
5.25769e-10
-9.35435e-09
-1.00198e-08
-6.15749e-09
-1.73325e-08
-3.38605e-08
-5.46683e-08
-2.14305e-08
1.574e-08
1.77022e-08
3.72538e-08
5.90532e-08
3.8295e-08
1.2836e-08
1.95253e-08
-2.87188e-09
-1.42351e-08
-1.43803e-08
-3.86358e-09
6.4011e-09
1.67701e-09
-2.09578e-09
1.85032e-08
7.49472e-08
9.04051e-08
4.64868e-08
3.18211e-09
3.79793e-09
-1.55954e-08
-1.89856e-08
-2.80989e-09
-1.44266e-08
2.91128e-08
7.00215e-08
8.66972e-08
8.69286e-08
7.83109e-08
1.00694e-07
1.04406e-07
8.76433e-08
4.49638e-08
6.47994e-08
6.80194e-08
4.71493e-08
7.08572e-08
5.73827e-08
5.52638e-08
4.37177e-08
4.22189e-08
4.23248e-08
5.21582e-09
-4.02259e-08
-4.82918e-08
-5.13966e-08
-1.81777e-08
1.6246e-08
-1.92194e-08
-3.4574e-08
-7.99292e-09
8.64174e-09
-9.1211e-11
-8.84378e-09
-9.18144e-09
-6.75704e-09
-1.73391e-08
-3.08071e-08
-4.91532e-08
-2.15991e-08
1.40985e-08
1.83919e-08
3.42496e-08
5.3332e-08
3.69888e-08
1.28342e-08
1.83821e-08
-5.21341e-10
-1.15563e-08
-1.19102e-08
-4.36537e-09
5.01424e-09
2.71842e-09
1.36289e-09
1.94977e-08
6.92405e-08
8.48927e-08
4.74908e-08
5.64764e-09
3.27222e-09
-1.21624e-08
-1.69096e-08
-1.54475e-09
-9.30218e-09
2.89425e-08
6.80239e-08
8.43594e-08
8.65729e-08
7.88293e-08
9.7367e-08
9.96429e-08
8.58687e-08
4.79073e-08
6.18586e-08
6.8691e-08
4.91304e-08
6.84367e-08
5.74496e-08
5.47043e-08
4.44485e-08
4.00784e-08
3.83934e-08
6.49641e-09
-3.57604e-08
-4.50083e-08
-4.70892e-08
-1.94804e-08
1.23807e-08
-1.64717e-08
-3.20603e-08
-1.06101e-08
5.82807e-09
-7.91575e-10
-8.49599e-09
-8.44188e-09
-7.22717e-09
-1.73052e-08
-2.81524e-08
-4.40513e-08
-2.14035e-08
1.24491e-08
1.87633e-08
3.1753e-08
4.81926e-08
3.55397e-08
1.28945e-08
1.71945e-08
1.43387e-09
-9.15898e-09
-9.57582e-09
-4.39243e-09
3.97929e-09
3.55263e-09
4.25876e-09
2.0392e-08
6.4168e-08
7.96926e-08
4.80109e-08
8.13707e-09
3.07494e-09
-9.1639e-09
-1.46581e-08
-3.00557e-10
-4.67067e-09
2.89985e-08
6.61637e-08
8.21656e-08
8.59291e-08
7.91132e-08
9.43512e-08
9.54552e-08
8.38886e-08
5.05209e-08
5.94093e-08
6.87128e-08
5.10007e-08
6.63519e-08
5.74227e-08
5.40737e-08
4.4887e-08
3.84273e-08
3.49678e-08
7.40412e-09
-3.15723e-08
-4.18418e-08
-4.31687e-08
-2.03189e-08
8.90225e-09
-1.42382e-08
-2.96317e-08
-1.26823e-08
3.22611e-09
-1.53834e-09
-8.28498e-09
-7.82714e-09
-7.57865e-09
-1.72142e-08
-2.58579e-08
-3.93651e-08
-2.09051e-08
1.08307e-08
1.88538e-08
2.96811e-08
4.36136e-08
3.3984e-08
1.30019e-08
1.60062e-08
3.03249e-09
-7.02394e-09
-7.41347e-09
-4.04505e-09
3.2876e-09
4.23695e-09
6.66416e-09
2.11753e-08
5.96479e-08
7.4813e-08
4.81297e-08
1.05901e-08
3.17906e-09
-6.53823e-09
-1.22972e-08
9.39485e-10
-4.98554e-10
2.92303e-08
6.4425e-08
8.01224e-08
8.50641e-08
7.91877e-08
9.15941e-08
9.17799e-08
8.17947e-08
5.27865e-08
5.74199e-08
6.82125e-08
5.26872e-08
6.45602e-08
5.73153e-08
5.34202e-08
4.50753e-08
3.71607e-08
3.2028e-08
8.01171e-09
-2.76776e-08
-3.87872e-08
-3.96037e-08
-2.07757e-08
5.7975e-09
-1.24347e-08
-2.73078e-08
-1.42727e-08
8.36632e-10
-2.29863e-09
-8.17985e-09
-7.35539e-09
-7.82563e-09
-1.70543e-08
-2.38861e-08
-3.5088e-08
-2.01619e-08
9.27205e-09
1.87041e-08
2.79571e-08
3.95631e-08
3.2359e-08
1.31458e-08
1.48499e-08
4.31461e-09
-5.12933e-09
-5.45068e-09
-3.40984e-09
2.9137e-09
4.82267e-09
8.64591e-09
2.18451e-08
5.56085e-08
7.02499e-08
4.79231e-08
1.29633e-08
3.55153e-09
-4.22869e-09
-9.88353e-09
2.18423e-09
3.2532e-09
2.95965e-08
6.27926e-08
7.82246e-08
8.40364e-08
7.90825e-08
8.9051e-08
8.85519e-08
7.96624e-08
5.47039e-08
5.58491e-08
6.73033e-08
5.41405e-08
6.30194e-08
5.71363e-08
5.27725e-08
4.50587e-08
3.61915e-08
2.95433e-08
8.38716e-09
-2.4081e-08
-3.58454e-08
-3.63608e-08
-2.09199e-08
3.04537e-09
-1.09864e-08
-2.50974e-08
-1.54421e-08
-1.34446e-09
-3.04539e-09
-8.14897e-09
-7.03631e-09
2.54061e-07
1.04468e-07
-1.61849e-07
-1.22077e-07
-5.76912e-08
-1.83092e-07
9.68044e-10
3.57858e-07
6.01152e-08
-2.31399e-07
5.53587e-08
-3.11301e-08
-8.2798e-08
2.60934e-07
4.01734e-08
-2.12554e-07
6.02303e-08
9.92058e-09
-2.64825e-07
7.1156e-09
3.19698e-07
3.20228e-07
7.99499e-08
-6.03702e-08
-6.91993e-08
-6.94272e-08
-3.19036e-08
-1.56437e-07
4.39682e-08
8.4337e-08
1.37932e-07
1.71763e-07
-1.40685e-07
1.00638e-07
3.76588e-07
1.52401e-07
-1.38342e-07
-1.12787e-07
1.48823e-07
8.7787e-08
1.37261e-07
8.33364e-08
5.31405e-08
1.75533e-07
2.26364e-08
3.43965e-08
7.62188e-09
-3.955e-08
-1.12382e-07
-2.96252e-07
-7.3973e-08
2.90908e-07
-2.39249e-08
-1.43481e-09
6.64163e-08
-2.34653e-07
-5.37628e-08
1.88012e-07
-7.95258e-08
-9.96134e-08
2.3235e-07
8.85433e-08
-1.59386e-07
-1.22133e-07
-5.60945e-08
-1.62952e-07
1.45761e-08
3.35182e-07
4.56863e-08
-2.10988e-07
5.392e-08
-2.9213e-08
-6.68689e-08
2.38845e-07
2.52134e-08
-1.91928e-07
5.74016e-08
-6.55837e-09
-2.43488e-07
2.23802e-08
3.15925e-07
3.0056e-07
6.40941e-08
-5.82264e-08
-6.80402e-08
-6.96461e-08
-3.01006e-08
-1.37998e-07
4.17304e-08
8.41293e-08
1.35542e-07
1.55009e-07
-1.18549e-07
1.14825e-07
3.54738e-07
1.36097e-07
-1.34648e-07
-9.46278e-08
1.47453e-07
8.75955e-08
1.36841e-07
8.43145e-08
5.14029e-08
1.57587e-07
2.42278e-08
3.49276e-08
8.22937e-09
-3.91514e-08
-1.10438e-07
-2.76146e-07
-6.10344e-08
2.69947e-07
-2.21878e-08
-3.23156e-09
4.98215e-08
-2.12678e-07
-3.92393e-08
1.67169e-07
-7.61005e-08
-8.33724e-08
2.19022e-07
8.49685e-08
-1.54589e-07
-1.21816e-07
-5.29348e-08
-1.52333e-07
1.41801e-08
3.20618e-07
4.48953e-08
-2.01017e-07
5.1185e-08
-2.56331e-08
-6.34223e-08
2.2603e-07
2.41295e-08
-1.81773e-07
5.17842e-08
-1.01816e-08
-2.30291e-07
2.54908e-08
3.08272e-07
2.90189e-07
6.08238e-08
-5.39031e-08
-6.60714e-08
-7.0209e-08
-2.65572e-08
-1.30778e-07
3.81644e-08
8.36295e-08
1.31069e-07
1.51028e-07
-1.05264e-07
1.15485e-07
3.40887e-07
1.3211e-07
-1.27051e-07
-8.78573e-08
1.4475e-07
8.64971e-08
1.36065e-07
8.56288e-08
4.81194e-08
1.50911e-07
2.72463e-08
3.55859e-08
8.89762e-09
-3.894e-08
-1.06551e-07
-2.65425e-07
-6.23589e-08
2.58981e-07
-1.90528e-08
-6.30963e-09
4.61141e-08
-1.9943e-07
-3.84346e-08
1.56207e-07
-6.9634e-08
-7.92315e-08
2.04857e-07
8.36173e-08
-1.48082e-07
-1.21152e-07
-4.94758e-08
-1.41961e-07
1.05355e-08
3.0471e-07
4.76248e-08
-1.9136e-07
4.70907e-08
-2.09821e-08
-6.22508e-08
2.126e-07
2.65639e-08
-1.71788e-07
4.44153e-08
-1.09891e-08
-2.16476e-07
2.59364e-08
2.9801e-07
2.80093e-07
6.02869e-08
-4.88799e-08
-6.34813e-08
-7.01252e-08
-2.24832e-08
-1.24765e-07
3.39313e-08
8.31627e-08
1.25709e-07
1.49179e-07
-9.16238e-08
1.12542e-07
3.2642e-07
1.30651e-07
-1.16866e-07
-8.26473e-08
1.41014e-07
8.52823e-08
1.34416e-07
8.702e-08
4.46795e-08
1.45569e-07
3.11078e-08
3.61827e-08
9.55839e-09
-3.89086e-08
-1.01935e-07
-2.54494e-07
-6.72043e-08
2.47656e-07
-1.46596e-08
-1.02694e-08
4.46096e-08
-1.85527e-07
-4.07392e-08
1.45284e-07
-6.15894e-08
-7.70203e-08
1.88457e-07
8.18981e-08
-1.40199e-07
-1.20082e-07
-4.58703e-08
-1.29908e-07
6.64356e-09
2.86179e-07
5.0928e-08
-1.80408e-07
4.19483e-08
-1.5511e-08
-6.09118e-08
1.96589e-07
2.97016e-08
-1.60291e-07
3.59873e-08
-1.13638e-08
-2.00665e-07
2.61946e-08
2.85765e-07
2.68366e-07
5.97744e-08
-4.37164e-08
-6.01769e-08
-6.94606e-08
-1.8161e-08
-1.17625e-07
2.92447e-08
8.27074e-08
1.19812e-07
1.46882e-07
-7.63873e-08
1.08844e-07
3.1013e-07
1.2906e-07
-1.05056e-07
-7.67738e-08
1.36543e-07
8.41152e-08
1.31819e-07
8.86929e-08
4.1318e-08
1.39432e-07
3.54264e-08
3.6761e-08
1.03503e-08
-3.88179e-08
-9.68797e-08
-2.41482e-07
-7.25562e-08
2.34244e-07
-9.35705e-09
-1.54866e-08
4.28432e-08
-1.69095e-07
-4.32933e-08
1.32733e-07
-5.26339e-08
-7.4359e-08
1.70533e-07
7.96368e-08
-1.31295e-07
-1.18619e-07
-4.23112e-08
-1.16622e-07
3.01335e-09
2.65826e-07
5.43955e-08
-1.68567e-07
3.60009e-08
-9.57305e-09
-5.92893e-08
1.78783e-07
3.31583e-08
-1.47694e-07
2.71053e-08
-1.14424e-08
-1.83619e-07
2.63021e-08
2.7218e-07
2.55563e-07
5.91399e-08
-3.87777e-08
-5.62238e-08
-6.82921e-08
-1.383e-08
-1.09369e-07
2.4329e-08
8.2222e-08
1.13717e-07
1.44029e-07
-6.02629e-08
1.04769e-07
2.92712e-07
1.27262e-07
-9.23279e-08
-7.05056e-08
1.31572e-07
8.30466e-08
1.28375e-07
9.06545e-08
3.82164e-08
1.32591e-07
3.9841e-08
3.73486e-08
1.13268e-08
-3.85127e-08
-9.15811e-08
-2.26813e-07
-7.7921e-08
2.18993e-07
-3.44124e-09
-2.09075e-08
4.06269e-08
-1.51458e-07
-4.56521e-08
1.19065e-07
-4.33852e-08
-7.11898e-08
1.52007e-07
7.68797e-08
-1.21741e-07
-1.16793e-07
-3.90876e-08
-1.02947e-07
-1.5783e-10
2.44682e-07
5.7983e-08
-1.5625e-07
2.94614e-08
-3.61079e-09
-5.73935e-08
1.60678e-07
3.67504e-08
-1.34592e-07
1.82899e-08
-1.12336e-08
-1.66238e-07
2.608e-08
2.57861e-07
2.42615e-07
5.85438e-08
-3.43172e-08
-5.18246e-08
-6.67408e-08
-9.85509e-09
-1.00299e-07
1.94429e-08
8.16862e-08
1.07836e-07
1.40782e-07
-4.414e-08
1.00369e-07
2.75043e-07
1.25577e-07
-7.92258e-08
-6.4259e-08
1.26212e-07
8.20469e-08
1.24209e-07
9.27295e-08
3.56631e-08
1.25347e-07
4.40353e-08
3.79203e-08
1.24396e-08
-3.79333e-08
-8.62757e-08
-2.11151e-07
-8.29969e-08
2.02616e-07
2.88526e-09
-2.59733e-08
3.78934e-08
-1.33898e-07
-4.75537e-08
1.04981e-07
-3.43846e-08
-6.76083e-08
1.33549e-07
7.35716e-08
-1.1184e-07
-1.14579e-07
-3.64363e-08
-8.93438e-08
-2.72667e-09
2.23619e-07
6.15688e-08
-1.43667e-07
2.2579e-08
1.98803e-09
-5.51303e-08
1.42866e-07
4.02257e-08
-1.2143e-07
9.963e-09
-1.08676e-08
-1.49158e-07
2.55465e-08
2.43218e-07
2.29957e-07
5.80419e-08
-3.04217e-08
-4.71729e-08
-6.48964e-08
-6.50923e-09
-9.06853e-08
1.47947e-08
8.10631e-08
1.02501e-07
1.3724e-07
-2.86103e-08
9.57307e-08
2.57693e-07
1.24172e-07
-6.60888e-08
-5.80815e-08
1.20507e-07
8.11826e-08
1.19412e-07
9.47455e-08
3.38966e-08
1.17913e-07
4.77969e-08
3.84453e-08
1.36027e-08
-3.70677e-08
-8.11929e-08
-1.95017e-07
-8.74172e-08
1.85497e-07
9.40979e-09
-3.03449e-08
3.45652e-08
-1.17023e-07
-4.87564e-08
9.0947e-08
-2.60613e-08
-6.36072e-08
1.15644e-07
6.96677e-08
-1.01829e-07
-1.11906e-07
-3.44529e-08
-7.62402e-08
-4.64463e-09
2.03058e-07
6.49653e-08
-1.30918e-07
1.56249e-08
6.95174e-09
-5.24408e-08
1.25634e-07
4.32384e-08
-1.08505e-07
2.43249e-09
-1.04597e-08
-1.32755e-07
2.47856e-08
2.28494e-07
2.17735e-07
5.76765e-08
-2.70601e-08
-4.24238e-08
-6.27654e-08
-3.84798e-09
-8.0793e-08
1.05434e-08
8.02899e-08
9.78806e-08
1.33491e-07
-1.40074e-08
9.10186e-08
2.40947e-07
1.22844e-07
-5.30848e-08
-5.18284e-08
1.1455e-07
8.0459e-08
1.14108e-07
9.65204e-08
3.30377e-08
1.10479e-07
5.10188e-08
3.89134e-08
1.4742e-08
-3.59107e-08
-7.64866e-08
-1.78842e-07
-9.08928e-08
1.67948e-07
1.58853e-08
-3.37721e-08
3.06778e-08
-1.01153e-07
-4.91528e-08
7.73348e-08
-1.87075e-08
-5.92073e-08
9.86411e-08
6.51756e-08
-9.19137e-08
-1.08708e-07
-3.31188e-08
-6.39883e-08
-5.90738e-09
1.83298e-07
6.79609e-08
-1.18071e-07
8.86198e-09
1.11138e-08
-4.93322e-08
1.09195e-07
4.55741e-08
-9.59849e-08
-4.10475e-09
-1.00607e-08
-1.1716e-07
2.38631e-08
2.13859e-07
2.05994e-07
5.7479e-08
-2.41522e-08
-3.77368e-08
-6.02997e-08
-1.89179e-09
-7.08675e-08
6.81803e-09
7.92842e-08
9.40121e-08
1.29627e-07
-4.9286e-10
8.64835e-08
2.24916e-07
1.21488e-07
-4.03446e-08
-4.55624e-08
1.0845e-07
7.9856e-08
1.08482e-07
9.78701e-08
3.30966e-08
1.03222e-07
5.36587e-08
3.92976e-08
1.58105e-08
-3.44575e-08
-7.22115e-08
-1.62992e-07
-9.32422e-08
1.5027e-07
2.20413e-08
-3.61079e-08
2.63571e-08
-8.65131e-08
-4.87447e-08
6.4394e-08
-1.24903e-08
-5.44897e-08
8.28309e-08
6.01426e-08
-8.2287e-08
-1.04954e-07
-3.23555e-08
-5.28169e-08
-6.51898e-09
1.64544e-07
7.03704e-08
-1.05218e-07
2.51957e-09
1.43821e-08
-4.58566e-08
9.37228e-08
4.71341e-08
-8.39765e-08
-9.54191e-09
-9.68257e-09
-1.02468e-07
2.28292e-08
1.99465e-07
1.94743e-07
5.74439e-08
-2.16213e-08
-3.32468e-08
-5.74611e-08
-5.92495e-10
-6.11114e-08
3.70762e-09
7.79824e-08
9.08522e-08
1.25717e-07
1.1852e-08
8.23074e-08
2.09665e-07
1.20059e-07
-2.80232e-08
-3.93178e-08
1.0231e-07
7.93544e-08
1.02693e-07
9.8643e-08
3.39432e-08
9.63001e-08
5.57081e-08
3.95869e-08
1.6783e-08
-3.27126e-08
-6.83774e-08
-1.47763e-07
-9.43783e-08
1.32693e-07
2.76245e-08
-3.73011e-08
2.17656e-08
-7.32715e-08
-4.75879e-08
5.23295e-08
-7.47633e-09
-4.95578e-08
6.839e-08
5.4652e-08
-7.31236e-08
-1.00662e-07
-3.20465e-08
-4.28493e-08
-6.51497e-09
1.46947e-07
7.20692e-08
-9.24883e-08
-3.21786e-09
1.67272e-08
-4.20853e-08
7.93753e-08
4.78821e-08
-7.25724e-08
-1.3839e-08
-9.30191e-09
-8.8781e-08
2.17536e-08
1.85451e-07
1.83967e-07
5.75307e-08
-1.93894e-08
-2.9038e-08
-5.42499e-08
1.23746e-10
-5.16908e-08
1.26256e-09
7.63604e-08
8.83119e-08
1.21806e-07
2.29911e-08
7.85888e-08
1.95247e-07
1.18515e-07
-1.62747e-08
-3.30804e-08
9.6246e-08
7.89284e-08
9.68972e-08
9.87476e-08
3.54268e-08
8.98339e-08
5.71825e-08
3.97882e-08
1.76479e-08
-3.06963e-08
-6.49585e-08
-1.33373e-07
-9.42948e-08
1.15454e-07
3.24297e-08
-3.73817e-08
1.7068e-08
-6.1539e-08
-4.57681e-08
4.13166e-08
-3.65659e-09
-4.45273e-08
5.54277e-08
4.8818e-08
-6.45665e-08
-9.58868e-08
-3.20636e-08
-3.41397e-08
-5.96347e-09
1.30616e-07
7.30021e-08
-8.00384e-08
-8.21338e-09
1.81812e-08
-3.81012e-08
6.62616e-08
4.78259e-08
-6.18564e-08
-1.70108e-08
-8.91105e-09
-7.61607e-08
2.07175e-08
1.71936e-07
1.73633e-07
5.76908e-08
-1.73554e-08
-2.51667e-08
-5.07024e-08
3.73619e-10
-4.27468e-08
-4.92991e-10
7.44284e-08
8.62809e-08
1.17937e-07
3.2922e-08
7.5382e-08
1.81705e-07
1.16828e-07
-5.22296e-09
-2.68306e-08
9.03602e-08
7.85389e-08
9.12482e-08
9.81601e-08
3.73926e-08
8.39039e-08
5.81176e-08
3.99115e-08
1.83991e-08
-2.84456e-08
-6.18912e-08
-1.19998e-07
-9.30496e-08
9.87902e-08
3.63043e-08
-3.64448e-08
1.24191e-08
-5.13589e-08
-4.33955e-08
3.14752e-08
-9.60546e-10
-3.95218e-08
4.39798e-08
4.27732e-08
-5.67215e-08
-9.07071e-08
-3.22832e-08
-2.66945e-08
-4.95259e-09
1.1563e-07
7.31576e-08
-6.80221e-08
-1.23726e-08
1.88174e-08
-3.39964e-08
5.44408e-08
4.70006e-08
-5.18965e-08
-1.91138e-08
-8.49959e-09
-6.46242e-08
1.97879e-08
1.59017e-07
1.6371e-07
5.78843e-08
-1.54229e-08
-2.16678e-08
-4.68806e-08
2.86517e-10
-3.43969e-08
-1.55888e-09
7.22163e-08
8.46441e-08
1.14154e-07
4.16718e-08
7.27111e-08
1.69066e-07
1.14977e-07
5.04489e-09
-2.05634e-08
8.47342e-08
7.81366e-08
8.58809e-08
9.69143e-08
3.96531e-08
7.85529e-08
5.85635e-08
3.99651e-08
1.90323e-08
-2.60094e-08
-5.90868e-08
-1.07747e-07
-9.07526e-08
8.29282e-08
3.91511e-08
-3.46251e-08
7.96132e-09
-4.27056e-08
-4.0601e-08
2.28605e-08
7.33006e-10
-3.46621e-08
3.40281e-08
3.66555e-08
-4.96605e-08
-8.52251e-08
-3.25958e-08
-2.04866e-08
-3.58083e-09
1.02032e-07
7.25539e-08
-5.658e-08
-1.56371e-08
1.87398e-08
-2.98646e-08
4.39266e-08
4.54502e-08
-4.27424e-08
-2.02341e-08
-8.04996e-09
-5.41581e-08
1.9008e-08
1.46756e-07
1.54175e-07