/*--------------------------------*- C++ -*----------------------------------*\
| =========                 |                                                 |
| \\      /  F ield         | OpenFOAM: The Open Source CFD Toolbox           |
|  \\    /   O peration     | Version:  2312                                  |
|   \\  /    A nd           | Website:  www.openfoam.com                      |
|    \\/     M anipulation  |                                                 |
\*---------------------------------------------------------------------------*/
FoamFile
{
    version     2.0;
    format      ascii;
    arch        "LSB;label=32;scalar=64";
    class       volScalarField;
    location    "700";
    object      pPrime2Mean;
}
// * * * * * * * * * * * * * * * * * * * * * * * * * * * * * * * * * * * * * //

dimensions      [0 4 -4 0 0 0 0];

internalField   nonuniform List<scalar> 
144000
(
7.38451e-16
5.73657e-16
8.20655e-15
1.88638e-14
6.60046e-15
6.62671e-16
7.51255e-15
1.22999e-14
2.06208e-14
7.75798e-15
4.02043e-15
8.77443e-16
2.61673e-15
1.425e-14
8.54855e-15
1.65734e-14
5.18989e-15
7.58439e-15
2.66011e-14
1.93294e-14
5.30787e-14
1.91634e-14
1.64707e-14
4.17548e-16
6.69694e-15
1.90627e-14
2.70518e-15
1.79581e-15
2.00249e-14
4.79953e-15
4.72119e-15
2.81291e-15
5.71334e-16
5.13269e-15
1.09005e-14
1.88035e-14
5.80391e-15
2.65508e-16
9.78756e-15
1.01585e-14
1.37852e-15
1.20045e-14
5.1699e-15
1.02446e-14
2.80126e-15
2.41661e-14
1.83952e-14
1.21125e-14
8.25006e-15
9.91331e-15
1.49191e-14
1.16985e-14
1.05553e-14
2.06566e-14
8.40876e-15
2.15152e-14
1.0492e-14
2.21596e-15
2.03995e-15
2.71173e-16
7.19222e-16
5.44089e-16
7.82157e-15
1.45854e-14
5.98561e-15
7.10005e-16
5.1727e-15
1.15365e-14
1.58706e-14
5.24192e-15
3.71467e-15
8.77445e-16
2.47907e-15
1.02797e-14
5.96284e-15
1.23476e-14
2.86305e-15
7.01161e-15
2.07912e-14
1.63258e-14
4.46031e-14
1.45394e-14
1.24798e-14
3.33353e-16
4.59869e-15
1.45628e-14
2.25631e-15
1.04478e-15
1.5616e-14
4.40852e-15
4.59834e-15
2.73697e-15
5.2183e-16
2.98444e-15
1.02047e-14
1.4548e-14
5.19404e-15
2.93991e-16
6.99037e-15
7.28119e-15
1.2504e-15
8.7083e-15
4.68194e-15
7.09025e-15
1.44412e-15
1.86419e-14
1.3925e-14
1.12988e-14
8.15515e-15
9.49247e-15
1.12157e-14
1.06138e-14
7.27767e-15
1.57255e-14
5.5926e-15
1.65471e-14
7.07409e-15
1.95951e-15
1.95772e-15
2.55837e-16
6.72108e-16
5.01608e-16
6.85936e-15
1.20275e-14
4.76184e-15
7.95755e-16
3.65377e-15
9.6175e-15
1.28048e-14
3.52015e-15
2.76696e-15
7.90907e-16
2.14798e-15
7.81737e-15
4.04102e-15
8.72511e-15
1.80349e-15
5.3678e-15
1.65728e-14
1.24789e-14
3.61489e-14
1.17821e-14
9.47513e-15
2.67019e-16
3.12494e-15
1.16561e-14
1.52473e-15
7.75119e-16
1.28229e-14
3.79923e-15
4.23883e-15
2.53938e-15
3.95781e-16
1.83769e-15
8.49033e-15
1.21445e-14
4.03849e-15
3.82007e-16
5.23899e-15
5.56812e-15
1.01194e-15
6.8056e-15
3.61687e-15
5.064e-15
6.54695e-16
1.42268e-14
1.09685e-14
9.46639e-15
7.69327e-15
8.36233e-15
9.15502e-15
8.09507e-15
5.71294e-15
1.18985e-14
3.83128e-15
1.23273e-14
5.42988e-15
1.37954e-15
1.60129e-15
2.35822e-16
6.04012e-16
4.29244e-16
5.85968e-15
1.01616e-14
3.61991e-15
8.74192e-16
2.6186e-15
7.7066e-15
1.05471e-14
2.38012e-15
1.88969e-15
6.60594e-16
1.79216e-15
6.1024e-15
2.75946e-15
6.0367e-15
1.25579e-15
3.9127e-15
1.32953e-14
9.2038e-15
2.91714e-14
9.99846e-15
7.06738e-15
3.86982e-16
2.09734e-15
9.45706e-15
1.01266e-15
7.04535e-16
1.07385e-14
3.18808e-15
3.82974e-15
2.35108e-15
3.03701e-16
1.16625e-15
6.84367e-15
1.03886e-14
2.96207e-15
5.14113e-16
4.03642e-15
4.24719e-15
8.71509e-16
5.51679e-15
2.69404e-15
3.68814e-15
3.34762e-16
1.08663e-14
8.82307e-15
7.58699e-15
7.0839e-15
7.21005e-15
7.69465e-15
5.75066e-15
4.75775e-15
8.97128e-15
2.75785e-15
9.05711e-15
4.44505e-15
8.74252e-16
1.20155e-15
2.12653e-16
5.28117e-16
3.46739e-16
4.89925e-15
8.60245e-15
2.74727e-15
9.19358e-16
1.90331e-15
6.07734e-15
8.67316e-15
1.66083e-15
1.27966e-15
5.36974e-16
1.45742e-15
4.71101e-15
2.00383e-15
4.04175e-15
9.13813e-16
2.85274e-15
1.05154e-14
6.87385e-15
2.33182e-14
8.747e-15
5.15282e-15
5.71458e-16
1.42775e-15
7.60826e-15
7.73956e-16
7.04629e-16
8.95955e-15
2.66701e-15
3.42315e-15
2.18778e-15
2.47536e-16
7.43117e-16
5.50553e-15
8.83782e-15
2.15038e-15
6.43987e-16
3.19164e-15
3.13809e-15
7.89095e-16
4.51271e-15
2.07195e-15
2.71965e-15
3.02827e-16
8.19044e-15
7.16998e-15
6.051e-15
6.44386e-15
6.15439e-15
6.45683e-15
3.92882e-15
4.00999e-15
6.64984e-15
2.12741e-15
6.49033e-15
3.6847e-15
5.65193e-16
8.74756e-16
1.89124e-16
4.54138e-16
2.69087e-16
3.99178e-15
7.25883e-15
2.09044e-15
9.33449e-16
1.41203e-15
4.70241e-15
7.07109e-15
1.20902e-15
8.7365e-16
4.27496e-16
1.15095e-15
3.57946e-15
1.5654e-15
2.57825e-15
6.81163e-16
2.08918e-15
8.17876e-15
5.22993e-15
1.82858e-14
7.76752e-15
3.61267e-15
7.45171e-16
9.95047e-16
6.0222e-15
7.10847e-16
7.07268e-16
7.41031e-15
2.23747e-15
3.02776e-15
2.03457e-15
2.23238e-16
4.76866e-16
4.41027e-15
7.4277e-15
1.56551e-15
7.45235e-16
2.57362e-15
2.20549e-15
7.33215e-16
3.71406e-15
1.66418e-15
2.01576e-15
3.82903e-16
6.07661e-15
5.87812e-15
4.82905e-15
5.80318e-15
5.20041e-15
5.37539e-15
2.56426e-15
3.37153e-15
4.79383e-15
1.74725e-15
4.49515e-15
3.04948e-15
4.01699e-16
6.16165e-16
1.66066e-16
3.87169e-16
2.02227e-16
3.17289e-15
6.09329e-15
1.60123e-15
9.27944e-16
1.07123e-15
3.55682e-15
5.70145e-15
9.18377e-16
6.02245e-16
3.3762e-16
8.81142e-16
2.685e-15
1.29459e-15
1.56057e-15
5.161e-16
1.53936e-15
6.27398e-15
4.03178e-15
1.41204e-14
6.93046e-15
2.43283e-15
8.82633e-16
7.08585e-16
4.68309e-15
7.41291e-16
6.92618e-16
6.07138e-15
1.88637e-15
2.65022e-15
1.8864e-15
2.29185e-16
3.11436e-16
3.50849e-15
6.15572e-15
1.16313e-15
8.08946e-16
2.09485e-15
1.47651e-15
6.97279e-16
3.07268e-15
1.39335e-15
1.52686e-15
4.87663e-16
4.47897e-15
4.84837e-15
3.85373e-15
5.17875e-15
4.36556e-15
4.43363e-15
1.5643e-15
2.80651e-15
3.3644e-15
1.49916e-15
3.00115e-15
2.50651e-15
3.24627e-16
4.22131e-16
1.44551e-16
3.27738e-16
1.48923e-16
2.46993e-15
5.08295e-15
1.25022e-15
9.07214e-16
8.32681e-16
2.63176e-15
4.54202e-15
7.28051e-16
4.21431e-16
2.68355e-16
6.54884e-16
1.99521e-15
1.10869e-15
9.02789e-16
3.98603e-16
1.14835e-15
4.76134e-15
3.14475e-15
1.07594e-14
6.16574e-15
1.58129e-15
9.70734e-16
5.19723e-16
3.57534e-15
8.12485e-16
6.64021e-16
4.92822e-15
1.60517e-15
2.29828e-15
1.74085e-15
2.61228e-16
2.13792e-16
2.77795e-15
5.03405e-15
9.09635e-16
8.29701e-16
1.70853e-15
9.56709e-16
6.75259e-16
2.55282e-15
1.21489e-15
1.2196e-15
5.80885e-16
3.32506e-15
4.01419e-15
3.08511e-15
4.57858e-15
3.659e-15
3.62331e-15
8.73095e-16
2.29861e-15
2.30573e-15
1.31432e-15
1.91929e-15
2.03693e-15
2.94643e-16
2.84474e-16
1.26028e-16
2.74509e-16
1.08124e-16
1.88677e-15
4.20709e-15
1.00919e-15
8.72114e-16
6.6615e-16
1.91221e-15
3.57664e-15
6.01189e-16
3.00818e-16
2.17154e-16
4.72935e-16
1.47412e-15
9.63593e-16
5.0789e-16
3.13876e-16
8.7449e-16
3.5874e-15
2.47981e-15
8.10612e-15
5.43695e-15
1.00065e-15
1.0033e-15
3.99651e-16
2.68609e-15
8.87988e-16
6.29404e-16
3.96818e-15
1.38387e-15
1.97882e-15
1.59566e-15
3.11445e-16
1.62374e-16
2.19929e-15
4.07175e-15
7.68793e-16
8.06674e-16
1.3918e-15
6.24464e-16
6.58405e-16
2.13068e-15
1.09625e-15
1.03429e-15
6.51494e-16
2.5269e-15
3.33162e-15
2.48943e-15
4.00566e-15
3.07412e-15
2.93627e-15
4.33354e-16
1.84121e-15
1.54929e-15
1.15854e-15
1.16686e-15
1.63088e-15
2.86621e-16
1.92426e-16
1.095e-16
2.2626e-16
7.82008e-17
1.41632e-15
3.4488e-15
8.49111e-16
8.24861e-16
5.51722e-16
1.37309e-15
2.78355e-15
5.13884e-16
2.19502e-16
1.80097e-16
3.31417e-16
1.08487e-15
8.3771e-16
2.91789e-16
2.52858e-16
6.84816e-16
2.6952e-15
1.97491e-15
6.05253e-15
4.73365e-15
6.31256e-16
9.82169e-16
3.28906e-16
1.98971e-15
9.43641e-16
5.9428e-16
3.17483e-15
1.21e-15
1.69552e-15
1.45062e-15
3.70027e-16
1.41762e-16
1.75058e-15
3.26724e-15
7.03385e-16
7.4779e-16
1.13416e-15
4.39182e-16
6.37201e-16
1.78896e-15
1.01441e-15
9.30451e-16
7.00667e-16
1.99219e-15
2.77194e-15
2.03526e-15
3.46446e-15
2.59496e-15
2.3625e-15
1.83507e-16
1.43477e-15
1.0292e-15
1.01498e-15
6.69685e-16
1.283e-15
2.84676e-16
1.34854e-16
9.38076e-17
1.82984e-16
5.80048e-17
1.0482e-15
2.79703e-15
7.43971e-16
7.66806e-16
4.75466e-16
9.81549e-16
2.13829e-15
4.50829e-16
1.63892e-16
1.53134e-16
2.25228e-16
7.9635e-16
7.22248e-16
1.88767e-16
2.10246e-16
5.53701e-16
2.02932e-15
1.58728e-15
4.49002e-15
4.06236e-15
4.17056e-16
9.15668e-16
2.92999e-16
1.45537e-15
9.66791e-16
5.6123e-16
2.52906e-15
1.07113e-15
1.44939e-15
1.30718e-15
4.27412e-16
1.41032e-16
1.40606e-15
2.60962e-15
6.80595e-16
6.668e-16
9.29835e-16
3.58373e-16
6.08057e-16
1.51473e-15
9.54298e-16
8.7545e-16
7.33514e-16
1.64221e-15
2.31632e-15
1.69312e-15
2.96254e-15
2.20451e-15
1.89054e-15
6.46703e-17
1.08322e-15
6.84633e-16
8.77028e-16
3.58383e-16
9.89238e-16
2.79588e-16
1.01981e-16
7.9568e-17
1.45159e-16
4.60378e-17
7.68337e-16
2.24286e-15
6.73387e-16
7.00558e-16
4.26772e-16
7.03807e-16
1.61927e-15
4.0232e-16
1.2528e-16
1.3277e-16
1.49022e-16
5.83498e-16
6.14838e-16
1.51784e-16
1.82274e-16
4.62711e-16
1.53971e-15
1.28689e-15
3.31846e-15
3.43558e-15
3.08992e-16
8.16632e-16
2.80427e-16
1.05589e-15
9.55021e-16
5.31264e-16
2.0108e-15
9.56567e-16
1.23856e-15
1.1678e-15
4.76131e-16
1.52273e-16
1.14343e-15
2.08303e-15
6.74966e-16
5.78149e-16
7.72873e-16
3.43621e-16
5.72044e-16
1.29626e-15
9.06277e-16
8.43967e-16
7.55141e-16
1.41539e-15
1.95106e-15
1.43689e-15
2.50804e-15
1.88677e-15
1.5078e-15
2.74264e-17
7.90154e-16
4.63809e-16
7.44357e-16
1.78132e-16
7.46002e-16
2.67665e-16
8.58365e-17
6.75309e-17
1.13039e-16
4.03997e-17
5.60835e-16
1.7775e-15
6.22345e-16
6.29764e-16
3.96899e-16
5.10417e-16
1.20814e-15
3.62078e-16
9.79294e-17
1.16536e-16
9.72932e-17
4.26967e-16
5.1571e-16
1.4835e-16
1.65646e-16
3.98529e-16
1.18361e-15
1.05226e-15
2.4511e-15
2.86498e-15
2.67169e-16
6.98614e-16
2.81739e-16
7.64525e-16
9.12541e-16
5.04052e-16
1.6002e-15
8.58173e-16
1.05962e-15
1.03513e-15
5.11359e-16
1.69652e-16
9.43339e-16
1.66861e-15
6.69868e-16
4.93947e-16
6.56105e-16
3.63055e-16
5.32957e-16
1.12244e-15
8.65147e-16
8.231e-16
7.68886e-16
1.26603e-15
1.66398e-15
1.24447e-15
2.10713e-15
1.62662e-15
1.20144e-15
3.46032e-17
5.56389e-16
3.2651e-16
6.19701e-16
8.42483e-17
5.4962e-16
2.48826e-16
8.00643e-17
5.78724e-17
8.65402e-17
3.91175e-17
4.10403e-16
1.39246e-15
5.80252e-16
5.5845e-16
3.78522e-16
3.77871e-16
8.90041e-16
3.26054e-16
7.81958e-17
1.03027e-16
6.45456e-17
3.12348e-16
4.25969e-16
1.57912e-16
1.57324e-16
3.51853e-16
9.26167e-16
8.67821e-16
1.8157e-15
2.35848e-15
2.61513e-16
5.74192e-16
2.89076e-16
5.57177e-16
8.46289e-16
4.79199e-16
1.27877e-15
7.70518e-16
9.08724e-16
9.11474e-16
5.31075e-16
1.89196e-16
7.90176e-16
1.34688e-15
6.56654e-16
4.22038e-16
5.71552e-16
3.93662e-16
4.9551e-16
9.84122e-16
8.28061e-16
8.05511e-16
7.76439e-16
1.16278e-15
1.44284e-15
1.09865e-15
1.76223e-15
1.41118e-15
9.59176e-16
6.10166e-17
3.78462e-16
2.42271e-16
5.06495e-16
4.49837e-17
3.95264e-16
2.2464e-16
7.97709e-17
5.05888e-17
6.53286e-17
4.05331e-17
3.03456e-16
1.0795e-15
5.40598e-16
4.9018e-16
3.65779e-16
2.88312e-16
6.49585e-16
2.91894e-16
6.37733e-17
9.15175e-17
4.56308e-17
2.28943e-16
3.46988e-16
1.68713e-16
1.54523e-16
3.16561e-16
7.40075e-16
7.2209e-16
1.35379e-15
1.91935e-15
2.711e-16
4.54254e-16
2.96315e-16
4.12969e-16
7.64363e-16
4.55973e-16
1.02964e-15
6.90565e-16
7.81994e-16
7.98518e-16
5.35384e-16
2.081e-16
6.71679e-16
1.09948e-15
6.33959e-16
3.66845e-16
5.11075e-16
4.20968e-16
4.63731e-16
8.7381e-16
7.93377e-16
7.87382e-16
7.78507e-16
1.08575e-15
1.27492e-15
9.86463e-16
1.47224e-15
1.22965e-15
7.69724e-16
9.14106e-17
2.49717e-16
1.89829e-16
4.07459e-16
3.62252e-17
2.76889e-16
1.96993e-16
8.14421e-17
4.54324e-17
4.90098e-17
4.34041e-17
2.28733e-16
8.30223e-16
5.00056e-16
4.27421e-16
3.54313e-16
2.28592e-16
4.71459e-16
2.58656e-16
5.31698e-17
8.16559e-17
3.61052e-17
1.69047e-16
2.79754e-16
1.75053e-16
1.54889e-16
2.88733e-16
6.04549e-16
6.06413e-16
1.01932e-15
1.54674e-15
2.82774e-16
3.46357e-16
2.99197e-16
3.14848e-16
6.74925e-16
4.33731e-16
8.37858e-16
6.16998e-16
6.7575e-16
6.97297e-16
5.25933e-16
2.24413e-16
5.79114e-16
9.10073e-16
6.02385e-16
3.28864e-16
4.67423e-16
4.37981e-16
4.39558e-16
7.85041e-16
7.60338e-16
7.67588e-16
7.75388e-16
1.02259e-15
1.14782e-15
8.98514e-16
1.23331e-15
1.07399e-15
6.23141e-16
1.17821e-16
1.61421e-16
1.55437e-16
3.23808e-16
4.27099e-17
1.88495e-16
1.68086e-16
8.28353e-17
4.19465e-17
3.70268e-17
4.68385e-17
1.77357e-16
6.35899e-16
4.57608e-16
3.71596e-16
3.41463e-16
1.8933e-16
3.4244e-16
2.26321e-16
4.54155e-17
7.33082e-17
3.2458e-17
1.26672e-16
2.24238e-16
1.75195e-16
1.56448e-16
2.65849e-16
5.04484e-16
5.14176e-16
7.77182e-16
1.23665e-15
2.89386e-16
2.5475e-16
2.9543e-16
2.49429e-16
5.84917e-16
4.11322e-16
6.90741e-16
5.49515e-16
5.86619e-16
6.08217e-16
5.053e-16
2.37121e-16
5.05971e-16
7.64917e-16
5.64687e-16
3.05837e-16
4.34594e-16
4.43024e-16
4.23159e-16
7.12782e-16
7.28653e-16
7.46015e-16
7.6748e-16
9.67823e-16
1.05047e-15
8.28281e-16
1.03976e-15
9.38903e-16
5.10811e-16
1.37108e-16
1.04335e-16
1.31145e-16
2.55191e-16
5.47625e-17
1.2444e-16
1.40024e-16
8.27671e-17
3.96609e-17
2.87376e-17
5.02133e-17
1.42548e-16
4.87651e-16
4.13738e-16
3.23247e-16
3.25876e-16
1.63987e-16
2.50809e-16
1.95441e-16
3.9881e-17
6.63717e-17
3.21139e-17
9.72889e-17
1.8005e-16
1.6963e-16
1.57661e-16
2.46391e-16
4.29172e-16
4.40264e-16
6.01336e-16
9.83011e-16
2.88037e-16
1.81539e-16
2.84288e-16
2.06565e-16
4.99546e-16
3.88312e-16
5.77793e-16
4.88215e-16
5.11609e-16
5.31099e-16
4.76563e-16
2.45892e-16
4.47515e-16
6.53172e-16
5.24004e-16
2.94235e-16
4.08355e-16
4.37558e-16
4.13395e-16
6.53486e-16
6.98162e-16
7.23099e-16
7.55365e-16
9.17886e-16
9.73828e-16
7.71067e-16
8.85184e-16
8.2116e-16
4.25385e-16
1.48971e-16
6.99965e-17
1.12438e-16
2.00205e-16
6.67982e-17
7.96863e-17
1.14348e-16
8.08496e-17
3.80848e-17
2.33563e-17
5.30761e-17
1.19159e-16
3.76885e-16
3.69723e-16
2.82266e-16
3.07308e-16
1.48013e-16
1.86585e-16
1.66762e-16
3.612e-17
6.06638e-17
3.3325e-17
7.74956e-17
1.45795e-16
1.59972e-16
1.57353e-16
2.29429e-16
3.71202e-16
3.80674e-16
4.72857e-16
7.7855e-16
2.78634e-16
1.26034e-16
2.66394e-16
1.78834e-16
4.22259e-16
3.64441e-16
4.90584e-16
4.3322e-16
4.48137e-16
4.65292e-16
4.42811e-16
2.50377e-16
4.00227e-16
5.6647e-16
4.83175e-16
2.90239e-16
3.85936e-16
4.24431e-16
4.08298e-16
6.04471e-16
6.68843e-16
6.99439e-16
7.39393e-16
8.71322e-16
9.10971e-16
7.236e-16
7.6307e-16
7.18748e-16
3.6079e-16
1.54449e-16
5.15907e-17
9.69364e-17
1.57046e-16
7.59755e-17
4.98547e-17
9.19125e-17
7.72113e-17
3.67332e-17
2.00852e-17
5.50975e-17
1.03404e-16
2.95736e-16
3.27064e-16
2.48063e-16
2.86211e-16
1.38189e-16
1.42146e-16
1.4093e-16
3.37499e-17
5.59293e-17
3.50465e-17
6.46279e-17
1.20227e-16
1.48095e-16
1.55012e-16
2.1426e-16
3.25523e-16
3.32315e-16
3.78213e-16
6.15704e-16
2.62629e-16
8.6326e-17
2.43123e-16
1.60911e-16
3.54916e-16
3.39774e-16
4.22566e-16
3.84475e-16
3.94028e-16
4.09764e-16
4.06867e-16
2.51221e-16
3.61373e-16
4.98526e-16
4.44296e-16
2.90406e-16
3.65706e-16
4.06812e-16
4.05693e-16
5.6363e-16
6.4068e-16
6.75543e-16
7.20431e-16
8.27589e-16
8.57118e-16
6.83516e-16
6.67343e-16
6.3021e-16
3.12134e-16
1.55013e-16
4.37039e-17
8.35824e-17
1.23879e-16
8.11814e-17
3.12165e-17
7.30234e-17
7.22841e-17
3.52493e-17
1.82254e-17
5.60707e-17
9.26071e-17
2.37216e-16
2.87125e-16
2.19766e-16
2.63445e-16
1.32186e-16
1.11678e-16
1.18385e-16
3.2436e-17
5.19419e-17
3.67322e-17
5.66511e-17
1.01826e-16
1.35547e-16
1.50622e-16
2.00489e-16
2.88733e-16
2.92761e-16
3.0785e-16
4.87237e-16
2.4208e-16
5.97113e-17
2.16442e-16
1.49044e-16
2.98117e-16
3.14657e-16
3.68756e-16
3.41702e-16
3.47542e-16
3.63174e-16
3.70969e-16
2.48856e-16
3.28904e-16
4.44664e-16
4.08646e-16
2.9208e-16
3.47095e-16
3.87443e-16
4.03506e-16
5.29336e-16
6.1364e-16
6.51812e-16
6.99264e-16
7.86508e-16
8.09084e-16
6.4899e-16
5.92546e-16
5.5431e-16
2.75433e-16
1.52144e-16
4.22735e-17
7.20596e-17
9.88643e-17
8.23524e-17
2.06838e-17
5.75787e-17
6.65945e-17
3.34504e-17
1.72313e-17
5.59539e-17
8.49536e-17
1.95487e-16
2.50917e-16
1.96413e-16
2.40028e-16
1.28295e-16
9.11502e-17
9.93125e-17
3.18985e-17
4.85336e-17
3.81812e-17
5.20014e-17
8.89645e-17
1.23484e-16
1.44593e-16
1.87797e-16
2.58525e-16
2.60088e-16
2.55061e-16
3.86665e-16
2.19064e-16
4.33515e-17
1.88338e-16
1.40637e-16
2.51508e-16
2.8943e-16
3.2543e-16
3.04445e-16
3.07398e-16
3.23997e-16
3.36709e-16
2.43878e-16
3.01323e-16
4.01336e-16
3.76806e-16
2.93382e-16
3.30077e-16
3.68345e-16
4.00128e-16
5.00381e-16
5.87728e-16
6.28551e-16
6.7662e-16
7.48011e-16
7.64946e-16
6.18522e-16
5.34042e-16
4.89879e-16
2.47605e-16
1.47127e-16
4.44149e-17
6.22178e-17
8.02326e-17
8.00695e-17
1.57609e-17
4.5258e-17
6.05523e-17
3.133e-17
1.67328e-17
5.48414e-17
7.92517e-17
1.65802e-16
2.1904e-16
1.77134e-16
2.16901e-16
1.25301e-16
7.7501e-17
8.36815e-17
3.19144e-17
4.55525e-17
3.936e-17
4.95148e-17
8.02152e-17
1.12651e-16
1.37516e-16
1.76025e-16
2.3328e-16
2.32805e-16
2.15085e-16
3.08404e-16
1.95363e-16
3.45482e-17
1.60572e-16
1.34011e-16
2.14132e-16
2.64623e-16
2.8987e-16
2.7215e-16
2.72659e-16
2.90702e-16
3.05068e-16
2.36965e-16
2.77554e-16
3.65972e-16
3.48885e-16
2.93243e-16
3.14896e-16
3.50702e-16
3.94705e-16
4.75774e-16
5.63065e-16
6.05925e-16
6.53117e-16
7.11972e-16
7.23657e-16
5.90949e-16
4.88019e-16
4.35747e-16
2.26338e-16
1.4096e-16
4.81997e-17
5.40746e-17
6.64083e-17
7.52249e-17
1.4455e-17
3.56205e-17
5.4447e-17
2.9014e-17
1.65068e-17
5.28901e-17
7.47583e-17
1.44505e-16
1.91693e-16
1.60865e-16
1.94846e-16
1.22374e-16
6.86546e-17
7.12471e-17
3.22927e-17
4.29198e-17
4.03103e-17
4.83669e-17
7.44216e-17
1.03449e-16
1.30063e-16
1.65112e-16
2.11884e-16
2.09807e-16
1.84526e-16
2.47733e-16
1.72341e-16
3.09807e-17
1.34608e-16
1.28108e-16
1.84709e-16
2.40785e-16
2.60114e-16
2.44237e-16
2.42482e-16
2.6199e-16
2.76469e-16
2.28795e-16
2.56842e-16
3.36585e-16
3.24685e-16
2.91235e-16
3.01756e-16
3.34962e-16
3.87021e-16
4.54704e-16
5.39677e-16
5.84018e-16
6.29311e-16
6.78229e-16
6.84733e-16
5.65396e-16
4.51441e-16
3.90608e-16
2.09912e-16
1.3437e-16
5.24651e-17
4.75756e-17
5.61338e-17
6.87665e-17
1.53133e-17
2.82022e-17
4.85158e-17
2.6711e-17
1.64351e-17
5.02953e-17
7.10222e-17
1.28894e-16
1.68763e-16
1.47285e-16
1.74425e-16
1.19011e-16
6.31678e-17
6.16253e-17
3.2906e-17
4.05975e-17
4.10803e-17
4.80498e-17
7.06443e-17
9.60339e-17
1.22787e-16
1.55009e-16
1.93547e-16
1.90278e-16
1.60936e-16
2.00793e-16
1.5092e-16
3.08011e-17
1.11466e-16
1.22342e-16
1.61853e-16
2.18383e-16
2.3478e-16
2.20139e-16
2.16152e-16
2.36867e-16
2.50984e-16
2.19967e-16
2.38697e-16
3.11722e-16
3.03852e-16
2.87361e-16
2.90668e-16
3.21152e-16
3.77355e-16
4.36463e-16
5.17549e-16
5.62861e-16
6.05647e-16
6.46643e-16
6.48029e-16
5.41208e-16
4.21952e-16
3.53216e-16
1.97053e-16
1.27872e-16
5.65388e-17
4.26253e-17
4.8458e-17
6.15182e-17
1.72373e-17
2.25517e-17
4.29431e-17
2.46288e-17
2.56399e-14
1.37239e-14
1.18389e-14
5.73065e-15
2.16414e-15
1.77364e-14
1.96799e-14
5.46e-14
1.47865e-14
2.49122e-14
8.51243e-16
7.83933e-16
8.41618e-15
2.43427e-14
6.95362e-15
1.77077e-14
1.78449e-15
2.15109e-15
3.3911e-14
1.83724e-14
3.71587e-14
3.78856e-14
1.53352e-14
1.04266e-14
6.36945e-15
2.6971e-15
1.63547e-15
1.5344e-14
6.60761e-15
3.11572e-15
6.2954e-15
7.06455e-15
1.99425e-14
1.04151e-14
4.31122e-14
1.80662e-14
2.44905e-14
1.58828e-14
1.94265e-15
7.47285e-16
2.23216e-15
2.62522e-15
7.10889e-16
1.13142e-14
3.46495e-15
3.42927e-15
4.02909e-15
3.23611e-15
6.12185e-15
3.12707e-14
2.03748e-14
3.63422e-14
1.22289e-15
1.26072e-16
5.18449e-15
1.81952e-14
7.07717e-15
1.72258e-14
3.34481e-15
6.27949e-15
2.00742e-14
9.90214e-15
1.1081e-14
5.71668e-15
2.10698e-15
1.32568e-14
1.65434e-14
4.59339e-14
1.07903e-14
1.98353e-14
7.7671e-16
6.94849e-16
5.94896e-15
1.89568e-14
4.41114e-15
1.34136e-14
1.45625e-15
1.25789e-15
2.72954e-14
1.48639e-14
3.53754e-14
3.11411e-14
1.21354e-14
9.84737e-15
6.13182e-15
2.70429e-15
1.53392e-15
1.15012e-14
6.0362e-15
3.09641e-15
5.87978e-15
4.66351e-15
1.47765e-14
8.06429e-15
3.54671e-14
1.35493e-14
2.26977e-14
1.18933e-14
1.82304e-15
7.32392e-16
2.18359e-15
2.50663e-15
7.4743e-16
8.37585e-15
3.22289e-15
3.33037e-15
3.90163e-15
3.25557e-15
5.88742e-15
2.5218e-14
1.64021e-14
2.99186e-14
1.06769e-15
1.10875e-16
3.26099e-15
1.34967e-14
4.73736e-15
1.28489e-14
2.80586e-15
3.86416e-15
1.57471e-14
7.43665e-15
9.16138e-15
5.51156e-15
1.88814e-15
1.0251e-14
1.24293e-14
3.7207e-14
7.93345e-15
1.61733e-14
7.80361e-16
4.94164e-16
4.32477e-15
1.44166e-14
2.8323e-15
1.04922e-14
9.09325e-16
7.02842e-16
2.20276e-14
1.15585e-14
3.05256e-14
2.62506e-14
9.13137e-15
8.16708e-15
5.45314e-15
2.70307e-15
1.24967e-15
9.24043e-15
4.97465e-15
2.97762e-15
4.81845e-15
3.56376e-15
1.05719e-14
5.57574e-15
2.87275e-14
1.05214e-14
1.82737e-14
9.81415e-15
1.56243e-15
6.50424e-16
2.0775e-15
2.30922e-15
8.02816e-16
6.50236e-15
2.73011e-15
3.0689e-15
3.64043e-15
3.28147e-15
5.29367e-15
2.09871e-14
1.21163e-14
2.48875e-14
9.81511e-16
1.06308e-16
2.1744e-15
9.73575e-15
3.01451e-15
9.79803e-15
1.80209e-15
2.61067e-15
1.22391e-14
5.72629e-15
7.20325e-15
5.21331e-15
1.68116e-15
8.03286e-15
8.92461e-15
2.99171e-14
6.024e-15
1.31076e-14
8.13123e-16
3.44249e-16
3.20523e-15
1.0882e-14
1.92356e-15
8.20994e-15
5.64752e-16
3.75378e-16
1.77499e-14
8.81343e-15
2.55277e-14
2.23359e-14
6.72012e-15
6.49533e-15
4.68464e-15
2.65084e-15
1.02307e-15
7.60015e-15
3.97231e-15
2.78954e-15
3.85069e-15
2.96769e-15
7.4357e-15
3.64127e-15
2.31502e-14
8.35158e-15
1.39857e-14
8.42384e-15
1.32673e-15
5.80087e-16
1.92426e-15
2.10444e-15
8.86067e-16
5.16919e-15
2.26984e-15
2.751e-15
3.333e-15
3.25431e-15
4.67886e-15
1.75717e-14
8.72626e-15
2.0481e-14
9.87986e-16
1.399e-16
1.50272e-15
6.93442e-15
1.91757e-15
7.44389e-15
1.0483e-15
1.85694e-15
9.27448e-15
4.48701e-15
5.54581e-15
4.85469e-15
1.49721e-15
6.19261e-15
6.45771e-15
2.36781e-14
4.83025e-15
1.0429e-14
8.45641e-16
2.41226e-16
2.43998e-15
7.99245e-15
1.4458e-15
6.31246e-15
4.18247e-16
2.28861e-16
1.4086e-14
6.72665e-15
2.1121e-14
1.88948e-14
4.97856e-15
5.17872e-15
3.9677e-15
2.54149e-15
8.57362e-16
6.22449e-15
3.202e-15
2.57168e-15
3.11635e-15
2.57603e-15
5.05342e-15
2.3791e-15
1.84587e-14
6.72264e-15
1.05463e-14
7.2576e-15
1.14062e-15
5.33328e-16
1.7365e-15
1.93405e-15
9.4264e-16
4.15946e-15
1.94104e-15
2.45994e-15
3.02748e-15
3.1605e-15
4.13416e-15
1.4504e-14
6.50887e-15
1.64704e-14
1.06697e-15
1.85332e-16
1.07909e-15
4.77886e-15
1.30582e-15
5.53217e-15
6.0465e-16
1.35213e-15
6.78415e-15
3.56106e-15
4.16925e-15
4.45261e-15
1.33572e-15
4.67681e-15
4.7528e-15
1.83448e-14
4.09124e-15
8.09505e-15
8.75848e-16
1.69005e-16
1.89979e-15
5.6533e-15
1.19977e-15
4.71598e-15
3.83246e-16
1.77417e-16
1.09753e-14
5.18082e-15
1.72853e-14
1.58923e-14
3.74374e-15
4.15929e-15
3.31501e-15
2.38837e-15
7.31825e-16
5.03418e-15
2.62411e-15
2.33606e-15
2.55016e-15
2.27862e-15
3.25782e-15
1.57873e-15
1.45186e-14
5.50474e-15
7.83271e-15
6.23219e-15
9.94518e-16
5.06085e-16
1.53655e-15
1.7958e-15
9.66648e-16
3.38074e-15
1.71208e-15
2.20196e-15
2.73292e-15
3.01187e-15
3.65802e-15
1.17342e-14
5.11159e-15
1.2816e-14
1.18252e-15
2.26928e-16
7.90637e-16
3.15619e-15
9.60626e-16
3.96277e-15
3.62668e-16
9.94683e-16
4.798e-15
2.8376e-15
3.05009e-15
4.02349e-15
1.20227e-15
3.47376e-15
3.54543e-15
1.39166e-14
3.62229e-15
6.10804e-15
9.05782e-16
1.25242e-16
1.49568e-15
3.85462e-15
1.06621e-15
3.42286e-15
4.08052e-16
1.68198e-16
8.41148e-15
4.02339e-15
1.39746e-14
1.33225e-14
2.85578e-15
3.35807e-15
2.74108e-15
2.20788e-15
6.39906e-16
4.00886e-15
2.19062e-15
2.09494e-15
2.11104e-15
2.02987e-15
1.96765e-15
1.06141e-15
1.12799e-14
4.58756e-15
5.70286e-15
5.32617e-15
8.78504e-16
4.93078e-16
1.34123e-15
1.68233e-15
9.65522e-16
2.77309e-15
1.54696e-15
1.9762e-15
2.45836e-15
2.82294e-15
3.24597e-15
9.3085e-15
4.20995e-15
9.63054e-15
1.30753e-15
2.59963e-16
5.7433e-16
2.00317e-15
7.46413e-16
2.7292e-15
2.46531e-16
7.27807e-16
3.28793e-15
2.25001e-15
2.17039e-15
3.57981e-15
1.09715e-15
2.55691e-15
2.6793e-15
1.03807e-14
3.30411e-15
4.46153e-15
9.34336e-16
1.04945e-16
1.1785e-15
2.52946e-15
9.78276e-16
2.41608e-15
4.61109e-16
1.78942e-16
6.3557e-15
3.14991e-15
1.11588e-14
1.11318e-14
2.21362e-15
2.72267e-15
2.25489e-15
2.01088e-15
5.75559e-16
3.14316e-15
1.8646e-15
1.85713e-15
1.77452e-15
1.81008e-15
1.09456e-15
7.25703e-16
8.67265e-15
3.88094e-15
4.06793e-15
4.51724e-15
7.86855e-16
4.89539e-16
1.16199e-15
1.58512e-15
9.45151e-16
2.29884e-15
1.42365e-15
1.78123e-15
2.20941e-15
2.60976e-15
2.8959e-15
7.25665e-15
3.59819e-15
6.95889e-15
1.41935e-15
2.79413e-16
4.05082e-16
1.22728e-15
5.97283e-16
1.80355e-15
2.05049e-16
5.22275e-16
2.18648e-15
1.76108e-15
1.50153e-15
3.12983e-15
1.01576e-15
1.88309e-15
2.05199e-15
7.61898e-15
3.05328e-15
3.13305e-15
9.555e-16
9.9742e-17
9.21261e-16
1.59231e-15
8.9907e-16
1.65953e-15
5.1716e-16
1.97999e-16
4.74416e-15
2.48804e-15
8.79917e-15
9.26338e-15
1.75e-15
2.21265e-15
1.85484e-15
1.80274e-15
5.32844e-16
2.43175e-15
1.61439e-15
1.62805e-15
1.51638e-15
1.61029e-15
5.44041e-16
5.09283e-16
6.60816e-15
3.32077e-15
2.8487e-15
3.79233e-15
7.17636e-16
4.91387e-16
1.00587e-15
1.49432e-15
9.12007e-16
1.93094e-15
1.32681e-15
1.61394e-15
1.98725e-15
2.38235e-15
2.60035e-15
5.57927e-15
3.14195e-15
4.81035e-15
1.49691e-15
2.82534e-16
2.75004e-16
7.27374e-16
4.80802e-16
1.13902e-15
1.99627e-16
3.64577e-16
1.40919e-15
1.35158e-15
1.00865e-15
2.68207e-15
9.50008e-16
1.40205e-15
1.59182e-15
5.50949e-15
2.81684e-15
2.09962e-15
9.60538e-16
1.02456e-16
7.10379e-16
9.62637e-16
8.11206e-16
1.11051e-15
5.57998e-16
2.18754e-16
3.50958e-15
1.98343e-15
6.85336e-15
7.67174e-15
1.41586e-15
1.79747e-15
1.53203e-15
1.58867e-15
5.05438e-16
1.86391e-15
1.41476e-15
1.41105e-15
1.31577e-15
1.42712e-15
2.30406e-16
3.6872e-16
4.99346e-15
2.86306e-15
1.96954e-15
3.14275e-15
6.69568e-16
4.96054e-16
8.76386e-16
1.40256e-15
8.73243e-16
1.64728e-15
1.24593e-15
1.47059e-15
1.79088e-15
2.1509e-15
2.35024e-15
4.24997e-15
2.75829e-15
3.16131e-15
1.52281e-15
2.71455e-16
1.8077e-16
4.19929e-16
3.8228e-16
6.85062e-16
2.03563e-16
2.47187e-16
8.8215e-16
1.0113e-15
6.58415e-16
2.24964e-15
8.9333e-16
1.066e-15
1.24976e-15
3.93258e-15
2.56955e-15
1.33221e-15
9.41575e-16
1.07675e-16
5.39257e-16
5.62646e-16
7.11163e-16
7.27102e-16
5.73881e-16
2.37901e-16
2.58366e-15
1.59534e-15
5.27614e-15
6.31729e-15
1.17449e-15
1.45495e-15
1.27487e-15
1.37638e-15
4.87654e-16
1.42324e-15
1.24686e-15
1.21009e-15
1.15615e-15
1.25967e-15
8.12266e-17
2.75378e-16
3.74842e-15
2.47815e-15
1.36005e-15
2.56532e-15
6.38972e-16
5.01403e-16
7.73059e-16
1.30652e-15
8.34259e-16
1.42915e-15
1.17447e-15
1.34779e-15
1.61845e-15
1.92486e-15
2.13386e-15
3.22372e-15
2.40459e-15
1.95507e-15
1.48817e-15
2.50992e-16
1.18312e-16
2.4103e-16
2.96651e-16
3.91709e-16
2.02548e-16
1.6344e-16
5.36438e-16
7.34565e-16
4.1941e-16
1.84707e-15
8.40403e-16
8.33276e-16
9.93186e-16
2.78038e-15
2.30496e-15
7.937e-16
8.94562e-16
1.13215e-16
4.03549e-16
3.26108e-16
6.03413e-16
4.70908e-16
5.62868e-16
2.53681e-16
1.90242e-15
1.29377e-15
4.01972e-15
5.16683e-15
9.98655e-16
1.16952e-15
1.07144e-15
1.17406e-15
4.74489e-16
1.09007e-15
1.09826e-15
1.02855e-15
1.02528e-15
1.10797e-15
3.79676e-17
2.11324e-16
2.80185e-15
2.14694e-15
9.56543e-16
2.06052e-15
6.20664e-16
5.05757e-16
6.93227e-16
1.20665e-15
7.98706e-16
1.26094e-15
1.1088e-15
1.24208e-15
1.46768e-15
1.71194e-15
1.94055e-15
2.44916e-15
2.06574e-15
1.12339e-15
1.39429e-15
2.27541e-16
8.19127e-17
1.40989e-16
2.23445e-16
2.13211e-16
1.92035e-16
1.07276e-16
3.17352e-16
5.16539e-16
2.62897e-16
1.48581e-15
7.87579e-16
6.71464e-16
8.00074e-16
1.95537e-15
2.02714e-15
4.42745e-16
8.20057e-16
1.18421e-16
2.99137e-16
1.98334e-16
4.95346e-16
3.08619e-16
5.28687e-16
2.65222e-16
1.41004e-15
1.05702e-15
3.03523e-15
4.1936e-15
8.68141e-16
9.29993e-16
9.10676e-16
9.88534e-16
4.6241e-16
8.43779e-16
9.62284e-16
8.69008e-16
9.14272e-16
9.72371e-16
5.66576e-17
1.6602e-16
2.0913e-15
1.85763e-15
7.0381e-16
1.62888e-15
6.09253e-16
5.07693e-16
6.32704e-16
1.10635e-15
7.68006e-16
1.12961e-15
1.04711e-15
1.15055e-15
1.33612e-15
1.51733e-15
1.76218e-15
1.87818e-15
1.74238e-15
5.90086e-16
1.25072e-15
2.06359e-16
6.46711e-17
8.74132e-17
1.63559e-16
1.11413e-16
1.73232e-16
7.27402e-17
1.83475e-16
3.51193e-16
1.64687e-16
1.17197e-15
7.32499e-16
5.56734e-16
6.54643e-16
1.37514e-15
1.74484e-15
2.35312e-16
7.23177e-16
1.2363e-16
2.21614e-16
1.37493e-16
3.94323e-16
2.12354e-16
4.78198e-16
2.72197e-16
1.05926e-15
8.69525e-16
2.27524e-15
3.37597e-15
7.67936e-16
7.28849e-16
7.82877e-16
8.24424e-16
4.49097e-16
6.64712e-16
8.36334e-16
7.32205e-16
8.16831e-16
8.52834e-16
1.06185e-16
1.33865e-16
1.56412e-15
1.60299e-15
5.56744e-16
1.26966e-15
5.99849e-16
5.06125e-16
5.87127e-16
1.00931e-15
7.41858e-16
1.02542e-15
9.88905e-16
1.07068e-15
1.22131e-15
1.34397e-15
1.59341e-15
1.46242e-15
1.44237e-15
2.7958e-16
1.07358e-15
1.90649e-16
5.94244e-17
5.82831e-17
1.17274e-16
5.75559e-17
1.49736e-16
5.39743e-17
1.04447e-16
2.31252e-16
1.05858e-16
9.08597e-16
6.74202e-16
4.72905e-16
5.45103e-16
9.73225e-16
1.47001e-15
1.30608e-16
6.12335e-16
1.28943e-16
1.66254e-16
1.14081e-16
3.06451e-16
1.59807e-16
4.19186e-16
2.74444e-16
8.11871e-16
7.20113e-16
1.69663e-15
2.69492e-15
6.87148e-16
5.61174e-16
6.79802e-16
6.83591e-16
4.32765e-16
5.3561e-16
7.20466e-16
6.17539e-16
7.28817e-16
7.48513e-16
1.65786e-16
1.12117e-16
1.17716e-15
1.37863e-15
4.7755e-16
9.79416e-16
5.88601e-16
5.00818e-16
5.52442e-16
9.18425e-16
7.19192e-16
9.41031e-16
9.34151e-16
1.00041e-15
1.12097e-15
1.1927e-15
1.43161e-15
1.16324e-15
1.1742e-15
1.22908e-16
8.81422e-16
1.81249e-16
6.00223e-17
4.25789e-17
8.35436e-17
3.18268e-17
1.25302e-16
4.55551e-17
5.93528e-17
1.48757e-16
7.2325e-17
6.94427e-16
6.13073e-16
4.09342e-16
4.62347e-16
6.97967e-16
1.2134e-15
9.35955e-17
4.97162e-16
1.34056e-16
1.28268e-16
1.08557e-16
2.35563e-16
1.34151e-16
3.5881e-16
2.72147e-16
6.38357e-16
6.00616e-16
1.26186e-15
2.13321e-15
6.18175e-16
4.23313e-16
5.94577e-16
5.65936e-16
4.1243e-16
4.42627e-16
6.15923e-16
5.23077e-16
6.47797e-16
6.57966e-16
2.22655e-16
9.93628e-17
8.95521e-16
1.18207e-15
4.40327e-16
7.53233e-16
5.73075e-16
4.9211e-16
5.25386e-16
8.35994e-16
6.98431e-16
8.70977e-16
8.82841e-16
9.38002e-16