/*--------------------------------*- C++ -*----------------------------------*\
| =========                 |                                                 |
| \\      /  F ield         | OpenFOAM: The Open Source CFD Toolbox           |
|  \\    /   O peration     | Version:  2312                                  |
|   \\  /    A nd           | Website:  www.openfoam.com                      |
|    \\/     M anipulation  |                                                 |
\*---------------------------------------------------------------------------*/
FoamFile
{
    version     2.0;
    format      ascii;
    arch        "LSB;label=32;scalar=64";
    class       volScalarField;
    location    "300";
    object      nut;
}
// * * * * * * * * * * * * * * * * * * * * * * * * * * * * * * * * * * * * * //

dimensions      [0 2 -1 0 0 0 0];

internalField   nonuniform List<scalar> 
144000
(
9.08493e-26
2.56001e-26
1.49345e-27
5.43433e-27
2.86238e-27
3.32555e-30
6.27769e-28
1.83537e-28
4.49018e-28
2.692e-28
4.30342e-28
3.28422e-28
4.828e-28
4.18422e-28
4.50717e-28
3.95696e-28
5.37499e-28
5.26176e-28
4.71627e-28
4.66307e-28
5.4201e-28
5.81681e-28
5.60643e-28
5.83113e-28
5.69358e-28
6.17389e-28
6.64443e-28
6.97696e-28
6.70825e-28
6.92023e-28
6.5061e-28
6.90504e-28
7.89912e-28
8.22027e-28
7.33257e-28
6.98184e-28
6.15948e-28
6.1687e-28
6.15209e-28
6.36651e-28
5.67972e-28
5.89718e-28
4.69306e-28
4.32861e-28
3.96576e-28
3.38834e-28
1.6231e-28
1.02334e-28
3.23729e-29
1.20668e-29
1.39308e-31
9.38292e-30
1.74969e-28
8.02043e-28
3.47261e-27
1.11854e-27
7.83953e-26
2.94937e-24
3.45179e-24
9.51813e-26
4.62879e-24
7.94942e-26
1.48474e-25
7.69693e-26
3.15392e-27
2.69335e-29
1.0583e-27
5.35084e-28
5.84869e-28
9.59185e-28
5.86609e-28
9.93932e-28
7.52008e-28
1.14259e-27
7.93257e-28
9.72431e-28
9.53072e-28
1.30106e-27
9.23489e-28
1.05807e-27
1.04827e-27
1.3472e-27
1.10182e-27
1.30281e-27
1.12242e-27
1.35892e-27
1.28671e-27
1.55683e-27
1.31804e-27
1.5095e-27
1.29264e-27
1.46589e-27
1.51387e-27
1.78549e-27
1.45047e-27
1.46521e-27
1.23302e-27
1.27792e-27
1.20414e-27
1.30552e-27
1.11358e-27
1.13412e-27
9.2465e-28
7.85975e-28
7.25954e-28
6.57772e-28
3.11063e-28
1.61905e-28
5.8361e-29
1.40293e-29
3.84744e-31
4.48349e-29
3.84002e-28
2.46419e-27
7.00455e-27
5.01138e-27
1.14109e-25
8.26654e-24
2.09389e-23
1.94525e-25
9.27945e-24
2.12393e-24
5.92391e-25
1.82828e-25
8.86435e-27
3.9644e-29
1.10375e-27
9.89629e-28
7.48615e-28
1.36264e-27
8.9511e-28
1.35897e-27
1.14031e-27
1.49599e-27
1.16976e-27
1.37821e-27
1.39516e-27
1.78523e-27
1.3482e-27
1.51019e-27
1.51053e-27
1.88497e-27
1.57984e-27
1.86015e-27
1.58964e-27
1.97118e-27
1.81726e-27
2.22382e-27
1.86349e-27
2.17631e-27
1.80951e-27
2.16592e-27
2.115e-27
2.5593e-27
2.03448e-27
2.13649e-27
1.71738e-27
1.88809e-27
1.67619e-27
1.8918e-27
1.55059e-27
1.664e-27
1.26246e-27
1.20356e-27
1.00729e-27
9.54449e-28
4.29133e-28
2.54563e-28
7.77358e-29
2.69996e-29
8.51908e-31
4.30491e-29
6.07008e-28
2.8997e-27
9.3322e-27
5.09404e-27
3.43715e-25
1.35284e-23
2.25859e-23
3.50703e-24
2.73342e-23
1.69592e-23
1.63627e-24
1.05569e-24
1.13805e-26
8.52874e-29
1.07645e-27
1.07154e-27
7.70103e-28
1.41508e-27
9.46177e-28
1.41205e-27
1.19495e-27
1.55517e-27
1.21205e-27
1.43119e-27
1.41918e-27
1.87482e-27
1.36048e-27
1.55961e-27
1.52721e-27
1.96385e-27
1.60588e-27
1.9299e-27
1.61282e-27
2.05539e-27
1.83898e-27
2.33549e-27
1.88842e-27
2.27052e-27
1.83688e-27
2.2673e-27
2.14199e-27
2.71084e-27
2.05253e-27
2.2335e-27
1.71991e-27
1.97589e-27
1.68021e-27
2.01005e-27
1.58068e-27
1.7755e-27
1.30658e-27
1.29556e-27
1.05041e-27
1.03971e-27
4.49364e-28
2.81379e-28
8.80041e-29
3.84538e-29
4.74369e-31
3.93157e-29
5.05743e-28
2.45857e-27
7.54743e-27
3.91802e-27
4.77402e-25
2.20496e-23
3.18692e-23
2.3803e-23
4.43786e-23
6.87718e-23
2.06247e-24
3.59212e-24
3.45821e-26
2.62517e-28
1.11481e-27
1.22151e-27
7.66391e-28
1.59404e-27
9.18714e-28
1.57927e-27
1.20456e-27
1.754e-27
1.21055e-27
1.56116e-27
1.43088e-27
2.05087e-27
1.34617e-27
1.65719e-27
1.54447e-27
2.10025e-27
1.62207e-27
2.03719e-27
1.63744e-27
2.17458e-27
1.88104e-27
2.48708e-27
1.9159e-27
2.40117e-27
1.86941e-27
2.39836e-27
2.20695e-27
2.90603e-27
2.07525e-27
2.35473e-27
1.73024e-27
2.08786e-27
1.70877e-27
2.16475e-27
1.62138e-27
1.93225e-27
1.36498e-27
1.42545e-27
1.12514e-27
1.17832e-27
4.7745e-28
3.37827e-28
1.09505e-28
6.77131e-29
5.81334e-31
3.56368e-29
3.96533e-28
2.01419e-27
5.28736e-27
2.5109e-27
7.42488e-25
3.66925e-23
4.07962e-23
9.00519e-23
5.23718e-23
1.82064e-22
1.6449e-24
8.56736e-24
1.02927e-25
6.35731e-28
1.32955e-27
1.38454e-27
8.27424e-28
1.82009e-27
9.20681e-28
1.80745e-27
1.24578e-27
1.99881e-27
1.23914e-27
1.75538e-27
1.49506e-27
2.30328e-27
1.36238e-27
1.83126e-27
1.60667e-27
2.32348e-27
1.67813e-27
2.22505e-27
1.7108e-27
2.38245e-27
1.98578e-27
2.73052e-27
2.0047e-27
2.61816e-27
1.96308e-27
2.6286e-27
2.36144e-27
3.20203e-27
2.16937e-27
2.55925e-27
1.80494e-27
2.28498e-27
1.80861e-27
2.41327e-27
1.73372e-27
2.18865e-27
1.49039e-27
1.65398e-27
1.27727e-27
1.40847e-27
5.44714e-28
4.51118e-28
1.57977e-28
1.39953e-28
4.74061e-30
4.99395e-29
2.94088e-28
1.56511e-27
3.07068e-27
1.21415e-27
1.10752e-24
5.75281e-23
5.17032e-23
2.24405e-22
5.52149e-23
3.75394e-22
9.04373e-25
1.65577e-23
2.58553e-25
1.1005e-27
1.72759e-27
1.50141e-27
9.48055e-28
2.03545e-27
9.69674e-28
2.02852e-27
1.33738e-27
2.24579e-27
1.30049e-27
1.97736e-27
1.60489e-27
2.58422e-27
1.40159e-27
2.04516e-27
1.69912e-27
2.5926e-27
1.75229e-27
2.46142e-27
1.80984e-27
2.65168e-27
2.12653e-27
3.02824e-27
2.1211e-27
2.89278e-27
2.09184e-27
2.93455e-27
2.56928e-27
3.5616e-27
2.30006e-27
2.81677e-27
1.91843e-27
2.54326e-27
1.95991e-27
2.72902e-27
1.89999e-27
2.53669e-27
1.6834e-27
1.99122e-27
1.51731e-27
1.74731e-27
6.69317e-28
6.55057e-28
2.64606e-28
3.10667e-28
3.52612e-29
1.39114e-28
2.68144e-28
1.26621e-27
1.92248e-27
1.77106e-27
1.42485e-24
8.46106e-23
7.65471e-23
4.33548e-22
5.2178e-23
6.51336e-22
3.11303e-25
2.73585e-23
5.89131e-25
1.5505e-27
2.35099e-27
1.56247e-27
1.09296e-27
2.27345e-27
1.04369e-27
2.24853e-27
1.46912e-27
2.49805e-27
1.39126e-27
2.21626e-27
1.74726e-27
2.87634e-27
1.457e-27
2.27561e-27
1.81203e-27
2.88773e-27
1.83822e-27
2.72903e-27
1.9269e-27
2.96019e-27
2.28094e-27
3.36809e-27
2.25605e-27
3.20877e-27
2.24313e-27
3.29238e-27
2.80491e-27
3.97435e-27
2.45234e-27
3.1169e-27
2.0597e-27
2.85106e-27
2.14353e-27
3.11729e-27
2.12429e-27
2.98813e-27
1.95649e-27
2.45888e-27
1.86798e-27
2.25165e-27
8.88748e-28
1.02685e-27
4.98986e-28
7.13884e-28
1.80445e-28
5.35405e-28
5.63145e-28
1.8754e-27
4.14333e-27
1.32975e-26
1.72281e-24
1.18955e-22
1.21199e-22
6.98786e-22
5.56362e-23
9.99755e-22
1.44312e-25
4.01755e-23
1.23103e-24
2.16545e-27
3.54033e-27
1.50186e-27
1.24989e-27
2.57132e-27
1.125e-27
2.49232e-27
1.63635e-27
2.76796e-27
1.50442e-27
2.47851e-27
1.93055e-27
3.17854e-27
1.52839e-27
2.52263e-27
1.95649e-27
3.20242e-27
1.93642e-27
3.02725e-27
2.06405e-27
3.30544e-27
2.46524e-27
3.74547e-27
2.40445e-27
3.57346e-27
2.41754e-27
3.70808e-27
3.0843e-27
4.44419e-27
2.62297e-27
3.47239e-27
2.23156e-27
3.21977e-27
2.38169e-27
3.59743e-27
2.41733e-27
3.59009e-27
2.34374e-27
3.12068e-27
2.40404e-27
3.01885e-27
1.27457e-27
1.70929e-27
1.00883e-27
1.65782e-27
7.32737e-28
1.9852e-27
2.22948e-27
6.03772e-27
1.97605e-26
7.2134e-26
1.88461e-24
1.62603e-22
2.19662e-22
9.83727e-22
6.92196e-23
1.41442e-21
5.48951e-25
5.42763e-23
2.36126e-24
3.59613e-27
5.55984e-27
1.29896e-27
1.42318e-27
2.9554e-27
1.20671e-27
2.77628e-27
1.83143e-27
3.06981e-27
1.6425e-27
2.76942e-27
2.14449e-27
3.49855e-27
1.61873e-27
2.78928e-27
2.12716e-27
3.53884e-27
2.05577e-27
3.35477e-27
2.22904e-27
3.68792e-27
2.67141e-27
4.16735e-27
2.58046e-27
3.98522e-27
2.62463e-27
4.18649e-27
3.40044e-27
4.98573e-27
2.82753e-27
3.89464e-27
2.44651e-27
3.66929e-27
2.67752e-27
4.21035e-27
2.81791e-27
4.3984e-27
2.90035e-27
4.07226e-27
3.20922e-27
4.2112e-27
1.95889e-27
2.95131e-27
2.07534e-27
3.78239e-27
2.45847e-27
6.36218e-27
8.56091e-27
2.19161e-26
7.83646e-26
2.56022e-25
1.96621e-24
2.19299e-22
4.01871e-22
1.25229e-21
1.15042e-22
1.87598e-21
1.95331e-24
6.85518e-23
4.09908e-24
7.99668e-27
9.09468e-27
9.16256e-28
1.65676e-27
3.41506e-27
1.29413e-27
3.09746e-27
2.06294e-27
3.40624e-27
1.8011e-27
3.1014e-27
2.39469e-27
3.84318e-27
1.72515e-27
3.0848e-27
2.33087e-27
3.89662e-27
2.19478e-27
3.71883e-27
2.42203e-27
4.1132e-27
2.91593e-27
4.63125e-27
2.78294e-27
4.45705e-27
2.86864e-27
4.74223e-27
3.77511e-27
5.60782e-27
3.07175e-27
4.40497e-27
2.71478e-27
4.22433e-27
3.06567e-27
4.9938e-27
3.35867e-27
5.50349e-27
3.69938e-27
5.45846e-27
4.44148e-27
6.0581e-27
3.15514e-27
5.17792e-27
4.2852e-27
8.26556e-27
6.97943e-27
1.75844e-26
2.69001e-26
6.73606e-26
2.35481e-25
6.89365e-25
1.8919e-24
2.95242e-22
7.42511e-22
1.43781e-21
1.99273e-22
2.40119e-21
5.60315e-24
8.43697e-23
6.6102e-24
2.32183e-26
1.34458e-26
5.23546e-28
1.92118e-27
4.02159e-27
1.36905e-27
3.4826e-27
2.31884e-27
3.79985e-27
1.97923e-27
3.48404e-27
2.66959e-27
4.22805e-27
1.8454e-27
3.4177e-27
2.55768e-27
4.28752e-27
2.35526e-27
4.12686e-27
2.64645e-27
4.58734e-27
3.18343e-27
5.15236e-27
3.02594e-27
4.99396e-27
3.15825e-27
5.38232e-27
4.2046e-27
6.33331e-27
3.37234e-27
5.0224e-27
3.05316e-27
4.91434e-27
3.55319e-27
6.01185e-27
4.10364e-27
7.00816e-27
4.84457e-27
7.4607e-27
6.27972e-27
8.88707e-27
5.18561e-27
9.06937e-27
8.59092e-27
1.70456e-26
1.72197e-26
4.22846e-26
6.98772e-26
1.70563e-25
5.66498e-25
1.4864e-24
1.82132e-24
4.0343e-22
1.26517e-21
1.51371e-21
3.83268e-22
2.90675e-21
1.16627e-23
1.02876e-22
9.72292e-24
6.84093e-26
1.85734e-26
1.92801e-28
2.28194e-27
4.77797e-27
1.43116e-27
3.93575e-27
2.60853e-27
4.25672e-27
2.16909e-27
3.93005e-27
2.98427e-27
4.65542e-27
1.97648e-27
3.79771e-27
2.82009e-27
4.71443e-27
2.53052e-27
4.59413e-27
2.89774e-27
5.11637e-27
3.49792e-27
5.73379e-27
3.29993e-27
5.62157e-27
3.49396e-27
6.12414e-27
4.72517e-27
7.17407e-27
3.73106e-27
5.78067e-27
3.47247e-27
5.77122e-27
4.19378e-27
7.32835e-27
5.09958e-27
9.07658e-27
6.45989e-27
1.0315e-26
9.01723e-27
1.31128e-26
8.45955e-27
1.56219e-26
1.63477e-26
3.26562e-26
3.75217e-26
9.01843e-26
1.54608e-25
3.65694e-25
1.14238e-24
2.70523e-24
1.76077e-24
5.65164e-22
2.1337e-21
1.46803e-21
7.17284e-22
3.47487e-21
1.99022e-23
1.31201e-22
1.31403e-23
1.83061e-25
2.36986e-26
2.70958e-29
2.81327e-27
5.68769e-27
1.4842e-27
4.45962e-27
2.93803e-27
4.77709e-27
2.39095e-27
4.43738e-27
3.32833e-27
5.13741e-27
2.12674e-27
4.22918e-27
3.10627e-27
5.18797e-27
2.73126e-27
5.12012e-27
3.18534e-27
5.70767e-27
3.84277e-27
6.39752e-27
3.62172e-27
6.34211e-27
3.89255e-27
6.98389e-27
5.32181e-27
8.1667e-27
4.17202e-27
6.69841e-27
3.99916e-27
6.83579e-27
5.00517e-27
9.04109e-27
6.44952e-27
1.18546e-26
8.71713e-27
1.43106e-26
1.29755e-26
1.93345e-26
1.36211e-26
2.60667e-26
2.93599e-26
5.79204e-26
7.38731e-26
1.72697e-25
2.99646e-25
6.82671e-25
2.00983e-24
4.30329e-24
1.86193e-24
8.03647e-22
3.42888e-21
1.37345e-21
1.3415e-21
4.26685e-21
2.54275e-23
1.71186e-22
1.63436e-23
4.38406e-25
2.70996e-26
1.53577e-29
3.66414e-27
6.70344e-27
1.54046e-27
5.03534e-27
3.3409e-27
5.34476e-27
2.65342e-27
5.00709e-27
3.72898e-27
5.66417e-27
2.29979e-27
4.71458e-27
3.43586e-27
5.69915e-27
2.95914e-27
5.71347e-27
3.51011e-27
6.36594e-27
4.2446e-27
7.14137e-27
3.99056e-27
7.18119e-27
4.35622e-27
7.98617e-27
6.03156e-27
9.32408e-27
4.70273e-27
7.81712e-27
4.65019e-27
8.15498e-27
6.05235e-27
1.12289e-26
8.21482e-27
1.55236e-26
1.17755e-26
1.98274e-26
1.85213e-26
2.83071e-26
2.14611e-26
4.1889e-26
4.99056e-26
9.73723e-26
1.32582e-25
3.01499e-25
5.16198e-25
1.13881e-24
3.15148e-24
6.14075e-24
2.20632e-24
1.14105e-21
5.26655e-21
1.19819e-21
2.32573e-21
5.46088e-21
2.80248e-23
2.36648e-22
1.88686e-23
9.51112e-25
2.60617e-26
2.35619e-28
4.9283e-27
7.90582e-27
1.5728e-27
5.72389e-27
3.79802e-27
5.99699e-27
2.96359e-27
5.65219e-27
4.17014e-27
6.25905e-27
2.49768e-27
5.26355e-27
3.79559e-27
6.26361e-27
3.22245e-27
6.37576e-27
3.88366e-27
7.09861e-27
4.68345e-27
7.98581e-27
4.43262e-27
8.13754e-27
4.90501e-27
9.14335e-27
6.84428e-27
1.06862e-26
5.35265e-27
9.16082e-27
5.45936e-27
9.76806e-27
7.33682e-27
1.39713e-26
1.05062e-26
2.02701e-26
1.58371e-26
2.72529e-26
2.59299e-26
4.07142e-26
3.28151e-26
6.44326e-26
7.99479e-26
1.54714e-25
2.16229e-25
4.74716e-25
8.06458e-25
1.7038e-24
4.43818e-24
7.83235e-24
3.24451e-24
1.61569e-21
7.59058e-21
1.02462e-21
3.7964e-21
6.91096e-21
2.73037e-23
3.3954e-22
1.96187e-23
1.81596e-24
2.12015e-26
1.21224e-27
7.02065e-27
9.18948e-27
1.58885e-27
6.5382e-27
4.32914e-27
6.74575e-27
3.30766e-27
6.39181e-27
4.68377e-27
6.91397e-27
2.71655e-27
5.88459e-27
4.21299e-27
6.87432e-27
3.51241e-27
7.12838e-27
4.29931e-27
7.90708e-27
5.20159e-27
8.92557e-27
4.9338e-27
9.24882e-27
5.53601e-27
1.04721e-26
7.83075e-27
1.22523e-26
6.12168e-27
1.07784e-26
6.42663e-27
1.17021e-26
8.93209e-27
1.73542e-26
1.33773e-26
2.64457e-26
2.10477e-26
3.69752e-26
3.59067e-26
5.69057e-26
4.81101e-26
9.48554e-26
1.20057e-25
2.30487e-25
3.21269e-25
6.84301e-25
1.15296e-24
2.31374e-24
5.68513e-24
9.0931e-24
5.38795e-24
2.24782e-21
1.03686e-20
8.62089e-22
5.74743e-21
8.94325e-21
2.2268e-23
4.87875e-22
1.87182e-23
3.16488e-24
1.28676e-26
3.50281e-27
1.02587e-26
1.0622e-26
1.56866e-27
7.56046e-27
4.91421e-27
7.61648e-27
3.71102e-27
7.23422e-27
5.24086e-27
7.66024e-27
2.96572e-27
6.59069e-27
4.66293e-27
7.55362e-27
3.84289e-27
7.96444e-27
4.77447e-27
8.79889e-27
5.77719e-27
9.9877e-27
5.51763e-27
1.05061e-26
6.28373e-27
1.19856e-26
8.96634e-27
1.40683e-26
7.04066e-27
1.26669e-26
7.58556e-27
1.39828e-26
1.08592e-26
2.14909e-26
1.69929e-26
3.40796e-26
2.77604e-26
4.90848e-26
4.86713e-26
7.71494e-26
6.76129e-26
1.33049e-25
1.70123e-25
3.22819e-25
4.48376e-25
9.24347e-25
1.50939e-24
2.89885e-24
6.73432e-24
9.91524e-24
8.89053e-24
3.04566e-21
1.36293e-20
8.37575e-22
7.98301e-21
1.17972e-20
1.55398e-23
6.88605e-22
1.60467e-23
5.03423e-24
4.87633e-27
7.46508e-27
1.57317e-26
1.18443e-26
1.56646e-27
8.72813e-27
5.6227e-27
8.56295e-27
4.19393e-27
8.17043e-27
5.88759e-27
8.46756e-27
3.25081e-27
7.37661e-27
5.17721e-27
8.28171e-27
4.21672e-27
8.89532e-27
5.30947e-27
9.77295e-27
6.44666e-27
1.11543e-26
6.18296e-27
1.19397e-26
7.14568e-27
1.37067e-26
1.03126e-26
1.61108e-26
8.10661e-27
1.48599e-26
8.94577e-27
1.66121e-26
1.31734e-26
2.63673e-26
2.1366e-26
4.32204e-26
3.59356e-26
6.36366e-26
6.39795e-26
1.01167e-25
9.04848e-26
1.77377e-25
2.26534e-25
4.23817e-25
5.8164e-25
1.16748e-24
1.80332e-24
3.33023e-24
7.31766e-24
1.01706e-23
1.44026e-23
4.03043e-21
1.724e-20
1.01184e-21
1.09918e-20
1.54005e-20
9.53466e-24
9.63964e-22
1.17508e-23
7.1982e-24
6.79677e-28
1.32297e-26
2.49867e-26
1.26481e-26
1.59881e-27
1.01031e-26
6.44158e-27
9.62958e-27
4.78548e-27
9.22066e-27
6.58857e-27
9.38097e-27
3.57913e-27
8.27039e-27
5.74101e-27
9.07943e-27
4.6505e-27
9.91876e-27
5.92265e-27
1.08414e-26
7.17234e-27
1.24442e-26
6.97027e-27
1.35297e-26
8.1609e-27
1.56483e-26
1.18279e-26
1.84066e-26
9.35908e-27
1.73179e-26
1.05313e-26
1.95518e-26
1.58058e-26
3.18924e-26
2.65864e-26
5.36781e-26
4.54815e-26
8.02459e-26
8.11823e-26
1.27614e-25
1.1548e-25
2.23457e-25
2.83465e-25
5.17706e-25
6.98326e-25
1.35799e-24
1.99468e-24
3.53505e-24
7.48155e-24
9.48473e-24
2.27933e-23
5.14443e-21
2.08318e-20
1.45773e-21
1.44849e-20
1.95389e-20
5.59352e-24
1.28774e-21
7.42904e-24
9.70053e-24
4.89403e-29
1.85941e-26
3.82006e-26
1.34234e-26
1.59944e-27
1.19065e-26
7.29327e-27
1.09226e-26
5.42739e-27
1.04396e-26
7.36101e-27
1.03981e-26
3.93385e-27
9.29753e-27
6.38238e-27
9.93475e-27
5.12185e-27
1.10669e-26
6.59012e-27
1.19967e-26
7.99022e-27
1.38408e-26
7.84704e-27
1.53221e-26
9.30846e-27
1.77962e-26
1.35813e-26
2.08864e-26
1.0752e-26
2.0046e-26
1.22733e-26
2.27228e-26
1.87556e-26
3.79369e-26
3.24011e-26
6.53255e-26
5.58992e-26
9.81239e-26
9.94199e-26
1.54336e-25
1.39487e-25
2.66513e-25
3.32335e-25
5.91565e-25
7.74143e-25
1.45623e-24
2.02861e-24
3.51809e-24
7.26908e-24
7.92005e-24
3.52955e-23
6.35857e-21
2.3788e-20
2.39505e-21
1.8204e-20
2.45666e-20
7.03311e-24
1.64332e-21
3.91633e-24
1.21267e-23
4.2105e-27
2.25031e-26
5.68082e-26
1.4106e-26
1.58653e-27
1.42384e-26
8.13304e-27
1.25006e-26
6.11434e-27
1.18572e-26
8.16591e-27
1.15756e-26
4.31859e-27
1.04613e-26
7.06133e-27
1.08904e-26
5.62338e-27
1.23267e-26
7.30916e-27
1.32284e-26
8.87116e-27
1.53552e-26
8.806e-27
1.72881e-26
1.06014e-26
2.01111e-26
1.55433e-26
2.35145e-26
1.22592e-26
2.29269e-26
1.41316e-26
2.59506e-26
2.18953e-26
4.42269e-26
3.85797e-26
7.73853e-26
6.66828e-26
1.15749e-25
1.17048e-25
1.78206e-25
1.59244e-25
2.99321e-25
3.64077e-25
6.29506e-25
7.94837e-25
1.43974e-24
1.90759e-24
3.11717e-24
6.28006e-24
6.07931e-24
5.07864e-23
7.60557e-21
2.62638e-20
4.16457e-21
2.13112e-20
3.05708e-20
1.5259e-23
2.04126e-21
1.76128e-24
1.40105e-23
2.61861e-26
2.57376e-26
8.54313e-26
1.40035e-26
1.67491e-27
1.67106e-26
9.176e-27
1.41133e-26
6.92649e-27
1.33293e-26
9.08564e-27
1.28017e-26
4.74741e-27
1.16811e-26
7.83788e-27
1.18437e-26
6.16412e-27
1.36191e-26
8.07267e-27
1.44578e-26
9.82164e-27
1.6893e-26
9.8176e-27
1.93637e-26
1.19791e-26
2.25255e-26
1.76803e-26
2.61226e-26
1.37574e-26
2.58007e-26
1.59435e-26
2.89889e-26
2.49747e-26
5.02891e-26
4.45121e-26
8.89936e-26
7.64295e-26
1.31437e-25
1.31376e-25
1.95937e-25
1.70095e-25
3.15531e-25
3.69069e-25
6.22279e-25
7.47362e-25
1.31485e-24
1.64429e-24
2.40503e-24
4.73959e-24
4.25799e-24
6.91014e-23
8.77268e-21
2.73765e-20
7.29057e-21
2.51085e-20
3.74793e-20
4.16623e-23
2.40906e-21
1.1087e-24
1.54955e-23
8.79462e-26
2.82651e-26
1.30055e-25
1.31114e-26
1.90357e-27
1.90947e-26
1.06283e-26
1.54727e-26
8.13171e-27
1.45518e-26
1.00725e-26
1.39944e-26
5.31824e-27
1.28376e-26
8.764e-27
1.27025e-26
6.85309e-27
1.48021e-26
8.98074e-27
1.55907e-26
1.07913e-26
1.84155e-26
1.09543e-26
2.14361e-26
1.35084e-26
2.4937e-26
1.9716e-26
2.86842e-26
1.52175e-26
2.8503e-26
1.76148e-26
3.16866e-26
2.75243e-26
5.58614e-26
4.96819e-26
9.93009e-26
8.38876e-26
1.43704e-25
1.38477e-25
2.06204e-25
1.6795e-25
3.10915e-25
3.40516e-25
5.66724e-25
6.26033e-25
1.07916e-24
1.22959e-24
1.6837e-24
3.18814e-24
2.72623e-24
8.40041e-23
9.75773e-21
2.83802e-20
1.23296e-20
2.63236e-20
4.7089e-20
7.91928e-23
2.88225e-21
1.76815e-24
1.70067e-23
2.49315e-25
2.78058e-26
2.01364e-25
1.22409e-26
2.16874e-27
2.31115e-26
1.24369e-26
1.75587e-26
9.65724e-27
1.65191e-26
1.17004e-26
1.581e-26
6.06892e-27
1.47136e-26
1.02024e-26
1.40035e-26
7.78107e-27
1.6524e-26
1.02702e-26
1.71658e-26
1.22826e-26
2.04144e-26
1.25233e-26
2.42042e-26
1.55926e-26
2.80597e-26
2.2712e-26
3.17451e-26
1.70995e-26
3.17374e-26
1.98463e-26
3.45263e-26
3.09218e-26
6.13376e-26
5.57187e-26
1.09159e-25
9.16973e-26
1.53162e-25
1.45685e-25
2.0807e-25
1.59139e-25
2.88062e-25
2.99061e-25
4.77132e-25
4.85487e-25
7.9438e-25
8.08199e-25
1.04843e-24
1.91366e-24
1.55495e-24
1.02181e-22
1.06571e-20
2.74275e-20
2.01679e-20
1.00779e-25
2.5388e-26
1.60411e-27
5.4957e-27
2.62476e-27
1.96357e-30
5.90005e-28
1.99136e-28
4.30194e-28
2.79972e-28
4.2343e-28
3.35226e-28
4.80697e-28
4.18448e-28
4.57533e-28
3.90338e-28
5.44738e-28
5.16424e-28
4.79284e-28
4.58466e-28
5.47802e-28
5.74092e-28
5.66324e-28
5.75903e-28
5.78803e-28
6.0805e-28
6.70218e-28
6.92973e-28
6.71891e-28
6.92671e-28
6.52175e-28
6.91647e-28
7.87486e-28
8.24501e-28
7.32059e-28
7.0035e-28
6.18415e-28
6.17297e-28
6.15223e-28
6.39323e-28
5.68343e-28
5.93173e-28
4.73354e-28
4.34596e-28
3.97241e-28
3.38191e-28
1.64697e-28
1.01893e-28
3.34055e-29
1.19508e-29
9.83583e-32
9.25399e-30
1.7191e-28
7.93113e-28
3.51541e-27
1.12751e-27
7.7075e-26
2.99048e-24
3.54534e-24
9.17347e-26
4.78029e-24
8.05818e-26
1.50711e-25
7.70108e-26
2.83279e-27
2.41867e-29
9.96733e-28
5.82032e-28
5.53868e-28
9.99035e-28
5.70379e-28
1.01476e-27
7.40444e-28
1.15539e-27
7.91136e-28
9.7716e-28
9.53979e-28
1.29628e-27
9.23723e-28
1.05727e-27
1.04921e-27
1.34379e-27
1.10508e-27
1.29526e-27
1.13732e-27
1.34383e-27
1.30123e-27
1.54714e-27
1.32411e-27
1.50884e-27
1.30134e-27
1.46486e-27
1.51767e-27
1.78685e-27
1.45549e-27
1.46638e-27
1.24273e-27
1.27724e-27
1.21043e-27
1.30962e-27
1.1177e-27
1.13978e-27
9.344e-28
7.88191e-28
7.30901e-28
6.56117e-28
3.15554e-28
1.6152e-28
6.00705e-29
1.3795e-29
3.09931e-31
4.48444e-29
3.79834e-28
2.44578e-27
7.07851e-27
5.11416e-27
1.11701e-25
8.35647e-24
2.13389e-23
1.95243e-25
9.4106e-24
2.13112e-24
5.92571e-25
1.82317e-25
8.11382e-27
3.52544e-29
1.03418e-27
1.07222e-27
7.03686e-28
1.42027e-27
8.71633e-28
1.38152e-27
1.12533e-27
1.50959e-27
1.16721e-27
1.38398e-27
1.39713e-27
1.78171e-27
1.34528e-27
1.51572e-27
1.50639e-27
1.89195e-27
1.57583e-27
1.85869e-27
1.60583e-27
1.95515e-27
1.83708e-27
2.21694e-27
1.86976e-27
2.17933e-27
1.82197e-27
2.16448e-27
2.12513e-27
2.5595e-27
2.04591e-27
2.13599e-27
1.73471e-27
1.88448e-27
1.69016e-27
1.89727e-27
1.5567e-27
1.67288e-27
1.27561e-27
1.20498e-27
1.01747e-27
9.48966e-28
4.36318e-28
2.52728e-28
8.00749e-29
2.61945e-29
7.38282e-31
4.37122e-29
6.01838e-28
2.8745e-27
9.4604e-27
5.16946e-27
3.39374e-25
1.36521e-23
2.29746e-23
3.51569e-24
2.75861e-23
1.69979e-23
1.63714e-24
1.05268e-24
1.09103e-26
8.0152e-29
1.03474e-27
1.14059e-27
7.30745e-28
1.4705e-27
9.2387e-28
1.43161e-27
1.18136e-27
1.56445e-27
1.21263e-27
1.43537e-27
1.42699e-27
1.86673e-27
1.36134e-27
1.56894e-27
1.52258e-27
1.97808e-27
1.59489e-27
1.93937e-27
1.62461e-27
2.04926e-27
1.8579e-27
2.33509e-27
1.89069e-27
2.28169e-27
1.84779e-27
2.27228e-27
2.15379e-27
2.71294e-27
2.06471e-27
2.23424e-27
1.73999e-27
1.97322e-27
1.69903e-27
2.01334e-27
1.58751e-27
1.78556e-27
1.31976e-27
1.29918e-27
1.06198e-27
1.0311e-27
4.57032e-28
2.7882e-28
9.04394e-29
3.70493e-29
4.14268e-31
4.01703e-29
4.98499e-28
2.43532e-27
7.63824e-27
3.96907e-27
4.73036e-25
2.21806e-23
3.24009e-23
2.38566e-23
4.47719e-23
6.89786e-23
2.06592e-24
3.58863e-24
3.41599e-26
2.50474e-28
1.09874e-27
1.27312e-27
7.40154e-28
1.64337e-27
9.00963e-28
1.59598e-27
1.19301e-27
1.76204e-27
1.21423e-27
1.56548e-27
1.44402e-27
2.03424e-27
1.35554e-27
1.66502e-27
1.54433e-27
2.11427e-27
1.60993e-27
2.05603e-27
1.6466e-27
2.17796e-27
1.89983e-27
2.48842e-27
1.9171e-27
2.41987e-27
1.87835e-27
2.41005e-27
2.21714e-27
2.91107e-27
2.08656e-27
2.35955e-27
1.75065e-27
2.08778e-27
1.72989e-27
2.16457e-27
1.62919e-27
1.94409e-27
1.37684e-27
1.43244e-27
1.13429e-27
1.1681e-27
4.85195e-28
3.35132e-28
1.12076e-28
6.55327e-29
5.86107e-31
3.65347e-29
3.86938e-28
1.99976e-27
5.34691e-27
2.5336e-27
7.37856e-25
3.68799e-23
4.15391e-23
9.03421e-23
5.28345e-23
1.82612e-22
1.64996e-24
8.55955e-24
1.0163e-25
6.05047e-28
1.32573e-27
1.42044e-27
8.13938e-28
1.86016e-27
9.09051e-28
1.8195e-27
1.23875e-27
2.00628e-27
1.24735e-27
1.76234e-27
1.51277e-27
2.27679e-27
1.38309e-27
1.83319e-27
1.61518e-27
2.33077e-27
1.67145e-27
2.24877e-27
1.72129e-27
2.39258e-27
2.00581e-27
2.73035e-27
2.00808e-27
2.64293e-27
1.97085e-27
2.64692e-27
2.36921e-27
3.21115e-27
2.18002e-27
2.57002e-27
1.82454e-27
2.28929e-27
1.83012e-27
2.41077e-27
1.74318e-27
2.2034e-27
1.50107e-27
1.66549e-27
1.28288e-27
1.39888e-27
5.52983e-28
4.49268e-28
1.60992e-28
1.36844e-28
5.11732e-30
5.10406e-29
2.85173e-28
1.56372e-27
3.10109e-27
1.20928e-27
1.10447e-24
5.78165e-23
5.26704e-23
2.25158e-22
5.58643e-23
3.76789e-22
9.09325e-25
1.65537e-23
2.56271e-25
1.0639e-27
1.74128e-27
1.52158e-27
9.45799e-28
2.06882e-27
9.62081e-28
2.03835e-27
1.33347e-27
2.25547e-27
1.31184e-27
1.99036e-27
1.62268e-27
2.55172e-27
1.43209e-27
2.03997e-27
1.71707e-27
2.58966e-27
1.7552e-27
2.48617e-27
1.82429e-27
2.66466e-27
2.14983e-27
3.02215e-27
2.131e-27
2.91926e-27
2.10047e-27
2.95639e-27
2.57529e-27
3.57408e-27
2.31189e-27
2.83336e-27
1.93685e-27
2.55236e-27
1.98091e-27
2.72505e-27
1.91235e-27
2.55464e-27
1.69303e-27
2.00777e-27
1.51869e-27
1.7407e-27
6.79023e-28
6.55303e-28
2.68591e-28
3.06879e-28
3.73967e-29
1.41504e-28
2.62818e-28
1.2814e-27
1.93363e-27
1.74869e-27
1.42354e-24
8.51059e-23
7.80503e-23
4.35399e-22
5.26984e-23
6.53916e-22
3.09822e-25
2.73694e-23
5.84406e-25
1.52298e-27
2.393e-27
1.56271e-27
1.10497e-27
2.30017e-27
1.03924e-27
2.25816e-27
1.467e-27
2.51186e-27
1.40349e-27
2.23677e-27
1.76219e-27
2.84402e-27
1.49443e-27
2.26536e-27
1.83883e-27
2.87474e-27
1.85211e-27
2.75214e-27
1.94678e-27
2.97428e-27
2.30841e-27
3.35429e-27
2.27479e-27
3.23284e-27
2.2547e-27
3.31511e-27
2.81308e-27
3.98903e-27
2.46757e-27
3.13761e-27
2.0779e-27
2.86535e-27
2.1644e-27
3.11311e-27
2.14019e-27
3.0091e-27
1.96574e-27
2.48204e-27
1.86674e-27
2.25112e-27
9.00627e-28
1.03113e-27
5.03251e-28
7.10618e-28
1.87854e-28
5.41385e-28
5.65335e-28
1.91147e-27
4.12667e-27
1.32976e-26
1.72875e-24
1.19737e-22
1.23e-22
7.02044e-22
5.62533e-23
1.0039e-21
1.38178e-25
4.02067e-23
1.22056e-24
2.14742e-27
3.62455e-27
1.48085e-27
1.28087e-27
2.58774e-27
1.12448e-27
2.50197e-27
1.63514e-27
2.78756e-27
1.51584e-27
2.50732e-27
1.93905e-27
3.15291e-27
1.5693e-27
2.51032e-27
1.98963e-27
3.18119e-27
1.96113e-27
3.04783e-27
2.08947e-27
3.31957e-27
2.49642e-27
3.72307e-27
2.43363e-27
3.59169e-27
2.43419e-27
3.72877e-27
3.09734e-27
4.45931e-27
2.64412e-27
3.49492e-27
2.25125e-27
3.23827e-27
2.40312e-27
3.59313e-27
2.43816e-27
3.61337e-27
2.35404e-27
3.15137e-27
2.40069e-27
3.02695e-27
1.28992e-27
1.7199e-27
1.01402e-27
1.65683e-27
7.51557e-28
1.99986e-27
2.25326e-27
6.11032e-27
1.96821e-26
7.23959e-26
1.8955e-24
1.63667e-22
2.22337e-22
9.88587e-22
7.00758e-23
1.42129e-21
5.23737e-25
5.43388e-23
2.33919e-24
3.56586e-27
5.73873e-27
1.25592e-27
1.48123e-27
2.95184e-27
1.21362e-27
2.78225e-27
1.83276e-27
3.09405e-27
1.65331e-27
2.8068e-27
2.1451e-27
3.48471e-27
1.66061e-27
2.77826e-27
2.16424e-27
3.51201e-27
2.09056e-27
3.37243e-27
2.25992e-27
3.70214e-27
2.70571e-27
4.13719e-27
2.6206e-27
3.99597e-27
2.64824e-27
4.20426e-27
3.42044e-27
5.00014e-27
2.85675e-27
3.91644e-27
2.46992e-27
3.69107e-27
2.70083e-27
4.20553e-27
2.84582e-27
4.42297e-27
2.91427e-27
4.11221e-27
3.20403e-27
4.23086e-27
1.97994e-27
2.9723e-27
2.08768e-27
3.78785e-27
2.5012e-27
6.39667e-27
8.64415e-27
2.20673e-26
7.83107e-26
2.57752e-25
1.97956e-24
2.20535e-22
4.05844e-22
1.25887e-21
1.16996e-22
1.88667e-21
1.87019e-24
6.86389e-23
4.06017e-24
7.84832e-27
9.45089e-27
8.61526e-28
1.75088e-27
3.37816e-27
1.31369e-27
3.09238e-27
2.07123e-27
3.43072e-27
1.81339e-27
3.14514e-27
2.38833e-27
3.84264e-27
1.76651e-27
3.07718e-27
2.37022e-27
3.86667e-27
2.2386e-27
3.73352e-27
2.45801e-27
4.1272e-27
2.95249e-27
4.59504e-27
2.83357e-27
4.46042e-27
2.90009e-27
4.75697e-27
3.80353e-27
5.62065e-27
3.11018e-27
4.42418e-27
2.74383e-27
4.24791e-27
3.0923e-27
4.98795e-27
3.39567e-27
5.52862e-27
3.7193e-27
5.50942e-27
4.43586e-27
6.09344e-27
3.18534e-27
5.21499e-27
4.30464e-27
8.29293e-27
7.06849e-27
1.76682e-26
2.71138e-26
6.77048e-26
2.35765e-25
6.94785e-25
1.90345e-24
2.96671e-22
7.49827e-22
1.44608e-21
2.01651e-22
2.41575e-21
5.47401e-24
8.4502e-23
6.55687e-24
2.27386e-26
1.39732e-26
4.75506e-28
2.05207e-27
3.94424e-27
1.40337e-27
3.46184e-27
2.33736e-27
3.82155e-27
1.99397e-27
3.53305e-27
2.6573e-27
4.24199e-27
1.88462e-27
3.41647e-27
2.59739e-27
4.25801e-27
2.40642e-27
4.13893e-27
2.68713e-27
4.6016e-27
3.22165e-27
5.11242e-27
3.08631e-27
4.99041e-27
3.19819e-27
5.3942e-27
4.2435e-27
6.34398e-27
3.42065e-27
5.03705e-27
3.08992e-27
4.93846e-27
3.58501e-27
6.00401e-27
4.15221e-27
7.03191e-27
4.87511e-27
7.52677e-27
6.27901e-27
8.94392e-27
5.23175e-27
9.13041e-27
8.61798e-27
1.71289e-26
1.73882e-26
4.24662e-26
7.03367e-26
1.71245e-25
5.67664e-25
1.4966e-24
1.83813e-24
4.05485e-22
1.27434e-21
1.52412e-21
3.87332e-22
2.92371e-21
1.14646e-23
1.02936e-22
9.65467e-24
6.70802e-26
1.93154e-26
1.62815e-28
2.45622e-27
4.64905e-27
1.48296e-27
3.89167e-27
2.64314e-27
4.26936e-27
2.18959e-27
3.98055e-27
2.96876e-27
4.68153e-27
2.01371e-27
3.80394e-27
2.85883e-27
4.68748e-27
2.58782e-27
4.6039e-27
2.94317e-27
5.13076e-27
3.5374e-27
5.69225e-27
3.3691e-27
5.61229e-27
3.54296e-27
6.13332e-27
4.77598e-27
7.18199e-27
3.7895e-27
5.78978e-27
3.51913e-27
5.79431e-27
4.23277e-27
7.31806e-27
5.16289e-27
9.10072e-27
6.50994e-27
1.04002e-26
9.02581e-27
1.31978e-26
8.53145e-27
1.57207e-26
1.63981e-26
3.28272e-26
3.78133e-26
9.05728e-26
1.55494e-25
3.67051e-25
1.14528e-24
2.72214e-24
1.7789e-24
5.67872e-22
2.14752e-21
1.47879e-21
7.25581e-22
3.49947e-21
1.95469e-23
1.3116e-22
1.3066e-23
1.79868e-25
2.47013e-26
1.77925e-29
3.04203e-27
5.4976e-27
1.55462e-27
4.38558e-27
2.99411e-27
4.7742e-27
2.42113e-27
4.48524e-27
3.31169e-27
5.1728e-27
2.16297e-27
4.24274e-27
3.14282e-27
5.16487e-27
2.79406e-27
5.12728e-27
3.23604e-27
5.72158e-27
3.88426e-27
6.35489e-27
3.70021e-27
6.3272e-27
3.95197e-27
6.9904e-27
5.38378e-27
8.17161e-27
4.24174e-27
6.70051e-27
4.05842e-27
6.85612e-27
5.05439e-27
9.0283e-27
6.53504e-27
1.1879e-26
8.79606e-27
1.44107e-26
1.29972e-26
1.94556e-26
1.37293e-26
2.62187e-26
2.94494e-26
5.81501e-26
7.44133e-26
1.73491e-25
3.01287e-25
6.85295e-25
2.01684e-24
4.33221e-24
1.87677e-24
8.06796e-22
3.45095e-21
1.38541e-21
1.35886e-21
4.29925e-21
2.49366e-23
1.70887e-22
1.62724e-23
4.32005e-25
2.83125e-26
1.60703e-29
3.96678e-27
6.44527e-27
1.63019e-27
4.92593e-27
3.42467e-27
5.32003e-27
2.69712e-27
5.04792e-27
3.71546e-27
5.70471e-27
2.33663e-27
4.73451e-27
3.47076e-27
5.68047e-27
3.02676e-27
5.71856e-27
3.56653e-27
6.37886e-27
4.28958e-27
7.09782e-27
4.07888e-27
7.16097e-27
4.42736e-27
7.98981e-27
6.10677e-27
9.32497e-27
4.78466e-27
7.81183e-27
4.72512e-27
8.17108e-27
6.11684e-27
1.12126e-26
8.32631e-27
1.55433e-26
1.18881e-26
1.99446e-26
1.85684e-26
2.84793e-26
2.16202e-26
4.21257e-26
5.00725e-26
9.77565e-26
1.33598e-25
3.03017e-25
5.18678e-25
1.1437e-24
3.16328e-24
6.1814e-24
2.21588e-24
1.14476e-21
5.30348e-21
1.2105e-21
2.3484e-21
5.50159e-21
2.76351e-23
2.36244e-22
1.88249e-23
9.42549e-25
2.71655e-26
2.63393e-28
5.30762e-27
7.58709e-27
1.67714e-27
5.57913e-27
3.91114e-27
5.94798e-27
3.02276e-27
5.68357e-27
4.16093e-27
6.30291e-27
2.53553e-27
5.28954e-27
3.82781e-27
6.25088e-27
3.29402e-27
6.38003e-27
3.94537e-27
7.11184e-27
4.73122e-27
7.94297e-27
4.53058e-27
8.11287e-27
4.98902e-27
9.14212e-27
6.9347e-27
1.06808e-26
5.44918e-27
9.14637e-27
5.55368e-27
9.77759e-27
7.42055e-27
1.39463e-26
1.06515e-26
2.02775e-26
1.59984e-26