/*--------------------------------*- C++ -*----------------------------------*\
| =========                 |                                                 |
| \\      /  F ield         | OpenFOAM: The Open Source CFD Toolbox           |
|  \\    /   O peration     | Version:  2312                                  |
|   \\  /    A nd           | Website:  www.openfoam.com                      |
|    \\/     M anipulation  |                                                 |
\*---------------------------------------------------------------------------*/
FoamFile
{
    version     2.0;
    format      ascii;
    arch        "LSB;label=32;scalar=64";
    class       volScalarField;
    location    "300";
    object      pMean;
}
// * * * * * * * * * * * * * * * * * * * * * * * * * * * * * * * * * * * * * //

dimensions      [0 2 -2 0 0 0 0];

internalField   nonuniform List<scalar> 
144000
(
2.09196e-09
1.97805e-09
3.40385e-10
-7.01164e-10
-7.04303e-10
-3.99932e-10
-6.85026e-11
1.29781e-10
3.01445e-10
3.68017e-10
4.54382e-10
4.69708e-10
5.29107e-10
5.24942e-10
5.74914e-10
5.62503e-10
6.03212e-10
5.77513e-10
6.1721e-10
5.92326e-10
6.31499e-10
5.99612e-10
6.39111e-10
6.07182e-10
6.48574e-10
6.14836e-10
6.561e-10
6.17543e-10
6.60355e-10
6.22071e-10
6.67779e-10
6.28806e-10
6.7353e-10
6.27844e-10
6.74357e-10
6.30691e-10
6.79861e-10
6.35468e-10
6.84417e-10
6.36791e-10
6.87022e-10
6.41883e-10
6.9314e-10
6.48304e-10
6.92801e-10
6.42522e-10
6.8603e-10
6.48054e-10
6.89122e-10
6.61726e-10
6.95935e-10
6.9192e-10
7.05083e-10
7.31947e-10
6.96882e-10
7.93985e-10
7.65952e-10
1.05402e-09
-1.08584e-09
-2.50143e-10
2.13291e-09
2.00572e-09
3.28972e-10
-7.09366e-10
-7.05723e-10
-3.99073e-10
-6.81706e-11
1.29787e-10
3.00916e-10
3.67444e-10
4.53643e-10
4.69186e-10
5.2849e-10
5.2454e-10
5.74395e-10
5.6224e-10
6.02774e-10
5.77266e-10
6.16796e-10
5.92187e-10
6.31149e-10
5.99494e-10
6.38776e-10
6.07133e-10
6.48278e-10
6.14831e-10
6.55813e-10
6.17546e-10
6.60067e-10
6.22122e-10
6.67514e-10
6.28903e-10
6.73264e-10
6.27925e-10
6.74071e-10
6.30838e-10
6.79589e-10
6.35654e-10
6.84138e-10
6.36991e-10
6.86732e-10
6.42143e-10
6.92879e-10
6.48643e-10
6.92524e-10
6.42851e-10
6.85711e-10
6.48505e-10
6.88827e-10
6.62228e-10
6.95662e-10
6.92485e-10
7.04915e-10
7.32333e-10
6.96718e-10
7.92718e-10
7.69789e-10
1.07502e-09
-1.10794e-09
-2.92684e-10
2.2239e-09
2.018e-09
2.90191e-10
-7.18073e-10
-7.02114e-10
-3.95172e-10
-6.61375e-11
1.30542e-10
3.01118e-10
3.66906e-10
4.53022e-10
4.68365e-10
5.27903e-10
5.23798e-10
5.73894e-10
5.61661e-10
6.02448e-10
5.76696e-10
6.16447e-10
5.91738e-10
6.30941e-10
5.99064e-10
6.38571e-10
6.06795e-10
6.48151e-10
6.14542e-10
6.55732e-10
6.17258e-10
6.59979e-10
6.2188e-10
6.67463e-10
6.28716e-10
6.73268e-10
6.27708e-10
6.74019e-10
6.30692e-10
6.79591e-10
6.35549e-10
6.84161e-10
6.36893e-10
6.86719e-10
6.42111e-10
6.92906e-10
6.48727e-10
6.92614e-10
6.42918e-10
6.85711e-10
6.48683e-10
6.88939e-10
6.62379e-10
6.95823e-10
6.92601e-10
7.05375e-10
7.32076e-10
6.97975e-10
7.8748e-10
7.75456e-10
1.11476e-09
-1.17188e-09
-3.2953e-10
2.34868e-09
1.97965e-09
2.29408e-10
-7.17404e-10
-6.91861e-10
-3.87204e-10
-6.15772e-11
1.33139e-10
3.02568e-10
3.66965e-10
4.52572e-10
4.67512e-10
5.27264e-10
5.22933e-10
5.7326e-10
5.60962e-10
6.02067e-10
5.75983e-10
6.15946e-10
5.9115e-10
6.30668e-10
5.98529e-10
6.38263e-10
6.06354e-10
6.47965e-10
6.1418e-10
6.55627e-10
6.16893e-10
6.59838e-10
6.21565e-10
6.67386e-10
6.28492e-10
6.73301e-10
6.27441e-10
6.73928e-10
6.30495e-10
6.79597e-10
6.35415e-10
6.84215e-10
6.3675e-10
6.86708e-10
6.42023e-10
6.92985e-10
6.48776e-10
6.92881e-10
6.42897e-10
6.85823e-10
6.48716e-10
6.89303e-10
6.62289e-10
6.96359e-10
6.92152e-10
7.06849e-10
7.30263e-10
7.01799e-10
7.756e-10
7.90213e-10
1.15462e-09
-1.27072e-09
-3.22445e-10
2.48194e-09
1.85682e-09
1.54358e-10
-6.91264e-10
-6.71224e-10
-3.75402e-10
-5.48115e-11
1.37745e-10
3.05586e-10
3.67944e-10
4.52422e-10
4.66751e-10
5.26565e-10
5.22017e-10
5.72461e-10
5.60177e-10
6.01579e-10
5.7517e-10
6.1522e-10
5.90451e-10
6.30263e-10
5.97912e-10
6.37773e-10
6.05839e-10
6.47642e-10
6.1378e-10
6.55416e-10
6.16501e-10
6.59549e-10
6.21221e-10
6.67186e-10
6.28271e-10
6.73269e-10
6.27186e-10
6.737e-10
6.30298e-10
6.79509e-10
6.35313e-10
6.84203e-10
6.3663e-10
6.86601e-10
6.41934e-10
6.93025e-10
6.4887e-10
6.93203e-10
6.42867e-10
6.85925e-10
6.48606e-10
6.89859e-10
6.61822e-10
6.97346e-10
6.90864e-10
7.09593e-10
7.26495e-10
7.08628e-10
7.57362e-10
8.14637e-10
1.18299e-09
-1.39098e-09
-2.41322e-10
2.61416e-09
1.62934e-09
6.81467e-11
-6.28457e-10
-6.37222e-10
-3.61154e-10
-4.67803e-11
1.43986e-10
3.10043e-10
3.69801e-10
4.52603e-10
4.66098e-10
5.25845e-10
5.2109e-10
5.71543e-10
5.59343e-10
6.01002e-10
5.74301e-10
6.143e-10
5.89662e-10
6.29729e-10
5.97244e-10
6.37103e-10
6.05256e-10
6.47175e-10
6.13353e-10
6.55088e-10
6.16091e-10
6.59103e-10
6.20853e-10
6.66851e-10
6.28068e-10
6.73155e-10
6.26961e-10
6.73315e-10
6.30109e-10
6.79308e-10
6.3525e-10
6.84098e-10
6.36542e-10
6.86369e-10
6.41851e-10
6.92983e-10
6.48992e-10
6.93559e-10
6.42819e-10
6.86039e-10
6.4829e-10
6.90651e-10
6.6089e-10
6.98876e-10
6.88511e-10
7.13858e-10
7.20298e-10
7.19048e-10
7.32967e-10
8.48927e-10
1.19641e-09
-1.52903e-09
-7.26641e-11
2.74959e-09
1.29167e-09
-3.41296e-11
-5.23373e-10
-5.86382e-10
-3.45448e-10
-3.86312e-11
1.51389e-10
3.15672e-10
3.7239e-10
4.52965e-10
4.65527e-10
5.2506e-10
5.2013e-10
5.70483e-10
5.5846e-10
6.00334e-10
5.7341e-10
6.13213e-10
5.88812e-10
6.29084e-10
5.96566e-10
6.36276e-10
6.04634e-10
6.46579e-10
6.12927e-10
6.54651e-10
6.15697e-10
6.58513e-10
6.20483e-10
6.66383e-10
6.27897e-10
6.72946e-10
6.2679e-10
6.72773e-10
6.29937e-10
6.78978e-10
6.35234e-10
6.83884e-10
6.36506e-10
6.86002e-10
6.41774e-10
6.92846e-10
6.49137e-10
6.93939e-10
6.42732e-10
6.86174e-10
6.4772e-10
6.91693e-10
6.59399e-10
7.01071e-10
6.84899e-10
7.19847e-10
7.11387e-10
7.33316e-10
7.02891e-10
8.91666e-10
1.1967e-09
-1.68603e-09
1.8442e-10
2.89406e-09
8.49962e-10
-1.5795e-10
-3.75633e-10
-5.16157e-10
-3.28846e-10
-3.1358e-11
1.59452e-10
3.22149e-10
3.75447e-10
4.53358e-10
4.64887e-10
5.24096e-10
5.19081e-10
5.69244e-10
5.57495e-10
5.99542e-10
5.72504e-10
6.11967e-10
5.87907e-10
6.28319e-10
5.95901e-10
6.3531e-10
6.03999e-10
6.45864e-10
6.12531e-10
6.54109e-10
6.15349e-10
6.57786e-10
6.20135e-10
6.65791e-10
6.27787e-10
6.72639e-10
6.26705e-10
6.72081e-10
6.29808e-10
6.78521e-10
6.35289e-10
6.83552e-10
6.36538e-10
6.85502e-10
6.41715e-10
6.92627e-10
6.49297e-10
6.94332e-10
6.42598e-10
6.86378e-10
6.46819e-10
6.9304e-10
6.57268e-10
7.04014e-10
6.7995e-10
7.27545e-10
6.99956e-10
7.50943e-10
6.68868e-10
9.39201e-10
1.18771e-09
-1.85907e-09
5.1945e-10
3.05267e-09
3.25014e-10
-3.08357e-10
-1.90741e-10
-4.24902e-10
-3.11213e-10
-2.57672e-11
1.67683e-10
3.29223e-10
3.78832e-10
4.53635e-10
4.64073e-10
5.22855e-10
5.17869e-10
5.67771e-10
5.56403e-10
5.98565e-10
5.71561e-10
6.10546e-10
5.86939e-10
6.2741e-10
5.9525e-10
6.34204e-10
6.03359e-10
6.45028e-10
6.12171e-10
6.53459e-10
6.15062e-10
6.56934e-10
6.1983e-10
6.65081e-10
6.27751e-10
6.72229e-10
6.26724e-10
6.71257e-10
6.29729e-10
6.77935e-10
6.35426e-10
6.83109e-10
6.36643e-10
6.84889e-10
6.41676e-10
6.92342e-10
6.49455e-10
6.94756e-10
6.42392e-10
6.86684e-10
6.45571e-10
6.94701e-10
6.54509e-10
7.07635e-10
6.73787e-10
7.36644e-10
6.86656e-10
7.70731e-10
6.33497e-10
9.86733e-10
1.17459e-09
-2.04187e-09
9.08382e-10
3.22515e-09
-2.52049e-10
-4.86735e-10
2.08732e-11
-3.12851e-10
-2.91929e-10
-2.24194e-11
1.75585e-10
3.36656e-10
3.82412e-10
4.53701e-10
4.6298e-10
5.21268e-10
5.16448e-10
5.6602e-10
5.55136e-10
5.97349e-10
5.70547e-10
6.08939e-10
5.85893e-10
6.2633e-10
5.946e-10
6.32953e-10
6.02707e-10
6.44062e-10
6.11849e-10
6.52691e-10
6.14837e-10
6.55964e-10
6.19573e-10
6.64259e-10
6.27793e-10
6.71712e-10
6.2685e-10
6.70318e-10
6.29709e-10
6.77237e-10
6.35644e-10
6.82566e-10
6.36818e-10
6.84186e-10
6.41653e-10
6.9201e-10
6.49598e-10
6.95207e-10
6.42106e-10
6.87114e-10
6.44017e-10
6.9662e-10
6.51214e-10
7.11769e-10
6.66777e-10
7.46565e-10
6.72547e-10
7.90981e-10
5.99964e-10
1.0291e-09
1.16214e-09
-2.22431e-09
1.32148e-09
3.40661e-09
-8.44977e-10
-6.90805e-10
2.44864e-10
-1.82053e-10
-2.70099e-10
-2.15682e-11
1.82669e-10
3.44197e-10
3.86083e-10
4.53487e-10
4.61589e-10
5.19303e-10
5.14792e-10
5.63969e-10
5.5367e-10
5.95857e-10
5.6944e-10
6.07137e-10
5.84755e-10
6.25058e-10
5.93934e-10
6.31554e-10
6.02038e-10
6.42957e-10
6.11555e-10
6.518e-10
6.14668e-10
6.54878e-10
6.19364e-10
6.63327e-10
6.27908e-10
6.71085e-10
6.27076e-10
6.69284e-10
6.29744e-10
6.76433e-10
6.35932e-10
6.81932e-10
6.37052e-10
6.83417e-10
6.41641e-10
6.91638e-10
6.49724e-10
6.95672e-10
6.41763e-10
6.87644e-10
6.42228e-10
6.98682e-10
6.47581e-10
7.16152e-10
6.5941e-10
7.5653e-10
6.58868e-10
8.09811e-10
5.71296e-10
1.06206e-09
1.15375e-09
-2.39345e-09
1.72654e-09
3.58702e-09
-1.41411e-09
-9.14389e-10
4.66041e-10
-3.66256e-11
-2.44761e-10
-2.31404e-11
1.88451e-10
3.51564e-10
3.89739e-10
4.52976e-10
4.59898e-10
5.16957e-10
5.12892e-10
5.61606e-10
5.51997e-10
5.94072e-10
5.68226e-10
6.0514e-10
5.83524e-10
6.23574e-10
5.93237e-10
6.30008e-10
6.01345e-10
6.41708e-10
6.11276e-10
6.50779e-10
6.14546e-10
6.53686e-10
6.19197e-10
6.62288e-10
6.28086e-10
6.70349e-10
6.27388e-10
6.68169e-10
6.2983e-10
6.75536e-10
6.36283e-10
6.81209e-10
6.37343e-10
6.82591e-10
6.41651e-10
6.91218e-10
6.49844e-10
6.96118e-10
6.41398e-10
6.88218e-10
6.40319e-10
7.00725e-10
6.43852e-10
7.20418e-10
6.52282e-10
7.65704e-10
6.4687e-10
8.25503e-10
5.49907e-10
1.08282e-09
1.15112e-09
-2.53523e-09
2.0939e-09
3.75367e-09
-1.92544e-09
-1.14851e-09
6.69663e-10
1.17839e-10
-2.1492e-10
-2.66509e-11
1.92558e-10
3.58451e-10
3.93306e-10
4.52193e-10
4.57929e-10
5.1424e-10
5.10749e-10
5.58941e-10
5.50123e-10
5.91998e-10
5.66904e-10
6.02959e-10
5.82202e-10
6.21878e-10
5.92497e-10
6.2832e-10
6.00625e-10
6.40312e-10
6.11002e-10
6.49628e-10
6.14452e-10
6.52394e-10
6.19069e-10
6.61147e-10
6.28312e-10
6.69505e-10
6.27772e-10
6.66985e-10
6.29963e-10
6.74546e-10
6.36683e-10
6.80405e-10
6.37683e-10
6.81712e-10
6.41692e-10
6.90745e-10
6.49973e-10
6.965e-10
6.41068e-10
6.88765e-10
6.38426e-10
7.02559e-10
6.40341e-10
7.24177e-10
6.45976e-10
7.73299e-10
6.3762e-10
8.36698e-10
5.37359e-10
1.09042e-09
1.15391e-09
-2.63643e-09
2.40141e-09
3.89199e-09
-2.35349e-09
-1.38097e-09
8.43806e-10
2.74902e-10
-1.7977e-10
-3.12746e-11
1.94717e-10
3.64552e-10
3.96719e-10
4.51173e-10
4.55719e-10
5.11177e-10
5.08378e-10
5.55996e-10
5.48063e-10
5.89648e-10
5.65469e-10
6.0061e-10
5.80795e-10
6.19977e-10
5.91705e-10
6.265e-10
5.99879e-10
6.38775e-10
6.1073e-10
6.48349e-10
6.1438e-10
6.51011e-10
6.18971e-10
6.59909e-10
6.28576e-10
6.68554e-10
6.2821e-10
6.65742e-10
6.3014e-10
6.7346e-10
6.37125e-10
6.79519e-10
6.38074e-10
6.80778e-10
6.41778e-10
6.90197e-10
6.50141e-10
6.96762e-10
6.40837e-10
6.89181e-10
6.36714e-10
7.03991e-10
6.37324e-10
7.27068e-10
6.41017e-10
7.7868e-10
6.31874e-10
8.42637e-10
5.34172e-10
1.08549e-09
1.16027e-09
-2.68802e-09
2.63461e-09
3.98853e-09
-2.68253e-09
-1.59815e-09
9.80099e-10
4.27965e-10
-1.38937e-10
-3.60105e-11
1.94786e-10
3.69532e-10
3.99894e-10
4.4996e-10
4.53313e-10
5.07802e-10
5.05799e-10
5.52795e-10
5.45839e-10
5.87036e-10
5.63925e-10
5.98108e-10
5.79316e-10
6.17883e-10
5.90857e-10
6.24558e-10
5.99109e-10
6.37105e-10
6.10446e-10
6.46949e-10
6.14321e-10
6.49547e-10
6.18901e-10
6.58579e-10
6.28868e-10
6.67503e-10
6.2869e-10
6.6445e-10
6.30359e-10
6.72291e-10
6.37604e-10
6.78552e-10
6.38515e-10
6.79784e-10
6.41927e-10
6.89544e-10
6.50383e-10
6.96849e-10
6.40778e-10
6.89371e-10
6.35337e-10
7.04844e-10
6.35059e-10
7.28795e-10
6.37792e-10
7.81435e-10
6.30015e-10
8.43122e-10
5.39998e-10
1.06966e-09
1.16734e-09
-2.68439e-09
2.78677e-09
4.03255e-09
-2.90507e-09
-1.78767e-09
1.07405e-09
5.70809e-10
-9.25704e-11
-3.98063e-11
1.92763e-10
3.73097e-10
4.02731e-10
4.48593e-10
4.50761e-10
5.0415e-10
5.03037e-10
5.49363e-10
5.43468e-10
5.84183e-10
5.62282e-10
5.95471e-10
5.77775e-10
6.1561e-10
5.89954e-10
6.22507e-10
5.98319e-10
6.35312e-10
6.10145e-10
6.45439e-10
6.14272e-10
6.48012e-10
6.18855e-10
6.57165e-10
6.29178e-10
6.66358e-10
6.29203e-10
6.63115e-10
6.30619e-10
6.71039e-10
6.38115e-10
6.775e-10
6.39013e-10
6.7872e-10
6.4216e-10
6.88761e-10
6.50734e-10
6.96706e-10
6.40955e-10
6.89243e-10
6.34427e-10
7.04981e-10
6.33736e-10
7.29154e-10
6.36523e-10
7.81409e-10
6.32061e-10
8.38472e-10
5.53785e-10
1.04545e-09
1.17257e-09
-2.62424e-09
2.85798e-09
4.01633e-09
-3.02126e-09
-1.93878e-09
1.12473e-09
6.97951e-10
-4.13482e-11
-4.16578e-11
1.88807e-10
3.74995e-10
4.05113e-10
4.47107e-10
4.48115e-10
5.00261e-10
5.00115e-10
5.45732e-10
5.40971e-10
5.81118e-10
5.60549e-10
5.92717e-10
5.76183e-10
6.13179e-10
5.88995e-10
6.20357e-10
5.97513e-10
6.33408e-10
6.09825e-10
6.43828e-10
6.14225e-10
6.46414e-10
6.1883e-10
6.55678e-10
6.29499e-10
6.65124e-10
6.29741e-10
6.61741e-10
6.30921e-10
6.69707e-10
6.38655e-10
6.76362e-10
6.39575e-10
6.77575e-10
6.42497e-10
6.87822e-10
6.51227e-10
6.96287e-10
6.41423e-10
6.88726e-10
6.34084e-10
7.04312e-10
6.33466e-10
7.28058e-10
6.37261e-10
7.7867e-10
6.37704e-10
8.29423e-10
5.74077e-10
1.01551e-09
1.17342e-09
-2.50916e-09
2.85417e-09
3.93735e-09
-3.038e-09
-2.04454e-09
1.13434e-09
8.05359e-10
1.36062e-11
-4.06938e-11
1.83226e-10
3.75045e-10
4.06925e-10
4.45533e-10
4.45432e-10
4.96181e-10
4.97056e-10
5.41927e-10
5.38366e-10
5.77866e-10
5.58738e-10
5.89864e-10
5.74553e-10
6.10607e-10
5.87983e-10
6.18123e-10
5.96694e-10
6.31407e-10
6.09483e-10
6.4213e-10
6.14178e-10
6.44762e-10
6.18825e-10
6.54126e-10
6.29824e-10
6.63809e-10
6.30296e-10
6.60334e-10
6.31265e-10
6.68299e-10
6.39226e-10
6.75135e-10
6.40205e-10
6.76339e-10
6.42954e-10
6.86712e-10
6.51885e-10
6.9556e-10
6.42222e-10
6.8778e-10
6.34366e-10
7.02797e-10
6.34276e-10
7.25537e-10
6.39925e-10
7.7349e-10
6.46407e-10
8.17004e-10
5.99132e-10
9.82678e-10
1.16778e-09
-2.34446e-09
2.78512e-09
3.79604e-09
-2.96744e-09
-2.10057e-09
1.10786e-09
8.90294e-10
7.08188e-11
-3.62772e-11
1.76422e-10
3.73139e-10
4.08048e-10
4.43888e-10
4.42761e-10
4.91952e-10
4.93882e-10
5.37971e-10
5.35674e-10
5.74455e-10
5.56857e-10
5.86931e-10
5.72894e-10
6.07915e-10
5.8692e-10
6.15816e-10
5.95866e-10
6.29321e-10
6.09117e-10
6.40354e-10
6.14127e-10
6.43067e-10
6.18837e-10
6.52518e-10
6.30149e-10
6.62424e-10
6.30865e-10
6.58897e-10
6.3165e-10
6.66819e-10
6.39827e-10
6.7382e-10
6.40908e-10
6.75008e-10
6.43546e-10
6.85418e-10
6.52726e-10
6.94511e-10
6.4337e-10
6.86388e-10
6.35286e-10
7.00459e-10
6.36126e-10
7.21713e-10
6.4428e-10
7.66309e-10
6.57486e-10
8.02397e-10
6.27176e-10
9.4929e-10
1.15447e-09
-2.13707e-09
2.66288e-09
3.59671e-09
-2.82429e-09
-2.10556e-09
1.05156e-09
9.51466e-10
1.28606e-10
-2.80411e-11
1.68857e-10
3.69245e-10
4.0837e-10
4.42173e-10
4.40142e-10
4.87615e-10
4.9061e-10
5.33888e-10
5.32912e-10
5.70911e-10
5.54917e-10
5.83933e-10
5.71212e-10
6.05123e-10
5.85812e-10
6.13447e-10
5.95029e-10
6.27165e-10
6.08727e-10
6.38512e-10
6.14071e-10
6.41339e-10
6.18865e-10
6.50863e-10
6.3047e-10
6.60975e-10
6.31443e-10
6.57433e-10
6.32076e-10
6.65273e-10
6.40457e-10
6.72417e-10
6.41688e-10
6.7358e-10
6.44276e-10
6.83939e-10
6.53754e-10
6.93141e-10
6.44865e-10
6.84564e-10
6.36816e-10
6.97374e-10
6.38903e-10
7.16795e-10
6.50011e-10
7.57659e-10
6.7018e-10
7.86731e-10
6.56517e-10
9.17377e-10
1.13329e-09
-1.89574e-09
2.50023e-09
3.34496e-09
-2.62412e-09
-2.0603e-09
9.72763e-10
9.88816e-10
1.85213e-10
-1.59413e-11
1.60988e-10
3.63411e-10
4.0779e-10
4.4037e-10
4.37607e-10
4.83203e-10
4.87257e-10
5.29694e-10
5.3009e-10
5.67259e-10
5.52928e-10
5.80881e-10
5.69516e-10
6.02249e-10
5.84658e-10
6.11024e-10
5.94185e-10
6.24951e-10
6.08311e-10
6.36615e-10
6.14008e-10
6.39585e-10
6.18903e-10
6.49169e-10
6.30784e-10
6.59475e-10
6.32028e-10
6.55946e-10
6.32538e-10
6.63667e-10
6.41115e-10
6.70934e-10
6.42543e-10
6.72057e-10
6.45143e-10
6.8228e-10
6.54964e-10
6.91471e-10
6.46684e-10
6.82346e-10
6.38894e-10
6.93654e-10
6.42446e-10
7.1104e-10
6.56748e-10
7.48094e-10
6.83715e-10
7.7115e-10
6.85665e-10
8.87968e-10
1.10491e-09
-1.62856e-09
2.309e-09
3.04849e-09
-2.38251e-09
-1.96838e-09
8.79085e-10
1.00356e-09
2.39018e-10
-1.88896e-13
1.53253e-10
3.55763e-10
4.06234e-10
4.38455e-10
4.35175e-10
4.78752e-10
4.83837e-10
5.25409e-10
5.27218e-10
5.6352e-10
5.50899e-10
5.77789e-10
5.67807e-10
5.9931e-10
5.83464e-10
6.08559e-10
5.93331e-10
6.22689e-10
6.07868e-10
6.34676e-10
6.13936e-10
6.37812e-10
6.1895e-10
6.47446e-10
6.31088e-10
6.57931e-10
6.32616e-10
6.5444e-10
6.33035e-10
6.62007e-10
6.41798e-10
6.69379e-10
6.4347e-10
6.70448e-10
6.46138e-10
6.80458e-10
6.56338e-10
6.89537e-10
6.48787e-10
6.798e-10
6.4143e-10
6.89446e-10
6.46565e-10
7.04731e-10
6.64112e-10
7.38191e-10
6.97383e-10
7.56541e-10
7.13444e-10
8.617e-10
1.07032e-09
-1.3437e-09
2.10046e-09
2.71572e-09
-2.11597e-09
-1.83503e-09
7.78074e-10
9.98191e-10
2.88684e-10
1.87702e-11
1.46021e-10
3.46489e-10
4.03663e-10
4.36401e-10
4.32858e-10
4.74291e-10
4.80367e-10
5.21049e-10
5.24303e-10
5.59715e-10
5.48839e-10
5.74669e-10
5.66085e-10
5.96319e-10
5.82234e-10
6.0606e-10
5.92467e-10
6.20391e-10
6.07398e-10
6.32703e-10
6.13855e-10
6.36029e-10
6.19002e-10
6.45701e-10
6.31376e-10
6.56353e-10
6.33207e-10
6.52921e-10
6.33559e-10
6.60305e-10
6.425e-10
6.67762e-10
6.44461e-10
6.68766e-10
6.47246e-10
6.78498e-10
6.57847e-10
6.87384e-10
6.51126e-10
6.77009e-10
6.44318e-10
6.84917e-10
6.51061e-10
6.98166e-10
6.71729e-10
7.28477e-10
7.10567e-10
7.43583e-10
7.39006e-10
8.38679e-10
1.03051e-09
-1.0487e-09
1.88545e-09
2.35641e-09
-1.84032e-09
-1.66737e-09
6.76326e-10
9.76113e-10
3.33326e-10
4.03613e-11
1.39557e-10
3.3579e-10
4.00047e-10
4.34165e-10
4.30649e-10
4.69838e-10
4.76852e-10
5.16625e-10
5.21341e-10
5.55854e-10
5.46753e-10
5.71531e-10
5.64348e-10
5.93286e-10
5.80971e-10
6.03535e-10
5.91587e-10
6.18065e-10
6.06897e-10
6.30705e-10
6.13764e-10
6.34242e-10
6.19055e-10
6.43944e-10
6.31644e-10
6.54749e-10
6.33798e-10
6.51397e-10
6.34103e-10
6.5857e-10
6.43214e-10
6.66096e-10
6.45506e-10
6.67032e-10
6.48448e-10
6.76434e-10
6.59456e-10
6.85067e-10
6.53642e-10
6.74064e-10
6.47441e-10
6.80236e-10
6.55741e-10
6.91652e-10
6.79264e-10
7.19407e-10
7.22802e-10
7.32778e-10
7.61861e-10
8.18844e-10
9.86117e-10
-7.50866e-10
1.67474e-09
1.98108e-09
-1.56841e-09
-1.47345e-09
5.7916e-10
9.41042e-10
3.72387e-10
6.39789e-11
1.34045e-10
3.23841e-10
3.95357e-10
4.31697e-10
4.28534e-10
4.654e-10
4.73295e-10
5.1214e-10
5.18326e-10
5.51943e-10
5.44649e-10
5.68381e-10
5.62593e-10
5.90214e-10
5.79677e-10
6.00987e-10
5.9069e-10
6.15715e-10
6.06364e-10
6.28686e-10
6.13663e-10
6.32457e-10
6.19106e-10
6.4218e-10
6.31886e-10
6.53122e-10
6.34392e-10
6.49871e-10
6.34658e-10
6.56809e-10
6.43931e-10
6.64392e-10
6.46595e-10
6.65263e-10
6.4972e-10
6.74297e-10
6.61121e-10
6.82637e-10
6.56276e-10
6.71058e-10
6.50681e-10
6.75561e-10
6.6042e-10
6.85437e-10
6.86428e-10
7.1131e-10
7.33762e-10
7.24462e-10
7.81733e-10
8.01962e-10
9.37825e-10
-4.5694e-10
1.47675e-09
2.09002e-09
1.98023e-09
3.45856e-10
-6.96949e-10
-7.01408e-10
-3.96422e-10
-6.46623e-11
1.33143e-10
3.03796e-10
3.69176e-10
4.54603e-10
4.69253e-10
5.28226e-10
5.23781e-10
5.73621e-10
5.61145e-10
6.02018e-10
5.76574e-10
6.16469e-10
5.91728e-10
6.31062e-10
5.99337e-10
6.38901e-10
6.07026e-10
6.48421e-10
6.14688e-10
6.55995e-10
6.1754e-10
6.60344e-10
6.22082e-10
6.67743e-10
6.28757e-10
6.73396e-10
6.27697e-10
6.74151e-10
6.30568e-10
6.79703e-10
6.35368e-10
6.84279e-10
6.36778e-10
6.86926e-10
6.41884e-10
6.92941e-10
6.48067e-10
6.92225e-10
6.41961e-10
6.85057e-10
6.4716e-10
6.87796e-10
6.60599e-10
6.94257e-10
6.9048e-10
7.03138e-10
7.30611e-10
6.94883e-10
7.93043e-10
7.65068e-10
1.05088e-09
-1.08526e-09
-2.51369e-10
2.131e-09
2.00793e-09
3.34277e-10
-7.05117e-10
-7.02765e-10
-3.95529e-10
-6.42957e-11
1.33164e-10
3.03274e-10
3.68603e-10
4.53861e-10
4.68725e-10
5.276e-10
5.2337e-10
5.73092e-10
5.6087e-10
6.01573e-10
5.76322e-10
6.16051e-10
5.91584e-10
6.30711e-10
5.99219e-10
6.38565e-10
6.06975e-10
6.48124e-10
6.1468e-10
6.55711e-10
6.17548e-10
6.60059e-10
6.22135e-10
6.6748e-10
6.28855e-10
6.73131e-10
6.27778e-10
6.73865e-10
6.30715e-10
6.7943e-10
6.35551e-10
6.84003e-10
6.3698e-10
6.86637e-10
6.42143e-10
6.92679e-10
6.48399e-10
6.91945e-10
6.42285e-10
6.84732e-10
6.47606e-10
6.87496e-10
6.6109e-10
6.93975e-10
6.91036e-10
7.02968e-10
7.30985e-10
6.94723e-10
7.91777e-10
7.68929e-10
1.07193e-09
-1.10736e-09
-2.93993e-10
2.2222e-09
2.02125e-09
2.95455e-10
-7.1407e-10
-6.9916e-10
-3.91612e-10
-6.2222e-11
1.33958e-10
3.03497e-10
3.68072e-10
4.53237e-10
4.67895e-10
5.27005e-10
5.22617e-10
5.72579e-10
5.60274e-10
6.01235e-10
5.75743e-10
6.15696e-10
5.91127e-10
6.30501e-10
5.9879e-10
6.3836e-10
6.06634e-10
6.47995e-10
6.14386e-10
6.55634e-10
6.17267e-10
6.59978e-10
6.21897e-10
6.67433e-10
6.28668e-10
6.73136e-10
6.27563e-10
6.73812e-10
6.30567e-10
6.79432e-10
6.35443e-10
6.84026e-10
6.36885e-10
6.86628e-10
6.4211e-10
6.92703e-10
6.48478e-10
6.9203e-10
6.42352e-10
6.84726e-10
6.47773e-10
6.87604e-10
6.61243e-10
6.94133e-10
6.9114e-10
7.03434e-10
7.30729e-10
6.95982e-10
7.86533e-10
7.74552e-10
1.1121e-09
-1.17127e-09
-3.31988e-10
2.34697e-09
1.98451e-09
2.34616e-10
-7.13844e-10
-6.88958e-10
-3.8362e-10
-5.76263e-11
1.36586e-10
3.04983e-10
3.68148e-10
4.5279e-10
4.67037e-10
5.26356e-10
5.21738e-10
5.7193e-10
5.59554e-10
6.00836e-10
5.75018e-10
6.1519e-10
5.9053e-10
6.30224e-10
5.98256e-10
6.38054e-10
6.0619e-10
6.47808e-10
6.14018e-10
6.5553e-10
6.1691e-10
6.59847e-10
6.21588e-10
6.6736e-10
6.28445e-10
6.73173e-10
6.27298e-10
6.73724e-10
6.30369e-10
6.79438e-10
6.35304e-10
6.84078e-10
6.36748e-10
6.8662e-10
6.42024e-10
6.92784e-10
6.48521e-10
6.9229e-10
6.42329e-10
6.8484e-10
6.47794e-10
6.87964e-10
6.61141e-10
6.94666e-10
6.90659e-10
7.04908e-10
7.28911e-10
6.99795e-10
7.7471e-10
7.89245e-10
1.15263e-09
-1.26993e-09
-3.26639e-10
2.4802e-09
1.86353e-09
1.59537e-10
-6.88308e-10
-6.68383e-10
-3.7179e-10
-5.07693e-11
1.41256e-10
3.08045e-10
3.69159e-10
4.52651e-10
4.66276e-10
5.2565e-10
5.20811e-10
5.71118e-10
5.58746e-10
6.00324e-10
5.74189e-10
6.14455e-10
5.89818e-10
6.29811e-10
5.97641e-10
6.37569e-10
6.05672e-10
6.47484e-10
6.13611e-10
6.55317e-10
6.16526e-10
6.5957e-10
6.21252e-10
6.67169e-10
6.28227e-10
6.73143e-10
6.27047e-10
6.73499e-10
6.30172e-10
6.7935e-10
6.35196e-10
6.84065e-10
6.36632e-10
6.86521e-10
6.41939e-10
6.92831e-10
6.48611e-10
6.9261e-10
6.42296e-10
6.84945e-10
6.47679e-10
6.88523e-10
6.60669e-10
6.95672e-10
6.89343e-10
7.07645e-10
7.25123e-10
7.06608e-10
7.56535e-10
8.13593e-10
1.18173e-09
-1.38997e-09
-2.47433e-10
2.61228e-09
1.63749e-09
7.32195e-11
-6.26075e-10
-6.34418e-10
-3.57476e-10
-4.26436e-11
1.47572e-10
3.12568e-10
3.71049e-10
4.52843e-10
4.6563e-10
5.24927e-10
5.19875e-10
5.70191e-10
5.5789e-10
5.9972e-10
5.73299e-10
6.13524e-10
5.89016e-10
6.29268e-10
5.96974e-10
6.36905e-10
6.05088e-10
6.47017e-10
6.13175e-10
6.54984e-10
6.16123e-10
6.59139e-10
6.20894e-10
6.66842e-10
6.28027e-10
6.73033e-10
6.26826e-10
6.73118e-10
6.29981e-10
6.79151e-10
6.35127e-10
6.83958e-10
6.36548e-10
6.86299e-10
6.41861e-10
6.92801e-10
6.48731e-10
6.92967e-10
6.42243e-10
6.8507e-10
6.47354e-10
6.8932e-10
6.59721e-10
6.97211e-10
6.86962e-10
7.11918e-10
7.18898e-10
7.16979e-10
7.32097e-10
8.4776e-10
1.19584e-09
-1.52771e-09
-8.03432e-11
2.74733e-09
1.30097e-09
-2.8965e-11
-5.21496e-10
-5.83668e-10
-3.4172e-10
-3.44069e-11
1.55061e-10
3.18263e-10
3.73683e-10
4.53241e-10
4.65066e-10
5.24147e-10
5.18911e-10
5.69124e-10
5.5699e-10
5.99025e-10
5.72386e-10
6.12428e-10
5.88151e-10
6.28611e-10
5.96295e-10
6.36086e-10
6.04467e-10
6.46421e-10
6.1274e-10
6.54539e-10
6.15735e-10
6.58564e-10
6.20535e-10
6.66386e-10
6.27862e-10
6.72828e-10
6.26659e-10
6.7258e-10
6.2981e-10
6.78824e-10
6.35105e-10
6.8374e-10
6.36514e-10
6.85945e-10
6.41794e-10
6.92678e-10
6.48876e-10
6.93353e-10
6.42151e-10
6.85219e-10
6.46772e-10
6.90374e-10
6.5822e-10
6.99428e-10
6.83332e-10
7.17908e-10
7.09966e-10
7.31212e-10
7.01961e-10
8.90421e-10
1.1967e-09
-1.68438e-09
1.75598e-10
2.89123e-09
8.59987e-10
-1.52563e-10
-3.74162e-10
-5.13594e-10
-3.25087e-10
-2.70444e-11
1.63213e-10
3.24821e-10
3.76806e-10
4.53667e-10
4.64442e-10
5.232e-10
5.17865e-10
5.67885e-10
5.56014e-10
5.98208e-10
5.71459e-10
6.1117e-10
5.87233e-10
6.27833e-10
5.95628e-10
6.35128e-10
6.03834e-10
6.45707e-10
6.12335e-10
6.53985e-10
6.15389e-10
6.57852e-10
6.202e-10
6.65806e-10
6.27757e-10
6.72526e-10
6.26576e-10
6.71895e-10
6.29682e-10
6.78372e-10
6.35156e-10
6.83404e-10
6.36544e-10
6.8546e-10
6.41745e-10
6.92478e-10
6.49039e-10
6.93753e-10
6.42014e-10
6.85443e-10
6.45864e-10
6.91738e-10
6.56083e-10
7.02399e-10
6.78355e-10
7.25607e-10
6.98512e-10
7.48823e-10
6.6787e-10
9.37934e-10
1.18814e-09
-1.85709e-09
5.0998e-10
3.04949e-09
3.35239e-10
-3.02786e-10
-1.89583e-10
-4.22518e-10
-3.0744e-10
-2.13791e-11
1.71531e-10
3.31981e-10
3.8026e-10
4.5398e-10
4.63645e-10
5.21972e-10
5.16662e-10
5.66417e-10
5.54918e-10
5.9721e-10
5.70494e-10
6.09739e-10
5.86254e-10
6.2691e-10
5.94973e-10
6.34032e-10
6.03198e-10
6.44872e-10
6.11967e-10
6.53321e-10
6.151e-10
6.57014e-10
6.19908e-10
6.6511e-10
6.27728e-10
6.72122e-10
6.26597e-10
6.71077e-10
6.29605e-10
6.77793e-10
6.35289e-10
6.82957e-10
6.36648e-10
6.84863e-10
6.41717e-10
6.92216e-10
6.49203e-10
6.94188e-10
6.41807e-10
6.85773e-10
6.44615e-10
6.93421e-10
6.53319e-10
7.06051e-10
6.72176e-10
7.34713e-10
6.85181e-10
7.68616e-10
6.32388e-10
9.85471e-10
1.17529e-09
-2.03974e-09
8.98848e-10
3.22184e-09
-2.42173e-10
-4.8109e-10
2.18298e-11
-3.10661e-10
-2.88158e-10
-1.79622e-11
1.79523e-10
3.395e-10
3.83908e-10
4.54088e-10
4.62579e-10
5.20407e-10
5.15257e-10
5.64678e-10
5.53652e-10
5.9598e-10
5.69463e-10
6.08121e-10
5.85195e-10
6.25814e-10
5.94316e-10
6.3279e-10
6.02553e-10
6.43908e-10
6.11637e-10
6.5254e-10
6.14871e-10
6.56055e-10
6.19664e-10
6.64302e-10
6.27777e-10
6.7161e-10
6.26725e-10
6.70144e-10
6.29587e-10
6.77102e-10
6.35504e-10
6.82411e-10
6.36819e-10
6.84177e-10
6.41705e-10
6.91908e-10
6.49355e-10
6.94655e-10
6.41523e-10
6.8623e-10
6.43062e-10
6.95365e-10
6.5002e-10
7.10221e-10
6.65154e-10
7.44644e-10
6.71031e-10
7.88903e-10
5.98741e-10
1.02789e-09
1.16296e-09
-2.2223e-09
1.31248e-09
3.40345e-09
-8.35846e-10
-6.8522e-10
2.45723e-10
-1.80046e-10
-2.66354e-10
-1.7053e-11
1.86692e-10
3.47119e-10
3.87645e-10
4.5392e-10
4.61218e-10
5.18468e-10
5.13623e-10
5.62643e-10
5.52193e-10
5.94481e-10
5.68343e-10
6.06313e-10
5.84048e-10
6.24528e-10
5.93642e-10
6.31399e-10
6.0189e-10
6.42806e-10
6.11337e-10
6.51635e-10
6.14694e-10
6.54979e-10
6.19466e-10
6.63385e-10
6.279e-10
6.7099e-10
6.26953e-10
6.69117e-10
6.29624e-10
6.76306e-10
6.3579e-10
6.81774e-10
6.37048e-10
6.83423e-10
6.41705e-10
6.91563e-10
6.49492e-10
6.95138e-10
6.41182e-10
6.86791e-10
6.41278e-10
6.97458e-10
6.46387e-10
7.14646e-10
6.57774e-10
7.54625e-10
6.57304e-10
8.07798e-10
5.69953e-10
1.06092e-09
1.15457e-09
-2.3918e-09
1.71849e-09
3.58424e-09
-1.40596e-09
-9.08963e-10
4.66903e-10
-3.47993e-11
-2.41072e-10
-1.85868e-11
1.92543e-10
3.54552e-10
3.91363e-10
4.53456e-10
4.5956e-10
5.16149e-10
5.11748e-10
5.603e-10
5.50532e-10
5.92694e-10
5.67121e-10
6.04311e-10
5.8281e-10
6.2303e-10
5.92937e-10
6.29858e-10
6.01203e-10
6.41558e-10
6.11053e-10
6.50601e-10
6.14564e-10
6.53793e-10
6.1931e-10
6.62359e-10
6.28085e-10
6.7026e-10
6.27267e-10
6.68008e-10
6.29712e-10
6.75416e-10
6.3614e-10
6.8105e-10
6.37333e-10
6.82612e-10
6.41726e-10
6.91169e-10
6.49625e-10
6.95606e-10
6.40824e-10
6.87396e-10
6.39376e-10
6.99536e-10
6.42661e-10
7.18956e-10
6.50634e-10
7.63824e-10
6.45257e-10
8.2357e-10
5.48452e-10
1.08178e-09
1.15188e-09
-2.53408e-09
2.08701e-09
3.75156e-09
-1.91844e-09
-1.1434e-09
6.70601e-10
1.19517e-10
-2.11309e-10
-2.20802e-11
1.96706e-10
3.61496e-10
3.94987e-10
4.52719e-10
4.57623e-10
5.13461e-10
5.09633e-10
5.5766e-10
5.48676e-10
5.90624e-10
5.65795e-10
6.02127e-10
5.81483e-10
6.21323e-10
5.92189e-10
6.28175e-10
6.0049e-10
6.40166e-10
6.10775e-10
6.49439e-10
6.14459e-10
6.52505e-10
6.1919e-10
6.61231e-10
6.28319e-10
6.69423e-10
6.27652e-10
6.66828e-10
6.29846e-10
6.74433e-10
6.3654e-10
6.80245e-10
6.37668e-10
6.81745e-10
6.41776e-10
6.90723e-10
6.49769e-10
6.96012e-10
6.40501e-10
6.87976e-10
6.37493e-10
7.01406e-10
6.39155e-10
7.22765e-10
6.44316e-10
7.7145e-10
6.35958e-10
8.34851e-10
5.35804e-10
1.08947e-09
1.15458e-09
-2.63598e-09
2.39582e-09
3.89083e-09
-2.34775e-09
-1.37634e-09
8.44869e-10
2.76472e-10
-1.76251e-10
-2.67084e-11
1.98902e-10
3.67638e-10
3.98448e-10
4.51741e-10
4.55445e-10
5.10427e-10
5.07292e-10
5.54742e-10
5.46637e-10
5.88283e-10
5.64361e-10
5.99778e-10
5.80074e-10
6.19414e-10
5.91389e-10
6.26357e-10
5.9975e-10
6.38633e-10
6.105e-10
6.48148e-10
6.14375e-10
6.51124e-10
6.191e-10
6.60007e-10
6.28591e-10
6.6848e-10
6.28092e-10
6.6559e-10
6.30023e-10
6.73355e-10
6.36982e-10
6.7936e-10
6.38053e-10
6.80823e-10
6.41871e-10
6.90202e-10
6.49951e-10
6.963e-10
6.40279e-10
6.88427e-10
6.35793e-10
7.02877e-10
6.36146e-10
7.25702e-10
6.39348e-10
7.76869e-10
6.30168e-10
8.40878e-10
5.32533e-10
1.08464e-09
1.16081e-09
-2.68841e-09
2.63039e-09
3.98845e-09
-2.67802e-09
-1.59409e-09
9.81324e-10
4.29478e-10
-1.35521e-10
-3.14732e-11
1.98989e-10
3.72649e-10
4.01662e-10
4.50564e-10
4.53067e-10
5.0708e-10
5.04745e-10
5.51569e-10
5.44436e-10
5.85685e-10
5.62822e-10
5.97279e-10
5.78596e-10
6.17314e-10
5.90534e-10
6.24416e-10
5.98985e-10
6.36965e-10
6.10214e-10
6.4674e-10
6.14305e-10
6.49661e-10
6.19035e-10
6.58688e-10
6.28891e-10
6.67436e-10
6.28575e-10
6.64302e-10
6.30241e-10
6.72192e-10
6.37461e-10
6.78396e-10
6.38489e-10
6.79839e-10
6.42028e-10
6.89575e-10
6.50209e-10
6.96414e-10
6.40231e-10
6.88653e-10
6.3443e-10
7.03772e-10
6.33891e-10
7.27477e-10
6.3612e-10
7.79663e-10
6.2827e-10
8.41449e-10
5.38296e-10
1.06892e-09
1.16776e-09
-2.68567e-09
2.78387e-09
4.03358e-09
-2.9017e-09
-1.78422e-09
1.07546e-09
5.72305e-10
-8.92685e-11
-3.53251e-11
1.96963e-10
3.76231e-10
4.04526e-10
4.49227e-10
4.50541e-10
5.03454e-10
5.02012e-10
5.48167e-10
5.42091e-10
5.82848e-10
5.61187e-10
5.94648e-10
5.77058e-10
6.15039e-10
5.89625e-10
6.22365e-10
5.982e-10
6.35175e-10
6.09913e-10
6.45222e-10
6.14243e-10
6.48125e-10