/*--------------------------------*- C++ -*----------------------------------*\
| =========                 |                                                 |
| \\      /  F ield         | OpenFOAM: The Open Source CFD Toolbox           |
|  \\    /   O peration     | Version:  2312                                  |
|   \\  /    A nd           | Website:  www.openfoam.com                      |
|    \\/     M anipulation  |                                                 |
\*---------------------------------------------------------------------------*/
FoamFile
{
    version     2.0;
    format      ascii;
    arch        "LSB;label=32;scalar=64";
    class       volScalarField;
    location    "300";
    object      pPrime2Mean;
}
// * * * * * * * * * * * * * * * * * * * * * * * * * * * * * * * * * * * * * //

dimensions      [0 4 -4 0 0 0 0];

internalField   nonuniform List<scalar> 
144000
(
1.53331e-17
1.33247e-17
1.81785e-17
2.02244e-17
1.4895e-17
9.81153e-18
7.74014e-18
6.82694e-18
6.26862e-18
5.83343e-18
5.51557e-18
5.01908e-18
4.65311e-18
4.2904e-18
4.06882e-18
3.83354e-18
3.75122e-18
3.52427e-18
3.44282e-18
3.28638e-18
3.21583e-18
3.04048e-18
3.00793e-18
2.86227e-18
2.87174e-18
2.7202e-18
2.75016e-18
2.61681e-18
2.60517e-18
2.52018e-18
2.49863e-18
2.42575e-18
2.42292e-18
2.31235e-18
2.35662e-18
2.23901e-18
2.25466e-18
2.21313e-18
2.15618e-18
2.13832e-18
2.15231e-18
2.01533e-18
2.15039e-18
2.00818e-18
2.0144e-18
2.08252e-18
1.90657e-18
1.99138e-18
2.12147e-18
1.71463e-18
2.30181e-18
1.98036e-18
1.85446e-18
2.83337e-18
1.9502e-18
2.48527e-18
4.89765e-18
2.80309e-18
6.89264e-18
1.60823e-17
1.61323e-17
1.35626e-17
1.86285e-17
2.05662e-17
1.50438e-17
9.88049e-18
7.78178e-18
6.85516e-18
6.28595e-18
5.84614e-18
5.5257e-18
5.02623e-18
4.65734e-18
4.29413e-18
4.07122e-18
3.83559e-18
3.75362e-18
3.5261e-18
3.44394e-18
3.28813e-18
3.21691e-18
3.04163e-18
3.00846e-18
2.86337e-18
2.87259e-18
2.72087e-18
2.75087e-18
2.61798e-18
2.60514e-18
2.52151e-18
2.49878e-18
2.4266e-18
2.42383e-18
2.3124e-18
2.35772e-18
2.2399e-18
2.25443e-18
2.21539e-18
2.15593e-18
2.13927e-18
2.15465e-18
2.01473e-18
2.1529e-18
2.01076e-18
2.01366e-18
2.08847e-18
1.90775e-18
1.99305e-18
2.13286e-18
1.7131e-18
2.3139e-18
1.99741e-18
1.85552e-18
2.87066e-18
1.98258e-18
2.50569e-18
5.01653e-18
2.92146e-18
7.18892e-18
1.62384e-17
1.66766e-17
1.37611e-17
1.86775e-17
2.07116e-17
1.50189e-17
9.84907e-18
7.77577e-18
6.86055e-18
6.29257e-18
5.85365e-18
5.53362e-18
5.03185e-18
4.661e-18
4.29712e-18
4.0735e-18
3.83708e-18
3.75701e-18
3.52783e-18
3.44547e-18
3.29005e-18
3.21861e-18
3.04258e-18
3.00955e-18
2.86417e-18
2.87433e-18
2.72113e-18
2.75247e-18
2.61915e-18
2.60544e-18
2.52306e-18
2.49927e-18
2.42746e-18
2.42561e-18
2.31207e-18
2.35982e-18
2.24085e-18
2.2545e-18
2.2186e-18
2.15602e-18
2.1404e-18
2.15885e-18
2.01334e-18
2.15759e-18
2.01427e-18
2.01342e-18
2.09749e-18
1.91018e-18
1.99576e-18
2.15004e-18
1.71225e-18
2.32989e-18
2.0241e-18
1.85701e-18
2.91589e-18
2.03261e-18
2.5105e-18
5.12062e-18
3.05831e-18
7.39588e-18
1.64604e-17
1.65419e-17
1.34054e-17
1.8055e-17
2.03289e-17
1.46942e-17
9.64311e-18
7.67464e-18
6.81222e-18
6.26912e-18
5.84184e-18
5.52807e-18
5.02828e-18
4.65846e-18
4.29576e-18
4.07249e-18
3.83619e-18
3.75913e-18
3.52835e-18
3.44602e-18
3.29141e-18
3.21982e-18
3.04313e-18
3.01025e-18
2.86466e-18
2.87603e-18
2.72116e-18
2.75422e-18
2.62032e-18
2.60552e-18
2.52486e-18
2.49967e-18
2.4284e-18
2.42783e-18
2.31155e-18
2.36232e-18
2.24197e-18
2.25449e-18
2.22257e-18
2.15624e-18
2.14166e-18
2.16426e-18
2.01143e-18
2.16356e-18
2.0186e-18
2.01337e-18
2.10829e-18
1.91355e-18
1.99861e-18
2.16981e-18
1.71318e-18
2.34306e-18
2.0584e-18
1.85326e-18
2.95126e-18
2.0951e-18
2.46345e-18
5.18145e-18
3.14111e-18
7.20274e-18
1.63169e-17
1.57442e-17
1.24324e-17
1.6832e-17
1.93723e-17
1.40746e-17
9.271e-18
7.48054e-18
6.70856e-18
6.20902e-18
5.80264e-18
5.5018e-18
5.0101e-18
4.64558e-18
4.28681e-18
4.06568e-18
3.83104e-18
3.75796e-18
3.52618e-18
3.44428e-18
3.29119e-18
3.21962e-18
3.04279e-18
3.00986e-18
2.86443e-18
2.87712e-18
2.72071e-18
2.75567e-18
2.62127e-18
2.60514e-18
2.52664e-18
2.49974e-18
2.42925e-18
2.43019e-18
2.31089e-18
2.36479e-18
2.24325e-18
2.25424e-18
2.22701e-18
2.15656e-18
2.14285e-18
2.17025e-18
2.00928e-18
2.16992e-18
2.0235e-18
2.0133e-18
2.11957e-18
1.91754e-18
2.00071e-18
2.1899e-18
1.71527e-18
2.35066e-18
2.09573e-18
1.84345e-18
2.97016e-18
2.1627e-18
2.36437e-18
5.21301e-18
3.15591e-18
6.68025e-18
1.58134e-17
1.46399e-17
1.12826e-17
1.53416e-17
1.81509e-17
1.33271e-17
8.81636e-18
7.22808e-18
6.56682e-18
6.12003e-18
5.73928e-18
5.45487e-18
4.97671e-18
4.62113e-18
4.26907e-18
4.05206e-18
3.82061e-18
3.75232e-18
3.52047e-18
3.4395e-18
3.28852e-18
3.21726e-18
3.04111e-18
3.00793e-18
2.86301e-18
2.87717e-18
2.71951e-18
2.7564e-18
2.62167e-18
2.60411e-18
2.52809e-18
2.49936e-18
2.42982e-18
2.43242e-18
2.31007e-18
2.36685e-18
2.24459e-18
2.25363e-18
2.23154e-18
2.15692e-18
2.14377e-18
2.17629e-18
2.007e-18
2.17602e-18
2.02865e-18
2.0129e-18
2.13054e-18
1.92156e-18
2.00163e-18
2.20854e-18
1.71736e-18
2.35333e-18
2.13049e-18
1.83079e-18
2.97228e-18
2.22867e-18
2.23812e-18
5.22665e-18
3.12668e-18
6.09682e-18
1.52907e-17
1.3541e-17
1.04117e-17
1.38895e-17
1.6904e-17
1.25588e-17
8.3366e-18
6.9492e-18
6.402e-18
6.01083e-18
5.65743e-18
5.39181e-18
4.93023e-18
4.58633e-18
4.24311e-18
4.03194e-18
3.805e-18
3.74192e-18
3.51095e-18
3.43141e-18
3.28304e-18
3.21236e-18
3.03778e-18
3.00417e-18
2.86016e-18
2.8759e-18
2.71738e-18
2.75612e-18
2.62133e-18
2.60228e-18
2.52897e-18
2.49836e-18
2.42994e-18
2.43423e-18
2.30906e-18
2.36825e-18
2.24585e-18
2.25257e-18
2.23586e-18
2.15722e-18
2.14427e-18
2.18192e-18
2.00469e-18
2.18131e-18
2.03372e-18
2.01205e-18
2.14042e-18
1.92516e-18
2.00133e-18
2.2247e-18
1.71892e-18
2.35248e-18
2.1592e-18
1.81905e-18
2.95986e-18
2.28785e-18
2.10833e-18
5.21953e-18
3.06071e-18
5.63277e-18
1.49928e-17
1.25616e-17
1.00346e-17
1.25824e-17
1.57474e-17
1.18149e-17
7.86018e-18
6.65671e-18
6.22225e-18
5.88788e-18
5.56322e-18
5.31691e-18
4.87402e-18
4.54333e-18
4.21026e-18
4.00602e-18
3.78466e-18
3.72711e-18
3.49799e-18
3.42026e-18
3.27481e-18
3.20489e-18
3.03275e-18
2.99854e-18
2.8558e-18
2.8732e-18
2.7143e-18
2.75463e-18
2.62016e-18
2.59955e-18
2.52915e-18
2.49665e-18
2.42952e-18
2.43542e-18
2.30785e-18
2.36879e-18
2.24689e-18
2.25105e-18
2.23965e-18
2.15739e-18
2.14429e-18
2.18678e-18
2.00245e-18
2.18551e-18
2.0384e-18
2.01086e-18
2.14881e-18
1.92817e-18
2.00003e-18
2.23785e-18
1.71982e-18
2.34945e-18
2.18051e-18
1.81016e-18
2.93613e-18
2.33876e-18
1.9846e-18
5.18867e-18
2.96658e-18
5.33255e-18
1.49905e-17
1.17573e-17
1.01999e-17
1.14368e-17
1.47279e-17
1.11073e-17
7.39653e-18
6.35769e-18
6.03239e-18
5.75534e-18
5.46008e-18
5.2336e-18
4.81073e-18
4.49416e-18
4.17198e-18
3.97517e-18
3.76024e-18
3.70835e-18
3.4821e-18
3.40648e-18
3.26414e-18
3.19511e-18
3.02614e-18
2.99121e-18
2.84999e-18
2.86907e-18
2.7104e-18
2.75185e-18
2.61819e-18
2.59596e-18
2.52858e-18
2.49422e-18
2.42857e-18
2.43586e-18
2.30649e-18
2.36844e-18
2.24764e-18
2.2491e-18
2.24279e-18
2.1574e-18
2.14388e-18
2.19069e-18
2.00039e-18
2.1886e-18
2.04248e-18
2.00951e-18
2.15558e-18
1.93059e-18
1.99814e-18
2.24811e-18
1.7202e-18
2.34539e-18
2.19489e-18
1.80461e-18
2.90505e-18
2.38136e-18
1.87225e-18
5.13843e-18
2.86184e-18
5.19526e-18
1.52347e-17
1.11676e-17
1.08195e-17
1.04483e-17
1.38484e-17
1.04459e-17
6.95151e-18
6.05737e-18
5.83614e-18
5.61642e-18
5.35085e-18
5.14425e-18
4.74256e-18
4.44064e-18
4.12955e-18
3.9404e-18
3.73246e-18
3.68618e-18
3.46381e-18
3.39058e-18
3.25148e-18
3.18342e-18
3.01817e-18
2.98242e-18
2.84291e-18
2.86358e-18
2.70587e-18
2.74784e-18
2.61553e-18
2.59163e-18
2.52729e-18
2.49115e-18
2.42713e-18
2.43552e-18
2.30503e-18
2.36726e-18
2.24805e-18
2.24684e-18
2.24523e-18
2.15726e-18
2.14314e-18
2.19363e-18
1.99861e-18
2.1907e-18
2.04596e-18
2.00816e-18
2.16095e-18
1.93255e-18
1.99591e-18
2.25602e-18
1.72018e-18
2.34088e-18
2.20368e-18
1.80192e-18
2.86937e-18
2.41584e-18
1.77533e-18
5.06792e-18
2.7649e-18
5.19401e-18
1.55899e-17
1.08051e-17
1.16807e-17
9.61389e-18
1.30961e-17
9.83777e-18
6.53036e-18
5.76097e-18
5.63672e-18
5.47394e-18
5.23772e-18
5.05063e-18
4.67091e-18
4.38423e-18
4.08436e-18
3.90282e-18
3.70208e-18
3.66111e-18
3.44355e-18
3.37298e-18
3.23725e-18
3.17029e-18
3.00911e-18
2.97247e-18
2.8348e-18
2.85682e-18
2.70091e-18
2.7427e-18
2.61233e-18
2.58672e-18
2.52537e-18
2.48753e-18
2.4253e-18
2.43445e-18
2.30352e-18
2.36536e-18
2.24816e-18
2.24437e-18
2.24702e-18
2.15702e-18
2.14213e-18
2.1957e-18
1.99716e-18
2.19195e-18
2.04896e-18
2.00684e-18
2.16519e-18
1.93427e-18
1.99326e-18
2.26216e-18
1.71994e-18
2.33558e-18
2.20853e-18
1.80082e-18
2.83038e-18
2.44224e-18
1.69301e-18
4.97283e-18
2.68497e-18
5.27805e-18
1.58773e-17
1.06338e-17
1.24704e-17
8.92531e-18
1.24237e-17
9.28923e-18
6.13788e-18
5.47352e-18
5.43725e-18
5.33058e-18
5.12267e-18
4.95407e-18
4.59686e-18
4.32606e-18
4.03761e-18
3.86351e-18
3.66992e-18
3.63368e-18
3.42169e-18
3.354e-18
3.22181e-18
3.15611e-18
2.99926e-18
2.96166e-18
2.82597e-18
2.84893e-18
2.69569e-18
2.73657e-18
2.60868e-18
2.58142e-18
2.52296e-18
2.48348e-18
2.42315e-18
2.43272e-18
2.302e-18
2.36286e-18
2.24802e-18
2.24176e-18
2.24821e-18
2.15673e-18
2.14091e-18
2.19701e-18
1.99609e-18
2.19234e-18
2.05167e-18
2.0054e-18
2.16833e-18
1.93593e-18
1.98983e-18
2.26669e-18
1.71965e-18
2.32838e-18
2.21065e-18
1.79967e-18
2.78798e-18
2.45982e-18
1.62326e-18
4.84752e-18
2.62635e-18
5.37058e-18
1.59096e-17
1.05865e-17
1.29208e-17
8.36191e-18
1.17801e-17
8.80205e-18
5.77774e-18
5.19951e-18
5.24044e-18
5.18853e-18
5.0076e-18
4.85589e-18
4.52135e-18
4.26701e-18
3.99023e-18
3.82343e-18
3.63685e-18
3.60454e-18
3.3987e-18
3.33395e-18
3.20539e-18
3.14123e-18
2.98892e-18
2.9503e-18
2.81675e-18
2.84005e-18
2.69034e-18
2.72962e-18
2.60466e-18
2.57588e-18
2.52018e-18
2.47913e-18
2.42076e-18
2.43042e-18
2.30052e-18
2.35983e-18
2.24769e-18
2.23905e-18
2.24883e-18
2.15644e-18
2.13944e-18
2.19759e-18
1.99543e-18
2.19174e-18
2.05417e-18
2.0037e-18
2.17018e-18
1.93768e-18
1.98525e-18
2.26928e-18
1.71951e-18
2.31791e-18
2.21047e-18
1.79707e-18
2.74178e-18
2.46708e-18
1.56469e-18
4.68906e-18
2.58806e-18
5.39903e-18
1.55555e-17
1.05667e-17
1.28757e-17
7.8871e-18
1.11215e-17
8.37106e-18
5.45253e-18
4.94275e-18
5.04871e-18
5.0496e-18
4.89435e-18
4.75744e-18
4.44525e-18
4.20774e-18
3.9429e-18
3.78337e-18
3.60364e-18
3.57436e-18
3.37496e-18
3.31315e-18
3.18821e-18
3.12589e-18
2.97831e-18
2.93861e-18
2.8074e-18
2.83039e-18
2.68499e-18
2.72197e-18
2.60032e-18
2.57023e-18
2.51712e-18
2.47458e-18
2.41822e-18
2.42765e-18
2.29909e-18
2.3563e-18
2.24718e-18
2.23627e-18
2.24887e-18
2.15618e-18
2.1377e-18
2.1974e-18
1.99519e-18
2.18996e-18
2.05642e-18
2.00164e-18
2.17047e-18
1.93944e-18
1.97931e-18
2.26938e-18
1.71974e-18
2.30326e-18
2.20805e-18
1.7922e-18
2.69167e-18
2.46312e-18
1.51673e-18
4.50069e-18
2.56586e-18
5.3187e-18
1.47817e-17
1.04896e-17
1.22942e-17
7.4587e-18
1.04233e-17
7.9882e-18
5.1638e-18
4.70616e-18
4.86395e-18
4.91516e-18
4.7844e-18
4.6601e-18
4.36944e-18
4.14878e-18
3.89607e-18
3.74384e-18
3.57092e-18
3.5437e-18
3.35087e-18
3.29189e-18
3.17046e-18
3.11024e-18
2.96761e-18
2.92677e-18
2.79816e-18
2.82018e-18
2.67971e-18
2.71378e-18
2.59567e-18
2.56456e-18
2.51384e-18
2.46991e-18
2.41561e-18
2.42448e-18
2.29775e-18
2.35234e-18
2.2465e-18
2.23345e-18
2.2483e-18
2.15593e-18
2.13572e-18
2.19636e-18
1.99539e-18
2.18694e-18
2.05832e-18
1.99922e-18
2.16904e-18
1.94105e-18
1.97216e-18
2.26658e-18
1.72056e-18
2.28422e-18
2.20349e-18
1.78482e-18
2.63845e-18
2.4479e-18
1.47956e-18
4.28869e-18
2.55457e-18
5.11367e-18
1.36416e-17
1.02947e-17
1.12521e-17
7.04123e-18
9.6818e-18
7.64121e-18
4.91213e-18
4.49171e-18
4.68758e-18
4.78583e-18
4.6788e-18
4.56499e-18
4.29472e-18
4.09055e-18
3.85004e-18
3.70517e-18
3.53912e-18
3.51304e-18
3.32686e-18
3.27049e-18
3.15235e-18
3.09439e-18
2.95694e-18
2.91489e-18
2.7892e-18
2.80961e-18
2.6746e-18
2.70523e-18
2.59074e-18
2.55894e-18
2.51037e-18
2.46514e-18
2.41301e-18
2.42099e-18
2.29652e-18
2.348e-18
2.24563e-18
2.23061e-18
2.24712e-18
2.15565e-18
2.13359e-18
2.19444e-18
1.99606e-18
2.18274e-18
2.05977e-18
1.99652e-18
2.16597e-18
1.94235e-18
1.96421e-18
2.26077e-18
1.72218e-18
2.26124e-18
2.19706e-18
1.77521e-18
2.58371e-18
2.42254e-18
1.45362e-18
4.06186e-18
2.54803e-18
4.79648e-18
1.22444e-17
9.943e-18
9.89453e-18
6.6058e-18
8.91062e-18
7.31712e-18
4.69663e-18
4.30016e-18
4.52059e-18
4.66179e-18
4.57809e-18
4.47304e-18
4.22178e-18
4.03344e-18
3.80501e-18
3.66756e-18
3.50847e-18
3.48277e-18
3.30324e-18
3.24922e-18
3.13411e-18
3.07844e-18
2.94639e-18
2.90306e-18
2.78061e-18
2.79886e-18
2.66972e-18
2.69648e-18
2.58558e-18
2.55343e-18
2.50676e-18
2.4603e-18
2.4105e-18
2.41722e-18
2.29544e-18
2.34341e-18
2.24456e-18
2.2278e-18
2.2454e-18
2.15528e-18
2.13143e-18
2.19165e-18
1.99719e-18
2.17755e-18
2.06074e-18
1.99366e-18
2.16153e-18
1.94318e-18
1.95599e-18
2.25215e-18
1.72474e-18
2.23525e-18
2.18924e-18
1.76397e-18
2.52933e-18
2.38894e-18
1.43933e-18
3.82951e-18
2.54088e-18
4.3968e-18
1.0729e-17
9.43026e-18
8.39131e-18
6.1378e-18
8.13267e-18
7.00469e-18
4.51508e-18
4.13148e-18
4.36372e-18
4.54297e-18
4.48244e-18
4.38486e-18
4.15122e-18
3.97778e-18
3.76114e-18
3.63107e-18
3.4791e-18
3.45311e-18
3.28023e-18
3.22835e-18
3.11595e-18
3.06247e-18
2.93604e-18
2.89131e-18
2.77243e-18
2.78807e-18
2.66509e-18
2.68769e-18
2.58026e-18
2.54809e-18
2.50305e-18
2.4554e-18
2.40814e-18
2.41325e-18
2.29453e-18
2.33866e-18
2.24334e-18
2.22504e-18
2.24326e-18
2.15477e-18
2.12938e-18
2.18811e-18
1.99877e-18
2.17165e-18
2.06126e-18
1.99075e-18
2.15613e-18
1.94345e-18
1.948e-18
2.24114e-18
1.72832e-18
2.20736e-18
2.18058e-18
1.75184e-18
2.47703e-18
2.34942e-18
1.43624e-18
3.60017e-18
2.52931e-18
3.95455e-18
9.21522e-18
8.77419e-18
6.90567e-18
5.63531e-18
7.37222e-18
6.69529e-18
4.36421e-18
3.98493e-18
4.21741e-18
4.42911e-18
4.39169e-18
4.3008e-18
4.08344e-18
3.92381e-18
3.71851e-18
3.59569e-18
3.45104e-18
3.42425e-18
3.25796e-18
3.20804e-18
3.09803e-18
3.0466e-18
2.92594e-18
2.87969e-18
2.76466e-18
2.77737e-18
2.66073e-18
2.67899e-18
2.57484e-18
2.54297e-18
2.49929e-18
2.45045e-18
2.40596e-18
2.40913e-18
2.29379e-18
2.33389e-18
2.24199e-18
2.22238e-18
2.24084e-18
2.15409e-18
2.12753e-18
2.18394e-18
2.00076e-18
2.16531e-18
2.06141e-18
1.98788e-18
2.15019e-18
1.94315e-18
1.94065e-18
2.22831e-18
1.73291e-18
2.17863e-18
2.17158e-18
1.73952e-18
2.42816e-18
2.3063e-18
1.44322e-18
3.38044e-18
2.51069e-18
3.50992e-18
7.79787e-18
8.01108e-18
5.55493e-18
5.10899e-18
6.65029e-18
6.38341e-18
4.23983e-18
3.85929e-18
4.08185e-18
4.31995e-18
4.30547e-18
4.22094e-18
4.01872e-18
3.87169e-18
3.67718e-18
3.56141e-18
3.42425e-18
3.39626e-18
3.2365e-18
3.1884e-18
3.08052e-18
3.03088e-18
2.91615e-18
2.86822e-18
2.75728e-18
2.76683e-18
2.65663e-18
2.67046e-18
2.56939e-18
2.53809e-18
2.49556e-18
2.44545e-18
2.40398e-18
2.40492e-18
2.29322e-18
2.32919e-18
2.24057e-18
2.21982e-18
2.23829e-18
2.15324e-18
2.12595e-18
2.17932e-18
2.00311e-18
2.15876e-18
2.0613e-18
1.98512e-18
2.1441e-18
1.94231e-18
1.9342e-18
2.21425e-18
1.73841e-18
2.15003e-18
2.16262e-18
1.72766e-18
2.38354e-18
2.26161e-18
1.45857e-18
3.17507e-18
2.48351e-18
3.09561e-18
6.53554e-18
7.17982e-18
4.40799e-18
4.57599e-18
5.9848e-18
6.06694e-18
4.13727e-18
3.75289e-18
3.95703e-18
4.21522e-18
4.22329e-18
4.14516e-18
3.95714e-18
3.82151e-18
3.63715e-18
3.52819e-18
3.39864e-18
3.36915e-18
3.21587e-18
3.16948e-18
3.06351e-18
3.0154e-18
2.90669e-18
2.85694e-18
2.75023e-18
2.75651e-18
2.65276e-18
2.66218e-18
2.56397e-18
2.53348e-18
2.4919e-18
2.44044e-18
2.4022e-18
2.4007e-18
2.29282e-18
2.32461e-18
2.23912e-18
2.21738e-18
2.23572e-18
2.15223e-18
2.12468e-18
2.17439e-18
2.00577e-18
2.15219e-18
2.06103e-18
1.98251e-18
2.13817e-18
1.94098e-18
1.92881e-18
2.19949e-18
1.74467e-18
2.12233e-18
2.15396e-18
1.71678e-18
2.34345e-18
2.217e-18
1.48034e-18
2.98683e-18
2.44776e-18
2.73192e-18
5.45439e-18
6.32247e-18
3.49316e-18
4.05962e-18
5.38269e-18
5.74695e-18
4.05187e-18
3.6639e-18
3.84276e-18
4.11478e-18
4.14466e-18
4.07323e-18
3.8987e-18
3.77329e-18
3.59842e-18
3.49598e-18
3.37414e-18
3.34293e-18
3.19606e-18
3.1513e-18
3.04705e-18
3.0002e-18
2.89759e-18
2.84587e-18
2.74349e-18
2.74646e-18
2.64911e-18
2.65419e-18
2.55865e-18
2.52914e-18
2.48836e-18
2.43544e-18
2.40063e-18
2.39649e-18
2.29257e-18
2.32021e-18
2.2377e-18
2.21508e-18
2.23324e-18
2.15108e-18
2.12373e-18
2.16928e-18
2.0087e-18
2.14576e-18
2.06068e-18
1.98009e-18
2.13261e-18
1.93926e-18
1.9245e-18
2.18451e-18
1.75149e-18
2.0961e-18
2.14572e-18
1.70728e-18
2.30784e-18
2.17379e-18
1.50652e-18
2.81708e-18
2.40424e-18
2.43058e-18
4.55508e-18
5.47805e-18
2.81056e-18
3.58521e-18
4.84805e-18
5.42724e-18
3.97941e-18
3.59042e-18
3.73876e-18
4.01862e-18
4.06917e-18
4.00487e-18
3.84335e-18
3.72705e-18
3.56095e-18
3.46474e-18
3.35063e-18
3.31758e-18
3.17705e-18
3.13384e-18
3.03118e-18
2.98532e-18
2.88885e-18
2.83504e-18
2.737e-18
2.73669e-18
2.64563e-18
2.64649e-18
2.55346e-18
2.52509e-18
2.48497e-18
2.43048e-18
2.39924e-18
2.39235e-18
2.29247e-18
2.316e-18
2.23633e-18
2.2129e-18
2.2309e-18
2.14984e-18
2.12309e-18
2.16412e-18
2.01185e-18
2.13956e-18
2.0603e-18
1.97791e-18
2.12755e-18
1.93726e-18
1.92125e-18
2.16968e-18
1.75867e-18
2.07175e-18
2.13788e-18
1.69943e-18
2.27642e-18
2.1329e-18
1.53537e-18
2.66613e-18
2.35398e-18
2.19532e-18
3.82569e-18
4.68259e-18
2.33713e-18
3.17777e-18
4.38027e-18
5.11322e-18
3.91673e-18
3.53079e-18
3.64474e-18
3.92684e-18
3.99649e-18
3.93975e-18
3.79092e-18
3.68271e-18
3.5247e-18
3.43442e-18
3.32801e-18
3.29306e-18
3.15882e-18
3.11709e-18
3.01589e-18
2.97078e-18
2.88047e-18
2.82447e-18
2.73073e-18
2.72724e-18
2.6423e-18
2.63909e-18
2.54843e-18
2.52132e-18
2.48174e-18
2.42557e-18
2.39801e-18
2.3883e-18
2.29251e-18
2.312e-18
2.23503e-18
2.21088e-18
2.22874e-18
2.14852e-18
2.12275e-18
2.15899e-18
2.01517e-18
2.13367e-18
2.05991e-18
1.97599e-18
2.12306e-18
1.93507e-18
1.91899e-18
2.1553e-18
1.766e-18
2.04962e-18
2.13036e-18
1.69341e-18
2.24879e-18
2.09498e-18
1.56544e-18
2.53362e-18
2.29759e-18
2.02518e-18
3.24506e-18
3.96793e-18
2.0359e-18
2.85802e-18
3.97628e-18
4.81012e-18
3.86128e-18
3.48347e-18
3.56034e-18
3.83953e-18
3.92633e-18
3.87755e-18
3.74125e-18
3.64021e-18
3.48959e-18
3.40497e-18
3.30618e-18
3.26929e-18
3.14131e-18
3.101e-18
3.00115e-18
2.95658e-18
2.87244e-18
2.81416e-18
2.72465e-18
2.71809e-18
2.6391e-18
2.63197e-18
2.54358e-18
2.51785e-18
2.47869e-18
2.42074e-18
2.39694e-18
2.38437e-18
2.29268e-18
2.30822e-18
2.23379e-18
2.209e-18
2.22679e-18
2.14716e-18
2.1227e-18
2.15398e-18
2.01862e-18
2.12814e-18
2.0595e-18
1.97436e-18
2.11916e-18
1.93278e-18
1.91761e-18
2.14161e-18
1.77331e-18
2.02985e-18
2.12307e-18
1.6893e-18
2.22455e-18
2.06047e-18
1.59561e-18
2.41881e-18
2.23568e-18
1.91562e-18
2.78881e-18
1.54089e-17
1.33592e-17
1.82077e-17
2.02633e-17
1.49251e-17
9.82544e-18
7.74803e-18
6.83358e-18
6.27463e-18
5.83764e-18
5.5182e-18
5.0208e-18
4.65405e-18
4.29063e-18
4.06858e-18
3.83301e-18
3.75098e-18
3.52461e-18
3.44343e-18
3.28706e-18
3.21654e-18
3.04125e-18
3.00867e-18
2.86274e-18
2.87223e-18
2.72037e-18
2.75045e-18
2.61706e-18
2.6054e-18
2.52018e-18
2.49861e-18
2.4255e-18
2.42263e-18
2.31183e-18
2.35614e-18
2.23852e-18
2.25431e-18
2.21272e-18
2.15588e-18
2.13801e-18
2.15218e-18
2.01498e-18
2.15049e-18
2.00771e-18
2.01418e-18
2.08215e-18
1.90607e-18
1.99088e-18
2.12188e-18
1.71342e-18
2.30342e-18
1.98034e-18
1.85474e-18
2.83714e-18
1.95445e-18
2.48465e-18
4.91985e-18
2.80994e-18
6.89725e-18
1.61592e-17
1.62132e-17
1.35971e-17
1.86552e-17
2.06067e-17
1.50732e-17
9.89408e-18
7.78943e-18
6.86179e-18
6.29189e-18
5.85026e-18
5.52825e-18
5.02788e-18
4.65824e-18
4.2943e-18
4.07092e-18
3.83499e-18
3.75334e-18
3.52641e-18
3.44454e-18
3.28879e-18
3.21761e-18
3.04239e-18
3.0092e-18
2.86384e-18
2.87307e-18
2.72104e-18
2.75117e-18
2.61824e-18
2.60538e-18
2.52151e-18
2.49878e-18
2.42635e-18
2.42354e-18
2.31188e-18
2.35724e-18
2.23941e-18
2.25408e-18
2.21498e-18
2.15563e-18
2.13896e-18
2.15453e-18
2.01438e-18
2.153e-18
2.01028e-18
2.01344e-18
2.08811e-18
1.90725e-18
1.99255e-18
2.13331e-18
1.71185e-18
2.31552e-18
1.99746e-18
1.85574e-18
2.87451e-18
1.98699e-18
2.50494e-18
5.03916e-18
2.92954e-18
7.19421e-18
1.63153e-17
1.67538e-17
1.38087e-17
1.87033e-17
2.07547e-17
1.50472e-17
9.86154e-18
7.7832e-18
6.86674e-18
6.2985e-18
5.85773e-18
5.53608e-18
5.03339e-18
4.66179e-18
4.29721e-18
4.07312e-18
3.83638e-18
3.75668e-18
3.52811e-18
3.44605e-18
3.29067e-18
3.2193e-18
3.04333e-18
3.01029e-18
2.86462e-18
2.87481e-18
2.72129e-18
2.75277e-18
2.61941e-18
2.6057e-18
2.52307e-18
2.49927e-18
2.42721e-18
2.42533e-18
2.31155e-18
2.35934e-18
2.24035e-18
2.25415e-18
2.21818e-18
2.15572e-18
2.14011e-18
2.15874e-18
2.01298e-18
2.1577e-18
2.01379e-18
2.01319e-18
2.09712e-18
1.90967e-18
1.99524e-18
2.1505e-18
1.71096e-18
2.33154e-18
2.0242e-18
1.85713e-18
2.91991e-18
2.03717e-18
2.50959e-18
5.14403e-18
3.0676e-18
7.40022e-18
1.65483e-17
1.6613e-17
1.3464e-17
1.80813e-17
2.03725e-17
1.47209e-17
9.65378e-18
7.68186e-18
6.81883e-18
6.27513e-18
5.8459e-18
5.53042e-18
5.02967e-18
4.65911e-18
4.2957e-18
4.07198e-18
3.83535e-18
3.75869e-18
3.52857e-18
3.44657e-18
3.29199e-18
3.22049e-18
3.04388e-18
3.01099e-18
2.86509e-18
2.87651e-18
2.72128e-18
2.75453e-18
2.62061e-18
2.60581e-18
2.52488e-18
2.49969e-18
2.42815e-18
2.42756e-18
2.31104e-18
2.36185e-18
2.24147e-18
2.25415e-18
2.22215e-18
2.15594e-18
2.14137e-18
2.16417e-18
2.01107e-18
2.16369e-18
2.01811e-18
2.01314e-18
2.10793e-18
1.91302e-18
1.99808e-18
2.17028e-18
1.71189e-18
2.3447e-18
2.05856e-18
1.85333e-18
2.95529e-18
2.09969e-18
2.4622e-18
5.20453e-18
3.15098e-18
7.20996e-18
1.64117e-17
1.58136e-17
1.24971e-17
1.68495e-17
1.941e-17
1.4099e-17
9.28011e-18
7.48674e-18
6.71533e-18
6.21535e-18
5.8067e-18
5.50401e-18
5.01125e-18
4.64605e-18
4.28658e-18
4.06502e-18
3.83002e-18
3.75736e-18
3.52631e-18
3.44479e-18
3.2917e-18
3.22025e-18
3.04353e-18
3.01061e-18
2.86485e-18
2.87759e-18
2.72081e-18
2.75595e-18
2.62157e-18
2.60545e-18
2.52668e-18
2.49979e-18
2.42901e-18
2.42993e-18
2.31038e-18
2.36433e-18
2.24276e-18
2.2539e-18
2.22658e-18
2.15625e-18
2.14256e-18
2.17018e-18
2.00892e-18
2.17007e-18
2.023e-18
2.01307e-18
2.11922e-18
1.91702e-18
2.00016e-18
2.19035e-18
1.71403e-18
2.35222e-18
2.09594e-18
1.8436e-18
2.97397e-18
2.16745e-18
2.36239e-18
5.23476e-18
3.16637e-18
6.69121e-18
1.59063e-17
1.4707e-17
1.13382e-17
1.53603e-17
1.81823e-17
1.33471e-17
8.82304e-18
7.23379e-18
6.57394e-18
6.12668e-18
5.74349e-18
5.45701e-18
4.9776e-18
4.62141e-18
4.26865e-18
4.05125e-18
3.81941e-18
3.75154e-18
3.52047e-18
3.43994e-18
3.28896e-18
3.21783e-18
3.04182e-18
3.00869e-18
2.86342e-18
2.87763e-18
2.71957e-18
2.75667e-18
2.62198e-18
2.60446e-18
2.52815e-18
2.49942e-18
2.42958e-18
2.43215e-18
2.30957e-18
2.3664e-18
2.2441e-18
2.2533e-18
2.23111e-18
2.1566e-18
2.14348e-18
2.17624e-18
2.00664e-18
2.17619e-18
2.02816e-18
2.01265e-18
2.13019e-18
1.92104e-18
2.00106e-18
2.20896e-18
1.71618e-18
2.3548e-18
2.13072e-18
1.83101e-18
2.97584e-18
2.23355e-18
2.2372e-18
5.24675e-18
3.13792e-18
6.11249e-18
1.53759e-17
1.36064e-17
1.04592e-17
1.39049e-17
1.69272e-17
1.25748e-17
8.34183e-18
6.95469e-18
6.40945e-18
6.01793e-18
5.66183e-18
5.3937e-18
4.93094e-18
4.5864e-18
4.24252e-18
4.03097e-18
3.80361e-18
3.74096e-18
3.51082e-18
3.43178e-18
3.2834e-18
3.21285e-18
3.03846e-18
3.00494e-18
2.86055e-18
2.87635e-18
2.7174e-18
2.75635e-18
2.62164e-18
2.60266e-18
2.52906e-18
2.49844e-18
2.42971e-18
2.43397e-18
2.30856e-18
2.36781e-18
2.24536e-18
2.25225e-18
2.23542e-18
2.15689e-18
2.14399e-18
2.1819e-18
2.00435e-18
2.18151e-18
2.03325e-18
2.01178e-18
2.14008e-18
1.92466e-18
2.00078e-18
2.22509e-18
1.71781e-18
2.35382e-18
2.15943e-18
1.81932e-18
2.96311e-18
2.29274e-18
2.10776e-18
5.23802e-18
3.07199e-18
5.65338e-18
1.50691e-17
1.26245e-17
1.00757e-17
1.25948e-17
1.57647e-17
1.18281e-17
7.8643e-18
6.66187e-18
6.23e-18
5.8953e-18
5.56764e-18
5.31871e-18
4.87453e-18
4.54318e-18
4.20952e-18
4.00493e-18
3.78311e-18
3.72597e-18
3.49772e-18
3.42054e-18
3.27507e-18
3.20531e-18
3.03339e-18
2.99931e-18
2.85618e-18
2.87363e-18
2.71429e-18
2.7548e-18
2.62047e-18
2.59996e-18
2.52927e-18
2.49676e-18
2.4293e-18
2.43516e-18
2.30736e-18
2.36836e-18
2.24641e-18
2.25073e-18
2.2392e-18
2.15705e-18
2.14401e-18
2.18679e-18
2.00214e-18
2.18573e-18
2.03795e-18
2.01058e-18
2.14848e-18
1.92768e-18
1.99948e-18
2.23819e-18
1.71878e-18
2.35067e-18
2.18076e-18
1.81044e-18
2.93912e-18
2.34353e-18
1.9844e-18
5.20516e-18
2.97746e-18
5.35723e-18
1.50592e-17
1.18175e-17
1.02377e-17
1.14474e-17
1.4741e-17
1.11181e-17
7.39987e-18
6.3627e-18
6.04039e-18
5.76299e-18
5.46457e-18
5.23539e-18
4.81112e-18
4.49388e-18
4.17111e-18
3.97397e-18
3.75855e-18
3.70706e-18
3.4817e-18
3.40669e-18
3.26431e-18
3.19544e-18
3.02674e-18
2.99198e-18
2.85037e-18
2.86948e-18
2.71035e-18
2.75198e-18
2.61848e-18
2.59638e-18
2.52872e-18
2.49436e-18
2.42837e-18
2.43561e-18
2.306e-18
2.36803e-18
2.24716e-18
2.24879e-18
2.24234e-18
2.15704e-18
2.14361e-18
2.19072e-18
2.00011e-18
2.18883e-18
2.04205e-18
2.00922e-18
2.15526e-18
1.93011e-18
1.99759e-18
2.2484e-18
1.71922e-18
2.34649e-18
2.19512e-18
1.80486e-18
2.90779e-18
2.38596e-18
1.87249e-18
5.15342e-18
2.87199e-18
5.22291e-18
1.52971e-17
1.12251e-17
1.08567e-17
1.0458e-17
1.38582e-17
1.04546e-17
6.95419e-18
6.06222e-18
5.84427e-18
5.62426e-18
5.35545e-18
5.14604e-18
4.74284e-18
4.44026e-18
4.12859e-18
3.93912e-18
3.73066e-18
3.68475e-18
3.46329e-18
3.3907e-18
3.25157e-18
3.18367e-18
3.01871e-18
2.98318e-18
2.84329e-18
2.86397e-18
2.70579e-18
2.74792e-18
2.61581e-18
2.59207e-18
2.52746e-18
2.4913e-18
2.42694e-18
2.43527e-18
2.30455e-18
2.36685e-18
2.24759e-18
2.24654e-18
2.24478e-18
2.15689e-18
2.14286e-18
2.19367e-18
1.99836e-18
2.19095e-18
2.04556e-18
2.00787e-18
2.16064e-18
1.93207e-18
1.99537e-18
2.25625e-18
1.71927e-18
2.34185e-18
2.2039e-18
1.80213e-18
2.87189e-18
2.42016e-18
1.7757e-18
5.08139e-18
2.77416e-18
5.22327e-18
1.56481e-17
1.08602e-17
1.17183e-17
9.6233e-18
1.31031e-17
9.84448e-18
6.53245e-18
5.7656e-18
5.64484e-18
5.48194e-18
5.24245e-18
5.05241e-18
4.6711e-18
4.38376e-18
4.08333e-18
3.90147e-18
3.7002e-18
3.65956e-18
3.4429e-18
3.37303e-18
3.23727e-18
3.17046e-18
3.00961e-18
2.97321e-18
2.83519e-18
2.8572e-18
2.7008e-18
2.74273e-18
2.61258e-18
2.58716e-18
2.52557e-18
2.4877e-18
2.42512e-18
2.43421e-18
2.30305e-18
2.36496e-18
2.24771e-18
2.24407e-18
2.24657e-18
2.15664e-18
2.14185e-18
2.19576e-18
1.99695e-18
2.19223e-18
2.0486e-18
2.00654e-18
2.16489e-18
1.93379e-18
1.99272e-18
2.26233e-18
1.71909e-18
2.33643e-18
2.20873e-18
1.80098e-18
2.83271e-18
2.44624e-18
1.69347e-18
4.98495e-18
2.69343e-18
5.30751e-18
1.59317e-17
1.0686e-17
1.25088e-17
8.93493e-18
1.24286e-17
9.29415e-18
6.13947e-18
5.47792e-18
5.44537e-18
5.33869e-18
5.12748e-18
4.95586e-18
4.59698e-18
4.32553e-18
4.03653e-18
3.86213e-18
3.66799e-18
3.63203e-18
3.42094e-18
3.35398e-18
3.22177e-18
3.15621e-18
2.99971e-18
2.9624e-18
2.82636e-18
2.84929e-18
2.69556e-18
2.73655e-18
2.60891e-18
2.58187e-18
2.52319e-18
2.48367e-18
2.42299e-18
2.43248e-18
2.30154e-18
2.36247e-18
2.24758e-18
2.24146e-18
2.24776e-18
2.15633e-18
2.14063e-18
2.19708e-18
1.99591e-18
2.19262e-18
2.05135e-18
2.0051e-18
2.16803e-18
1.93546e-18
1.9893e-18
2.26681e-18
1.71884e-18
2.32911e-18
2.21084e-18
1.79976e-18
2.79011e-18
2.46348e-18
1.62381e-18
4.85822e-18
2.63413e-18
5.39869e-18
1.59604e-17
1.06353e-17
1.29595e-17
8.37202e-18
1.17831e-17
8.8053e-18
5.77888e-18
5.20366e-18
5.24847e-18
5.19669e-18
5.01247e-18
4.85768e-18
4.52141e-18
4.26643e-18
3.98912e-18
3.82202e-18
3.63487e-18
3.60281e-18
3.39786e-18
3.33386e-18
3.20529e-18
3.14127e-18
2.98933e-18
2.95101e-18
2.81713e-18
2.8404e-18
2.69018e-18
2.72955e-18
2.60487e-18
2.57633e-18
2.52043e-18
2.47934e-18
2.42062e-18
2.43019e-18
2.30006e-18
2.35944e-18
2.24726e-18
2.23876e-18
2.24839e-18
2.15604e-18
2.13916e-18
2.19767e-18
1.99528e-18
2.19203e-18
2.05389e-18
2.0034e-18
2.16989e-18
1.9372e-18
1.98472e-18
2.26935e-18
1.71875e-18
2.3185e-18
2.21063e-18
1.79707e-18
2.74371e-18
2.47039e-18
1.56526e-18
4.69854e-18
2.59526e-18
5.42441e-18
1.56023e-17
1.06115e-17
1.29134e-17
7.89772e-18
1.11229e-17
8.37288e-18
5.45326e-18
4.94666e-18
5.05663e-18
5.05776e-18
4.89925e-18
4.75924e-18
4.44527e-18
4.20712e-18
3.94177e-18
3.78194e-18
3.60164e-18
3.57256e-18
3.37405e-18
3.313e-18
3.18806e-18
3.12587e-18
2.97867e-18
2.9393e-18
2.80778e-18
2.83073e-18
2.68482e-18
2.72186e-18
2.6005e-18
2.57067e-18
2.51739e-18
2.47481e-18
2.41809e-18
2.42743e-18
2.29864e-18
2.35592e-18
2.24676e-18
2.23599e-18
2.24843e-18
2.15577e-18
2.13741e-18
2.19748e-18
1.99506e-18
2.19026e-18
2.05618e-18
2.00133e-18
2.17018e-18
1.93895e-18
1.97877e-18
2.26939e-18
1.71901e-18
2.30372e-18
2.20818e-18
1.79212e-18
2.69341e-18
2.46608e-18
1.51731e-18
4.50902e-18
2.57244e-18
5.34079e-18
1.48239e-17
1.053e-17
1.23293e-17
7.46981e-18
1.04233e-17
7.98867e-18
5.16418e-18
4.70985e-18
4.87169e-18
4.92323e-18
4.78929e-18
4.66188e-18
4.36942e-18
4.14812e-18
3.89493e-18
3.74242e-18
3.56891e-18
3.54187e-18
3.3499e-18
3.29168e-18
3.17026e-18
3.11018e-18
2.96793e-18
2.92744e-18
2.79854e-18
2.8205e-18
2.67953e-18
2.71364e-18
2.59582e-18
2.56498e-18
2.51412e-18
2.47015e-18
2.4155e-18
2.42427e-18
2.29731e-18
2.35196e-18
2.24609e-18
2.23316e-18
2.24786e-18
2.15552e-18
2.13543e-18
2.19644e-18
1.99529e-18
2.18724e-18
2.05811e-18
1.9989e-18
2.16876e-18
1.94057e-18
1.97162e-18
2.26654e-18
1.71986e-18
2.28456e-18
2.20358e-18
1.78464e-18
2.64001e-18
2.45056e-18
1.48012e-18
4.29601e-18
2.56055e-18
5.13204e-18
1.36787e-17
1.03303e-17
1.12834e-17
7.05244e-18
9.6806e-18
7.64049e-18
4.91222e-18
4.49518e-18
4.69508e-18
4.79376e-18
4.68364e-18
4.56675e-18
4.29465e-18
4.08985e-18
3.84888e-18
3.70375e-18
3.5371e-18
3.51118e-18
3.32584e-18
3.27022e-18
3.15212e-18
3.09428e-18
2.95722e-18
2.91554e-18
2.78958e-18
2.80991e-18
2.6744e-18
2.70506e-18
2.59087e-18
2.55935e-18
2.51066e-18
2.4654e-18
2.41293e-18
2.42078e-18
2.29609e-18
2.34762e-18
2.24522e-18
2.23032e-18
2.24668e-18
2.15524e-18
2.13329e-18
2.19451e-18
1.99599e-18
2.18304e-18
2.0596e-18
1.9962e-18
2.16569e-18