/*--------------------------------*- C++ -*----------------------------------*\
| =========                 |                                                 |
| \\      /  F ield         | OpenFOAM: The Open Source CFD Toolbox           |
|  \\    /   O peration     | Version:  2312                                  |
|   \\  /    A nd           | Website:  www.openfoam.com                      |
|    \\/     M anipulation  |                                                 |
\*---------------------------------------------------------------------------*/
FoamFile
{
    version     2.0;
    format      ascii;
    arch        "LSB;label=32;scalar=64";
    class       volScalarField;
    location    "760";
    object      nut;
}
// * * * * * * * * * * * * * * * * * * * * * * * * * * * * * * * * * * * * * //

dimensions      [0 2 -1 0 0 0 0];

internalField   nonuniform List<scalar> 
144000
(
1.22313e-29
3.24929e-30
2.18224e-30
1.89958e-28
3.61902e-29
1.34847e-31
1.98578e-29
4.44555e-30
1.25388e-29
8.16973e-30
1.15193e-29
9.05309e-30
1.26617e-29
1.10474e-29
1.16635e-29
9.56301e-30
1.35891e-29
1.47174e-29
1.38157e-29
1.29175e-29
1.57319e-29
1.63552e-29
1.65448e-29
1.59038e-29
1.57844e-29
1.58239e-29
1.78653e-29
1.78566e-29
1.82358e-29
1.74121e-29
1.63137e-29
1.5364e-29
1.8259e-29
1.81091e-29
1.68203e-29
1.47312e-29
1.31904e-29
1.16238e-29
1.12296e-29
7.7039e-30
8.21173e-30
4.62419e-30
1.16314e-29
9.44209e-30
6.71975e-30
6.10659e-30
2.61595e-30
1.4453e-30
3.14605e-31
9.57047e-32
1.12854e-31
1.0763e-30
8.60321e-30
2.46934e-29
1.32194e-28
5.78789e-29
3.39373e-28
2.40325e-26
4.92186e-26
6.9562e-27
1.63217e-26
1.62408e-27
6.28796e-28
1.87851e-27
1.85252e-29
2.32721e-30
3.56184e-29
1.3032e-29
1.74654e-29
2.54145e-29
1.68778e-29
2.49599e-29
2.02847e-29
2.85793e-29
2.09384e-29
2.23873e-29
2.3801e-29
3.48182e-29
2.68405e-29
2.76431e-29
2.94218e-29
3.66553e-29
3.15964e-29
3.4402e-29
3.01131e-29
3.33662e-29
3.37116e-29
3.82407e-29
3.47995e-29
3.62194e-29
3.13839e-29
3.04921e-29
3.37851e-29
3.70437e-29
3.19014e-29
2.80496e-29
2.43601e-29
2.10557e-29
2.03942e-29
1.52972e-29
1.59357e-29
1.22238e-29
2.73103e-29
1.35341e-29
1.41235e-29
1.10215e-29
5.65525e-30
1.89994e-30
6.82689e-31
6.76655e-32
1.18563e-31
4.30583e-30
1.40667e-29
7.70679e-29
2.24009e-28
2.71007e-28
4.11265e-28
5.31351e-26
2.84315e-25
4.66071e-27
6.49128e-26
4.39945e-27
5.18614e-27
1.70757e-27
9.5811e-29
1.21427e-30
5.17298e-29
1.96724e-29
2.55289e-29
3.26635e-29
2.65187e-29
3.09992e-29
3.15889e-29
3.66605e-29
3.11593e-29
3.04958e-29
3.57645e-29
4.55797e-29
3.92222e-29
3.80195e-29
4.26714e-29
4.93082e-29
4.50449e-29
4.70951e-29
4.253e-29
4.64751e-29
4.74397e-29
5.22014e-29
4.85352e-29
4.97212e-29
4.30303e-29
4.31045e-29
4.63213e-29
4.99592e-29
4.31105e-29
3.81317e-29
3.25955e-29
2.91146e-29
2.76396e-29
2.21855e-29
2.45588e-29
1.70901e-29
4.32736e-29
1.64366e-29
2.17531e-29
1.49592e-29
7.83107e-30
2.98099e-30
8.78141e-31
2.10813e-31
2.7809e-31
4.0014e-30
2.48e-29
8.65894e-29
3.52777e-28
2.25131e-28
1.44336e-27
9.32028e-26
2.97245e-25
2.28893e-26
3.02029e-25
5.18557e-26
2.1584e-26
6.74541e-27
9.05618e-29
1.69513e-30
5.19081e-29
2.34706e-29
2.57725e-29
3.27896e-29
2.72085e-29
3.06997e-29
3.23887e-29
3.65618e-29
3.18845e-29
3.02091e-29
3.60209e-29
4.5669e-29
3.96566e-29
3.761e-29
4.30556e-29
4.89148e-29
4.54539e-29
4.64238e-29
4.27261e-29
4.58979e-29
4.71461e-29
5.18025e-29
4.82778e-29
4.87987e-29
4.27075e-29
4.22434e-29
4.53258e-29
4.91837e-29
4.22181e-29
3.71722e-29
3.22478e-29
2.89713e-29
2.83326e-29
2.35498e-29
2.59412e-29
2.27678e-29
4.10411e-29
1.55869e-29
2.53595e-29
1.4094e-29
9.03077e-30
2.84623e-30
1.21033e-30
3.33746e-31
1.44583e-31
4.31844e-30
2.08416e-29
8.21572e-29
3.03557e-28
1.9658e-28
1.81649e-27
1.35987e-25
4.3729e-25
9.79805e-26
6.97241e-25
2.8695e-25
4.08329e-26
2.30459e-26
1.93204e-28
3.0356e-30
5.86371e-29
2.97676e-29
2.58116e-29
3.49419e-29
2.65795e-29
3.24652e-29
3.22845e-29
3.78532e-29
3.19299e-29
3.06688e-29
3.60087e-29
4.69925e-29
3.96907e-29
3.76197e-29
4.33901e-29
4.93201e-29
4.5634e-29
4.62523e-29
4.27491e-29
4.57195e-29
4.71589e-29
5.19784e-29
4.79866e-29
4.86214e-29
4.24918e-29
4.19227e-29
4.52328e-29
4.97744e-29
4.20797e-29
3.77369e-29
3.29337e-29
3.06163e-29
3.01888e-29
2.58932e-29
2.74758e-29
2.55254e-29
3.57958e-29
1.79088e-29
2.877e-29
1.4151e-29
1.03518e-29
3.03841e-30
1.7402e-30
6.43169e-31
6.33947e-32
4.3985e-30
1.69323e-29
7.58421e-29
2.48406e-28
1.53069e-28
2.57638e-27
2.17725e-25
6.0812e-25
4.01786e-25
1.11845e-24
9.47741e-25
5.16327e-26
5.85425e-26
5.32041e-28
7.35567e-30
7.2664e-29
3.73695e-29
2.80673e-29
3.78427e-29
2.65887e-29
3.46334e-29
3.2976e-29
4.0032e-29
3.25972e-29
3.20857e-29
3.7224e-29
4.95998e-29
4.05622e-29
3.88153e-29
4.50025e-29
5.12346e-29
4.70081e-29
4.73586e-29
4.40321e-29
4.69711e-29
4.87905e-29
5.38455e-29
4.93999e-29
5.00205e-29
4.3845e-29
4.33672e-29
4.75029e-29
5.27052e-29
4.41592e-29
4.0448e-29
3.56574e-29
3.43384e-29
3.35952e-29
2.87992e-29
2.85099e-29
3.10562e-29
3.32221e-29
2.29312e-29
3.26175e-29
1.58519e-29
1.21013e-29
3.8249e-30
2.67805e-30
1.35015e-30
4.23352e-32
4.5328e-30
1.3067e-29
6.80391e-29
1.88461e-28
1.03504e-28
3.74978e-27
3.54394e-25
7.87102e-25
1.21142e-24
1.44528e-24
2.34014e-24
5.00558e-26
1.21496e-25
1.38707e-27
1.72225e-29
9.27859e-29
4.60869e-29
3.22712e-29
4.04393e-29
2.74396e-29
3.63522e-29
3.44335e-29
4.20382e-29
3.36655e-29
3.36934e-29
3.94174e-29
5.23859e-29
4.18944e-29
4.0535e-29
4.73757e-29
5.36682e-29
4.88524e-29
4.90013e-29
4.59904e-29
4.90962e-29
5.15102e-29
5.64526e-29
5.17069e-29
5.23047e-29
4.62365e-29
4.61417e-29
5.1494e-29
5.69246e-29
4.76425e-29
4.44207e-29
3.97967e-29
3.94265e-29
3.81326e-29
3.22836e-29
3.0235e-29
3.40422e-29
3.23242e-29
3.05571e-29
3.76631e-29
1.91996e-29
1.43857e-29
5.50792e-30
4.41153e-30
2.9606e-30
1.714e-31
5.09357e-30
9.94434e-30
5.80033e-29
1.2967e-28
6.3367e-29
5.04838e-27
5.5743e-25
1.00822e-24
2.86935e-24
1.60465e-24
4.71267e-24
3.95098e-26
2.17214e-25
3.17847e-27
3.36587e-29
1.19728e-28
5.78749e-29
3.7362e-29
4.30526e-29
2.87516e-29
3.76528e-29
3.62621e-29
4.37712e-29
3.49489e-29
3.51595e-29
4.20225e-29
5.49843e-29
4.33786e-29
4.23163e-29
5.00244e-29
5.63649e-29
5.0888e-29
5.09209e-29
4.83816e-29
5.16734e-29
5.46578e-29
5.96054e-29
5.46446e-29
5.50576e-29
4.93941e-29
4.96099e-29
5.65027e-29
6.19984e-29
5.21283e-29
4.92405e-29
4.52074e-29
4.57428e-29
4.3782e-29
3.64434e-29
3.30197e-29
3.97259e-29
3.28086e-29
3.96642e-29
4.49547e-29
2.45717e-29
1.76338e-29
8.75852e-30
7.64575e-30
6.60384e-30
1.02265e-30
7.16418e-30
9.42194e-30
5.05843e-29
8.9102e-29
6.13016e-29
6.40555e-27
8.36098e-25
1.29768e-24
5.58025e-24
1.60381e-24
8.35017e-24
2.53125e-26
3.52261e-25
6.71148e-27
5.91273e-29
1.55552e-28
7.09106e-29
4.28802e-29
4.59845e-29
3.03054e-29
3.8788e-29
3.84225e-29
4.53536e-29
3.63301e-29
3.67974e-29
4.50738e-29
5.76342e-29
4.48922e-29
4.43425e-29
5.31754e-29
5.9336e-29
5.3033e-29
5.31805e-29
5.11448e-29
5.47192e-29
5.85214e-29
6.31473e-29
5.79496e-29
5.84095e-29
5.32224e-29
5.37918e-29
6.27163e-29
6.78499e-29
5.74928e-29
5.51786e-29
5.22464e-29
5.4048e-29
5.18504e-29
4.40151e-29
4.0603e-29
5.10032e-29
3.13208e-29
5.16293e-29
5.6119e-29
3.27947e-29
2.26716e-29
1.47601e-29
1.39949e-29
1.46288e-29
4.54354e-30
1.42215e-29
1.59507e-29
5.58477e-29
9.45902e-29
1.67405e-28
7.45781e-27
1.20261e-24
1.79117e-24
9.57253e-24
1.46211e-24
1.33513e-23
1.48142e-26
5.23537e-25
1.31247e-26
9.66777e-29
2.01378e-28
8.2644e-29
4.90293e-29
4.92486e-29
3.21652e-29
3.98836e-29
4.09942e-29
4.69497e-29
3.81077e-29
3.8561e-29
4.85244e-29
6.05827e-29
4.65821e-29
4.66774e-29
5.66623e-29
6.2585e-29
5.54838e-29
5.56517e-29
5.44277e-29
5.81004e-29
6.27245e-29
6.71279e-29
6.18321e-29
6.22314e-29
5.78019e-29
5.86513e-29
6.97813e-29
7.4736e-29
6.40466e-29
6.25703e-29
6.159e-29
6.55194e-29
6.40408e-29
5.86064e-29
6.21734e-29
5.43504e-29
2.75561e-29
6.60061e-29
7.29207e-29
4.54172e-29
3.09014e-29
2.55684e-29
2.64694e-29
3.15448e-29
1.58281e-29
3.48906e-29
4.36687e-29
9.86873e-29
2.11477e-28
6.54161e-28
8.38884e-27
1.67318e-24
2.57764e-24
1.47791e-23
1.28346e-24
1.98591e-23
1.11881e-26
7.28352e-25
2.42288e-26
1.53983e-28
2.61584e-28
9.19103e-29
5.52341e-29
5.30209e-29
3.42806e-29
4.08975e-29
4.41054e-29
4.8442e-29
4.0274e-29
4.04369e-29
5.27157e-29
6.3476e-29
4.85607e-29
4.91738e-29
6.07959e-29
6.57792e-29
5.82211e-29
5.82878e-29
5.82109e-29
6.17761e-29
6.76534e-29
7.12593e-29
6.61357e-29
6.66084e-29
6.30955e-29
6.4383e-29
7.80533e-29
8.25697e-29
7.1829e-29
7.16948e-29
7.37959e-29
8.07337e-29
8.0824e-29
7.9967e-29
8.38518e-29
6.85298e-29
3.04583e-29
7.38558e-29
1.03616e-28
6.29216e-29
4.49189e-29
4.43549e-29
5.07539e-29
6.57007e-29
4.62827e-29
8.89025e-29
1.31337e-28
2.44549e-28
6.38182e-28
2.13516e-27
8.89841e-27
2.28681e-24
4.004e-24
2.11981e-23
1.09957e-24
2.77644e-23
2.15106e-26
9.54362e-25
4.23142e-26
2.4558e-28
3.35879e-28
9.85186e-29
6.10764e-29
5.79018e-29
3.62585e-29
4.21025e-29
4.73133e-29
5.00799e-29
4.26976e-29
4.23475e-29
5.72877e-29
6.61795e-29
5.08148e-29
5.16513e-29
6.53197e-29
6.89178e-29
6.12762e-29
6.10397e-29
6.25487e-29
6.56532e-29
7.28385e-29
7.56391e-29
7.11045e-29
7.13629e-29
6.92144e-29
7.08651e-29
8.72605e-29
9.14788e-29
8.11559e-29
8.27251e-29
8.94038e-29
9.96662e-29
1.01274e-28
1.0922e-28
1.19615e-28
9.02302e-29
3.24642e-29
8.01609e-29
1.50183e-28
8.80037e-29
6.86214e-29
7.62203e-29
9.60421e-29
1.31461e-28
1.19185e-28
2.17634e-28
3.61342e-28
6.40592e-28
1.80348e-27
5.72076e-27
9.38764e-27
3.10994e-24
6.25869e-24
2.84005e-23
1.05762e-24
3.70403e-23
5.49777e-26
1.19135e-24
6.99485e-26
4.06509e-28
4.37921e-28
9.98053e-29
6.65962e-29
6.38297e-29
3.80603e-29
4.34742e-29
5.0596e-29
5.19012e-29
4.50219e-29
4.44651e-29
6.2368e-29
6.86537e-29
5.3136e-29
5.42025e-29
7.04169e-29
7.19208e-29
6.43916e-29
6.40392e-29
6.72151e-29
6.96951e-29
7.87544e-29
8.01032e-29
7.6395e-29
7.6688e-29
7.60535e-29
7.81616e-29
9.81494e-29
1.01567e-28
9.24196e-29
9.70863e-29
1.11297e-28
1.29157e-28
1.45027e-28
2.16847e-28
5.00309e-28
2.86888e-28
7.81442e-30
1.44157e-28
1.7404e-28
1.38653e-28
1.02583e-28
1.31744e-28
1.76439e-28
2.52443e-28
2.72905e-28
4.93876e-28
8.7836e-28
1.54962e-27
4.40612e-27
1.27859e-26
9.5357e-27
4.20067e-24
1.01441e-23
3.61158e-23
1.20728e-24
4.77907e-23
1.35637e-25
1.43656e-24
1.09494e-25
7.05962e-28
5.69198e-28
9.52419e-29
7.19127e-29
7.08372e-29
3.97186e-29
4.49583e-29
5.38601e-29
5.38482e-29
4.7486e-29
4.66987e-29
6.74137e-29
7.10811e-29
5.55803e-29
5.68429e-29
7.55579e-29
7.49265e-29
6.76855e-29
6.71444e-29
7.2303e-29
7.38936e-29
8.4806e-29
8.48791e-29
8.22736e-29
8.23885e-29
8.38317e-29
8.6237e-29
1.10222e-28
1.13314e-28
1.06364e-28
1.15677e-28
1.42488e-28
1.76792e-28
2.41089e-28
5.62113e-28
1.02832e-27
1.59695e-29
1.26402e-29
1.5255e-28
2.03884e-28
2.22575e-28
1.53812e-28
2.25437e-28
3.12255e-28
4.63106e-28
5.6898e-28
1.02469e-27
1.90426e-27
3.35676e-27
9.44479e-27
2.51672e-26
9.58821e-27
5.66639e-24
1.6142e-23
4.39627e-23
1.84782e-24
6.00529e-23
2.65865e-25
1.68682e-24
1.6225e-25
1.27209e-27
7.35623e-28
8.4465e-29
7.73743e-29
7.82242e-29
4.15766e-29
4.61267e-29
5.75537e-29
5.55624e-29
5.00817e-29
4.89711e-29
7.27813e-29
7.32008e-29
5.81115e-29
5.95325e-29
8.10709e-29
7.7691e-29
7.10668e-29
7.04111e-29
7.76626e-29
7.82561e-29
9.1426e-29
8.97483e-29
8.85032e-29
8.86853e-29
9.22881e-29
9.50644e-29
1.23474e-28
1.25333e-28
1.20129e-28
1.31984e-28
1.64602e-28
1.94099e-28
2.63802e-28
6.31071e-28
1.47203e-29
1.00887e-27
2.23235e-27
1.15385e-29
4.56874e-28
2.69089e-28
2.58589e-28
3.55765e-28
5.40817e-28
8.056e-28
1.08874e-27
1.95827e-27
3.71463e-27
6.55705e-27
1.79535e-26
4.42218e-26
9.43236e-27
7.66393e-24
2.57585e-23
5.14661e-23
3.02163e-24
7.36122e-23
4.8511e-25
1.9712e-24
2.29614e-25
2.39399e-27
8.9782e-28
7.09448e-29
8.19285e-29
8.69563e-29
4.30335e-29
4.74721e-29
6.11067e-29
5.7447e-29
5.27399e-29
5.13201e-29
7.78701e-29
7.5346e-29
6.06601e-29
6.23329e-29
8.64223e-29
8.04853e-29
7.46102e-29
7.38675e-29
8.33654e-29
8.28115e-29
9.79088e-29
9.4958e-29
9.54513e-29
9.54328e-29
1.01678e-28
1.04742e-28
1.37816e-28
1.39484e-28
1.37792e-28
1.56178e-28
2.08026e-28
2.6766e-28
5.04573e-28
1.787e-27
3.56226e-27
4.57852e-27
1.15651e-30
4.45225e-29
5.16945e-28
4.19252e-28
3.82896e-28
5.53636e-28
8.90943e-28
1.33301e-27
1.9336e-27
3.44891e-27
6.6215e-27
1.1611e-26
3.09397e-26
7.08883e-26
9.69772e-27
1.04617e-23
3.89493e-23
5.78036e-23
5.3342e-24
8.72797e-23
7.71583e-25
2.29722e-24
3.06202e-25
4.43244e-27
1.07659e-27
5.66439e-29
8.56768e-29
9.66212e-29
4.4167e-29
4.88289e-29
6.47141e-29
5.94273e-29
5.50874e-29
5.37923e-29
8.31934e-29
7.72663e-29
6.30789e-29
6.52312e-29
9.21236e-29
8.31268e-29
7.80628e-29
7.77076e-29
8.91134e-29
8.74976e-29
1.04973e-28
1.00344e-28
1.02595e-28
1.03047e-28
1.11709e-28
1.15482e-28
1.54696e-28
1.56506e-28
1.61287e-28
1.94321e-28
2.88316e-28
4.43597e-28
1.17182e-27
5.92248e-27
6.08263e-26
8.56895e-29
1.29804e-26
2.16318e-28
4.21423e-28
7.16729e-28
5.22056e-28
8.61109e-28
1.3827e-27
2.10821e-27
3.17963e-27
5.66387e-27
1.08504e-26
1.89005e-26
4.89101e-26
1.04908e-25
1.03004e-26
1.41756e-23
5.77972e-23
6.1867e-23
9.39718e-24
1.02783e-22
1.09452e-24
2.73063e-24
3.87983e-25
7.99343e-27
1.21851e-27
4.30743e-29
8.7738e-29
1.08264e-28
4.45132e-29
5.05525e-29
6.7982e-29
6.15989e-29
5.74063e-29
5.63733e-29
8.79882e-29
7.93377e-29
6.54888e-29
6.83147e-29
9.74645e-29
8.59293e-29
8.16215e-29
8.17377e-29
9.50827e-29
9.23667e-29
1.11908e-28
1.06215e-28
1.10145e-28
1.11062e-28
1.22373e-28
1.26398e-28
1.70595e-28
1.71047e-28
1.7705e-28
2.09135e-28
2.92016e-28
3.81495e-28
7.33231e-28
2.32156e-27
5.63837e-27
4.36043e-27
2.45789e-30
1.89498e-29
1.02821e-27
7.66078e-28
8.19955e-28
1.23003e-27
2.08517e-27
3.13861e-27
4.91773e-27
8.64685e-27
1.65229e-26
2.83991e-26
7.19436e-26
1.45621e-25
1.19909e-26
1.90653e-23
8.26169e-23
6.4278e-23
1.68936e-23
1.2036e-22
1.35506e-24
3.28019e-24
4.65399e-25
1.37949e-26
1.35035e-27
3.28663e-29
9.29817e-29
1.1823e-28
4.52034e-29
5.17095e-29
7.19054e-29
6.32548e-29
5.98686e-29
5.88364e-29
9.30242e-29
8.10193e-29
6.79567e-29
7.14293e-29
1.03033e-28
8.84822e-29
8.52699e-29
8.60054e-29
1.01097e-28
9.73906e-29
1.19273e-28
1.12283e-28
1.17881e-28
1.19852e-28
1.33422e-28
1.38157e-28
1.87595e-28
1.86245e-28
1.93495e-28
2.25132e-28
2.96751e-28
3.3417e-28
4.12773e-28
6.4282e-28
2.64521e-31
1.5945e-27
2.47926e-27
1.05965e-28
1.34231e-27
9.72136e-28
1.11393e-27
1.75468e-27
2.9534e-27
4.46901e-27
7.10096e-27
1.24045e-26
2.33852e-26
3.98154e-26
9.86339e-26
1.90329e-25
1.5112e-26
2.53348e-23
1.15834e-22
6.44103e-23
2.75047e-23
1.40113e-22
1.60297e-24
4.09069e-24
5.30564e-25
2.32411e-26
1.40345e-27
2.83552e-29
9.99445e-29
1.2773e-28
4.5296e-29
5.32241e-29
7.56154e-29
6.49989e-29
6.24726e-29
6.1428e-29
9.74074e-29
8.28817e-29
7.04696e-29
7.47778e-29
1.08054e-28
9.11826e-29
8.91241e-29
9.04743e-29
1.07306e-28
1.02698e-28
1.26208e-28
1.18794e-28
1.26323e-28
1.2914e-28
1.45339e-28
1.51101e-28
2.05617e-28
2.0529e-28
2.18137e-28
2.60347e-28
3.58987e-28
4.38149e-28
5.94956e-28
1.05988e-27
1.12332e-27
3.80231e-29
1.34848e-29
1.07963e-27
1.1816e-27
1.34429e-27
1.42799e-27
2.41125e-27
3.98572e-27
6.03762e-27
9.66204e-27
1.66422e-26
3.10291e-26
5.20957e-26
1.27236e-25
2.35756e-25
2.24681e-26
3.33431e-23
1.53521e-22
6.21082e-23
4.37069e-23
1.59423e-22
1.73562e-24
5.14463e-24
5.67243e-25
3.66299e-26
1.32363e-27
2.91441e-29
1.08416e-28
1.36952e-28
4.44178e-29
5.54509e-29
7.87195e-29
6.71138e-29
6.44833e-29
6.43136e-29
1.01409e-28
8.47297e-29
7.26323e-29
7.83504e-29
1.12818e-28
9.39007e-29
9.2679e-29
9.53984e-29
1.13135e-28
1.0812e-28
1.33213e-28
1.25446e-28
1.34499e-28
1.38985e-28
1.56757e-28
1.63705e-28
2.22276e-28
2.20773e-28
2.3433e-28
2.77529e-28
3.68712e-28
4.24996e-28
4.9848e-28
6.68775e-28
1.03156e-27
8.18555e-28
5.71599e-29
1.13929e-27
1.75986e-27
1.47629e-27
1.93969e-27
3.07076e-27
5.15857e-27
7.66792e-27
1.23795e-26
2.09309e-26
3.85466e-26
6.36486e-26
1.54138e-25
2.74182e-25
3.55708e-26
4.2942e-23
1.98014e-22
5.62649e-23
6.59132e-23
1.79411e-22
1.76239e-24
6.55201e-24
5.71082e-25
5.40658e-26
1.10794e-27
3.32019e-29
1.19203e-28
1.45168e-28
4.25478e-29
5.86851e-29
8.05619e-29
6.98831e-29
6.57531e-29
6.75548e-29
1.0429e-28
8.70254e-29
7.43827e-29
8.21929e-29
1.16742e-28
9.69462e-29
9.57949e-29
1.00572e-28
1.18377e-28
1.13547e-28
1.39626e-28
1.32365e-28
1.42089e-28
1.48911e-28
1.67562e-28
1.75731e-28
2.37588e-28
2.34969e-28
2.47423e-28
2.90045e-28
3.6509e-28
3.91409e-28
3.80591e-28
3.39619e-28
3.18586e-28
3.76195e-28
4.16945e-28
1.33883e-27
2.12835e-27
1.74651e-27
2.40899e-27
3.78971e-27
6.2832e-27
9.19548e-27
1.49515e-26
2.46526e-26
4.4773e-26
7.21863e-26
1.74601e-25
2.97028e-25
6.01203e-26
5.38501e-23
2.44692e-22
4.83884e-23
9.57092e-23
1.97166e-22
1.70722e-24
8.22764e-24
5.36407e-25
7.44933e-26
8.92971e-28
4.46027e-29
1.40068e-28
1.46425e-28
4.1779e-29
6.0409e-29
8.34476e-29
7.12808e-29
6.72598e-29
6.98383e-29
1.07379e-28
8.84629e-29
7.59971e-29
8.53214e-29
1.20591e-28
9.91732e-29
9.86073e-29
1.05167e-28
1.22765e-28
1.1833e-28
1.45399e-28
1.38632e-28
1.48469e-28
1.5828e-28
1.76465e-28
1.86821e-28
2.51216e-28
2.48019e-28
2.59243e-28
3.05505e-28
3.71834e-28
3.92021e-28
3.66612e-28
2.94288e-28
2.26878e-28
4.64329e-28
6.81424e-28
1.84561e-27
2.2077e-27
2.06433e-27
2.81908e-27
4.46692e-27
7.24013e-27
1.05277e-26
1.67828e-26
2.7298e-26
4.79572e-26
7.60964e-26
1.82052e-25
3.00105e-25
1.00454e-25
6.53573e-23
2.90452e-22
3.84262e-23
1.32379e-22
2.1774e-22
1.67114e-24
1.04784e-23
4.7246e-25
9.71634e-26
7.19671e-28
6.90669e-29
1.78851e-28
1.3914e-28
4.33827e-29
5.85135e-29
8.99064e-29
6.93588e-29
7.16477e-29
6.91825e-29
1.11379e-28
8.80836e-29
7.8982e-29
8.6261e-29
1.24709e-28
9.99011e-29
1.02511e-28
1.0803e-28
1.27476e-28
1.21887e-28
1.49764e-28
1.44115e-28
1.54386e-28
1.66149e-28
1.83876e-28
1.96104e-28
2.58941e-28
2.5917e-28
2.66e-28
3.15047e-28
3.67934e-28
3.84599e-28
3.47866e-28
2.85505e-28
2.03084e-28
5.64035e-28
9.88505e-28
2.1976e-27
2.28336e-27
2.31121e-27
3.1578e-27
5.02866e-27
7.81625e-27
1.14768e-26
1.7385e-26
2.82796e-26
4.70156e-26
7.46613e-26
1.75028e-25
2.93408e-25
1.59312e-25
7.65202e-23
3.29671e-22
2.95898e-23
1.85118e-22
2.39545e-22
1.68835e-24
1.35351e-23
3.98297e-25
1.25705e-25
5.90143e-28
1.12999e-28
2.47589e-28
1.37345e-28
4.34274e-29
6.08443e-29
9.71886e-29
7.13852e-29
7.56884e-29
7.23646e-29
1.18438e-28
9.16717e-29
8.24201e-29
9.1474e-29
1.31989e-28
1.04513e-28
1.07785e-28
1.14858e-28
1.34848e-28
1.29367e-28
1.58586e-28
1.5367e-28
1.63463e-28
1.78629e-28
1.94776e-28
2.10293e-28
2.74256e-28
2.74995e-28
2.75777e-28
3.28333e-28
3.70165e-28
3.81985e-28
3.44474e-28
2.90792e-28
2.10006e-28
6.79862e-28
1.36572e-27
2.43474e-27
2.39652e-27
2.54213e-27
3.49037e-27
5.48622e-27
8.27526e-27
1.19193e-26
1.7426e-26
2.78814e-26
4.46526e-26
7.00981e-26
1.65881e-25
2.87479e-25
2.2981e-25
8.87435e-23
3.72072e-22
2.13672e-23
1.86946e-29
3.08808e-30
2.06588e-30
1.89142e-28
3.23769e-29
2.18209e-31
1.8001e-29
4.9974e-30
1.17593e-29
8.40727e-30
1.1295e-29
8.97576e-30
1.26165e-29
1.08252e-29
1.18901e-29
9.3028e-30
1.38425e-29
1.42695e-29
1.40563e-29
1.25968e-29
1.58887e-29
1.61429e-29
1.66501e-29
1.57576e-29
1.61385e-29
1.57305e-29
1.81603e-29
1.82985e-29
1.83922e-29
1.82812e-29
1.6846e-29
1.64432e-29
1.92163e-29
1.99159e-29
1.85156e-29
1.71504e-29
1.58156e-29
1.50653e-29
1.47834e-29
1.26059e-29
1.06486e-29
7.79698e-30
8.2399e-30
9.00415e-30
6.51516e-30
6.39156e-30
2.51501e-30
1.4975e-30
2.98414e-31
1.02226e-31
1.11913e-31
1.01999e-30
8.73052e-30
2.36468e-29
1.33853e-28
6.13799e-29
3.24557e-28
2.43801e-26
5.1318e-26
6.77412e-27
1.72942e-26
1.68795e-27
6.20895e-28
1.85565e-27
1.62253e-29
2.60718e-30
3.31721e-29
1.39268e-29
1.62822e-29
2.61781e-29
1.62796e-29
2.51752e-29
1.97357e-29
2.85819e-29
2.06754e-29
2.22789e-29
2.34872e-29
3.46553e-29
2.65005e-29
2.76392e-29
2.92741e-29
3.67809e-29
3.15999e-29
3.46103e-29
3.0681e-29
3.3715e-29
3.45076e-29
3.96081e-29
3.55903e-29
3.85458e-29
3.30064e-29
3.33547e-29
3.65136e-29
4.17386e-29
3.64099e-29
3.40777e-29
3.0716e-29
2.90167e-29
2.84119e-29
2.5749e-29
2.13257e-29
1.99483e-29
1.69701e-29
1.3807e-29
1.36461e-29
1.15146e-29
5.35542e-30
2.02424e-30
6.1324e-31
7.95867e-32
1.3738e-31
3.97994e-30
1.47744e-29
7.42855e-29
2.28289e-28
2.79403e-28
3.96264e-28
5.38429e-26
2.9317e-25
4.48557e-27
6.53322e-26
4.44481e-27
5.12581e-27
1.67059e-27
8.9159e-29
1.32705e-30
4.86228e-29
2.06956e-29
2.39977e-29
3.34999e-29
2.56079e-29
3.12809e-29
3.06443e-29
3.67596e-29
3.06012e-29
3.04522e-29
3.5115e-29
4.57569e-29
3.83742e-29
3.85155e-29
4.21135e-29
5.02e-29
4.48675e-29
4.80576e-29
4.32565e-29
4.77107e-29
4.87168e-29
5.49397e-29
5.00843e-29
5.37529e-29
4.58898e-29
4.81374e-29
5.1046e-29
5.78133e-29
5.05635e-29
4.79949e-29
4.25665e-29
4.16563e-29
3.98426e-29
3.76956e-29
3.26674e-29
2.95508e-29
2.35676e-29
1.90859e-29
1.99383e-29
1.60852e-29
7.15071e-30
3.28038e-30
7.33007e-31
2.49844e-31
3.47997e-31
3.57006e-30
2.66485e-29
8.19966e-29
3.63941e-28
2.26748e-28
1.43432e-27
9.4398e-26
3.04418e-25
2.24464e-26
3.02427e-25
5.18419e-26
2.14493e-26
6.64885e-27
8.33164e-29
1.84247e-30
4.86672e-29
2.46369e-29
2.43566e-29
3.35747e-29
2.62696e-29
3.10533e-29
3.13738e-29
3.683e-29
3.13073e-29
3.04714e-29
3.55559e-29
4.61203e-29
3.88251e-29
3.86723e-29
4.23872e-29
5.06489e-29
4.51304e-29
4.82825e-29
4.35052e-29
4.82149e-29
4.86588e-29
5.57361e-29
5.02052e-29
5.40027e-29
4.61967e-29
4.86665e-29
5.09417e-29
5.88615e-29
5.06841e-29
4.85211e-29
4.32046e-29
4.2706e-29
4.15949e-29
4.02677e-29
3.57984e-29
3.21967e-29
2.26858e-29
1.93703e-29
2.14401e-29
1.60189e-29
7.89281e-30
3.27607e-30
9.68667e-31
3.90431e-31
2.05173e-31
3.82685e-30
2.27174e-29
7.68955e-29
3.14937e-28
1.9605e-28
1.82946e-27
1.36936e-25
4.43897e-25
9.75704e-26
6.97001e-25
2.86963e-25
4.07053e-26
2.28378e-26
1.82301e-28
3.12594e-30
5.52047e-29
3.08364e-29
2.46212e-29
3.5804e-29
2.56631e-29
3.30331e-29
3.12102e-29
3.84754e-29
3.1315e-29
3.13719e-29
3.56504e-29
4.78763e-29
3.89739e-29
3.9301e-29
4.27508e-29
5.19254e-29
4.52508e-29
4.9129e-29
4.36444e-29
4.91931e-29
4.89611e-29
5.7088e-29
5.02791e-29
5.50597e-29
4.64745e-29
4.96186e-29
5.14235e-29
6.10203e-29
5.0954e-29
5.01009e-29
4.40959e-29
4.50012e-29
4.37823e-29
4.3549e-29
3.83157e-29
3.34536e-29
2.2063e-29
2.07092e-29
2.27859e-29
1.6975e-29
8.67218e-30
3.65843e-30
1.34577e-30
7.48142e-31
1.02671e-31
3.85986e-30
1.86391e-29
7.04701e-29
2.595e-28
1.51468e-28
2.60537e-27
2.18109e-25
6.15796e-25
4.0202e-25
1.1172e-24
9.47793e-25
5.15963e-26
5.81649e-26
5.13954e-28
7.2598e-30
6.88411e-29
3.85154e-29
2.69936e-29
3.89281e-29
2.56741e-29
3.55161e-29
3.18369e-29
4.11042e-29
3.19426e-29
3.3261e-29
3.69065e-29
5.10645e-29
3.99757e-29
4.11749e-29
4.44395e-29
5.47565e-29
4.66609e-29
5.13258e-29
4.50849e-29
5.16351e-29
5.08603e-29
6.01716e-29
5.19861e-29
5.78192e-29
4.8121e-29
5.23113e-29
5.39526e-29
6.53261e-29
5.30011e-29
5.36058e-29
4.6557e-29
4.92419e-29
4.70651e-29
4.82521e-29
4.16463e-29
3.67693e-29
2.34453e-29
2.32576e-29
2.51327e-29
1.95311e-29
9.8958e-30
4.72119e-30
2.04819e-30
1.5668e-30
5.5307e-32
4.02319e-30
1.44514e-29
6.30999e-29
1.98698e-28
1.01108e-28
3.80811e-27
3.54411e-25
7.98036e-25
1.2124e-24
1.44365e-24
2.34188e-24
5.00732e-26
1.20941e-25
1.35875e-27
1.67718e-29
8.87198e-29
4.79361e-29
3.1091e-29
4.20291e-29
2.63918e-29
3.77643e-29
3.30884e-29
4.37787e-29
3.28671e-29
3.5536e-29
3.89341e-29
5.46957e-29
4.1319e-29
4.36953e-29
4.68509e-29
5.81596e-29
4.85717e-29
5.40421e-29
4.71307e-29
5.4863e-29
5.37385e-29
6.38364e-29
5.4461e-29
6.13711e-29
5.05077e-29
5.61397e-29
5.77289e-29
7.0502e-29
5.59011e-29
5.79731e-29
4.98149e-29
5.4455e-29
5.09394e-29
5.41297e-29
4.65685e-29
4.16824e-29
2.61909e-29
2.67715e-29
2.89003e-29
2.36201e-29
1.1767e-29
6.77881e-30
3.42714e-30
3.40463e-30
1.35469e-31
4.80077e-30
1.08165e-29
5.43608e-29
1.38306e-28
6.1231e-29
5.13904e-27
5.57675e-25
1.02452e-24
2.87373e-24
1.6028e-24
4.7172e-24
3.95233e-26
2.16432e-25
3.13353e-27
3.26704e-29
1.15154e-28
6.01879e-29
3.60862e-29
4.52704e-29
2.7539e-29
3.97291e-29
3.46907e-29
4.63674e-29
3.39749e-29
3.78608e-29
4.12992e-29
5.84292e-29
4.27256e-29
4.63978e-29
4.94894e-29
6.1793e-29
5.0637e-29
5.68922e-29
4.95098e-29
5.84007e-29
5.68328e-29
6.78602e-29
5.73528e-29
6.51519e-29
5.33185e-29
6.04075e-29
6.19909e-29
7.60718e-29
5.91578e-29
6.2611e-29
5.35058e-29
6.01194e-29
5.51732e-29
6.1808e-29
5.35046e-29
4.92424e-29
3.00882e-29
3.1076e-29
3.4508e-29
2.96741e-29
1.47033e-29
1.05468e-29
6.13961e-30
7.49453e-30
7.98174e-31
7.19829e-30
9.68022e-30
4.88925e-29
9.4722e-29
6.01639e-29
6.537e-27
8.36656e-25
1.3187e-24
5.58932e-24
1.60205e-24
8.36324e-24
2.52082e-26
3.5134e-25
6.64492e-27
5.74452e-29
1.49468e-28
7.36345e-29
4.13384e-29
4.90118e-29
2.88974e-29
4.15575e-29
3.66837e-29
4.88511e-29
3.52506e-29
4.03507e-29
4.41634e-29
6.21066e-29
4.42314e-29
4.92054e-29
5.25893e-29
6.54763e-29
5.27813e-29
5.99367e-29
5.2164e-29
6.22295e-29
6.0442e-29
7.20346e-29
6.03984e-29
6.91873e-29
5.64691e-29
6.50721e-29
6.69121e-29
8.18091e-29
6.25716e-29
6.75236e-29
5.77651e-29
6.64642e-29
6.07773e-29
7.20887e-29
6.2794e-29
5.94219e-29
3.47616e-29
3.67398e-29
4.29775e-29
3.84627e-29
1.95146e-29
1.7262e-29
1.17082e-29
1.6338e-29
3.81968e-30
1.51738e-29
1.52281e-29
5.66158e-29
9.6589e-29
1.69568e-28
7.61644e-27
1.2032e-24
1.8181e-24
9.59352e-24
1.45983e-24
1.33779e-23
1.45233e-26
5.22486e-25
1.30222e-26
9.40827e-29
1.92895e-28
8.61329e-29
4.69728e-29
5.33558e-29
3.03999e-29
4.33755e-29
3.89716e-29
5.12829e-29
3.68682e-29
4.28527e-29
4.74027e-29
6.56266e-29
4.60517e-29
5.1992e-29
5.60648e-29
6.9215e-29
5.51964e-29
6.309e-29
5.52128e-29
6.62883e-29
6.42425e-29
7.64441e-29
6.37982e-29
7.32945e-29
6.00417e-29
7.00248e-29
7.21635e-29
8.78133e-29
6.64377e-29
7.28318e-29
6.3016e-29
7.39392e-29
6.80205e-29
8.58799e-29
7.59771e-29
6.99702e-29
4.11668e-29
4.43391e-29
5.50173e-29
5.15103e-29
2.76119e-29
2.90808e-29
2.30521e-29
3.45813e-29
1.39849e-29
3.7926e-29
4.06607e-29
1.03476e-28
2.07009e-28
6.70808e-28
8.57533e-27
1.67344e-24
2.61022e-24
1.48134e-23
1.28304e-24
1.99122e-23
1.0589e-26
7.27406e-25
2.40805e-26
1.50457e-28
2.50734e-28
9.58888e-29
5.27859e-29
5.8227e-29
3.20448e-29
4.51716e-29
4.15613e-29
5.36436e-29
3.86441e-29
4.54847e-29
5.11441e-29
6.90259e-29
4.80534e-29
5.4852e-29
6.00649e-29
7.28634e-29
5.77511e-29
6.63436e-29
5.85476e-29
7.05848e-29
6.85554e-29
8.08344e-29
6.73366e-29
7.76294e-29
6.39769e-29
7.54325e-29
7.81503e-29
9.40358e-29
7.08081e-29
7.89214e-29
6.94899e-29
8.28892e-29
7.7466e-29
1.03391e-28
9.09827e-29
8.76537e-29
5.12367e-29
5.37503e-29
7.26297e-29
7.07336e-29
4.11099e-29
4.94488e-29
4.535e-29
7.10478e-29
4.21254e-29
9.52993e-29
1.23462e-28
2.57483e-28
6.19406e-28
2.19103e-27
9.0858e-27
2.28654e-24
4.05278e-24
2.12569e-23
1.10006e-24
2.7853e-23
2.02164e-26
9.53562e-25
4.2124e-26
2.41393e-28
3.22633e-28
1.02597e-28
5.84585e-29
6.41061e-29
3.3569e-29
4.71942e-29
4.41298e-29
5.62553e-29
4.04681e-29
4.82761e-29
5.49325e-29
7.25834e-29
5.00049e-29
5.78781e-29
6.41542e-29
7.65752e-29
6.04038e-29
6.9663e-29
6.22032e-29
7.50375e-29
7.28436e-29
8.53827e-29
7.12354e-29
8.21037e-29
6.83992e-29
8.11968e-29
8.46056e-29
1.008e-28
7.59331e-29
8.59688e-29
7.74425e-29
9.34908e-29
8.88875e-29
1.26835e-28
1.12265e-28
1.06549e-28
6.68906e-29
6.59236e-29
9.71664e-29
9.94816e-29
6.33093e-29
8.39783e-29
8.69864e-29
1.40926e-28
1.10885e-28
2.30507e-28
3.44121e-28
6.69607e-28
1.75832e-27
5.86804e-27
9.58683e-27
3.11065e-24
6.32523e-24
2.84843e-23
1.06105e-24
3.7178e-23
5.21932e-26
1.1905e-24
6.97578e-26
4.02121e-28
4.22494e-28
1.03592e-28
6.39398e-29
7.08735e-29
3.5022e-29
4.92586e-29
4.68246e-29
5.89841e-29
4.21723e-29
5.12699e-29
5.90103e-29
7.60876e-29
5.17984e-29
6.11002e-29
6.85725e-29
8.02111e-29
6.29571e-29
7.3193e-29
6.60065e-29
7.95982e-29
7.75683e-29
8.99643e-29
7.51652e-29
8.70569e-29
7.32165e-29
8.74901e-29
9.20891e-29
1.08104e-28
8.17355e-29
9.43582e-29
8.70494e-29
1.06224e-28
1.03467e-28
1.58682e-28
1.38365e-28
1.37204e-28
8.70994e-29
8.18595e-29
1.31689e-28
1.42185e-28
9.88264e-29
1.42084e-28
1.62891e-28
2.67978e-28
2.57896e-28
5.18607e-28
8.45076e-28
1.60825e-27
4.31911e-27
1.30868e-26
9.73517e-27
4.20106e-24
1.02462e-23
3.62368e-23
1.21566e-24
4.80058e-23
1.30104e-25
1.43545e-24
1.09362e-25
7.02537e-28
5.51272e-28
9.85131e-29
6.91135e-29
7.87341e-29
3.6378e-29
5.13558e-29
4.9526e-29
6.17695e-29
4.40229e-29
5.43493e-29
6.29565e-29
7.96312e-29
5.35835e-29
6.44821e-29
7.28632e-29
8.39009e-29
6.55839e-29
7.68129e-29
7.00846e-29
8.42694e-29
8.21892e-29
9.48446e-29
7.94513e-29
9.23137e-29
7.86962e-29
9.43668e-29
1.00012e-28
1.1637e-28
8.86605e-29
1.04134e-28
9.87071e-29
1.21273e-28
1.21176e-28
1.97099e-28
1.6137e-28
1.59451e-28
1.10871e-28
1.02058e-28
1.80049e-28
2.04265e-28
1.55369e-28
2.36475e-28
2.9473e-28
4.86671e-28
5.44189e-28
1.06863e-27
1.84672e-27
3.46517e-27
9.30051e-27
2.5733e-26
9.78377e-27
5.66512e-24
1.62959e-23
4.4134e-23
1.87123e-24
6.03672e-23
2.56283e-25
1.68494e-24
1.62312e-25
1.27252e-27
7.14858e-28
8.68641e-29
7.4292e-29
8.70084e-29
3.79309e-29
5.30487e-29
5.26597e-29
6.42351e-29
4.60077e-29
5.74396e-29
6.72285e-29
8.28642e-29
5.53715e-29
6.79668e-29
7.74155e-29
8.73743e-29
6.82156e-29
8.06176e-29
7.4316e-29
8.908e-29
8.72128e-29
9.98158e-29
8.3924e-29
9.81777e-29
8.46956e-29
1.0204e-28
1.08972e-28
1.25438e-28
9.65702e-29
1.15476e-28
1.12049e-28
1.37831e-28
1.41104e-28
2.34897e-28
1.92199e-28
2.43499e-28
1.54964e-28
1.22822e-28
2.52264e-28
2.89656e-28
2.43332e-28
3.82728e-28
5.09906e-28
8.45417e-28
1.04748e-27
2.03405e-27
3.62131e-27
6.74659e-27
1.77305e-26
4.5148e-26
9.61238e-27
7.66096e-24
2.60183e-23
5.17028e-23
3.05548e-24
7.40389e-23
4.71442e-25
1.9682e-24
2.30203e-25
2.40971e-27
8.69178e-28
7.20203e-29
7.88019e-29
9.65963e-29
3.91207e-29
5.49108e-29
5.56448e-29
6.68715e-29
4.80341e-29
6.06104e-29
7.12153e-29
8.61576e-29
5.70813e-29
7.16328e-29
8.16838e-29
9.09353e-29
7.09087e-29
8.46058e-29
7.87977e-29
9.4089e-29
9.19892e-29
1.05174e-28
8.89642e-29
1.04491e-28
9.14328e-29
1.10434e-28
1.18502e-28
1.35829e-28
1.06054e-28
1.2905e-28
1.28718e-28
1.59774e-28
1.70623e-28
3.01385e-28
3.30517e-28
2.68697e-28
2.18011e-28
1.66192e-28
3.41672e-28
4.11537e-28
3.7297e-28
5.95274e-28