/*--------------------------------*- C++ -*----------------------------------*\
| =========                 |                                                 |
| \\      /  F ield         | OpenFOAM: The Open Source CFD Toolbox           |
|  \\    /   O peration     | Version:  2312                                  |
|   \\  /    A nd           | Website:  www.openfoam.com                      |
|    \\/     M anipulation  |                                                 |
\*---------------------------------------------------------------------------*/
FoamFile
{
    version     2.0;
    format      ascii;
    arch        "LSB;label=32;scalar=64";
    class       volScalarField;
    location    "760";
    object      p;
}
// * * * * * * * * * * * * * * * * * * * * * * * * * * * * * * * * * * * * * //

dimensions      [0 2 -2 0 0 0 0];

internalField   nonuniform List<scalar> 
144000
(
1.50199e-10
1.32304e-10
-3.78723e-11
-1.79403e-10
-1.94525e-10
-1.69337e-10
-1.26262e-10
-1.0365e-10
-7.97342e-11
-7.50571e-11
-6.14679e-11
-6.21167e-11
-5.11577e-11
-5.35928e-11
-4.25812e-11
-4.48478e-11
-3.5456e-11
-3.95244e-11
-2.82276e-11
-3.06756e-11
-2.02532e-11
-2.47915e-11
-1.43984e-11
-1.87344e-11
-8.38672e-12
-1.26796e-11
-2.73862e-12
-8.11383e-12
2.01681e-12
-2.92705e-12
7.54551e-12
3.05967e-12
1.24088e-11
6.15403e-12
1.5781e-11
1.04179e-11
1.9598e-11
1.44884e-11
2.26772e-11
1.68998e-11
2.37807e-11
1.91618e-11
2.59058e-11
2.16137e-11
2.87834e-11
2.44334e-11
3.07113e-11
2.89116e-11
3.27642e-11
3.24112e-11
3.39698e-11
3.62214e-11
2.81188e-11
2.68532e-11
2.85177e-12
1.6025e-12
-4.80599e-11
-1.07693e-10
-2.88591e-10
-4.15916e-11
1.59092e-10
1.37076e-10
-3.95502e-11
-1.81431e-10
-1.956e-10
-1.69671e-10
-1.26443e-10
-1.03729e-10
-7.98789e-11
-7.51428e-11
-6.16047e-11
-6.21762e-11
-5.12741e-11
-5.36352e-11
-4.26716e-11
-4.48605e-11
-3.55402e-11
-3.95424e-11
-2.8302e-11
-3.06692e-11
-2.0323e-11
-2.47883e-11
-1.44614e-11
-1.87146e-11
-8.44374e-12
-1.26551e-11
-2.79721e-12
-8.09208e-12
1.96233e-12
-2.89429e-12
7.49822e-12
3.09962e-12
1.23578e-11
6.18418e-12
1.57351e-11
1.0463e-11
1.95603e-11
1.4534e-11
2.26452e-11
1.69313e-11
2.37125e-11
1.90876e-11
2.5806e-11
2.16721e-11
2.87803e-11
2.45062e-11
3.0724e-11
2.9009e-11
3.28054e-11
3.25133e-11
3.40662e-11
3.63553e-11
2.83026e-11
2.69923e-11
3.19636e-12
1.97903e-12
-4.67104e-11
-1.07032e-10
-2.94795e-10
-4.56301e-11
1.69962e-10
1.42184e-10
-4.14409e-11
-1.83907e-10
-1.97096e-10
-1.70306e-10
-1.26693e-10
-1.03891e-10
-8.0013e-11
-7.53004e-11
-6.17394e-11
-6.23118e-11
-5.13777e-11
-5.37453e-11
-4.27493e-11
-4.49281e-11
-3.5587e-11
-3.96185e-11
-2.83559e-11
-3.07191e-11
-2.03579e-11
-2.48414e-11
-1.44914e-11
-1.87427e-11
-8.46234e-12
-1.26799e-11
-2.8125e-12
-8.12084e-12
1.95012e-12
-2.90663e-12
7.49295e-12
3.09325e-12
1.2359e-11
6.16604e-12
1.57342e-11
1.04683e-11
1.9573e-11
1.45403e-11
2.26688e-11
1.69349e-11
2.36825e-11
1.89225e-11
2.56947e-11
2.16708e-11
2.88487e-11
2.45721e-11
3.07951e-11
2.91115e-11
3.29172e-11
3.26266e-11
3.421e-11
3.65144e-11
2.85553e-11
2.72155e-11
3.61706e-12
2.40127e-12
-4.48842e-11
-1.04449e-10
-3.04404e-10
-5.03668e-11
1.82636e-10
1.47119e-10
-4.3121e-11
-1.86657e-10
-1.99285e-10
-1.71284e-10
-1.27033e-10
-1.04065e-10
-8.01407e-11
-7.54869e-11
-6.18989e-11
-6.24815e-11
-5.15003e-11
-5.3891e-11
-4.28465e-11
-4.50182e-11
-3.56277e-11
-3.97206e-11
-2.84248e-11
-3.07917e-11
-2.03881e-11
-2.49152e-11
-1.45232e-11
-1.87842e-11
-8.47424e-12
-1.27178e-11
-2.81628e-12
-8.16436e-12
1.94549e-12
-2.92989e-12
7.49857e-12
3.07655e-12
1.23829e-11
6.13416e-12
1.57457e-11
1.0465e-11
1.96104e-11
1.45371e-11
2.27286e-11
1.69413e-11
2.36759e-11
1.86936e-11
2.55197e-11
2.16118e-11
2.89742e-11
2.4649e-11
3.09155e-11
2.92216e-11
3.3106e-11
3.27393e-11
3.4438e-11
3.66659e-11
2.896e-11
2.74221e-11
4.25437e-12
2.75367e-12
-4.20554e-11
-1.00419e-10
-3.16834e-10
-5.5371e-11
1.95305e-10
1.50534e-10
-4.39077e-11
-1.88869e-10
-2.01989e-10
-1.72593e-10
-1.27445e-10
-1.04215e-10
-8.0256e-11
-7.56962e-11
-6.21e-11
-6.26919e-11
-5.166e-11
-5.40738e-11
-4.29808e-11
-4.5129e-11
-3.56766e-11
-3.98443e-11
-2.85239e-11
-3.08813e-11
-2.04254e-11
-2.50022e-11
-1.45708e-11
-1.88328e-11
-8.49151e-12
-1.27607e-11
-2.81938e-12
-8.21373e-12
1.93522e-12
-2.95716e-12
7.50391e-12
3.05827e-12
1.242e-11
6.09719e-12
1.57582e-11
1.04581e-11
1.96651e-11
1.45286e-11
2.28234e-11
1.69571e-11
2.36998e-11
1.84235e-11
2.524e-11
2.1477e-11
2.91545e-11
2.47383e-11
3.1081e-11
2.93279e-11
3.33755e-11
3.28295e-11
3.47616e-11
3.67719e-11
2.95468e-11
2.75436e-11
5.16893e-12
2.90922e-12
-3.81002e-11
-9.52891e-11
-3.31265e-10
-5.95896e-11
2.06675e-10
1.50311e-10
-4.35307e-11
-1.89599e-10
-2.04878e-10
-1.74198e-10
-1.27902e-10
-1.04308e-10
-8.03394e-11
-7.59222e-11
-6.23463e-11
-6.29483e-11
-5.18633e-11
-5.42991e-11
-4.31594e-11
-4.52668e-11
-3.57393e-11
-3.99919e-11
-2.8658e-11
-3.09919e-11
-2.04728e-11
-2.51033e-11
-1.46384e-11
-1.88916e-11
-8.51663e-12
-1.28099e-11
-2.82365e-12
-8.26939e-12
1.91657e-12
-2.99069e-12
7.50746e-12
3.03686e-12
1.247e-11
6.05482e-12
1.57706e-11
1.04429e-11
1.97393e-11
1.45093e-11
2.29603e-11
1.69818e-11
2.37724e-11
1.811e-11
2.48195e-11
2.12413e-11
2.93932e-11
2.48352e-11
3.12928e-11
2.94127e-11
3.37311e-11
3.28738e-11
3.51927e-11
3.67937e-11
3.03398e-11
2.75157e-11
6.41419e-12
2.73775e-12
-3.29475e-11
-8.93493e-11
-3.47197e-10
-6.13093e-11
2.16367e-10
1.44111e-10
-4.22295e-11
-1.87944e-10
-2.07565e-10
-1.76046e-10
-1.28375e-10
-1.04314e-10
-8.03685e-11
-7.61547e-11
-6.26353e-11
-6.32513e-11
-5.21132e-11
-5.45697e-11
-4.33864e-11
-4.5439e-11
-3.58204e-11
-4.01643e-11
-2.88297e-11
-3.11283e-11
-2.05335e-11
-2.52195e-11
-1.47285e-11
-1.89639e-11
-8.5512e-12
-1.28676e-11
-2.83072e-12
-8.33187e-12
1.88794e-12
-3.03295e-12
7.50871e-12
3.00977e-12
1.2532e-11
6.00661e-12
1.57833e-11
1.04142e-11
1.98351e-11
1.44732e-11
2.31469e-11
1.70123e-11
2.39239e-11
1.77453e-11
2.42114e-11
2.08802e-11
2.96951e-11
2.49336e-11
3.15539e-11
2.94575e-11
3.41793e-11
3.28491e-11
3.57478e-11
3.66901e-11
3.13669e-11
2.7271e-11
8.05156e-12
2.11919e-12
-2.65429e-11
-8.2855e-11
-3.64575e-10
-5.86284e-11
2.24752e-10
1.2972e-10
-4.06813e-11
-1.83099e-10
-2.09607e-10
-1.7807e-10
-1.28839e-10
-1.04188e-10
-8.03228e-11
-7.63815e-11
-6.29624e-11
-6.35986e-11
-5.24107e-11
-5.48855e-11
-4.3664e-11
-4.56486e-11
-3.59249e-11
-4.03608e-11
-2.90404e-11
-3.12934e-11
-2.06116e-11
-2.53507e-11
-1.48436e-11
-1.90521e-11
-8.59739e-12
-1.29344e-11
-2.8435e-12
-8.40099e-12
1.84756e-12
-3.08536e-12
7.50659e-12
2.97567e-12
1.26038e-11
5.95281e-12
1.57962e-11
1.0368e-11
1.99538e-11
1.44154e-11
2.33904e-11
1.70451e-11
2.41978e-11
1.72962e-11
2.33518e-11
2.0372e-11
3.00655e-11
2.5027e-11
3.18688e-11
2.94442e-11
3.47267e-11
3.27324e-11
3.64453e-11
3.6422e-11
3.26569e-11
2.6748e-11
1.01393e-11
9.60215e-13
-1.88877e-11
-7.59627e-11
-3.83675e-10
-4.98323e-11
2.3286e-10
1.05273e-10
-3.99111e-11
-1.7441e-10
-2.10534e-10
-1.80198e-10
-1.29284e-10
-1.03909e-10
-8.01837e-11
-7.65909e-11
-6.33223e-11
-6.39862e-11
-5.27551e-11
-5.52444e-11
-4.3992e-11
-4.58973e-11
-3.60571e-11
-4.05795e-11
-2.92901e-11
-3.14885e-11
-2.07113e-11
-2.54962e-11
-1.49856e-11
-1.91574e-11
-8.6575e-12
-1.30106e-11
-2.86495e-12
-8.47629e-12
1.79391e-12
-3.14875e-12
7.4999e-12
2.93377e-12
1.26822e-11
5.89384e-12
1.58095e-11
1.0301e-11
2.00956e-11
1.43313e-11
2.36989e-11
1.70748e-11
2.4658e-11
1.67185e-11
2.21567e-11
1.96984e-11
3.0511e-11
2.51086e-11
3.22427e-11
2.93559e-11
3.538e-11
3.25025e-11
3.73024e-11
3.59587e-11
3.42336e-11
2.58992e-11
1.2717e-11
-7.8735e-13
-1.00509e-11
-6.87193e-11
-4.0501e-10
-3.35836e-11
2.42042e-10
6.94277e-11
-4.11143e-11
-1.61408e-10
-2.0987e-10
-1.82353e-10
-1.29715e-10
-1.03462e-10
-7.99358e-11
-7.6773e-11
-6.37104e-11
-6.44098e-11
-5.31461e-11
-5.56432e-11
-4.43695e-11
-4.61856e-11
-3.62217e-11
-4.08179e-11
-2.9578e-11
-3.17139e-11
-2.08366e-11
-2.5655e-11
-1.51551e-11
-1.9281e-11
-8.73347e-12
-1.30963e-11
-2.89785e-12
-8.5574e-12
1.72635e-12
-3.22352e-12
7.48761e-12
2.88388e-12
1.27638e-11
5.83022e-12
1.58237e-11
1.02113e-11
2.02603e-11
1.42168e-11
2.40795e-11
1.70986e-11
2.53891e-11
1.59464e-11
2.05228e-11
1.88487e-11
3.10393e-11
2.51707e-11
3.26815e-11
2.91786e-11
3.61438e-11
3.21423e-11
3.83313e-11
3.52667e-11
3.61103e-11
2.4699e-11
1.57957e-11
-3.1249e-12
-1.95641e-13
-6.10391e-11
-4.29092e-10
-9.10685e-12
2.53893e-10
2.14987e-11
-4.56153e-11
-1.43874e-10
-2.07152e-10
-1.84443e-10
-1.3015e-10
-1.02841e-10
-7.95691e-11
-7.69201e-11
-6.4123e-11
-6.48663e-11
-5.35826e-11
-5.60799e-11
-4.47958e-11
-4.65135e-11
-3.64226e-11
-4.10748e-11
-2.99024e-11
-3.19695e-11
-2.09909e-11
-2.58267e-11
-1.53523e-11
-1.94234e-11
-8.82714e-12
-1.31912e-11
-2.94459e-12
-8.64385e-12
1.64457e-12
-3.30991e-12
7.46871e-12
2.82601e-12
1.28455e-11
5.76227e-12
1.58392e-11
1.00973e-11
2.04459e-11
1.4069e-11
2.45378e-11
1.7115e-11
2.65084e-11
1.48382e-11
1.83167e-11
1.7818e-11
3.16555e-11
2.52048e-11
3.31896e-11
2.89023e-11
3.70192e-11
3.16407e-11
3.95375e-11
3.43397e-11
3.82836e-11
2.31477e-11
1.93523e-11
-5.99852e-12
1.04576e-11
-5.27539e-11
-4.56399e-10
2.37822e-11
2.69933e-10
-3.85493e-11
-5.47047e-11
-1.21835e-10
-2.01958e-10
-1.86351e-10
-1.30613e-10
-1.02054e-10
-7.90793e-11
-7.70269e-11
-6.45577e-11
-6.53534e-11
-5.40644e-11
-5.65528e-11
-4.52695e-11
-4.68809e-11
-3.66633e-11
-4.13495e-11
-3.02618e-11
-3.22549e-11
-2.11772e-11
-2.60111e-11
-1.55767e-11
-1.95848e-11
-8.9401e-12
-1.3295e-11
-3.0072e-12
-8.73542e-12
1.54863e-12
-3.40784e-12
7.4422e-12
2.76052e-12
1.29242e-11
5.69028e-12
1.5856e-11
9.95915e-12
2.06491e-11
1.38858e-11
2.50792e-11
1.71144e-11
2.82261e-11
1.32437e-11
1.53419e-11
1.66049e-11
3.23571e-11
2.51999e-11
3.37672e-11
2.85219e-11
3.80023e-11
3.09943e-11
4.09168e-11
3.31821e-11
4.07313e-11
2.12741e-11
2.33309e-11
-9.30615e-12
2.16273e-11
-4.36742e-11
-4.87185e-10
6.47353e-11
2.91629e-10
-1.10132e-10
-6.96347e-11
-9.56134e-11
-1.93916e-10
-1.87924e-10
-1.31126e-10
-1.01123e-10
-7.84674e-11
-7.70888e-11
-6.50119e-11
-6.58691e-11
-5.45912e-11
-5.70603e-11
-4.57896e-11
-4.72869e-11
-3.69468e-11
-4.16413e-11
-3.06541e-11
-3.2569e-11
-2.13978e-11
-2.62082e-11
-1.58275e-11
-1.97652e-11
-9.07385e-12
-1.34075e-11
-3.08698e-12
-8.83188e-12
1.43857e-12
-3.51693e-12
7.40692e-12
2.6879e-12
1.2997e-11
5.61507e-12
1.58735e-11
9.79896e-12
2.08649e-11
1.36665e-11
2.57039e-11
1.7089e-11
3.07911e-11
1.10085e-11
1.13858e-11
1.52441e-11
3.31459e-11
2.51492e-11
3.44117e-11
2.80388e-11
3.90813e-11
3.02101e-11
4.24529e-11
3.18145e-11
4.34119e-11
1.91349e-11
2.76441e-11
-1.29049e-11
3.30368e-11
-3.36689e-11
-5.21562e-10
1.12989e-10
3.19993e-10
-1.91988e-10
-9.13595e-11
-6.58013e-11
-1.82769e-10
-1.88984e-10
-1.31711e-10
-1.00082e-10
-7.77408e-11
-7.7102e-11
-6.54826e-11
-6.6411e-11
-5.51623e-11
-5.76003e-11
-4.63543e-11
-4.77305e-11
-3.72755e-11
-4.195e-11
-3.10772e-11
-3.29105e-11
-2.16549e-11
-2.64181e-11
-1.61037e-11
-1.9964e-11
-9.22963e-12
-1.35285e-11
-3.18524e-12
-8.93315e-12
1.31476e-12
-3.63628e-12
7.36161e-12
2.60888e-12
1.30608e-11
5.53794e-12
1.58899e-11
9.62177e-12
2.10837e-11
1.34203e-11
2.63835e-11
1.71105e-11
3.43468e-11
8.07192e-12
6.28845e-12
1.38258e-11
3.40443e-11
2.50632e-11
3.51222e-11
2.7464e-11
4.02399e-11
2.93061e-11
4.41174e-11
3.02753e-11
4.62653e-11
1.68119e-11
3.21784e-11
-1.66295e-11
4.43843e-11
-2.26408e-11
-5.59281e-10
1.67308e-10
3.55603e-10
-2.82145e-10
-1.20499e-10
-3.32682e-11
-1.6839e-10
-1.89327e-10
-1.3238e-10
-9.8984e-11
-7.69154e-11
-7.7064e-11
-6.59666e-11
-6.69774e-11
-5.57768e-11
-5.81713e-11
-4.69622e-11
-4.82102e-11
-3.7651e-11
-4.22758e-11
-3.15291e-11
-3.3278e-11
-2.19499e-11
-2.66413e-11
-1.64044e-11
-2.01806e-11
-9.40868e-12
-1.36576e-11
-3.30279e-12
-9.039e-12
1.17749e-12
-3.76478e-12
7.30467e-12
2.52457e-12
1.31126e-11
5.46085e-12
1.59022e-11
9.43471e-12
2.12932e-11
1.31652e-11
2.70565e-11
1.7327e-11
3.96114e-11
2.2214e-12
-6.4667e-13
1.23504e-11
3.50199e-11
2.49494e-11
3.58918e-11
2.68146e-11
4.14552e-11
2.83101e-11
4.58697e-11
2.86182e-11
4.92139e-11
1.44071e-11
3.67988e-11
-2.02968e-11
5.53947e-11
-1.05442e-11
-5.99817e-10
2.25995e-10
3.98422e-10
-3.78154e-10
-1.57242e-10
9.12107e-13
-1.50792e-10
-1.88734e-10
-1.33132e-10
-9.78919e-11
-7.60166e-11
-7.69749e-11
-6.64613e-11
-6.7567e-11
-5.64348e-11
-5.87725e-11
-4.7612e-11
-4.87246e-11
-3.80744e-11
-4.26192e-11
-3.20084e-11
-3.36701e-11
-2.22841e-11
-2.68788e-11
-1.67287e-11
-2.04141e-11
-9.61213e-12
-1.3795e-11
-3.44042e-12
-9.14925e-12
1.02695e-12
-3.90108e-12
7.23438e-12
2.43637e-12
1.31497e-11
5.38541e-12
1.59078e-11
9.24246e-12
2.14879e-11
1.29063e-11
2.76924e-11
1.70303e-11
4.82579e-11
-1.24055e-12
-1.01475e-11
1.04461e-11
3.58625e-11
2.47735e-11
3.66937e-11
2.60999e-11
4.26934e-11
2.72576e-11
4.76582e-11
2.69111e-11
5.21672e-11
1.2039e-11
4.13608e-11
-2.37231e-11
6.58138e-11
2.57304e-12
-6.42291e-10
2.8711e-10
4.4824e-10
-4.7755e-10
-2.01572e-10
3.54458e-11
-1.30125e-10
-1.86955e-10
-1.33935e-10
-9.68707e-11
-7.50768e-11
-7.68356e-11
-6.69634e-11
-6.81784e-11
-5.71357e-11
-5.94027e-11
-4.83026e-11
-4.92722e-11
-3.85459e-11
-4.29807e-11
-3.25134e-11
-3.40852e-11
-2.26581e-11
-2.71313e-11
-1.7076e-11
-2.06637e-11
-9.84106e-12
-1.39403e-11
-3.59841e-12
-9.26355e-12
8.62847e-13
-4.04364e-12
7.14876e-12
2.34603e-12
1.31689e-11
5.31483e-12
1.59008e-11
9.05804e-12
2.16425e-11
1.2707e-11
2.81442e-11
1.66004e-11
5.4107e-11
-1.22571e-14
-1.61351e-11
8.69883e-12
3.65327e-11
2.45579e-11
3.75206e-11
2.53612e-11
4.39157e-11
2.61918e-11
4.94225e-11
2.52314e-11
5.50244e-11
9.83399e-12
4.57169e-11
-2.6733e-11
7.54806e-11
1.65294e-11
-6.85798e-10
3.48901e-10
5.04452e-10
-5.76734e-10
-2.53125e-10
6.88936e-11
-1.06711e-10
-1.83755e-10
-1.34745e-10
-9.59899e-11
-7.41347e-11
-7.66487e-11
-6.74683e-11
-6.88098e-11
-5.78787e-11
-6.00608e-11
-4.90319e-11
-4.98511e-11
-3.90653e-11
-4.33607e-11
-3.30427e-11
-3.45214e-11
-2.3072e-11
-2.73997e-11
-1.74457e-11
-2.09279e-11
-1.00962e-11
-1.40936e-11
-3.77729e-12
-9.38147e-12
6.84922e-13
-4.1905e-12
7.04586e-12
2.25561e-12
1.31664e-11
5.25363e-12
1.58723e-11
8.90103e-12
2.17196e-11
1.26696e-11
2.82168e-11
1.7101e-11
4.91887e-11
1.84103e-15
-1.03902e-11
8.68353e-12
3.70867e-11
2.43719e-11
3.83754e-11
2.46361e-11
4.5083e-11
2.51636e-11
5.10976e-11
2.3664e-11
5.76811e-11
7.92159e-12
4.97228e-11
-2.91657e-11
8.4249e-11
3.1093e-11
-7.29216e-10
4.08876e-10
5.65961e-10
-6.72224e-10
-3.111e-10
9.97453e-11
-8.10346e-11
-1.78921e-10
-1.35501e-10
-9.53421e-11
-7.32352e-11
-7.64183e-11
-6.79713e-11
-6.9459e-11
-5.86631e-11
-6.07455e-11
-4.97981e-11
-5.04593e-11
-3.96318e-11
-4.37593e-11
-3.3595e-11
-3.49768e-11
-2.35257e-11
-2.76845e-11
-1.78371e-11
-2.12056e-11
-1.0378e-11
-1.42546e-11
-3.97732e-12
-9.5023e-12
4.92787e-13
-4.33961e-12
6.92382e-12
2.16666e-12
1.31398e-11
5.20316e-12
1.58213e-11
8.76911e-12
2.17329e-11
1.27345e-11
2.80444e-11
1.75028e-11
4.0986e-11
4.28422e-12
2.98754e-13
9.26585e-12
3.73752e-11
2.41521e-11
3.92132e-11
2.39492e-11
4.6149e-11
2.42247e-11
5.26149e-11
2.22944e-11
6.00326e-11
6.42693e-12
5.3239e-11
-3.08694e-11
9.20049e-11
4.60238e-11
-7.7125e-10
4.64685e-10
6.31052e-10
-7.60654e-10
-3.7421e-10
1.26538e-10
-5.37092e-11
-1.72269e-10
-1.36149e-10
-9.4999e-11
-7.24359e-11
-7.61553e-11
-6.84692e-11
-7.0125e-11
-5.9489e-11
-6.1457e-11
-5.06004e-11
-5.10951e-11
-4.02441e-11
-4.4177e-11
-3.41693e-11
-3.545e-11
-2.40187e-11
-2.79864e-11
-1.82504e-11
-2.14954e-11
-1.06872e-11
-1.44232e-11
-4.19889e-12
-9.62531e-12
2.85892e-13
-4.48895e-12
6.78088e-12
2.08105e-12
1.30872e-11
5.16457e-12
1.5747e-11
8.65811e-12
2.16972e-11
1.28288e-11
2.77854e-11
1.74325e-11
3.56765e-11
1.07771e-11
8.05255e-12
9.45346e-12
3.74351e-11
2.38912e-11
3.99819e-11
2.33408e-11
4.70717e-11
2.34289e-11
5.39086e-11
2.12063e-11
6.19813e-11
5.46881e-12
5.61377e-11
-3.17038e-11
9.86359e-11
6.10795e-11
-8.10357e-10
5.14007e-10
6.9804e-10
-8.3853e-10
-4.41053e-10
1.47832e-10
-2.544e-11
-1.63642e-10
-1.3653e-10
-9.50304e-11
-7.18025e-11
-7.58753e-11
-6.89598e-11
-7.08064e-11
-6.03565e-11
-6.21955e-11
-5.14383e-11
-5.17572e-11
-4.09007e-11
-4.4614e-11
-3.47655e-11
-3.59393e-11
-2.45499e-11
-2.83061e-11
-1.86857e-11
-2.17963e-11
-1.1024e-11
-1.4599e-11
-4.44191e-12
-9.74957e-12
6.31633e-14
-4.63657e-12
6.61511e-12
2.00093e-12
1.30065e-11
5.14122e-12
1.5644e-11
8.5791e-12
2.15985e-11
1.29793e-11
2.74142e-11
1.74039e-11
3.22513e-11
1.38203e-11
1.41301e-11
1.0099e-11
3.74834e-11
2.36904e-11
4.06711e-11
2.28546e-11
4.78122e-11
2.28255e-11
5.49173e-11
2.0474e-11
6.34391e-11
5.15208e-12
5.83045e-11
-3.15432e-11
1.04087e-10
7.60308e-11
-8.45166e-10
5.54504e-10
7.65112e-10
-9.02474e-10
-5.10079e-10
1.62343e-10
3.01011e-12
-1.52966e-10
-1.36549e-10
-9.54906e-11
-7.13999e-11
-7.55974e-11
-6.94408e-11
-7.15014e-11
-6.12652e-11
-6.29609e-11
-5.23109e-11
-5.24444e-11
-4.15994e-11
-4.50702e-11
-3.5383e-11
-3.64436e-11
-2.51182e-11
-2.86439e-11
-1.91433e-11
-2.21071e-11
-1.13887e-11
-1.47818e-11
-4.70637e-12
-9.87416e-12
-1.76168e-13
-4.78059e-12
6.4253e-12
1.92755e-12
1.28967e-11
5.13404e-12
1.55113e-11
8.52985e-12
2.14412e-11
1.31656e-11
2.69783e-11
1.74755e-11
2.98622e-11
1.58909e-11
1.92181e-11
1.11071e-11
3.74997e-11
2.35247e-11
4.12337e-11
2.25149e-11
4.83346e-11
2.24513e-11
5.55891e-11
2.01635e-11
6.43354e-11
5.56193e-12
5.96507e-11
-3.02924e-11
1.08269e-10
9.07752e-11
-8.74258e-10
5.83789e-10
8.30519e-10
-9.49189e-10
-5.79709e-10
1.68999e-10
3.08822e-11
-1.40264e-10
-1.36118e-10
-9.64178e-11
-7.12897e-11
-7.53445e-11
-6.9912e-11
-7.22088e-11
-6.22143e-11
-6.37532e-11
-5.32169e-11
-5.31565e-11
-4.23381e-11
-4.55451e-11
-3.6021e-11
-3.69628e-11
-2.57225e-11
-2.89997e-11
-1.96233e-11
-2.24273e-11
-1.17808e-11
-1.49719e-11
-4.99223e-12
-9.99804e-12
-4.32329e-13
-4.91949e-12
6.21096e-12
1.86114e-12
1.27575e-11
5.14325e-12
1.53505e-11
8.50468e-12
2.12385e-11
1.33555e-11
2.65541e-11
1.75381e-11
2.8275e-11
1.71882e-11
2.33058e-11
1.22966e-11
3.74575e-11
2.34017e-11
4.16422e-11
2.2345e-11
4.86148e-11
2.23594e-11
5.58869e-11
2.03233e-11
6.46251e-11
6.76167e-12
6.01251e-11
-2.78263e-11
1.1089e-10
1.05448e-10
-8.96259e-10
5.99255e-10
8.92578e-10
-9.75506e-10
-6.48429e-10
1.66985e-10
5.74919e-11
-1.25659e-10
-1.35186e-10
-9.78471e-11
-7.15355e-11
-7.51467e-11
-7.0378e-11
-7.29314e-11
-6.32068e-11
-6.4575e-11
-5.4157e-11
-5.38961e-11
-4.31167e-11
-4.60387e-11
-3.66797e-11
-3.74978e-11
-2.6363e-11
-2.93738e-11
-2.01264e-11
-2.27572e-11
-1.22004e-11
-1.51698e-11
-5.29976e-12
-1.01203e-11
-7.05353e-13
-5.05227e-12
5.97217e-12
1.80147e-12
1.25885e-11
5.16965e-12
1.51623e-11
8.5004e-12
2.09973e-11
1.35411e-11
2.61627e-11
1.75699e-11
2.72913e-11
1.79749e-11
2.65117e-11
1.36133e-11
3.73727e-11
2.33579e-11
4.18832e-11
2.23711e-11
4.86377e-11
2.25682e-11
5.57945e-11
2.09752e-11
6.42956e-11
8.77028e-12
5.97135e-11
-2.4022e-11
1.11522e-10
1.2047e-10
-9.09755e-10
5.9794e-10
9.4963e-10
-9.78397e-10
-7.14935e-10
1.55641e-10
8.22818e-11
-1.0932e-10
-1.33713e-10
-9.9808e-11
-7.22047e-11
-7.50356e-11
-7.08446e-11
-7.36722e-11
-6.42476e-11
-6.54295e-11
-5.51338e-11
-5.46664e-11
-4.39362e-11
-4.65501e-11
-3.73593e-11
-3.80494e-11
-2.70403e-11
-2.97655e-11
-2.06542e-11
-2.3097e-11
-1.26488e-11
-1.53758e-11
-5.63e-12
-1.0239e-11
-9.96458e-13
-5.1777e-12
5.70792e-12
1.74864e-12
1.23891e-11
5.21508e-12
1.49469e-11
8.51398e-12
2.07216e-11
1.37186e-11
2.58006e-11
1.75819e-11
2.67312e-11
1.84482e-11
2.89744e-11
1.50221e-11
3.72566e-11
2.34193e-11
4.19416e-11
2.26009e-11
4.83903e-11
2.30867e-11
5.53076e-11
2.21225e-11
6.33489e-11
1.1591e-11
5.83889e-11
-1.86149e-11
1.09476e-10
1.36648e-10
-9.13124e-10
5.76706e-10
1.49864e-10
1.30928e-10
-3.94167e-11
-1.80868e-10
-1.95945e-10
-1.70458e-10
-1.27159e-10
-1.04371e-10
-8.03677e-11
-7.5634e-11
-6.1981e-11
-6.25507e-11
-5.15418e-11
-5.39162e-11
-4.28617e-11
-4.50815e-11
-3.56071e-11
-3.95879e-11
-2.82601e-11
-3.06855e-11
-2.02452e-11
-2.47643e-11
-1.43806e-11
-1.87179e-11
-8.37585e-12
-1.26967e-11
-2.74472e-12
-8.13719e-12
1.98389e-12
-2.99908e-12
7.49896e-12
2.95832e-12
1.23575e-11
6.02281e-12
1.57669e-11
1.03085e-11
1.96943e-11
1.44056e-11
2.29494e-11
1.68824e-11
2.44157e-11
1.96002e-11
2.63538e-11
2.2179e-11
2.91952e-11
2.47858e-11
3.1112e-11
2.93831e-11
3.3319e-11
3.30446e-11
3.46929e-11
3.70112e-11
2.90813e-11
2.79024e-11
4.04067e-12
2.83661e-12
-4.71621e-11
-1.07723e-10
-2.90468e-10
-4.27789e-11
1.58751e-10
1.35699e-10
-4.11079e-11
-1.82894e-10
-1.97019e-10
-1.70793e-10
-1.27339e-10
-1.04451e-10
-8.05142e-11
-7.57227e-11
-6.21206e-11
-6.26135e-11
-5.1661e-11
-5.39622e-11
-4.29551e-11
-4.50989e-11
-3.56918e-11
-3.96078e-11
-2.83349e-11
-3.06814e-11
-2.03144e-11
-2.47614e-11
-1.44436e-11
-1.86991e-11
-8.43272e-12
-1.26732e-11
-2.80121e-12
-8.11393e-12
1.93105e-12
-2.96544e-12
7.45259e-12
2.99855e-12
1.23072e-11
6.05428e-12
1.57204e-11
1.03558e-11
1.96549e-11
1.44563e-11
2.29151e-11
1.69279e-11
2.43681e-11
1.95894e-11
2.62994e-11
2.22428e-11
2.91907e-11
2.4858e-11
3.11254e-11
2.94808e-11
3.33617e-11
3.31482e-11
3.47908e-11
3.71471e-11
2.9268e-11
2.80443e-11
4.38826e-12
3.21714e-12
-4.58087e-11
-1.07062e-10
-2.96671e-10
-4.6823e-11
1.6961e-10
1.4081e-10
-4.30154e-11
-1.85358e-10
-1.98507e-10
-1.71423e-10
-1.27586e-10
-1.04612e-10
-8.06509e-11
-7.58848e-11
-6.22596e-11
-6.27541e-11
-5.1769e-11
-5.40778e-11
-4.30378e-11
-4.51732e-11
-3.57422e-11
-3.96872e-11
-2.83905e-11
-3.07343e-11
-2.03488e-11
-2.48144e-11
-1.44733e-11
-1.87286e-11
-8.45112e-12
-1.26992e-11
-2.81385e-12
-8.14028e-12
1.92161e-12
-2.97679e-12
7.44912e-12
2.9924e-12
1.231e-11
6.03776e-12
1.57197e-11
1.03629e-11
1.96665e-11
1.4467e-11
2.2937e-11
1.69416e-11
2.43672e-11
1.95096e-11
2.62657e-11
2.22733e-11
2.92597e-11
2.49227e-11
3.11974e-11
2.95833e-11
3.34745e-11
3.32624e-11
3.49359e-11
3.73066e-11
2.95229e-11
2.82707e-11
4.80833e-12
3.64052e-12
-4.39813e-11
-1.04466e-10
-3.0627e-10
-5.15823e-11
1.82261e-10
1.45745e-10
-4.47228e-11
-1.88095e-10
-2.00679e-10
-1.72392e-10
-1.27921e-10
-1.04785e-10
-8.07814e-11
-7.60765e-11
-6.24245e-11
-6.29297e-11
-5.18972e-11
-5.42298e-11
-4.31411e-11
-4.52713e-11
-3.57882e-11
-3.97934e-11
-2.84618e-11
-3.08105e-11
-2.03792e-11
-2.48878e-11
-1.45044e-11
-1.87716e-11
-8.46306e-12
-1.27387e-11
-2.8152e-12
-8.18052e-12
1.92048e-12
-2.99849e-12
7.45678e-12
2.97656e-12
1.23351e-11
6.00882e-12
1.57306e-11
1.03627e-11
1.97008e-11
1.44703e-11
2.29911e-11
1.69541e-11
2.43958e-11
1.93819e-11
2.6218e-11
2.22824e-11
2.93886e-11
2.49956e-11
3.13189e-11
2.96932e-11
3.36636e-11
3.33755e-11
3.5165e-11
3.74583e-11
2.99284e-11
2.84806e-11
5.44141e-12
3.99149e-12
-4.11506e-11
-1.00414e-10
-3.18671e-10
-5.66154e-11
1.94895e-10
1.49156e-10
-4.5547e-11
-1.90295e-10
-2.03361e-10
-1.73688e-10
-1.28326e-10
-1.04932e-10
-8.08985e-11
-7.62907e-11
-6.26316e-11
-6.31464e-11
-5.20628e-11
-5.44195e-11
-4.3282e-11
-4.53913e-11
-3.58442e-11
-3.99219e-11
-2.85635e-11
-3.09042e-11
-2.04176e-11
-2.4974e-11
-1.45513e-11
-1.88218e-11
-8.48071e-12
-1.27833e-11
-2.8166e-12
-8.22573e-12
1.91425e-12
-3.02305e-12
7.464e-12
2.9606e-12
1.23725e-11
5.97702e-12
1.57403e-11
1.03621e-11
1.97479e-11
1.44735e-11
2.30707e-11
1.69732e-11
2.4453e-11
1.92136e-11
2.61339e-11
2.2267e-11
2.95734e-11
2.50766e-11
3.14853e-11
2.97992e-11
3.39326e-11
3.34654e-11
3.54888e-11
3.75641e-11
3.05139e-11
2.86052e-11
6.34869e-12
4.14383e-12
-3.71923e-11
-9.52542e-11
-3.33052e-10
-6.08625e-11
2.06221e-10
1.48927e-10
-4.52156e-11
-1.91018e-10
-2.06225e-10
-1.75278e-10
-1.28772e-10
-1.05021e-10
-8.09818e-11
-7.65208e-11
-6.28834e-11
-6.34087e-11
-5.2272e-11
-5.46519e-11
-4.34674e-11
-4.55389e-11
-3.59153e-11
-4.00751e-11
-2.87007e-11
-3.10194e-11
-2.04669e-11
-2.50742e-11
-1.46179e-11
-1.88819e-11
-8.50659e-12
-1.28341e-11
-2.82026e-12
-8.27646e-12
1.89991e-12
-3.05234e-12
7.46882e-12
2.94332e-12
1.2421e-11
5.94268e-12
1.57467e-11
1.03584e-11
1.9807e-11
1.44744e-11
2.31771e-11
1.69987e-11
2.45465e-11
1.90023e-11
2.60005e-11
2.22174e-11
2.98165e-11
2.51593e-11
3.16981e-11
2.98838e-11
3.42865e-11
3.35083e-11
3.59188e-11
3.75845e-11
3.13031e-11
2.85797e-11
7.58465e-12
3.96677e-12
-3.20343e-11
-8.92789e-11
-3.48911e-10
-6.26036e-11
2.15869e-10
1.42717e-10
-4.39679e-11
-1.89365e-10
-2.08887e-10
-1.77108e-10
-1.2923e-10
-1.05017e-10
-8.10087e-11
-7.67559e-11
-6.31773e-11
-6.37168e-11
-5.2527e-11
-5.49289e-11
-4.37008e-11
-4.57204e-11
-3.60058e-11
-4.02535e-11
-2.88759e-11
-3.11603e-11
-2.05304e-11
-2.51892e-11
-1.47069e-11
-1.89551e-11
-8.54231e-12
-1.28932e-11
-2.828e-12
-8.33345e-12
1.87553e-12
-3.0885e-12
7.47031e-12
2.92264e-12
1.24792e-11
5.90602e-12
1.57487e-11
1.03478e-11
1.98781e-11
1.44702e-11
2.33119e-11
1.70296e-11
2.46861e-11
1.87443e-11
2.58073e-11
2.21239e-11
3.01197e-11
2.52367e-11
3.19605e-11
2.99288e-11
3.47319e-11
3.3481e-11
3.64712e-11
3.74776e-11
3.23238e-11
2.83361e-11
9.21179e-12
3.34038e-12
-2.5622e-11
-8.2748e-11
-3.66207e-10
-5.99282e-11
2.24217e-10
1.28314e-10
-4.24779e-11
-1.8453e-10
-2.10905e-10
-1.79112e-10
-1.29679e-10
-1.04881e-10
-8.09585e-11
-7.69837e-11
-6.35084e-11
-6.40683e-11
-5.28287e-11
-5.52502e-11
-4.39841e-11
-4.59385e-11
-3.61206e-11
-4.04564e-11
-2.90906e-11
-3.13296e-11
-2.06122e-11
-2.53192e-11
-1.48207e-11
-1.90434e-11
-8.59012e-12
-1.29609e-11
-2.84287e-12
-8.39664e-12
1.83889e-12
-3.13278e-12
7.46705e-12
2.89764e-12
1.2544e-11
5.86794e-12
1.57453e-11
1.0328e-11
1.99602e-11
1.4459e-11
2.34747e-11
1.70657e-11
2.4883e-11
1.84334e-11
2.55459e-11
2.1979e-11
3.0484e-11
2.53013e-11
3.22775e-11
2.99165e-11
3.52756e-11
3.33604e-11
3.71648e-11
3.72038e-11
3.36044e-11
2.78123e-11
1.12896e-11
2.17158e-12
-1.7957e-11
-7.5823e-11
-3.85227e-10
-5.11148e-11
2.32304e-10
1.03852e-10
-4.17689e-11
-1.75862e-10
-2.11811e-10
-1.8122e-10
-1.30106e-10
-1.04591e-10
-8.08124e-11
-7.71925e-11
-6.38714e-11
-6.44591e-11
-5.31768e-11
-5.56135e-11
-4.43176e-11
-4.61948e-11
-3.62642e-11
-4.06821e-11
-2.93451e-11
-3.15289e-11
-2.07167e-11
-2.54639e-11
-1.49614e-11
-1.91483e-11
-8.65236e-12
-1.30375e-11
-2.86791e-12
-8.46566e-12
1.78798e-12
-3.18599e-12
7.45759e-12
2.86779e-12
1.2612e-11
5.82934e-12
1.57359e-11
1.02968e-11
2.00517e-11
1.44393e-11
2.36647e-11
1.71066e-11
2.51505e-11
1.80612e-11
2.5207e-11
2.17774e-11
3.09099e-11
2.53451e-11
3.26549e-11
2.98304e-11
3.59246e-11
3.31254e-11
3.8017e-11
3.67376e-11
3.51692e-11
2.69603e-11
1.38585e-11
4.1283e-13
-9.10865e-12
-6.85537e-11
-4.06489e-10
-3.48241e-11
2.41488e-10
6.79917e-11
-4.30323e-11
-1.62888e-10
-2.11134e-10
-1.83356e-10
-1.30519e-10
-1.0413e-10
-8.05553e-11
-7.73717e-11
-6.42613e-11
-6.48851e-11
-5.35701e-11
-5.6016e-11
-4.47e-11
-4.64897e-11
-3.64407e-11
-4.09291e-11
-2.96385e-11
-3.17586e-11
-2.08477e-11
-2.56224e-11
-1.51298e-11
-1.92704e-11
-8.73107e-12
-1.31228e-11
-2.90618e-12
-8.54015e-12
1.72166e-12
-3.24861e-12
7.44074e-12
2.83272e-12
1.26794e-11
5.79071e-12
1.57207e-11
1.02524e-11
2.01512e-11
1.44101e-11
2.38799e-11
1.71514e-11
2.55035e-11
1.76193e-11
2.47831e-11
2.15164e-11
3.13976e-11
2.53596e-11
3.30986e-11
2.96566e-11
3.66835e-11
3.2759e-11
3.90394e-11
3.60372e-11
3.70326e-11
2.57542e-11
1.69297e-11
-1.93696e-12
7.59669e-13
-6.08529e-11
-4.30512e-10
-1.0284e-11
2.53375e-10
2.0053e-11
-4.759e-11
-1.45386e-10
-2.08411e-10
-1.8543e-10
-1.30936e-10
-1.03495e-10
-8.01779e-11
-7.75138e-11
-6.46741e-11
-6.53422e-11
-5.40075e-11
-5.6455e-11
-4.51299e-11
-4.68229e-11
-3.66533e-11
-4.1195e-11
-2.99693e-11
-3.20184e-11
-2.10083e-11
-2.5794e-11
-1.53262e-11
-1.94103e-11
-8.82792e-12
-1.32165e-11
-2.95973e-12
-8.61973e-12
1.63942e-12
-3.32111e-12
7.41541e-12
2.79221e-12
1.27432e-11
5.75231e-12
1.57001e-11
1.01937e-11
2.02569e-11
1.43706e-11
2.41183e-11
1.7198e-11
2.59563e-11
1.70992e-11
2.42684e-11
2.11948e-11
3.19457e-11
2.53374e-11
3.36131e-11
2.93851e-11
3.75539e-11
3.22501e-11
4.02373e-11
3.51001e-11
3.91919e-11
2.4194e-11
2.04803e-11
-4.82304e-12
1.14277e-11
-5.255e-11
-4.57783e-10
2.26814e-11
2.69476e-10
-3.99961e-11
-5.67262e-11
-1.23383e-10
-2.0322e-10
-1.87328e-10
-1.31383e-10
-1.02695e-10
-7.96765e-11
-7.7614e-11
-6.51075e-11
-6.58288e-11
-5.4489e-11
-5.69287e-11
-4.56062e-11
-4.71941e-11
-3.69049e-11
-4.14787e-11
-3.03354e-11
-3.23076e-11
-2.12014e-11
-2.59787e-11
-1.55504e-11
-1.95685e-11
-8.94446e-12
-1.33184e-11
-3.03037e-12
-8.70427e-12
1.54127e-12
-3.40371e-12
7.38069e-12
2.74634e-12
1.28009e-11
5.714e-12
1.5675e-11
1.01199e-11
2.0367e-11
1.43206e-11
2.43766e-11
1.72429e-11
2.65272e-11
1.65027e-11
2.36606e-11
2.08129e-11
3.25499e-11
2.52721e-11
3.42001e-11
2.90109e-11
3.85332e-11
3.15957e-11
4.16073e-11
3.39313e-11
4.16247e-11
2.23085e-11
2.4454e-11
-8.14287e-12
2.26127e-11
-4.34532e-11
-4.88553e-10
6.37148e-11
2.91261e-10
-1.11573e-10
-7.16928e-11
-9.7195e-11
-1.9519e-10
-1.88897e-10
-1.31883e-10
-1.0175e-10
-7.90525e-11
-7.76679e-11
-6.55591e-11
-6.63428e-11
-5.50143e-11
-5.74355e-11
-4.61279e-11
-4.76025e-11
-3.71981e-11
-4.17791e-11
-3.07348e-11
-3.26255e-11
-2.14293e-11
-2.61764e-11
-1.58018e-11
-1.9745e-11
-9.08214e-12
-1.34281e-11
-3.11903e-12
-8.79376e-12
1.42736e-12
-3.49643e-12
7.33573e-12
2.69524e-12
1.28507e-11
5.67545e-12
1.56462e-11
1.00308e-11
2.04792e-11
1.42602e-11
2.46511e-11
1.72818e-11
2.72256e-11
1.5841e-11
2.29715e-11
2.03746e-11
3.3203e-11
2.5161e-11
3.48579e-11
2.85351e-11
3.96076e-11
3.08025e-11
4.31334e-11
3.25509e-11
4.42896e-11
2.01545e-11
2.87628e-11
-1.17529e-11
3.40384e-11
-3.34326e-11
-5.22938e-10
1.12053e-10
3.19734e-10
-1.93415e-10
-9.34398e-11
-6.74105e-11
-1.8406e-10
-1.89958e-10
-1.32458e-10
-1.00698e-10
-7.83139e-11
-7.76724e-11
-6.60264e-11
-6.68823e-11
-5.5583e-11
-5.79737e-11
-4.66934e-11
-4.8047e-11
-3.75352e-11
-4.20959e-11
-3.11653e-11
-3.29706e-11
-2.1694e-11
-2.63875e-11
-1.60796e-11
-1.99395e-11
-9.24217e-12
-1.35456e-11
-3.22667e-12
-8.88829e-12
1.29835e-12
-3.59896e-12
7.27984e-12
2.639e-12
1.28903e-11
5.63624e-12
1.56143e-11
9.92725e-12
2.05905e-11
1.41905e-11
2.49332e-11
1.73098e-11
2.80402e-11
1.51521e-11
2.22395e-11
1.991e-11
3.38934e-11
2.50051e-11
3.55806e-11
2.79664e-11
4.07612e-11
2.98889e-11
4.47874e-11
3.09973e-11
4.71267e-11
1.78143e-11
3.32927e-11
-1.54881e-11
4.54021e-11
-2.23886e-11
-5.60684e-10
1.66455e-10
3.55465e-10
-2.8354e-10
-1.22581e-10
-3.48965e-11
-1.69703e-10
-1.9031e-10
-1.33121e-10
-9.95895e-11