/*--------------------------------*- C++ -*----------------------------------*\
| =========                 |                                                 |
| \\      /  F ield         | OpenFOAM: The Open Source CFD Toolbox           |
|  \\    /   O peration     | Version:  2312                                  |
|   \\  /    A nd           | Website:  www.openfoam.com                      |
|    \\/     M anipulation  |                                                 |
\*---------------------------------------------------------------------------*/
FoamFile
{
    version     2.0;
    format      ascii;
    arch        "LSB;label=32;scalar=64";
    class       volScalarField;
    location    "900";
    object      p;
}
// * * * * * * * * * * * * * * * * * * * * * * * * * * * * * * * * * * * * * //

dimensions      [0 2 -2 0 0 0 0];

internalField   nonuniform List<scalar> 
144000
(
6.11272e-10
6.02997e-10
4.45921e-10
3.07959e-10
2.84012e-10
3.01906e-10
3.38618e-10
3.58496e-10
3.79416e-10
3.83619e-10
3.95557e-10
3.95116e-10
4.0474e-10
4.02841e-10
4.12595e-10
4.11029e-10
4.19263e-10
4.15912e-10
4.26121e-10
4.24593e-10
4.33994e-10
4.30455e-10
4.39892e-10
4.36742e-10
4.46176e-10
4.43282e-10
4.52589e-10
4.48652e-10
4.58129e-10
4.54779e-10
4.6466e-10
4.61833e-10
4.70783e-10
4.66236e-10
4.75348e-10
4.71457e-10
4.8044e-10
4.76976e-10
4.85271e-10
4.81305e-10
4.89575e-10
4.86679e-10
4.94532e-10
4.92337e-10
4.97396e-10
4.93552e-10
4.98925e-10
4.98401e-10
5.0206e-10
5.02871e-10
5.04482e-10
5.07451e-10
4.99882e-10
4.98353e-10
4.75317e-10
4.71835e-10
4.24005e-10
3.63807e-10
2.05025e-10
4.24959e-10
6.19348e-10
6.07532e-10
4.44502e-10
3.06081e-10
2.82985e-10
3.01557e-10
3.38441e-10
3.58421e-10
3.79289e-10
3.83542e-10
3.95439e-10
3.95065e-10
4.0464e-10
4.02807e-10
4.1252e-10
4.11023e-10
4.19196e-10
4.15899e-10
4.26061e-10
4.24605e-10
4.33938e-10
4.30462e-10
4.39842e-10
4.36766e-10
4.46131e-10
4.43308e-10
4.52545e-10
4.48675e-10
4.58087e-10
4.54814e-10
4.64626e-10
4.61874e-10
4.70745e-10
4.66269e-10
4.75316e-10
4.71504e-10
4.80413e-10
4.7703e-10
4.85245e-10
4.81357e-10
4.89558e-10
4.86746e-10
4.94533e-10
4.92417e-10
4.97404e-10
4.93623e-10
4.98954e-10
4.985e-10
5.02119e-10
5.02979e-10
5.04595e-10
5.07597e-10
5.00083e-10
4.98512e-10
4.75672e-10
4.72229e-10
4.25252e-10
3.64325e-10
1.99318e-10
4.21331e-10
6.29324e-10
6.12573e-10
4.42929e-10
3.03758e-10
2.81498e-10
3.00896e-10
3.38182e-10
3.58266e-10
3.79169e-10
3.83399e-10
3.95321e-10
3.94945e-10
4.04548e-10
4.02714e-10
4.12452e-10
4.10969e-10
4.1916e-10
4.15835e-10
4.26016e-10
4.24566e-10
4.33912e-10
4.30419e-10
4.39819e-10
4.3675e-10
4.46118e-10
4.43291e-10
4.52539e-10
4.48655e-10
4.5808e-10
4.54813e-10
4.64628e-10
4.61877e-10
4.70752e-10
4.66262e-10
4.75324e-10
4.7152e-10
4.80431e-10
4.77054e-10
4.85267e-10
4.81381e-10
4.89589e-10
4.86796e-10
4.9458e-10
4.92487e-10
4.97481e-10
4.93691e-10
4.99036e-10
4.98611e-10
5.02247e-10
5.03108e-10
5.04755e-10
5.07775e-10
5.00354e-10
4.98764e-10
4.76109e-10
4.72693e-10
4.26984e-10
3.66584e-10
1.90499e-10
4.16873e-10
6.4107e-10
6.17738e-10
4.4159e-10
3.01138e-10
2.79342e-10
2.99874e-10
3.37816e-10
3.5809e-10
3.79052e-10
3.83228e-10
3.9518e-10
3.94791e-10
4.04435e-10
4.02586e-10
4.12362e-10
4.10893e-10
4.19131e-10
4.15743e-10
4.25953e-10
4.24505e-10
4.33888e-10
4.30355e-10
4.39791e-10
4.36722e-10
4.46109e-10
4.43261e-10
4.52542e-10
4.48619e-10
4.58079e-10
4.54804e-10
4.64639e-10
4.6187e-10
4.70779e-10
4.66245e-10
4.75341e-10
4.7153e-10
4.8047e-10
4.77074e-10
4.85314e-10
4.814e-10
4.89643e-10
4.86848e-10
4.94659e-10
4.92567e-10
4.97616e-10
4.93768e-10
4.99165e-10
4.98736e-10
5.02449e-10
5.03243e-10
5.04994e-10
5.07958e-10
5.0077e-10
4.99022e-10
4.76752e-10
4.73143e-10
4.29668e-10
3.70197e-10
1.79023e-10
4.11918e-10
6.53003e-10
6.21845e-10
4.4108e-10
2.98934e-10
2.76652e-10
2.98498e-10
3.37359e-10
3.5793e-10
3.78947e-10
3.83036e-10
3.95002e-10
3.94599e-10
4.04287e-10
4.02423e-10
4.12235e-10
4.10796e-10
4.19094e-10
4.1563e-10
4.25859e-10
4.24427e-10
4.33856e-10
4.30277e-10
4.39746e-10
4.36688e-10
4.46093e-10
4.43225e-10
4.52547e-10
4.48578e-10
4.58071e-10
4.54792e-10
4.64649e-10
4.61863e-10
4.70818e-10
4.66225e-10
4.75358e-10
4.71542e-10
4.80519e-10
4.77098e-10
4.85378e-10
4.8142e-10
4.89712e-10
4.86902e-10
4.94764e-10
4.92658e-10
4.97808e-10
4.9385e-10
4.99336e-10
4.98862e-10
5.0273e-10
5.03365e-10
5.05323e-10
5.08111e-10
5.01356e-10
4.99226e-10
4.77652e-10
4.7347e-10
4.33408e-10
3.749e-10
1.65605e-10
4.07355e-10
6.63983e-10
6.23013e-10
4.4162e-10
2.97983e-10
2.73728e-10
2.96807e-10
3.36839e-10
3.57823e-10
3.78874e-10
3.82831e-10
3.94784e-10
3.94363e-10
4.04098e-10
4.02219e-10
4.12065e-10
4.10672e-10
4.19046e-10
4.15492e-10
4.2573e-10
4.24327e-10
4.33814e-10
4.30185e-10
4.39682e-10
4.36645e-10
4.46069e-10
4.43182e-10
4.52552e-10
4.4853e-10
4.58054e-10
4.54775e-10
4.64656e-10
4.61853e-10
4.70867e-10
4.66203e-10
4.75371e-10
4.71551e-10
4.80578e-10
4.77122e-10
4.85459e-10
4.81439e-10
4.89793e-10
4.86955e-10
4.94895e-10
4.92753e-10
4.98056e-10
4.9393e-10
4.99552e-10
4.98972e-10
5.03094e-10
5.0345e-10
5.05752e-10
5.08197e-10
5.02132e-10
4.99317e-10
4.78854e-10
4.73561e-10
4.38262e-10
3.80469e-10
1.507e-10
4.04667e-10
6.7367e-10
6.19144e-10
4.42973e-10
2.99085e-10
2.70929e-10
2.94859e-10
3.36289e-10
3.578e-10
3.78857e-10
3.82622e-10
3.9453e-10
3.94085e-10
4.03865e-10
4.01974e-10
4.11847e-10
4.10515e-10
4.18981e-10
4.15329e-10
4.25564e-10
4.24202e-10
4.3376e-10
4.30078e-10
4.39594e-10
4.36589e-10
4.46036e-10
4.4313e-10
4.52555e-10
4.48475e-10
4.58026e-10
4.54752e-10
4.64661e-10
4.61839e-10
4.70927e-10
4.66179e-10
4.7538e-10
4.71556e-10
4.80647e-10
4.77146e-10
4.85556e-10
4.81456e-10
4.89887e-10
4.87001e-10
4.95053e-10
4.92845e-10
4.98361e-10
4.94001e-10
4.99815e-10
4.99049e-10
5.03546e-10
5.03478e-10
5.06294e-10
5.08181e-10
5.03121e-10
4.99235e-10
4.80406e-10
4.73311e-10
4.44273e-10
3.86697e-10
1.34372e-10
4.05533e-10
6.82398e-10
6.08234e-10
4.445e-10
3.02958e-10
2.68663e-10
2.92726e-10
3.35733e-10
3.57894e-10
3.78917e-10
3.82424e-10
3.94244e-10
3.93766e-10
4.03587e-10
4.01686e-10
4.11581e-10
4.10321e-10
4.18895e-10
4.15143e-10
4.2536e-10
4.24048e-10
4.3369e-10
4.29958e-10
4.39483e-10
4.36519e-10
4.45993e-10
4.4307e-10
4.52555e-10
4.48414e-10
4.57987e-10
4.5472e-10
4.64661e-10
4.6182e-10
4.70993e-10
4.66154e-10
4.75384e-10
4.71554e-10
4.80725e-10
4.77166e-10
4.85667e-10
4.81467e-10
4.89992e-10
4.87035e-10
4.95237e-10
4.92927e-10
4.98722e-10
4.94055e-10
5.00129e-10
4.99075e-10
5.04091e-10
5.03425e-10
5.06964e-10
5.08024e-10
5.04346e-10
4.98923e-10
4.82359e-10
4.72635e-10
4.51436e-10
3.93455e-10
1.16393e-10
4.11498e-10
6.91077e-10
5.8856e-10
4.45258e-10
3.10186e-10
2.67364e-10
2.90483e-10
3.35185e-10
3.58135e-10
3.79075e-10
3.82249e-10
3.93934e-10
3.93411e-10
4.03265e-10
4.01357e-10
4.11266e-10
4.10089e-10
4.18783e-10
4.14934e-10
4.25118e-10
4.23864e-10
4.336e-10
4.29824e-10
4.39347e-10
4.36433e-10
4.45937e-10
4.42999e-10
4.52547e-10
4.48347e-10
4.57935e-10
4.5468e-10
4.64656e-10
4.61795e-10
4.71063e-10
4.6613e-10
4.75382e-10
4.71542e-10
4.80811e-10
4.77182e-10
4.85791e-10
4.81473e-10
4.9011e-10
4.87053e-10
4.9545e-10
4.92992e-10
4.99139e-10
4.94086e-10
5.00501e-10
4.99036e-10
5.04735e-10
5.03272e-10
5.07777e-10
5.07695e-10
5.05826e-10
4.9834e-10
4.84745e-10
4.71485e-10
4.5969e-10
4.007e-10
9.63222e-11
4.23806e-10
7.00915e-10
5.58841e-10
4.4414e-10
3.21201e-10
2.67473e-10
2.88211e-10
3.34649e-10
3.58541e-10
3.79347e-10
3.82106e-10
3.93603e-10
3.93024e-10
4.029e-10
4.00991e-10
4.10902e-10
4.09817e-10
4.18641e-10
4.14704e-10
4.2484e-10
4.23651e-10
4.33485e-10
4.29678e-10
4.39185e-10
4.3633e-10
4.45868e-10
4.4292e-10
4.5253e-10
4.48275e-10
4.57869e-10
4.5463e-10
4.64645e-10
4.61765e-10
4.71134e-10
4.66105e-10
4.75375e-10
4.7152e-10
4.80903e-10
4.77191e-10
4.85926e-10
4.81469e-10
4.90239e-10
4.87051e-10
4.95692e-10
4.93034e-10
4.99608e-10
4.94086e-10
5.00936e-10
4.98917e-10
5.05482e-10
5.03003e-10
5.08745e-10
5.0717e-10
5.07571e-10
4.97457e-10
4.87574e-10
4.69851e-10
4.68891e-10
4.08501e-10
7.37101e-11
4.43228e-10
7.13355e-10
5.18343e-10
4.39914e-10
3.3622e-10
2.69424e-10
2.86008e-10
3.34115e-10
3.59119e-10
3.79745e-10
3.82006e-10
3.93257e-10
3.92609e-10
4.02492e-10
4.0059e-10
4.10493e-10
4.09506e-10
4.18466e-10
4.14455e-10
4.24526e-10
4.23407e-10
4.33344e-10
4.2952e-10
4.38997e-10
4.3621e-10
4.45784e-10
4.42832e-10
4.52502e-10
4.48198e-10
4.57789e-10
4.54571e-10
4.64627e-10
4.61729e-10
4.71203e-10
4.66081e-10
4.75363e-10
4.71485e-10
4.81e-10
4.77193e-10
4.86071e-10
4.81456e-10
4.90383e-10
4.87025e-10
4.95964e-10
4.93048e-10
5.00129e-10
4.94048e-10
5.0144e-10
4.98708e-10
5.06332e-10
5.02607e-10
5.09873e-10
5.06438e-10
5.09579e-10
4.96273e-10
4.90827e-10
4.67771e-10
4.78853e-10
4.16992e-10
4.81147e-11
4.70045e-10
7.29803e-10
4.66898e-10
4.31361e-10
3.55241e-10
2.73623e-10
2.83993e-10
3.33571e-10
3.59865e-10
3.80275e-10
3.81955e-10
3.92899e-10
3.92168e-10
4.02044e-10
4.00155e-10
4.10039e-10
4.09155e-10
4.18253e-10
4.14187e-10
4.2418e-10
4.23133e-10
4.33173e-10
4.29351e-10
4.38785e-10
4.36072e-10
4.45684e-10
4.42736e-10
4.52461e-10
4.48117e-10
4.57696e-10
4.54501e-10
4.64601e-10
4.61688e-10
4.71269e-10
4.66056e-10
4.75349e-10
4.71436e-10
4.81101e-10
4.77186e-10
4.86224e-10
4.81431e-10
4.90541e-10
4.86973e-10
4.96264e-10
4.93029e-10
5.00697e-10
4.93967e-10
5.02012e-10
4.98403e-10
5.07282e-10
5.0208e-10
5.11157e-10
5.055e-10
5.11832e-10
4.94808e-10
4.9446e-10
4.65318e-10
4.89334e-10
4.26323e-10
1.92712e-11
5.04087e-10
7.5163e-10
4.04875e-10
4.17288e-10
3.78003e-10
2.80427e-10
2.82319e-10
3.33003e-10
3.60763e-10
3.80939e-10
3.81959e-10
3.92531e-10
3.91704e-10
4.01554e-10
3.99688e-10
4.09541e-10
4.08765e-10
4.18e-10
4.13902e-10
4.23803e-10
4.22831e-10
4.32969e-10
4.2917e-10
4.38549e-10
4.35915e-10
4.45567e-10
4.42632e-10
4.52407e-10
4.48032e-10
4.57591e-10
4.54421e-10
4.64567e-10
4.6164e-10
4.71329e-10
4.66031e-10
4.75332e-10
4.71373e-10
4.81204e-10
4.77169e-10
4.86385e-10
4.81393e-10
4.90713e-10
4.86894e-10
4.96593e-10
4.92975e-10
5.01309e-10
4.93842e-10
5.02653e-10
4.98003e-10
5.08322e-10
5.01427e-10
5.12583e-10
5.04371e-10
5.14294e-10
4.93107e-10
4.98399e-10
4.62606e-10
5.00098e-10
4.3659e-10
-1.29645e-11
5.44825e-10
7.79815e-10
3.33244e-10
3.96765e-10
4.04012e-10
2.90098e-10
2.81161e-10
3.32401e-10
3.61784e-10
3.81731e-10
3.82023e-10
3.92159e-10
3.9122e-10
4.01025e-10
3.99192e-10
4.09002e-10
4.08339e-10
4.17706e-10
4.136e-10
4.23398e-10
4.22501e-10
4.32731e-10
4.28978e-10
4.3829e-10
4.35741e-10
4.45432e-10
4.42519e-10
4.52337e-10
4.47942e-10
4.57474e-10
4.54333e-10
4.64524e-10
4.61588e-10
4.71381e-10
4.66004e-10
4.75314e-10
4.71295e-10
4.81309e-10
4.77142e-10
4.86553e-10
4.81341e-10
4.90899e-10
4.86786e-10
4.96945e-10
4.92888e-10
5.01956e-10
4.93671e-10
5.03355e-10
4.97513e-10
5.09435e-10
5.00661e-10
5.14127e-10
5.03086e-10
5.16914e-10
4.91235e-10
5.02551e-10
4.59762e-10
5.10884e-10
4.47868e-10
-4.84232e-11
5.91305e-10
8.14966e-10
2.5361e-10
3.69147e-10
4.32518e-10
3.02781e-10
2.80717e-10
3.31759e-10
3.62885e-10
3.82639e-10
3.8215e-10
3.91784e-10
3.90717e-10
4.00457e-10
3.98667e-10
4.08422e-10
4.07876e-10
4.17368e-10
4.1328e-10
4.22968e-10
4.22145e-10
4.32457e-10
4.28774e-10
4.3801e-10
4.3555e-10
4.45277e-10
4.424e-10
4.52251e-10
4.47849e-10
4.57347e-10
4.54235e-10
4.64472e-10
4.61531e-10
4.71425e-10
4.65975e-10
4.75295e-10
4.71204e-10
4.81413e-10
4.77104e-10
4.86724e-10
4.81277e-10
4.91097e-10
4.86654e-10
4.97317e-10
4.92769e-10
5.02636e-10
4.93461e-10
5.0411e-10
4.96948e-10
5.106e-10
4.99806e-10
5.15753e-10
5.01689e-10
5.19627e-10
4.89277e-10
5.06801e-10
4.56933e-10
5.21454e-10
4.6018e-10
-8.6702e-11
6.42159e-10
8.57155e-10
1.68012e-10
3.34172e-10
4.62584e-10
3.18496e-10
2.81205e-10
3.31089e-10
3.64009e-10
3.83639e-10
3.8234e-10
3.91411e-10
3.90196e-10
3.9985e-10
3.98114e-10
4.07804e-10
4.07378e-10
4.16985e-10
4.12942e-10
4.22512e-10
4.21765e-10
4.32145e-10
4.28556e-10
4.3771e-10
4.35341e-10
4.45103e-10
4.42272e-10
4.52148e-10
4.47751e-10
4.57209e-10
4.54129e-10
4.64409e-10
4.61469e-10
4.7146e-10
4.65943e-10
4.75277e-10
4.71101e-10
4.81513e-10
4.77057e-10
4.86897e-10
4.81202e-10
4.91304e-10
4.86498e-10
4.97703e-10
4.92622e-10
5.03326e-10
4.9322e-10
5.04901e-10
4.96326e-10
5.11789e-10
4.98893e-10
5.17416e-10
5.00241e-10
5.22356e-10
4.87333e-10
5.11028e-10
4.54267e-10
5.31589e-10
4.73466e-10
-1.27083e-10
6.95802e-10
9.06323e-10
7.85205e-11
2.91758e-10
4.93058e-10
3.37134e-10
2.82868e-10
3.30424e-10
3.65099e-10
3.84705e-10
3.82592e-10
3.91042e-10
3.8966e-10
3.99205e-10
3.97535e-10
4.07148e-10
4.06846e-10
4.16557e-10
4.12585e-10
4.22034e-10
4.21361e-10
4.31795e-10
4.28324e-10
4.3739e-10
4.35116e-10
4.44908e-10
4.42138e-10
4.52029e-10
4.47649e-10
4.57062e-10
4.54015e-10
4.64334e-10
4.61403e-10
4.71485e-10
4.65907e-10
4.75258e-10
4.70987e-10
4.81606e-10
4.77e-10
4.87069e-10
4.81119e-10
4.91516e-10
4.86326e-10
4.98093e-10
4.92455e-10
5.04019e-10
4.92959e-10
5.05711e-10
4.95669e-10
5.12966e-10
4.97961e-10
5.1906e-10
4.98805e-10
5.25015e-10
4.85514e-10
5.15106e-10
4.51906e-10
5.41149e-10
4.87546e-10
-1.68833e-10
7.50883e-10
9.62047e-10
-1.16385e-11
2.42153e-10
5.22649e-10
3.58424e-10
2.85939e-10
3.29816e-10
3.66086e-10
3.85802e-10
3.82905e-10
3.90682e-10
3.8911e-10
3.98522e-10
3.96929e-10
4.06456e-10
4.06283e-10
4.16083e-10
4.12208e-10
4.21535e-10
4.20936e-10
4.31406e-10
4.28078e-10
4.37051e-10
4.34876e-10
4.44692e-10
4.41996e-10
4.51893e-10
4.47543e-10
4.56906e-10
4.53896e-10
4.64247e-10
4.61335e-10
4.71497e-10
4.65869e-10
4.75237e-10
4.70866e-10
4.8169e-10
4.76937e-10
4.87235e-10
4.81032e-10
4.91728e-10
4.86143e-10
4.98477e-10
4.92277e-10
5.04699e-10
4.92692e-10
5.06515e-10
4.95008e-10
5.14095e-10
4.97054e-10
5.20627e-10
4.97436e-10
5.27509e-10
4.83933e-10
5.18913e-10
4.49985e-10
5.49999e-10
5.02209e-10
-2.11019e-10
8.05017e-10
1.02343e-09
-9.9417e-11
1.86011e-10
5.49981e-10
3.81946e-10
2.90631e-10
3.29332e-10
3.66896e-10
3.86878e-10
3.83275e-10
3.90334e-10
3.88547e-10
3.97803e-10
3.96299e-10
4.05731e-10
4.0569e-10
4.15563e-10
4.11812e-10
4.21016e-10
4.20492e-10
4.30979e-10
4.27816e-10
4.36694e-10
4.34621e-10
4.44453e-10
4.41846e-10
4.51738e-10
4.47433e-10
4.56741e-10
4.53771e-10
4.64145e-10
4.61264e-10
4.71498e-10
4.65828e-10
4.75213e-10
4.70741e-10
4.8176e-10
4.7687e-10
4.87392e-10
4.80945e-10
4.91931e-10
4.85957e-10
4.98845e-10
4.92101e-10
5.05348e-10
4.92438e-10
5.07291e-10
4.94373e-10
5.15137e-10
4.96217e-10
5.22061e-10
4.96255e-10
5.29734e-10
4.82694e-10
5.22325e-10
4.48635e-10
5.58034e-10
5.17227e-10
-2.52506e-10
8.56309e-10
1.08897e-09
-1.81738e-10
1.24443e-10
5.73702e-10
4.07148e-10
2.97127e-10
3.29059e-10
3.67455e-10
3.87873e-10
3.83692e-10
3.90002e-10
3.87973e-10
3.97048e-10
3.95643e-10
4.04972e-10
4.0507e-10
4.15e-10
4.11395e-10
4.20478e-10
4.20029e-10
4.30513e-10
4.27538e-10
4.36318e-10
4.34352e-10
4.44193e-10
4.4169e-10
4.51566e-10
4.4732e-10
4.56568e-10
4.53644e-10
4.64028e-10
4.61192e-10
4.71484e-10
4.65784e-10
4.75183e-10
4.70615e-10
4.81812e-10
4.76801e-10
4.87534e-10
4.80864e-10
4.9212e-10
4.85779e-10
4.99186e-10
4.91938e-10
5.05949e-10
4.92213e-10
5.0801e-10
4.93796e-10
5.16051e-10
4.95499e-10
5.23305e-10
4.95317e-10
5.31603e-10
4.81878e-10
5.25224e-10
4.47972e-10
5.65144e-10
5.32364e-10
-2.91909e-10
9.02634e-10
1.15722e-09
-2.55355e-10
5.86723e-11
5.92454e-10
4.33391e-10
3.05582e-10
3.29109e-10
3.67708e-10
3.88732e-10
3.84144e-10
3.89688e-10
3.87388e-10
3.96255e-10
3.94961e-10
4.04179e-10
4.04422e-10
4.14392e-10
4.10957e-10
4.19921e-10
4.19551e-10
4.30009e-10
4.27243e-10
4.35924e-10
4.3407e-10
4.4391e-10
4.41527e-10
4.51375e-10
4.47205e-10
4.56385e-10
4.53514e-10
4.63893e-10
4.61121e-10
4.71455e-10
4.6574e-10
4.75145e-10
4.70493e-10
4.81842e-10
4.76735e-10
4.87657e-10
4.80797e-10
4.92284e-10
4.85616e-10
4.99485e-10
4.91801e-10
5.06485e-10
4.92038e-10
5.08646e-10
4.93309e-10
5.16797e-10
4.94945e-10
5.24299e-10
4.94686e-10
5.33044e-10
4.81642e-10
5.27501e-10
4.48103e-10
5.71251e-10
5.47386e-10
-3.27991e-10
9.41828e-10
1.22658e-09
-3.17047e-10
-9.91593e-12
6.04998e-10
4.59969e-10
3.1607e-10
3.29594e-10
3.67609e-10
3.89394e-10
3.84611e-10
3.89393e-10
3.86794e-10
3.95427e-10
3.94253e-10
4.03353e-10
4.03749e-10
4.13743e-10
4.10498e-10
4.19345e-10
4.19056e-10
4.29469e-10
4.26931e-10
4.3551e-10
4.33776e-10
4.43604e-10
4.41358e-10
4.51165e-10
4.47089e-10
4.56192e-10
4.53384e-10
4.63741e-10
4.61053e-10
4.7141e-10
4.65697e-10
4.75095e-10
4.70378e-10
4.81845e-10
4.76675e-10
4.87755e-10
4.80749e-10
4.92417e-10
4.85478e-10
4.99733e-10
4.91704e-10
5.06938e-10
4.91932e-10
5.09175e-10
4.92944e-10
5.17343e-10
4.94598e-10
5.24991e-10
4.94425e-10
5.33993e-10
4.82043e-10
5.29066e-10
4.49194e-10
5.7623e-10
5.62175e-10
-3.59443e-10
9.7161e-10
1.29547e-09
-3.63546e-10
-7.98882e-11
6.10254e-10
4.86169e-10
3.28578e-10
3.30602e-10
3.67122e-10
3.89797e-10
3.85071e-10
3.89116e-10
3.86191e-10
3.94563e-10
3.93518e-10
4.02496e-10
4.03051e-10
4.13053e-10
4.10018e-10
4.18751e-10
4.18546e-10
4.28892e-10
4.26601e-10
4.35078e-10
4.33471e-10
4.43275e-10
4.41183e-10
4.50935e-10
4.46973e-10
4.5599e-10
4.53254e-10
4.63569e-10
4.60987e-10
4.71348e-10
4.65657e-10
4.75031e-10
4.70274e-10
4.81819e-10
4.76624e-10
4.87823e-10
4.80727e-10
4.92511e-10
4.85376e-10
4.99919e-10
4.91658e-10
5.07295e-10
4.91913e-10
5.09576e-10
4.92726e-10
5.17662e-10
4.94492e-10
5.25347e-10
4.94582e-10
5.34398e-10
4.83141e-10
5.29862e-10
4.51342e-10
5.79945e-10
5.76857e-10
-3.84963e-10
9.89377e-10
1.36235e-09
-3.91514e-10
-1.49832e-10
6.07334e-10
5.11332e-10
3.42999e-10
3.32174e-10
3.66206e-10
3.89876e-10
3.85492e-10
3.88851e-10
3.85576e-10
3.93662e-10
3.92753e-10
4.01605e-10
4.02326e-10
4.12323e-10
4.09518e-10
4.18139e-10
4.18019e-10
4.2828e-10
4.26255e-10
4.34625e-10
4.33153e-10
4.42924e-10
4.41001e-10
4.50686e-10
4.46857e-10
4.55777e-10
4.53126e-10
4.63378e-10
4.60924e-10
4.71267e-10
4.65622e-10
4.74949e-10
4.70184e-10
4.81759e-10
4.76587e-10
4.87858e-10
4.80739e-10
4.92561e-10
4.85317e-10
5.00036e-10
4.91673e-10
5.07544e-10
4.91998e-10
5.09836e-10
4.92675e-10
5.17738e-10
4.94655e-10
5.2535e-10
4.95187e-10
5.34239e-10
4.84968e-10
5.29869e-10
4.54677e-10
5.8175e-10
5.91893e-10
-4.0312e-10
9.92017e-10
1.42559e-09
-3.97528e-10
-2.18435e-10
5.95458e-10
5.34904e-10
3.59219e-10
3.34344e-10
3.64825e-10
3.89566e-10
3.85841e-10
3.88589e-10
3.84945e-10
3.92718e-10
3.91955e-10
4.00677e-10
4.01568e-10
4.11551e-10
4.08998e-10
4.17508e-10
4.17474e-10
4.27629e-10
4.25891e-10
4.3415e-10
4.32821e-10
4.42549e-10
4.40811e-10
4.50415e-10
4.46744e-10
4.55555e-10
4.53e-10
4.63166e-10
4.60866e-10
4.71165e-10
4.65596e-10
4.74848e-10
4.70112e-10
4.81662e-10
4.76565e-10
4.87855e-10
4.80791e-10
4.9256e-10
4.85307e-10
5.00076e-10
4.91757e-10
5.07674e-10
4.922e-10
5.09941e-10
4.92804e-10
5.17558e-10
4.95097e-10
5.24991e-10
4.96249e-10
5.33505e-10
4.87535e-10
5.29051e-10
4.59464e-10
5.81005e-10
6.08145e-10
-4.12173e-10
9.76072e-10
6.10534e-10
6.01352e-10
4.44198e-10
3.06299e-10
2.82443e-10
3.00614e-10
3.37562e-10
3.5763e-10
3.7868e-10
3.82966e-10
3.95008e-10
3.94659e-10
4.04356e-10
4.02518e-10
4.12323e-10
4.108e-10
4.19122e-10
4.15855e-10
4.26102e-10
4.24599e-10
4.34021e-10
4.30503e-10
4.39929e-10
4.36779e-10
4.46197e-10
4.43286e-10
4.52587e-10
4.48649e-10
4.58093e-10
4.54736e-10
4.64601e-10
4.61769e-10
4.70701e-10
4.6615e-10
4.75275e-10
4.71419e-10
4.80426e-10
4.76986e-10
4.85316e-10
4.81384e-10
4.89682e-10
4.86824e-10
4.94713e-10
4.92551e-10
4.97675e-10
4.93894e-10
4.99335e-10
4.98877e-10
5.02629e-10
5.03515e-10
5.0522e-10
5.08246e-10
5.00848e-10
4.99389e-10
4.76469e-10
4.72984e-10
4.24807e-10
3.63766e-10
2.03356e-10
4.23669e-10
6.18604e-10
6.05886e-10
4.42762e-10
3.04423e-10
2.81417e-10
3.00266e-10
3.37386e-10
3.57556e-10
3.7855e-10
3.82886e-10
3.94887e-10
3.94603e-10
4.04252e-10
4.02479e-10
4.12244e-10
4.10788e-10
4.19052e-10
4.1584e-10
4.2604e-10
4.24607e-10
4.33965e-10
4.30509e-10
4.39879e-10
4.36802e-10
4.46152e-10
4.43311e-10
4.52544e-10
4.48673e-10
4.58051e-10
4.54771e-10
4.64568e-10
4.61809e-10
4.70664e-10
4.66183e-10
4.75242e-10
4.71466e-10
4.80399e-10
4.77039e-10
4.85291e-10
4.81437e-10
4.89666e-10
4.86892e-10
4.94714e-10
4.92629e-10
4.97684e-10
4.93965e-10
4.99364e-10
4.98975e-10
5.02689e-10
5.03624e-10
5.05334e-10
5.08393e-10
5.0105e-10
4.99551e-10
4.76826e-10
4.73379e-10
4.26056e-10
3.64285e-10
1.97649e-10
4.20034e-10
6.2857e-10
6.10929e-10
4.41171e-10
3.02109e-10
2.79937e-10
2.9961e-10
3.37128e-10
3.57399e-10
3.78426e-10
3.82738e-10
3.94764e-10
3.94478e-10
4.04155e-10
4.0238e-10
4.12171e-10
4.10727e-10
4.19013e-10
4.15771e-10
4.25993e-10
4.24566e-10
4.33939e-10
4.30466e-10
4.39855e-10
4.36784e-10
4.46139e-10
4.43292e-10
4.5254e-10
4.48654e-10
4.58047e-10
4.5477e-10
4.64571e-10
4.61811e-10
4.70672e-10
4.66176e-10
4.7525e-10
4.7148e-10
4.80417e-10
4.77061e-10
4.85314e-10
4.81461e-10
4.89698e-10
4.86942e-10
4.94762e-10
4.92699e-10
4.9776e-10
4.94033e-10
4.99447e-10
4.99086e-10
5.02817e-10
5.03753e-10
5.05495e-10
5.0857e-10
5.01322e-10
4.99805e-10
4.77261e-10
4.73843e-10
4.27786e-10
3.66557e-10
1.88839e-10
4.15553e-10
6.40295e-10
6.16093e-10
4.39801e-10
2.99496e-10
2.77793e-10
2.98594e-10
3.36764e-10
3.57221e-10
3.78305e-10
3.82561e-10
3.94617e-10
3.94318e-10
4.04037e-10
4.02245e-10
4.12075e-10
4.10643e-10
4.18977e-10
4.15675e-10
4.25927e-10
4.24501e-10
4.33914e-10
4.30402e-10
4.39827e-10
4.36754e-10
4.46129e-10
4.43259e-10
4.52545e-10
4.48622e-10
4.58048e-10
4.54762e-10
4.64583e-10
4.61804e-10
4.70701e-10
4.66159e-10
4.75268e-10
4.7149e-10
4.80456e-10
4.7708e-10
4.85362e-10
4.81482e-10
4.89754e-10
4.86993e-10
4.94842e-10
4.92777e-10
4.97895e-10
4.94109e-10
4.99575e-10
4.99209e-10
5.03019e-10
5.03888e-10
5.05734e-10
5.08752e-10
5.01737e-10
5.00065e-10
4.77899e-10
4.74291e-10
4.3047e-10
3.7019e-10
1.77391e-10
4.10571e-10
6.52198e-10
6.20198e-10
4.39252e-10
2.97298e-10
2.7512e-10
2.97228e-10
3.36312e-10
3.57064e-10
3.78197e-10
3.82363e-10
3.94432e-10
3.94119e-10
4.03882e-10
4.02075e-10
4.11941e-10
4.10536e-10
4.18933e-10
4.15556e-10
4.25831e-10
4.24417e-10
4.33881e-10
4.30324e-10
4.39783e-10
4.36718e-10
4.46112e-10
4.43221e-10
4.52552e-10
4.48583e-10
4.58044e-10
4.54751e-10
4.64595e-10
4.61797e-10
4.70741e-10
4.6614e-10
4.75285e-10
4.715e-10
4.80505e-10
4.77102e-10
4.85427e-10
4.81504e-10
4.89825e-10
4.87048e-10
4.94947e-10
4.92865e-10
4.98085e-10
4.94189e-10
4.99746e-10
4.99332e-10
5.03298e-10
5.04008e-10
5.06061e-10
5.08903e-10
5.02321e-10
5.00271e-10
4.78792e-10
4.74615e-10
4.34211e-10
3.74918e-10
1.6402e-10
4.05983e-10
6.63146e-10
6.21364e-10
4.39746e-10
2.96346e-10
2.72214e-10
2.95551e-10
3.35801e-10
3.56959e-10
3.78123e-10
3.82152e-10
3.94208e-10
3.93877e-10
4.03687e-10
4.01865e-10
4.11765e-10
4.10403e-10
4.18876e-10
4.15412e-10
4.25699e-10
4.24312e-10
4.33838e-10
4.30232e-10
4.39719e-10
4.36672e-10
4.46088e-10
4.43175e-10
4.52557e-10
4.48539e-10
4.58032e-10
4.54736e-10
4.64605e-10
4.61787e-10
4.70792e-10
4.66119e-10
4.753e-10
4.71509e-10
4.80565e-10
4.77125e-10
4.85508e-10
4.81525e-10
4.89909e-10
4.87101e-10
4.95079e-10
4.92958e-10
4.9833e-10
4.94267e-10
4.9996e-10
4.99439e-10
5.03659e-10
5.04091e-10
5.06488e-10
5.08987e-10
5.03092e-10
5.00363e-10
4.79985e-10
4.74701e-10
4.39069e-10
3.80513e-10
1.49175e-10
4.0328e-10
6.7281e-10
6.17492e-10
4.41045e-10
2.97438e-10
2.69433e-10
2.93619e-10
3.35262e-10
3.56942e-10
3.78108e-10
3.8194e-10
3.93949e-10
3.93593e-10
4.03449e-10
4.01612e-10
4.11541e-10
4.10236e-10
4.18801e-10
4.15242e-10
4.25529e-10
4.24182e-10
4.33781e-10
4.30126e-10
4.39634e-10
4.36615e-10
4.46054e-10
4.4312e-10
4.5256e-10
4.48487e-10
4.5801e-10
4.54715e-10
4.64612e-10
4.61774e-10
4.70853e-10
4.66097e-10
4.75311e-10
4.71513e-10
4.80634e-10
4.77146e-10
4.85605e-10
4.81543e-10
4.90005e-10
4.87148e-10
4.95237e-10
4.93048e-10
4.98632e-10
4.94336e-10
5.00221e-10
4.99511e-10
5.04106e-10
5.04114e-10
5.07025e-10
5.08965e-10
5.04072e-10
5.0028e-10
4.81528e-10
4.74445e-10
4.45086e-10
3.86767e-10
1.32909e-10
4.04147e-10
6.81529e-10
6.06579e-10
4.42515e-10
3.01293e-10
2.67181e-10
2.91501e-10
3.34719e-10
3.57045e-10
3.78172e-10
3.8174e-10
3.9366e-10
3.9327e-10
4.03167e-10
4.01318e-10
4.1127e-10
4.10033e-10
4.18705e-10
4.15048e-10
4.25322e-10
4.24022e-10
4.33707e-10
4.30005e-10
4.39525e-10
4.36543e-10
4.4601e-10
4.43056e-10
4.52558e-10
4.48429e-10
4.57977e-10
4.54687e-10
4.64616e-10
4.61756e-10
4.70921e-10
4.66074e-10
4.75317e-10
4.71511e-10
4.80713e-10
4.77164e-10
4.85715e-10
4.81555e-10
4.90114e-10
4.87183e-10
4.95423e-10
4.93128e-10
4.9899e-10
4.94387e-10
5.00533e-10
4.99533e-10
5.04645e-10
5.04056e-10
5.0769e-10
5.08802e-10
5.05285e-10
4.99967e-10
4.83472e-10
4.73761e-10
4.52258e-10
3.93545e-10
1.14985e-10
4.10134e-10
6.90222e-10
5.86904e-10
4.43214e-10
3.08496e-10
2.6589e-10
2.89273e-10
3.34187e-10
3.57295e-10
3.78337e-10
3.81566e-10
3.93347e-10
3.92912e-10
4.02843e-10
4.00986e-10
4.1095e-10
4.09793e-10
4.18583e-10
4.1483e-10
4.25076e-10
4.23833e-10
4.33612e-10
4.2987e-10
4.3939e-10
4.36456e-10
4.45954e-10
4.42983e-10
4.52549e-10
4.48364e-10
4.5793e-10
4.5465e-10
4.64614e-10
4.61733e-10
4.70994e-10
4.66051e-10
4.75317e-10
4.71499e-10
4.80799e-10
4.77178e-10
4.85838e-10
4.81561e-10
4.90234e-10
4.87202e-10
4.95637e-10
4.93192e-10
4.99402e-10
4.94413e-10
5.00901e-10
4.99488e-10
5.05282e-10
5.03897e-10
5.08495e-10
5.08465e-10
5.06752e-10
4.99378e-10
4.8585e-10
4.72602e-10
4.60523e-10
4.00805e-10
9.49582e-11
4.22484e-10
7.00095e-10
5.57188e-10
4.42042e-10
3.1948e-10
2.66001e-10
2.87013e-10
3.33666e-10
3.57711e-10
3.78618e-10
3.81427e-10
3.93016e-10
3.92523e-10
4.02477e-10
4.00617e-10
4.10584e-10
4.09515e-10
4.18431e-10
4.14592e-10
4.24793e-10
4.23614e-10
4.33493e-10
4.29723e-10
4.3923e-10
4.36353e-10
4.45884e-10
4.42901e-10
4.52529e-10
4.48294e-10
4.5787e-10
4.54604e-10
4.64607e-10
4.61704e-10
4.71067e-10
4.66028e-10
4.75312e-10
4.71477e-10
4.80892e-10
4.77186e-10
4.85971e-10
4.81558e-10
4.90366e-10
4.87202e-10
4.9588e-10
4.93232e-10
4.99867e-10
4.94407e-10
5.01332e-10
4.99363e-10
5.06021e-10
5.03619e-10
5.09455e-10
5.07931e-10
5.08483e-10
4.98488e-10
4.88672e-10
4.7096e-10
4.69739e-10
4.08618e-10
7.23735e-11
4.41962e-10
7.12598e-10
5.16702e-10
4.37771e-10
3.34467e-10
2.67947e-10
2.84817e-10
3.33146e-10
3.583e-10
3.79026e-10
3.81332e-10
3.92671e-10
3.92108e-10
4.02071e-10
4.00214e-10
4.10173e-10
4.09199e-10
4.18247e-10
4.14335e-10
4.24475e-10
4.23364e-10
4.33346e-10
4.29563e-10
4.39045e-10
4.36232e-10
4.458e-10
4.4281e-10
4.52498e-10
4.48218e-10
4.57795e-10
4.54548e-10
4.64593e-10
4.6167e-10
4.71138e-10
4.66005e-10
4.75303e-10
4.71443e-10
4.8099e-10
4.77186e-10
4.86113e-10
4.81544e-10
4.90511e-10
4.87177e-10
4.96152e-10
4.93244e-10
5.00383e-10
4.94364e-10
5.0183e-10
4.99147e-10
5.06862e-10
5.03214e-10
5.10572e-10
5.07187e-10
5.10475e-10
4.97293e-10
4.9192e-10
4.6887e-10
4.79717e-10
4.17121e-10
4.67827e-11
4.6884e-10
7.29132e-10
4.65281e-10
4.29184e-10
3.53455e-10
2.72135e-10
2.82804e-10
3.32615e-10
3.59057e-10
3.79567e-10
3.81287e-10
3.92314e-10
3.91668e-10
4.01625e-10
3.9978e-10
4.09719e-10
4.08845e-10
4.18027e-10
4.1406e-10
4.24124e-10
4.23086e-10
4.33169e-10
4.2939e-10
4.38834e-10
4.36094e-10
4.457e-10
4.42712e-10
4.52454e-10
4.48136e-10
4.57707e-10
4.54482e-10
4.64571e-10
4.61631e-10
4.71206e-10
4.65982e-10
4.7529e-10
4.71395e-10
4.81092e-10
4.77178e-10
4.86264e-10
4.81518e-10
4.9067e-10
4.87127e-10
4.96454e-10
4.93224e-10
5.00947e-10
4.94276e-10
5.02396e-10
4.98835e-10
5.07803e-10
5.02676e-10
5.11845e-10
5.06235e-10
5.1271e-10
4.95814e-10
4.95547e-10
4.66409e-10
4.90216e-10
4.26465e-10
1.79235e-11
5.0294e-10
7.51067e-10
4.03292e-10
4.15089e-10
3.7619e-10
2.78924e-10
2.81127e-10
3.32057e-10
3.59965e-10
3.80242e-10
3.81298e-10
3.9195e-10
3.91207e-10
4.01138e-10
3.99315e-10
4.09222e-10
4.08454e-10
4.17768e-10
4.13767e-10
4.23743e-10
4.22778e-10
4.32959e-10
4.29206e-10
4.38599e-10
4.35938e-10
4.45582e-10
4.42605e-10
4.52395e-10
4.4805e-10
4.57605e-10
4.54407e-10
4.64542e-10
4.61587e-10
4.71268e-10
4.65958e-10
4.75274e-10
4.71332e-10
4.81197e-10
4.77161e-10
4.86422e-10
4.81478e-10
4.90843e-10
4.87048e-10
4.96783e-10
4.93169e-10
5.01554e-10
4.94144e-10
5.0303e-10
4.98427e-10
5.08833e-10
5.02011e-10
5.13258e-10
5.05092e-10
5.15154e-10
4.94097e-10
4.99482e-10
4.63689e-10
5.01e-10
4.36747e-10
-1.43474e-11
5.43736e-10
7.7937e-10
3.31703e-10
3.94559e-10
4.02179e-10
2.88578e-10
2.79962e-10
3.31462e-10
3.60995e-10
3.81044e-10
3.8137e-10
3.9158e-10
3.90725e-10
4.00613e-10
3.98821e-10
4.08684e-10
4.08027e-10
4.17468e-10
4.13458e-10
4.23333e-10
4.22444e-10
4.32715e-10
4.2901e-10
4.38341e-10
4.35765e-10
4.45446e-10
4.42492e-10
4.52321e-10
4.47959e-10
4.57492e-10
4.54322e-10
4.64503e-10
4.61538e-10
4.71323e-10
4.65933e-10
4.75257e-10
4.71256e-10
4.81303e-10
4.77134e-10
4.86587e-10
4.81425e-10
4.91029e-10
4.86942e-10
4.97137e-10
4.9308e-10
5.02197e-10
4.93967e-10
5.03726e-10
4.9793e-10
5.09936e-10
5.01232e-10
5.1479e-10
5.03789e-10
5.17756e-10
4.92206e-10
5.03628e-10
4.60837e-10
5.11804e-10
4.48041e-10
-4.98556e-11
5.90269e-10
8.14645e-10
2.52127e-10
3.66957e-10
4.30677e-10
3.01242e-10
2.79507e-10
3.30825e-10
3.62103e-10
3.81961e-10
3.81503e-10
3.91209e-10
3.90225e-10
4.00049e-10
3.98299e-10
4.08107e-10
4.07565e-10
4.17126e-10
4.13132e-10
4.22898e-10
4.22084e-10
4.32435e-10
4.28801e-10
4.38061e-10
4.35574e-10
4.45292e-10
4.42371e-10
4.52232e-10
4.47863e-10
4.57366e-10
4.54227e-10
4.64455e-10
4.61484e-10
4.7137e-10
4.65905e-10
4.7524e-10
4.71166e-10
4.81408e-10
4.77096e-10
4.86756e-10
4.81358e-10
4.91227e-10
4.86809e-10
4.9751e-10
4.9296e-10
5.02869e-10
4.9375e-10
5.04472e-10
4.97355e-10
5.11091e-10
5.00363e-10
5.16404e-10
5.02375e-10
5.2045e-10
4.90228e-10
5.07871e-10
4.58002e-10
5.22393e-10
4.60376e-10
-8.81946e-11
6.41159e-10
8.56948e-10
1.66606e-10
3.32024e-10
4.60749e-10
3.16939e-10
2.79979e-10
3.30156e-10
3.63233e-10
3.8297e-10
3.81701e-10
3.90839e-10
3.89707e-10
3.99447e-10
3.9775e-10
4.07491e-10
4.07069e-10
4.16741e-10
4.12788e-10
4.22438e-10
4.21699e-10
4.32117e-10
4.28579e-10
4.37759e-10
4.35366e-10
4.45117e-10
4.42243e-10
4.52126e-10
4.47763e-10
4.57231e-10
4.54125e-10
4.64396e-10
4.61426e-10
4.71407e-10
4.65875e-10
4.75223e-10
4.71063e-10
4.81509e-10
4.77048e-10
4.86927e-10
4.8128e-10
4.91433e-10
4.86654e-10
4.97896e-10
4.92812e-10