/*--------------------------------*- C++ -*----------------------------------*\
| =========                 |                                                 |
| \\      /  F ield         | OpenFOAM: The Open Source CFD Toolbox           |
|  \\    /   O peration     | Version:  2312                                  |
|   \\  /    A nd           | Website:  www.openfoam.com                      |
|    \\/     M anipulation  |                                                 |
\*---------------------------------------------------------------------------*/
FoamFile
{
    version     2.0;
    format      ascii;
    arch        "LSB;label=32;scalar=64";
    class       volScalarField;
    location    "900";
    object      pMean;
}
// * * * * * * * * * * * * * * * * * * * * * * * * * * * * * * * * * * * * * //

dimensions      [0 2 -2 0 0 0 0];

internalField   nonuniform List<scalar> 
144000
(
1.31243e-09
1.22692e-09
4.25034e-10
-1.069e-10
-1.02973e-10
5.76322e-11
2.39677e-10
3.44541e-10
4.37391e-10
4.68126e-10
5.14671e-10
5.18835e-10
5.51414e-10
5.4584e-10
5.74611e-10
5.66047e-10
5.89478e-10
5.73738e-10
5.98469e-10
5.84964e-10
6.08884e-10
5.90768e-10
6.14828e-10
5.97196e-10
6.21997e-10
6.03732e-10
6.28002e-10
6.06867e-10
6.31898e-10
6.11495e-10
6.37947e-10
6.17744e-10
6.42668e-10
6.18135e-10
6.43966e-10
6.21332e-10
6.47963e-10
6.25379e-10
6.51074e-10
6.26741e-10
6.52738e-10
6.30643e-10
6.56471e-10
6.35045e-10
6.55058e-10
6.29911e-10
6.49609e-10
6.33129e-10
6.50206e-10
6.39606e-10
6.521e-10
6.53672e-10
6.49657e-10
6.60142e-10
6.23098e-10
6.61828e-10
6.06705e-10
6.40738e-10
-3.65933e-10
2.18053e-10
1.33854e-09
1.2428e-09
4.18408e-10
-1.1241e-10
-1.04725e-10
5.76525e-11
2.3966e-10
3.44502e-10
4.37071e-10
4.6784e-10
5.14265e-10
5.1859e-10
5.51074e-10
5.45657e-10
5.74334e-10
5.65947e-10
5.89239e-10
5.73636e-10
5.98246e-10
5.84928e-10
6.08691e-10
5.90736e-10
6.14645e-10
5.97206e-10
6.21835e-10
6.03763e-10
6.27842e-10
6.06897e-10
6.31741e-10
6.11554e-10
6.37806e-10
6.17828e-10
6.42523e-10
6.18201e-10
6.43815e-10
6.2144e-10
6.47826e-10
6.25505e-10
6.50935e-10
6.26868e-10
6.52603e-10
6.30806e-10
6.56365e-10
6.3525e-10
6.54953e-10
6.30097e-10
6.49506e-10
6.33387e-10
6.50145e-10
6.39882e-10
6.52103e-10
6.54001e-10
6.4979e-10
6.60393e-10
6.23368e-10
6.61705e-10
6.09888e-10
6.49851e-10
-3.81952e-10
1.97242e-10
1.38445e-09
1.25327e-09
4.02104e-10
-1.18477e-10
-1.05247e-10
5.84586e-11
2.40203e-10
3.44661e-10
4.37042e-10
4.67496e-10
5.13907e-10
5.1816e-10
5.50762e-10
5.45278e-10
5.74078e-10
5.65676e-10
5.89086e-10
5.73356e-10
5.98069e-10
5.84722e-10
6.08591e-10
5.90532e-10
6.14545e-10
5.97061e-10
6.21776e-10
6.0364e-10
6.27806e-10
6.06769e-10
6.317e-10
6.11459e-10
6.37786e-10
6.17762e-10
6.42533e-10
6.1811e-10
6.43795e-10
6.214e-10
6.47839e-10
6.25485e-10
6.50964e-10
6.26851e-10
6.5262e-10
6.30833e-10
6.56418e-10
6.35344e-10
6.5506e-10
6.30176e-10
6.49573e-10
6.33547e-10
6.50301e-10
6.40038e-10
6.52306e-10
6.54187e-10
6.50216e-10
6.60494e-10
6.24191e-10
6.60084e-10
6.1409e-10
6.68441e-10
-4.16391e-10
1.77264e-10
1.44386e-09
1.245e-09
3.78489e-10
-1.21229e-10
-1.04187e-10
6.03714e-11
2.41579e-10
3.45478e-10
4.37483e-10
4.6734e-10
5.1358e-10
5.17676e-10
5.50411e-10
5.44817e-10
5.73751e-10
5.6534e-10
5.88923e-10
5.72999e-10
5.9782e-10
5.84443e-10
6.08476e-10
5.9027e-10
6.14404e-10
5.96863e-10
6.21704e-10
6.03478e-10
6.27775e-10
6.06598e-10
6.31646e-10
6.11324e-10
6.37768e-10
6.17672e-10
6.4258e-10
6.17988e-10
6.43771e-10
6.21332e-10
6.47877e-10
6.25448e-10
6.51035e-10
6.26807e-10
6.52664e-10
6.3083e-10
6.56527e-10
6.35427e-10
6.55301e-10
6.30219e-10
6.4973e-10
6.3365e-10
6.5063e-10
6.40086e-10
6.52735e-10
6.54137e-10
6.51172e-10
6.59983e-10
6.26121e-10
6.55863e-10
6.22585e-10
6.89429e-10
-4.66097e-10
1.72335e-10
1.50593e-09
1.2035e-09
3.5084e-10
-1.13661e-10
-9.98312e-11
6.33511e-11
2.43695e-10
3.47054e-10
4.38512e-10
4.6749e-10
5.13303e-10
5.17169e-10
5.49989e-10
5.4429e-10
5.73318e-10
5.64948e-10
5.88714e-10
5.72583e-10
5.97454e-10
5.84105e-10
6.08307e-10
5.89966e-10
6.14178e-10
5.9663e-10
6.21576e-10
6.03299e-10
6.27707e-10
6.06413e-10
6.3153e-10
6.11173e-10
6.37704e-10
6.17585e-10
6.42619e-10
6.17867e-10
6.43693e-10
6.21261e-10
6.47893e-10
6.25422e-10
6.51104e-10
6.26766e-10
6.52687e-10
6.30818e-10
6.56652e-10
6.35528e-10
6.55629e-10
6.3025e-10
6.49932e-10
6.33678e-10
6.51121e-10
6.39951e-10
6.53436e-10
6.53704e-10
6.52795e-10
6.58622e-10
6.2942e-10
6.48945e-10
6.35788e-10
7.08048e-10
-5.25584e-10
1.95282e-10
1.56632e-09
1.11785e-09
3.20057e-10
-9.03094e-11
-9.04356e-11
6.70014e-11
2.46257e-10
3.49301e-10
4.40112e-10
4.6794e-10
5.13078e-10
5.16635e-10
5.49497e-10
5.43702e-10
5.7278e-10
5.645e-10
5.88454e-10
5.72119e-10
5.96974e-10
5.83709e-10
6.0808e-10
5.89628e-10
6.13861e-10
5.96359e-10
6.21385e-10
6.03104e-10
6.27597e-10
6.06215e-10
6.31347e-10
6.11006e-10
6.37587e-10
6.17502e-10
6.42643e-10
6.17755e-10
6.43552e-10
6.21187e-10
6.47878e-10
6.25408e-10
6.51159e-10
6.26731e-10
6.52679e-10
6.30794e-10
6.56781e-10
6.35633e-10
6.5604e-10
6.30258e-10
6.5019e-10
6.33586e-10
6.51799e-10
6.39568e-10
6.54461e-10
6.52753e-10
6.55214e-10
6.56154e-10
6.34394e-10
6.39219e-10
6.53902e-10
7.22405e-10
-5.93345e-10
2.54154e-10
1.62689e-09
9.82282e-10
2.83436e-10
-4.77927e-11
-7.40261e-11
7.10814e-11
2.48882e-10
3.52098e-10
4.42223e-10
4.68659e-10
5.12859e-10
5.16061e-10
5.48914e-10
5.43041e-10
5.72126e-10
5.63988e-10
5.88134e-10
5.71618e-10
5.96385e-10
5.83257e-10
6.07793e-10
5.8927e-10
6.13457e-10
5.96055e-10
6.21134e-10
6.02899e-10
6.27441e-10
6.06017e-10
6.31096e-10
6.10827e-10
6.37417e-10
6.17426e-10
6.42642e-10
6.17661e-10
6.43345e-10
6.21109e-10
6.47826e-10
6.25405e-10
6.51195e-10
6.26705e-10
6.52636e-10
6.30753e-10
6.56908e-10
6.3573e-10
6.56531e-10
6.30224e-10
6.50516e-10
6.33332e-10
6.52679e-10
6.38875e-10
6.55882e-10
6.51163e-10
6.58545e-10
6.52387e-10
6.41238e-10
6.26708e-10
6.76521e-10
7.32618e-10
-6.70244e-10
3.52433e-10
1.69116e-09
7.95731e-10
2.3745e-10
1.51976e-11
-4.88799e-11
7.5506e-11
2.5122e-10
3.55299e-10
4.4476e-10
4.69573e-10
5.12602e-10
5.15401e-10
5.48201e-10
5.42289e-10
5.71339e-10
5.63395e-10
5.87733e-10
5.71081e-10
5.95687e-10
5.82746e-10
6.07437e-10
5.88898e-10
6.12969e-10
5.95723e-10
6.20821e-10
6.02693e-10
6.27237e-10
6.05826e-10
6.30778e-10
6.10642e-10
6.37194e-10
6.17365e-10
6.42612e-10
6.17596e-10
6.43076e-10
6.21031e-10
6.47736e-10
6.25418e-10
6.51204e-10
6.26691e-10
6.52559e-10
6.30689e-10
6.57041e-10
6.35806e-10
6.57098e-10
6.30135e-10
6.50937e-10
6.32866e-10
6.53792e-10
6.37811e-10
6.57753e-10
6.48856e-10
6.62825e-10
6.47312e-10
6.49871e-10
6.11931e-10
7.02346e-10
7.39797e-10
-7.56109e-10
4.88856e-10
1.76322e-09
5.63157e-10
1.78273e-10
9.75533e-11
-1.35583e-11
8.04511e-11
2.5296e-10
3.58749e-10
4.47657e-10
4.70651e-10
5.12263e-10
5.14622e-10
5.47324e-10
5.41423e-10
5.70401e-10
5.62704e-10
5.87224e-10
5.70503e-10
5.94876e-10
5.82174e-10
6.06997e-10
5.88513e-10
6.12394e-10
5.95364e-10
6.20443e-10
6.02488e-10
6.26979e-10
6.05651e-10
6.30396e-10
6.10458e-10
6.36918e-10
6.17325e-10
6.42546e-10
6.17568e-10
6.4275e-10
6.20955e-10
6.47605e-10
6.2545e-10
6.51187e-10
6.26687e-10
6.52457e-10
6.30601e-10
6.57187e-10
6.35846e-10
6.57745e-10
6.29973e-10
6.51472e-10
6.32164e-10
6.55149e-10
6.36356e-10
6.60073e-10
6.45828e-10
6.67976e-10
6.4111e-10
6.59919e-10
5.95799e-10
7.29556e-10
7.45717e-10
-8.49798e-10
6.5655e-10
1.84533e-09
2.943e-10
1.03331e-10
1.96029e-10
3.26542e-11
8.62746e-11
2.53851e-10
3.62271e-10
4.50843e-10
4.71857e-10
5.11817e-10
5.13694e-10
5.46259e-10
5.40432e-10
5.693e-10
5.61899e-10
5.86582e-10
5.69874e-10
5.9395e-10
5.81535e-10
6.06458e-10
5.8811e-10
6.11731e-10
5.94977e-10
6.19994e-10
6.02284e-10
6.26661e-10
6.0549e-10
6.2995e-10
6.10277e-10
6.3659e-10
6.17303e-10
6.42437e-10
6.17578e-10
6.42374e-10
6.20881e-10
6.47436e-10
6.25498e-10
6.51144e-10
6.2669e-10
6.52338e-10
6.30481e-10
6.57352e-10
6.35837e-10
6.5847e-10
6.29725e-10
6.52139e-10
6.31224e-10
6.56737e-10
6.34524e-10
6.62795e-10
6.42191e-10
6.738e-10
6.34146e-10
6.7078e-10
5.79516e-10
7.56029e-10
7.52246e-10
-9.48481e-10
8.45502e-10
1.93797e-09
2.08211e-12
1.14955e-11
3.05499e-10
8.97063e-11
9.34627e-11
2.5374e-10
3.65667e-10
4.54233e-10
4.73163e-10
5.11243e-10
5.12615e-10
5.44998e-10
5.3931e-10
5.6803e-10
5.60971e-10
5.85791e-10
5.69188e-10
5.92909e-10
5.80824e-10
6.0581e-10
5.87686e-10
6.1098e-10
5.94558e-10
6.19469e-10
6.02078e-10
6.26277e-10
6.05342e-10
6.29444e-10
6.10099e-10
6.36209e-10
6.173e-10
6.42281e-10
6.17622e-10
6.41956e-10
6.20807e-10
6.4723e-10
6.25555e-10
6.51078e-10
6.26693e-10
6.52212e-10
6.30325e-10
6.5754e-10
6.35773e-10
6.59263e-10
6.29393e-10
6.52932e-10
6.30065e-10
6.58511e-10
6.32379e-10
6.65826e-10
6.38121e-10
6.79998e-10
6.26894e-10
6.8172e-10
5.64326e-10
7.7986e-10
7.60886e-10
-1.04795e-09
1.04366e-09
2.0391e-09
-2.98085e-10
-9.65073e-11
4.20034e-10
1.56638e-10
1.02556e-10
2.52586e-10
3.68719e-10
4.5772e-10
4.74535e-10
5.10541e-10
5.11386e-10
5.43538e-10
5.38054e-10
5.66588e-10
5.5992e-10
5.84839e-10
5.68441e-10
5.91754e-10
5.80043e-10
6.05042e-10
5.87235e-10
6.10143e-10
5.94107e-10
6.18864e-10
6.01866e-10
6.25823e-10
6.05204e-10
6.28879e-10
6.09922e-10
6.35776e-10
6.17311e-10
6.42075e-10
6.17695e-10
6.41504e-10
6.20731e-10
6.4699e-10
6.25619e-10
6.50987e-10
6.26694e-10
6.52084e-10
6.30136e-10
6.57745e-10
6.35656e-10
6.60106e-10
6.28989e-10
6.53829e-10
6.28728e-10
6.60402e-10
6.30015e-10
6.69017e-10
6.33855e-10
6.86221e-10
6.19878e-10
6.92005e-10
5.51334e-10
7.99556e-10
7.7254e-10
-1.14298e-09
1.23901e-09
2.14531e-09
-5.91667e-10
-2.18564e-10
5.33366e-10
2.31791e-10
1.14168e-10
2.50521e-10
3.71233e-10
4.61176e-10
4.75948e-10
5.0972e-10
5.10018e-10
5.41884e-10
5.36668e-10
5.6498e-10
5.58748e-10
5.83724e-10
5.67631e-10
5.90494e-10
5.79194e-10
6.04152e-10
5.8675e-10
6.09222e-10
5.93623e-10
6.18177e-10
6.01643e-10
6.25298e-10
6.05069e-10
6.2826e-10
6.09744e-10
6.3529e-10
6.17331e-10
6.41817e-10
6.17791e-10
6.41022e-10
6.20652e-10
6.46714e-10
6.25683e-10
6.50872e-10
6.26691e-10
6.51953e-10
6.29919e-10
6.57961e-10
6.35491e-10
6.60973e-10
6.28534e-10
6.54798e-10
6.27274e-10
6.62319e-10
6.27568e-10
6.72192e-10
6.29654e-10
6.92104e-10
6.13602e-10
7.00982e-10
5.41391e-10
8.14323e-10
7.87284e-10
-1.22839e-09
1.42121e-09
2.25157e-09
-8.66511e-10
-3.5073e-10
6.39797e-10
3.12921e-10
1.28862e-10
2.47822e-10
3.73033e-10
4.64464e-10
4.77377e-10
5.08799e-10
5.08527e-10
5.40045e-10
5.35158e-10
5.63215e-10
5.57463e-10
5.82451e-10
5.66758e-10
5.89137e-10
5.78282e-10
6.0314e-10
5.86229e-10
6.08224e-10
5.93106e-10
6.1741e-10
6.01409e-10
6.24702e-10
6.04935e-10
6.27591e-10
6.09566e-10
6.34755e-10
6.17357e-10
6.41506e-10
6.17903e-10
6.40516e-10
6.20569e-10
6.46398e-10
6.25747e-10
6.5073e-10
6.26686e-10
6.51817e-10
6.29682e-10
6.58173e-10
6.35296e-10
6.61832e-10
6.28063e-10
6.55787e-10
6.25783e-10
6.64161e-10
6.25176e-10
6.75167e-10
6.25782e-10
6.97313e-10
6.08486e-10
7.08175e-10
5.34996e-10
8.23936e-10
8.0452e-10
-1.29981e-09
1.58227e-09
2.35235e-09
-1.11224e-09
-4.879e-10
7.34483e-10
3.97386e-10
1.4704e-10
2.44861e-10
3.73977e-10
4.6742e-10
4.78788e-10
5.07797e-10
5.06933e-10
5.38036e-10
5.33532e-10
5.61306e-10
5.56074e-10
5.81022e-10
5.65821e-10
5.8769e-10
5.77313e-10
6.02009e-10
5.85669e-10
6.07153e-10
5.92561e-10
6.16564e-10
6.0116e-10
6.24037e-10
6.04798e-10
6.26876e-10
6.09387e-10
6.3417e-10
6.17385e-10
6.41143e-10
6.18027e-10
6.3999e-10
6.20486e-10
6.46044e-10
6.25809e-10
6.50557e-10
6.26681e-10
6.51669e-10
6.29441e-10
6.5836e-10
6.35092e-10
6.62645e-10
6.27614e-10
6.56735e-10
6.24342e-10
6.65824e-10
6.22982e-10
6.77766e-10
6.22473e-10
7.01572e-10
6.0484e-10
7.13295e-10
5.3233e-10
8.28605e-10
8.23177e-10
-1.35357e-09
1.71643e-09
2.44204e-09
-1.32127e-09
-6.24565e-10
8.13768e-10
4.82352e-10
1.68896e-10
2.42071e-10
3.73963e-10
4.69878e-10
4.80135e-10
5.06733e-10
5.05257e-10
5.35869e-10
5.31801e-10
5.59261e-10
5.54589e-10
5.79444e-10
5.64823e-10
5.86163e-10
5.76292e-10
6.00764e-10
5.85069e-10
6.06014e-10
5.91989e-10
6.15642e-10
6.00893e-10
6.23306e-10
6.04657e-10
6.26119e-10
6.09208e-10
6.33537e-10
6.17413e-10
6.40727e-10
6.1816e-10
6.39445e-10
6.20405e-10
6.45649e-10
6.25872e-10
6.50346e-10
6.26684e-10
6.515e-10
6.29211e-10
6.585e-10
6.34904e-10
6.63373e-10
6.27229e-10
6.57582e-10
6.23039e-10
6.67207e-10
6.21116e-10
6.79835e-10
6.19916e-10
7.04688e-10
6.02849e-10
7.16241e-10
5.33289e-10
8.28934e-10
8.42128e-10
-1.38704e-09
1.82019e-09
2.51563e-09
-1.48877e-09
-7.55223e-10
8.7518e-10
5.65002e-10
1.94437e-10
2.39933e-10
3.7296e-10
4.71677e-10
4.81362e-10
5.05625e-10
5.03521e-10
5.33559e-10
5.29973e-10
5.57094e-10
5.53019e-10
5.7773e-10
5.63767e-10
5.84563e-10
5.75228e-10
5.99413e-10
5.84427e-10
6.04814e-10
5.91393e-10
6.14648e-10
6.00606e-10
6.22514e-10
6.04511e-10
6.25325e-10
6.09029e-10
6.32859e-10
6.17439e-10
6.4026e-10
6.183e-10
6.38881e-10
6.20331e-10
6.45207e-10
6.25937e-10
6.50092e-10
6.26705e-10
6.51295e-10
6.29012e-10
6.58572e-10
6.34758e-10
6.63976e-10
6.26954e-10
6.5827e-10
6.21954e-10
6.68223e-10
6.19685e-10
6.81253e-10
6.18241e-10
7.06549e-10
6.02572e-10
7.17091e-10
5.37557e-10
8.25769e-10
8.60078e-10
-1.39873e-09
1.89246e-09
2.56918e-09
-1.61246e-09
-8.7504e-10
9.17454e-10
6.42792e-10
2.23459e-10
2.38921e-10
3.70995e-10
4.72672e-10
4.82409e-10
5.0449e-10
5.01751e-10
5.31125e-10
5.28057e-10
5.54817e-10
5.51371e-10
5.75889e-10
5.62657e-10
5.82899e-10
5.74126e-10
5.97963e-10
5.83744e-10
6.03558e-10
5.90778e-10
6.13587e-10
6.003e-10
6.21665e-10
6.04358e-10
6.24495e-10
6.08853e-10
6.32137e-10
6.17461e-10
6.39742e-10
6.18445e-10
6.38297e-10
6.20268e-10
6.44717e-10
6.26011e-10
6.49787e-10
6.26754e-10
6.51043e-10
6.28862e-10
6.58552e-10
6.3468e-10
6.64417e-10
6.26832e-10
6.58749e-10
6.21155e-10
6.688e-10
6.18768e-10
6.81944e-10
6.17529e-10
7.07123e-10
6.03966e-10
7.1606e-10
5.44657e-10
8.20089e-10
8.75767e-10
-1.38833e-09
1.93385e-09
2.59937e-09
-1.69227e-09
-9.7953e-10
9.40516e-10
7.13456e-10
2.55541e-10
2.39451e-10
3.68144e-10
4.72735e-10
4.83211e-10
5.0334e-10
4.99969e-10
5.28584e-10
5.26063e-10
5.5244e-10
5.49657e-10
5.73933e-10
5.61495e-10
5.81179e-10
5.72993e-10
5.96423e-10
5.83021e-10
6.0225e-10
5.90145e-10
6.12464e-10
5.99974e-10
6.20761e-10
6.04199e-10
6.23634e-10
6.0868e-10
6.31375e-10
6.17481e-10
6.39174e-10
6.18596e-10
6.37693e-10
6.20222e-10
6.44174e-10
6.26098e-10
6.49423e-10
6.2684e-10
6.50733e-10
6.2878e-10
6.58419e-10
6.34697e-10
6.64667e-10
6.26896e-10
6.58977e-10
6.20694e-10
6.68896e-10
6.18428e-10
6.81869e-10
6.17793e-10
7.06455e-10
6.06905e-10
7.13451e-10
5.54048e-10
8.12766e-10
8.88287e-10
-1.35612e-09
1.946e-09
2.60395e-09
-1.72932e-09
-1.065e-09
9.45045e-10
7.75146e-10
2.90081e-10
2.41844e-10
3.64522e-10
4.7176e-10
4.83694e-10
5.02177e-10
4.98195e-10
5.25952e-10
5.23996e-10
5.49973e-10
5.47885e-10
5.71875e-10
5.60285e-10
5.7941e-10
5.71834e-10
5.94802e-10
5.82259e-10
6.00894e-10
5.89498e-10
6.11285e-10
5.99628e-10
6.19809e-10
6.04034e-10
6.22745e-10
6.08512e-10
6.30573e-10
6.17498e-10
6.38558e-10
6.18754e-10
6.37065e-10
6.20199e-10
6.43576e-10
6.26203e-10
6.48995e-10
6.26974e-10
6.5035e-10
6.28782e-10
6.58155e-10
6.34828e-10
6.64702e-10
6.27174e-10
6.58923e-10
6.20606e-10
6.68488e-10
6.1868e-10
6.81036e-10
6.19018e-10
7.04645e-10
6.11203e-10
7.09582e-10
5.65184e-10
8.04581e-10
8.97122e-10
-1.30305e-09
1.93098e-09
2.58157e-09
-1.7256e-09
-1.12867e-09
9.32387e-10
8.26473e-10
3.2636e-10
2.46315e-10
3.60278e-10
4.69677e-10
4.83786e-10
5.00996e-10
4.96445e-10
5.23244e-10
5.21862e-10
5.47423e-10
5.46059e-10
5.69725e-10
5.59032e-10
5.77597e-10
5.70653e-10
5.93108e-10
5.81458e-10
5.99494e-10
5.88837e-10
6.10053e-10
5.99263e-10
6.18811e-10
6.03863e-10
6.21829e-10
6.08351e-10
6.29734e-10
6.17515e-10
6.37895e-10
6.18921e-10
6.36411e-10
6.20201e-10
6.42919e-10
6.26333e-10
6.48497e-10
6.27165e-10
6.49886e-10
6.28881e-10
6.57749e-10
6.35091e-10
6.64511e-10
6.27681e-10
6.58569e-10
6.20904e-10
6.67577e-10
6.19513e-10
6.79484e-10
6.21126e-10
7.01836e-10
6.16661e-10
7.04811e-10
5.77554e-10
7.96028e-10
9.02136e-10
-1.23034e-09
1.89092e-09
2.5321e-09
-1.68389e-09
-1.16901e-09
9.04393e-10
8.66638e-10
3.63601e-10
2.5296e-10
3.55579e-10
4.66459e-10
4.83421e-10
4.99787e-10
4.94731e-10
5.20474e-10
5.19668e-10
5.44797e-10
5.44187e-10
5.67496e-10
5.5774e-10
5.75744e-10
5.69452e-10
5.91351e-10
5.80621e-10
5.98054e-10
5.88164e-10
6.08773e-10
5.98878e-10
6.17773e-10
6.03689e-10
6.20889e-10
6.08198e-10
6.28858e-10
6.1753e-10
6.37189e-10
6.19098e-10
6.35728e-10
6.20234e-10
6.42203e-10
6.26492e-10
6.47926e-10
6.2742e-10
6.49334e-10
6.29086e-10
6.57193e-10
6.35494e-10
6.64087e-10
6.28427e-10
6.57914e-10
6.21588e-10
6.66185e-10
6.20896e-10
6.77281e-10
6.24017e-10
6.98204e-10
6.23046e-10
6.99458e-10
5.90737e-10
7.87369e-10
9.03475e-10
-1.13955e-09
1.82812e-09
2.45622e-09
-1.60798e-09
-1.18558e-09
8.63314e-10
8.95531e-10
4.01021e-10
2.61732e-10
3.50588e-10
4.62112e-10
4.82547e-10
4.98538e-10
4.93061e-10
5.17657e-10
5.17421e-10
5.42104e-10
5.42269e-10
5.65198e-10
5.56414e-10
5.73858e-10
5.68233e-10
5.89536e-10
5.7975e-10
5.96576e-10
5.8748e-10
6.07451e-10
5.98475e-10
6.16698e-10
6.03511e-10
6.19927e-10
6.08053e-10
6.2795e-10
6.17545e-10
6.36441e-10
6.19289e-10
6.35017e-10
6.20298e-10
6.41426e-10
6.26683e-10
6.47281e-10
6.27745e-10
6.48693e-10
6.29402e-10
6.56487e-10
6.36039e-10
6.63436e-10
6.29408e-10
6.56973e-10
6.22639e-10
6.64359e-10
6.22778e-10
6.74523e-10
6.27569e-10
6.93941e-10
6.30124e-10
6.93815e-10
6.0441e-10
7.7854e-10
9.01537e-10
-1.03227e-09
1.74495e-09
2.35576e-09
-1.5021e-09
-1.17928e-09
8.11583e-10
9.13674e-10
4.3792e-10
2.72467e-10
3.45428e-10
4.56656e-10
4.81109e-10
4.97223e-10
4.91434e-10
5.148e-10
5.1512e-10
5.39348e-10
5.40304e-10
5.62835e-10
5.55056e-10
5.71943e-10
5.66993e-10
5.87668e-10
5.78847e-10
5.95063e-10
5.86782e-10
6.0609e-10
5.98051e-10
6.1559e-10
6.03332e-10
6.18947e-10
6.07916e-10
6.27012e-10
6.17557e-10
6.35652e-10
6.19496e-10
6.34276e-10
6.20395e-10
6.40591e-10
6.26907e-10
6.46563e-10
6.28143e-10
6.47966e-10
6.2983e-10
6.55639e-10
6.36718e-10
6.62572e-10
6.30616e-10
6.55774e-10
6.24023e-10
6.62164e-10
6.25093e-10
6.71339e-10
6.31649e-10
6.89261e-10
6.37679e-10
6.88131e-10
6.18452e-10
7.69141e-10
8.96991e-10
-9.10167e-10
1.64372e-09
2.23345e-09
-1.36971e-09
-1.15199e-09
7.51328e-10
9.21985e-10
4.73738e-10
2.84959e-10
3.40195e-10
4.50099e-10
4.79049e-10
4.95814e-10
4.89842e-10
5.11901e-10
5.12765e-10
5.36528e-10
5.38285e-10
5.6041e-10
5.53671e-10
5.70001e-10
5.65732e-10
5.85748e-10
5.77915e-10
5.93517e-10
5.8607e-10
6.0469e-10
5.97607e-10
6.14448e-10
6.03154e-10
6.17948e-10
6.07788e-10
6.26045e-10
6.17565e-10
6.34821e-10
6.19724e-10
6.33505e-10
6.20522e-10
6.39695e-10
6.27163e-10
6.45772e-10
6.28614e-10
6.47153e-10
6.30364e-10
6.54654e-10
6.3752e-10
6.61508e-10
6.32035e-10
6.5435e-10
6.25693e-10
6.59665e-10
6.27759e-10
6.67846e-10
6.36113e-10
6.84346e-10
6.45535e-10
6.82551e-10
6.32965e-10
7.58453e-10
8.9054e-10
-7.746e-10
1.52588e-09
1.31248e-09
1.22682e-09
4.25762e-10
-1.06401e-10
-1.02838e-10
5.83602e-11
2.40739e-10
3.45511e-10
4.37964e-10
4.68182e-10
5.14359e-10
5.18278e-10
5.50718e-10
5.45059e-10
5.7381e-10
5.65247e-10
5.88824e-10
5.73266e-10
5.98116e-10
5.84691e-10
6.08702e-10
5.90676e-10
6.14755e-10
5.97144e-10
6.21934e-10
6.03656e-10
6.27948e-10
6.0686e-10
6.31866e-10
6.11461e-10
6.37881e-10
6.17659e-10
6.42533e-10
6.1798e-10
6.43796e-10
6.21219e-10
6.47859e-10
6.25308e-10
6.51024e-10
6.26763e-10
6.52757e-10
6.30719e-10
6.56501e-10
6.35066e-10
6.55007e-10
6.29904e-10
6.49514e-10
6.33109e-10
6.50129e-10
6.39669e-10
6.52076e-10
6.53797e-10
6.49821e-10
6.60646e-10
6.23566e-10
6.62794e-10
6.07533e-10
6.39881e-10
-3.67631e-10
2.16939e-10
1.33861e-09
1.24273e-09
4.19067e-10
-1.11893e-10
-1.04562e-10
5.83953e-11
2.40738e-10
3.45479e-10
4.37645e-10
4.67893e-10
5.13949e-10
5.18027e-10
5.5037e-10
5.44868e-10
5.73525e-10
5.65137e-10
5.8858e-10
5.73159e-10
5.97889e-10
5.84651e-10
6.08508e-10
5.90643e-10
6.14572e-10
5.97151e-10
6.21772e-10
6.03685e-10
6.27791e-10
6.06893e-10
6.31711e-10
6.11521e-10
6.37741e-10
6.17743e-10
6.42389e-10
6.18047e-10
6.43646e-10
6.21326e-10
6.47721e-10
6.25432e-10
6.50888e-10
6.26893e-10
6.52623e-10
6.30882e-10
6.56395e-10
6.35268e-10
6.54902e-10
6.30088e-10
6.49409e-10
6.33364e-10
6.50066e-10
6.39942e-10
6.52076e-10
6.54123e-10
6.49955e-10
6.60896e-10
6.23843e-10
6.62676e-10
6.10733e-10
6.49014e-10
-3.83659e-10
1.96088e-10
1.38458e-09
1.25356e-09
4.02732e-10
-1.18026e-10
-1.05074e-10
5.92113e-11
2.41301e-10
3.45652e-10
4.37622e-10
4.67547e-10
5.13584e-10
5.17588e-10
5.5005e-10
5.44478e-10
5.73259e-10
5.64853e-10
5.88417e-10
5.72872e-10
5.97708e-10
5.84438e-10
6.08408e-10
5.90439e-10
6.14471e-10
5.97003e-10
6.21712e-10
6.03559e-10
6.27758e-10
6.06771e-10
6.31675e-10
6.11429e-10
6.37725e-10
6.17677e-10
6.42401e-10
6.17957e-10
6.43626e-10
6.21285e-10
6.47734e-10
6.2541e-10
6.50918e-10
6.26878e-10
6.52644e-10
6.30908e-10
6.56447e-10
6.35358e-10
6.55006e-10
6.30166e-10
6.49474e-10
6.3352e-10
6.50221e-10
6.40098e-10
6.52279e-10
6.54304e-10
6.50385e-10
6.61001e-10
6.24665e-10
6.61054e-10
6.14926e-10
6.67777e-10
-4.1808e-10
1.75684e-10
1.44396e-09
1.24584e-09
3.7907e-10
-1.20903e-10
-1.04005e-10
6.11397e-11
2.42697e-10
3.46483e-10
4.38075e-10
4.67393e-10
5.13253e-10
5.17095e-10
5.49689e-10
5.44004e-10
5.7292e-10
5.64499e-10
5.88241e-10
5.72505e-10
5.97454e-10
5.84151e-10
6.0829e-10
5.90178e-10
6.14332e-10
5.96803e-10
6.21639e-10
6.03393e-10
6.27729e-10
6.06606e-10
6.31628e-10
6.11298e-10
6.3771e-10
6.17588e-10
6.4245e-10
6.17837e-10
6.43603e-10
6.21216e-10
6.47773e-10
6.2537e-10
6.50989e-10
6.26837e-10
6.5269e-10
6.30906e-10
6.56558e-10
6.35437e-10
6.55243e-10
6.30208e-10
6.49631e-10
6.33617e-10
6.50548e-10
6.40142e-10
6.52707e-10
6.54242e-10
6.51342e-10
6.60491e-10
6.26588e-10
6.5685e-10
6.23408e-10
6.89033e-10
-4.67686e-10
1.70122e-10
1.50596e-09
1.20496e-09
3.51372e-10
-1.13519e-10
-9.96336e-11
6.41413e-11
2.44857e-10
3.48087e-10
4.39121e-10
4.67549e-10
5.12973e-10
5.16581e-10
5.49257e-10
5.43466e-10
5.72474e-10
5.64087e-10
5.88014e-10
5.72077e-10
5.97082e-10
5.83804e-10
6.08117e-10
5.89874e-10
6.14108e-10
5.96567e-10
6.2151e-10
6.03208e-10
6.27662e-10
6.06427e-10
6.31522e-10
6.11152e-10
6.37652e-10
6.17502e-10
6.42492e-10
6.17718e-10
6.43528e-10
6.21144e-10
6.47789e-10
6.25339e-10
6.51058e-10
6.268e-10
6.52719e-10
6.30897e-10
6.56687e-10
6.35535e-10
6.55569e-10
6.30237e-10
6.49833e-10
6.3364e-10
6.51038e-10
6.40003e-10
6.53413e-10
6.53797e-10
6.52961e-10
6.59126e-10
6.29875e-10
6.4995e-10
6.36598e-10
7.07948e-10
-5.27034e-10
1.92377e-10
1.56623e-09
1.11979e-09
3.20507e-10
-9.03483e-11
-9.02093e-11
6.78308e-11
2.47466e-10
3.50371e-10
4.40749e-10
4.6801e-10
5.12746e-10
5.16042e-10
5.48758e-10
5.42866e-10
5.71925e-10
5.63621e-10
5.87733e-10
5.71598e-10
5.96594e-10
5.83397e-10
6.07883e-10
5.89537e-10
6.13795e-10
5.96293e-10
6.21318e-10
6.03005e-10
6.27549e-10
6.06236e-10
6.3135e-10
6.10991e-10
6.37542e-10
6.17421e-10
6.42519e-10
6.17609e-10
6.4339e-10
6.21069e-10
6.47776e-10
6.25321e-10
6.51113e-10
6.26769e-10
6.52718e-10
6.30877e-10
6.5682e-10
6.35638e-10
6.55977e-10
6.3024e-10
6.50093e-10
6.33541e-10
6.51713e-10
6.39612e-10
6.54439e-10
6.52833e-10
6.55377e-10
6.5665e-10
6.34825e-10
6.40204e-10
6.54682e-10
7.22592e-10
-5.94607e-10
2.50683e-10
1.62659e-09
9.84604e-10
2.8386e-10
-4.80049e-11
-7.37906e-11
7.19479e-11
2.5014e-10
3.5321e-10
4.42892e-10
4.68744e-10
5.12536e-10
5.15465e-10
5.48172e-10
5.42197e-10
5.71262e-10
5.63091e-10
5.87391e-10
5.71079e-10
5.95996e-10
5.82932e-10
6.07588e-10
5.89178e-10
6.13396e-10
5.95988e-10
6.21066e-10
6.02794e-10
6.27389e-10
6.06042e-10
6.3111e-10
6.10819e-10
6.3738e-10
6.17349e-10
6.42522e-10
6.17518e-10
6.43188e-10
6.20991e-10
6.47726e-10
6.25314e-10
6.51146e-10
6.26745e-10
6.52683e-10
6.3084e-10
6.56955e-10
6.35734e-10
6.56466e-10
6.30201e-10
6.50422e-10
6.33278e-10
6.52593e-10
6.38911e-10
6.55864e-10
6.5123e-10
6.58699e-10
6.52876e-10
6.4165e-10
6.27664e-10
6.77287e-10
7.33054e-10
-6.71299e-10
3.48558e-10
1.6906e-09
7.9829e-10
2.3789e-10
1.48282e-11
-4.86626e-11
7.64052e-11
2.52529e-10
3.56458e-10
4.45468e-10
4.69685e-10
5.12288e-10
5.14806e-10
5.47461e-10
5.4144e-10
5.70469e-10
5.62485e-10
5.86968e-10
5.70524e-10
5.95289e-10
5.8241e-10
6.07222e-10
5.88804e-10
6.12914e-10
5.95656e-10
6.20753e-10
6.02581e-10
6.27179e-10
6.05855e-10
6.30804e-10
6.10643e-10
6.37165e-10
6.17292e-10
6.42496e-10
6.17456e-10
6.42923e-10
6.20914e-10
6.47638e-10
6.25324e-10
6.51152e-10
6.26731e-10
6.52615e-10
6.30783e-10
6.57097e-10
6.3581e-10
6.57032e-10
6.30108e-10
6.50847e-10
6.32805e-10
6.53705e-10
6.37839e-10
6.57739e-10
6.48906e-10
6.62968e-10
6.4779e-10
6.50271e-10
6.12855e-10
7.03114e-10
7.40423e-10
-7.56958e-10
4.8477e-10
1.7625e-09
5.65766e-10
1.7871e-10
9.70439e-11
-1.33793e-11
8.13766e-11
2.54315e-10
3.59955e-10
4.48409e-10
4.70793e-10
5.11962e-10
5.1403e-10
5.46586e-10
5.40573e-10
5.6953e-10
5.61784e-10
5.8644e-10
5.69927e-10
5.94469e-10
5.81827e-10
6.0677e-10
5.88415e-10
6.12345e-10
5.95299e-10
6.20375e-10
6.02369e-10
6.26913e-10
6.0568e-10
6.30433e-10
6.10469e-10
6.36899e-10
6.17256e-10
6.42434e-10
6.1743e-10
6.42602e-10
6.20839e-10
6.4751e-10
6.25352e-10
6.51131e-10
6.26727e-10
6.52521e-10
6.30701e-10
6.57252e-10
6.35851e-10
6.5768e-10
6.29941e-10
6.51387e-10
6.32097e-10
6.55063e-10
6.36375e-10
6.60062e-10
6.45863e-10
6.68107e-10
6.41572e-10
6.60317e-10
5.96674e-10
7.30337e-10
7.4647e-10
-8.50516e-10
6.52483e-10
1.84456e-09
2.96768e-10
1.03727e-10
1.95407e-10
3.27763e-11
8.72175e-11
2.55251e-10
3.63526e-10
4.51641e-10
4.72032e-10
5.11533e-10
5.13112e-10
5.4553e-10
5.39586e-10
5.6843e-10
5.60973e-10
5.85782e-10
5.69282e-10
5.93533e-10
5.81176e-10
6.0622e-10
5.88008e-10
6.11688e-10
5.94914e-10
6.19927e-10
6.02159e-10
6.26585e-10
6.05518e-10
6.29997e-10
6.10297e-10
6.3658e-10
6.1724e-10
6.42329e-10
6.17442e-10
6.4223e-10
6.20767e-10
6.47345e-10
6.25397e-10
6.51084e-10
6.26728e-10
6.52411e-10
6.30588e-10
6.57429e-10
6.35845e-10
6.58406e-10
6.29689e-10
6.5206e-10
6.31152e-10
6.56653e-10
6.34534e-10
6.62788e-10
6.4221e-10
6.73918e-10
6.34585e-10
6.71188e-10
5.80341e-10
7.56838e-10
7.53066e-10
-9.49177e-10
8.41683e-10
1.93727e-09
4.28229e-12
1.18143e-11
3.04792e-10
8.97592e-11
9.44077e-11
2.55178e-10
3.66969e-10
4.55075e-10
4.73372e-10
5.1098e-10
5.12044e-10
5.44279e-10
5.38471e-10
5.67165e-10
5.60044e-10
5.84978e-10
5.68582e-10
5.92483e-10
5.80455e-10
6.05559e-10
5.87578e-10
6.10942e-10
5.94498e-10
6.19402e-10
6.01948e-10
6.26191e-10
6.05366e-10
6.29498e-10
6.10127e-10
6.36209e-10
6.17242e-10
6.42178e-10
6.17488e-10
6.41817e-10
6.20695e-10
6.47144e-10
6.25453e-10
6.51014e-10
6.26728e-10
6.52293e-10
6.3044e-10
6.57629e-10
6.35785e-10
6.59202e-10
6.29353e-10
6.52859e-10
6.29989e-10
6.5843e-10
6.32379e-10
6.65823e-10
6.38122e-10
6.80105e-10
6.27304e-10
6.82148e-10
5.65099e-10
7.80707e-10
7.61732e-10
-1.04873e-09
1.04025e-09
2.03857e-09
-2.9622e-10
-9.62781e-11
4.19277e-10
1.56609e-10
1.03483e-10
2.54052e-10
3.70062e-10
4.58601e-10
4.74778e-10
5.103e-10
5.10829e-10
5.42832e-10
5.37226e-10
5.6573e-10
5.58995e-10
5.84017e-10
5.67822e-10
5.91321e-10
5.79666e-10
6.04779e-10
5.87119e-10
6.10107e-10
5.9405e-10
6.18797e-10
6.01731e-10
6.25727e-10
6.05223e-10
6.2894e-10
6.09958e-10
6.35785e-10
6.17259e-10
6.41977e-10
6.17564e-10
6.41368e-10
6.20621e-10
6.46908e-10
6.25516e-10
6.5092e-10
6.26727e-10
6.52172e-10
6.30257e-10
6.57846e-10
6.35673e-10
6.6005e-10
6.28946e-10
6.53762e-10
6.28648e-10
6.60324e-10
6.30005e-10
6.69019e-10
6.33837e-10
6.86317e-10
6.20256e-10
6.92459e-10
5.5206e-10
8.00445e-10
7.73393e-10
-1.14391e-09
1.23606e-09
2.14508e-09
-5.90188e-10
-2.18462e-10
5.32589e-10
2.3168e-10
1.15062e-10
2.52005e-10
3.72611e-10
4.62093e-10
4.76223e-10
5.09502e-10
5.09477e-10
5.41193e-10
5.35853e-10
5.64133e-10
5.57829e-10
5.82899e-10
5.67004e-10
5.90054e-10
5.78809e-10
6.03877e-10
5.86626e-10
6.09189e-10
5.93569e-10
6.18111e-10
6.01505e-10
6.25192e-10
6.05082e-10
6.28325e-10
6.09788e-10
6.35309e-10
6.17285e-10
6.41724e-10
6.17662e-10
6.40889e-10
6.20543e-10
6.46636e-10
6.2558e-10
6.50802e-10
6.2672e-10
6.52047e-10
6.30046e-10
6.58075e-10
6.35514e-10
6.60923e-10
6.28489e-10
6.54737e-10
6.2719e-10
6.62244e-10
6.27548e-10
6.72199e-10
6.29615e-10
6.92191e-10
6.13944e-10
7.01463e-10
5.42074e-10
8.15255e-10
7.88132e-10
-1.22957e-09
1.41877e-09
2.25175e-09
-8.65456e-10
-3.50799e-10
6.39028e-10
3.12738e-10
1.29711e-10
2.4931e-10
3.74437e-10
4.6541e-10
4.77681e-10
5.08603e-10
5.08002e-10
5.3937e-10
5.34358e-10
5.62381e-10
5.56553e-10
5.81624e-10
5.66124e-10
5.88692e-10
5.77891e-10
6.02855e-10
5.86097e-10
6.08191e-10
5.93056e-10
6.17345e-10
6.01269e-10
6.24587e-10
6.04939e-10
6.27658e-10
6.09617e-10
6.34783e-10
6.17317e-10
6.41419e-10
6.17777e-10
6.40386e-10
6.20462e-10
6.46324e-10
6.25644e-10
6.50657e-10
6.2671e-10
6.51915e-10
6.29814e-10
6.58299e-10
6.35325e-10
6.61788e-10
6.28016e-10
6.55733e-10
6.25696e-10
6.64092e-10
6.25146e-10
6.75178e-10
6.25722e-10
6.97393e-10
6.08793e-10
7.08683e-10
5.35642e-10
8.24911e-10
8.0535e-10
-1.30129e-09
1.58037e-09
2.35299e-09
-1.11158e-09
-4.88146e-10
7.3375e-10
3.97143e-10
1.4783e-10
2.4634e-10
3.75396e-10
4.68388e-10
4.79117e-10
5.07622e-10
5.06423e-10
5.37376e-10
5.32749e-10
5.60485e-10
5.55174e-10
5.80197e-10
5.65184e-10
5.87242e-10
5.76918e-10
6.01715e-10
5.85529e-10
6.0712e-10
5.92513e-10
6.16499e-10
6.01017e-10
6.23914e-10
6.04795e-10
6.26945e-10
6.09443e-10
6.34206e-10
6.17352e-10
6.41061e-10
6.17904e-10
6.39863e-10
6.2038e-10
6.45974e-10
6.25707e-10
6.50483e-10
6.267e-10
6.51771e-10
6.29576e-10
6.58497e-10
6.35127e-10
6.62607e-10
6.27565e-10
6.56688e-10
6.24253e-10
6.6576e-10
6.22943e-10
6.7778e-10
6.22394e-10
7.01645e-10
6.05111e-10
7.13826e-10
5.32947e-10
8.29624e-10
8.23992e-10
-1.35539e-09
1.71504e-09
2.44313e-09
-1.32095e-09
-6.24957e-10
8.131e-10
4.82062e-10
1.69616e-10
2.43526e-10
3.75387e-10
4.70861e-10
4.80483e-10
5.06575e-10
5.04761e-10
5.35223e-10
5.31034e-10
5.58456e-10
5.53702e-10
5.78624e-10
5.64184e-10
5.85713e-10
5.75895e-10
6.00463e-10
5.84921e-10
6.0598e-10
5.91943e-10
6.15577e-10
6.00747e-10
6.23177e-10
6.04646e-10
6.26188e-10
6.09268e-10
6.33581e-10
6.17386e-10
6.40651e-10
6.18039e-10
6.3932e-10
6.20299e-10
6.45581e-10
6.2577e-10