/*--------------------------------*- C++ -*----------------------------------*\
| =========                 |                                                 |
| \\      /  F ield         | OpenFOAM: The Open Source CFD Toolbox           |
|  \\    /   O peration     | Version:  2312                                  |
|   \\  /    A nd           | Website:  www.openfoam.com                      |
|    \\/     M anipulation  |                                                 |
\*---------------------------------------------------------------------------*/
FoamFile
{
    version     2.0;
    format      ascii;
    arch        "LSB;label=32;scalar=64";
    class       volScalarField;
    location    "900";
    object      nut;
}
// * * * * * * * * * * * * * * * * * * * * * * * * * * * * * * * * * * * * * //

dimensions      [0 2 -1 0 0 0 0];

internalField   nonuniform List<scalar> 
330000
(
1.4995e-24
2.23288e-25
1.67667e-26
7.94343e-28
4.6527e-30
8.31342e-30
1.18182e-28
1.00081e-28
1.5838e-28
1.12914e-28
1.48383e-28
1.60022e-28
1.98856e-28
2.07761e-28
2.36758e-28
2.85557e-28
2.94318e-28
2.85351e-28
3.35753e-28
3.66545e-28
4.10997e-28
4.05689e-28
4.74769e-28
4.93716e-28
5.61752e-28
5.82165e-28
6.57136e-28
6.43878e-28
7.5763e-28
7.6568e-28
8.84693e-28
8.99141e-28
1.01982e-27
9.85483e-28
1.14501e-27
1.16821e-27
1.31232e-27
1.2985e-27
1.47906e-27
1.38189e-27
1.62297e-27
1.53616e-27
1.7522e-27
1.64904e-27
1.83196e-27
1.53781e-27
1.73011e-27
1.47518e-27
1.54123e-27
1.14472e-27
1.09034e-27
6.91081e-28
3.93234e-28
9.08928e-29
7.89997e-31
6.36092e-29
1.08989e-27
2.33838e-26
2.22942e-25
1.26942e-24
1.66723e-24
6.0925e-25
6.31615e-26
1.15537e-27
8.54794e-33
2.92621e-29
1.68674e-28
2.3089e-28
2.94183e-28
2.35572e-28
2.77517e-28
3.31451e-28
3.9366e-28
4.17985e-28
4.64667e-28
5.78827e-28
5.83461e-28
5.74398e-28
6.55771e-28
7.36694e-28
8.08334e-28
8.13426e-28
9.3019e-28
9.88821e-28
1.10326e-27
1.1573e-27
1.29655e-27
1.2756e-27
1.48191e-27
1.51787e-27
1.73418e-27
1.76467e-27
2.0066e-27
1.92214e-27
2.23177e-27
2.27843e-27
2.52602e-27
2.535e-27
2.86027e-27
2.67904e-27
3.08949e-27
2.97115e-27
3.30745e-27
3.15641e-27
3.46006e-27
2.89035e-27
3.19401e-27
2.72609e-27
2.80895e-27
2.00643e-27
1.90143e-27
1.12109e-27
6.60075e-28
8.16335e-29
1.35962e-32
3.48467e-28
3.13545e-27
4.99465e-26
6.07635e-25
1.98541e-24
2.90873e-24
9.27317e-25
7.08457e-26
2.19464e-27
2.31687e-31
4.48868e-29
2.47703e-28
2.99115e-28
4.31952e-28
3.14383e-28
4.186e-28
4.39815e-28
5.99024e-28
5.45526e-28
7.02402e-28
7.60848e-28
8.53734e-28
7.84222e-28
9.60771e-28
9.99327e-28
1.16891e-27
1.11882e-27
1.3418e-27
1.36163e-27
1.59011e-27
1.59676e-27
1.85993e-27
1.77031e-27
2.11391e-27
2.11843e-27
2.48504e-27
2.44888e-27
2.86082e-27
2.68233e-27
3.18129e-27
3.17205e-27
3.58038e-27
3.56651e-27
4.05647e-27
3.77117e-27
4.35783e-27
4.20642e-27
4.68963e-27
4.44694e-27
4.88211e-27
4.10861e-27
4.51835e-27
3.88698e-27
3.98594e-27
2.87039e-27
2.71355e-27
1.60796e-27
9.31393e-28
1.25497e-28
7.1177e-32
3.75909e-28
4.71768e-27
7.36174e-26
7.88811e-25
2.79464e-24
3.38022e-24
9.38043e-25
7.5433e-26
2.02075e-27
7.05289e-31
3.93981e-29
2.74144e-28
2.68892e-28
4.6614e-28
2.84324e-28
4.61153e-28
4.05124e-28
6.47353e-28
5.03287e-28
7.56361e-28
7.05886e-28
9.01835e-28
7.49375e-28
1.00383e-27
9.58835e-28
1.21011e-27
1.08817e-27
1.38839e-27
1.32444e-27
1.63592e-27
1.56001e-27
1.90655e-27
1.7394e-27
2.16457e-27
2.08859e-27
2.53796e-27
2.40821e-27
2.9128e-27
2.65286e-27
3.25064e-27
3.12282e-27
3.63919e-27
3.54678e-27
4.11555e-27
3.76007e-27
4.41937e-27
4.20559e-27
4.74524e-27
4.44655e-27
4.92963e-27
4.14433e-27
4.59665e-27
3.92186e-27
4.05636e-27
2.91605e-27
2.80407e-27
1.64407e-27
9.94008e-28
1.28664e-28
4.0236e-32
3.43741e-28
4.38215e-27
7.22758e-26
9.60826e-25
3.27756e-24
4.10898e-24
1.09791e-24
9.28786e-26
1.99679e-27
1.74811e-30
3.81349e-29
2.74581e-28
2.64493e-28
4.76166e-28
2.66379e-28
4.80432e-28
3.78286e-28
6.70154e-28
4.6505e-28
7.84865e-28
6.53217e-28
9.34887e-28
7.06419e-28
1.0225e-27
9.08677e-28
1.22968e-27
1.04045e-27
1.40226e-27
1.26988e-27
1.64751e-27
1.49897e-27
1.91663e-27
1.67691e-27
2.16989e-27
2.02101e-27
2.5339e-27
2.32621e-27
2.90986e-27
2.56895e-27
3.24124e-27
3.0173e-27
3.62979e-27
3.44914e-27
4.09187e-27
3.65941e-27
4.38419e-27
4.10458e-27
4.6918e-27
4.33897e-27
4.87911e-27
4.06079e-27
4.54573e-27
3.84522e-27
4.00869e-27
2.85889e-27
2.78307e-27
1.61361e-27
9.93485e-28
1.20761e-28
6.41223e-32
3.31929e-28
4.36272e-27
7.49907e-26
1.2519e-24
3.5068e-24
5.45433e-24
1.34794e-24
1.32337e-25
2.0267e-27
5.48838e-30
3.81851e-29
2.73441e-28
2.66695e-28
4.88047e-28
2.62163e-28
5.02829e-28
3.67002e-28
6.97453e-28
4.47384e-28
8.23968e-28
6.25301e-28
9.88907e-28
6.82169e-28
1.06367e-27
8.8464e-28
1.2787e-27
1.02012e-27
1.44956e-27
1.24873e-27
1.6971e-27
1.47688e-27
1.97217e-27
1.65641e-27
2.22923e-27
2.00212e-27
2.58844e-27
2.30297e-27
2.97514e-27
2.54944e-27
3.30908e-27
2.98875e-27
3.71255e-27
3.42888e-27
4.16747e-27
3.64186e-27
4.46245e-27
4.09297e-27
4.75335e-27
4.32692e-27
4.94863e-27
4.06415e-27
4.60671e-27
3.84472e-27
4.0501e-27
2.85948e-27
2.81978e-27
1.6087e-27
1.00536e-27
1.15065e-28
1.14849e-31
3.41286e-28
4.51019e-27
8.34191e-26
1.76136e-24
3.76308e-24
7.64193e-24
1.62843e-24
2.00119e-25
2.1131e-27
1.76377e-29
3.70069e-29
2.74601e-28
2.70338e-28
5.02952e-28
2.62474e-28
5.26081e-28
3.62434e-28
7.26825e-28
4.38679e-28
8.66833e-28
6.10789e-28
1.05253e-27
6.65278e-28
1.11647e-27
8.71211e-28
1.34262e-27
1.00891e-27
1.51262e-27
1.23971e-27
1.76562e-27
1.46995e-27
2.04941e-27
1.6519e-27
2.31368e-27
1.99955e-27
2.67077e-27
2.30421e-27
3.07315e-27
2.55432e-27
3.41095e-27
2.99256e-27
3.83977e-27
3.4393e-27
4.29187e-27
3.65828e-27
4.5952e-27
4.1142e-27
4.87422e-27
4.3595e-27
5.08216e-27
4.10409e-27
4.72125e-27
3.88096e-27
4.1417e-27
2.88807e-27
2.88942e-27
1.62453e-27
1.03151e-27
1.14697e-28
2.28027e-31
3.59513e-28
4.82828e-27
9.82498e-26
2.50833e-24
4.02304e-24
1.08065e-23
1.90068e-24
3.02273e-25
2.28681e-27
4.82075e-29
3.50512e-29
2.76376e-28
2.739e-28
5.1579e-28
2.64719e-28
5.45825e-28
3.59735e-28
7.50808e-28
4.34511e-28
9.05476e-28
6.01136e-28
1.11302e-27
6.4873e-28
1.17069e-27
8.58644e-28
1.40768e-27
9.97259e-28
1.57871e-27
1.23008e-27
1.83564e-27
1.46253e-27
2.12875e-27
1.646e-27
2.40201e-27
1.99461e-27
2.75661e-27
2.30433e-27
3.17308e-27
2.55864e-27
3.51887e-27
2.99806e-27
3.97123e-27
3.44465e-27
4.42345e-27
3.67048e-27
4.73968e-27
4.12954e-27
5.00651e-27
4.38617e-27
5.22492e-27
4.13744e-27
4.85138e-27
3.90829e-27
4.24246e-27
2.91561e-27
2.96863e-27
1.6384e-27
1.06392e-27
1.1665e-28
4.81216e-31
3.93882e-28
5.40896e-27
1.21493e-25
3.48127e-24
4.22628e-24
1.50056e-23
2.13414e-24
4.43478e-25
2.59277e-27
1.11802e-28
3.27289e-29
2.79985e-28
2.75734e-28
5.28813e-28
2.67681e-28
5.62645e-28
3.58939e-28
7.72555e-28
4.33205e-28
9.40696e-28
5.96814e-28
1.16959e-27
6.34441e-28
1.22533e-27
8.47611e-28
1.47317e-27
9.85407e-28
1.64589e-27
1.21992e-27
1.90771e-27
1.45497e-27
2.20928e-27
1.63984e-27
2.49197e-27
1.98667e-27
2.8458e-27
2.30412e-27
3.27566e-27
2.5617e-27
3.62899e-27
3.00391e-27
4.10558e-27
3.44736e-27
4.56051e-27
3.6809e-27
4.89016e-27
4.13775e-27
5.14919e-27
4.41065e-27
5.37681e-27
4.16525e-27
4.98618e-27
3.93067e-27
4.35217e-27
2.93857e-27
3.05298e-27
1.65374e-27
1.10379e-27
1.20941e-28
1.1718e-30
4.59064e-28
6.39705e-27
1.54178e-25
4.6664e-24
4.36892e-24
2.02441e-23
2.32401e-24
6.23985e-25
3.08672e-27
2.22293e-28
3.18557e-29
2.85253e-28
2.75607e-28
5.41488e-28
2.70974e-28
5.77383e-28
3.59348e-28
7.91233e-28
4.35041e-28
9.72718e-28
5.95991e-28
1.22014e-27
6.22785e-28
1.27956e-27
8.38142e-28
1.53759e-27
9.74673e-28
1.71468e-27
1.21008e-27
1.98049e-27
1.44751e-27
2.2908e-27
1.6335e-27
2.58385e-27
1.97815e-27
2.93845e-27
2.30283e-27
3.37952e-27
2.56515e-27
3.74435e-27
3.01042e-27
4.24008e-27
3.4481e-27
4.70205e-27
3.68908e-27
5.04729e-27
4.14257e-27
5.29994e-27
4.42878e-27
5.5325e-27
4.18732e-27
5.13095e-27
3.94447e-27
4.46719e-27
2.95788e-27
3.1439e-27
1.66576e-27
1.1495e-27
1.26154e-28
3.03594e-30
5.73356e-28
7.95547e-27
1.97987e-25
6.0005e-24
4.44456e-24
2.6411e-23
2.46005e-24
8.44821e-25
3.79003e-27
3.90801e-28
3.30874e-29
2.93921e-28
2.72899e-28
5.56344e-28
2.73745e-28
5.9147e-28
3.61211e-28
8.10477e-28
4.38817e-28
1.00324e-27
5.99427e-28
1.26692e-27
6.15192e-28
1.33361e-27
8.31507e-28
1.60237e-27
9.65982e-28
1.78484e-27
1.20192e-27
2.05647e-27
1.4419e-27
2.37489e-27
1.62945e-27
2.67853e-27
1.9707e-27
3.03681e-27
2.30365e-27
3.48934e-27
2.57064e-27
3.86486e-27
3.01953e-27
4.37957e-27
3.4523e-27
4.85154e-27
3.70053e-27
5.21197e-27
4.14749e-27
5.46323e-27
4.44849e-27
5.70005e-27
4.20829e-27
5.28231e-27
3.95794e-27
4.59395e-27
2.9739e-27
3.24181e-27
1.67977e-27
1.20244e-27
1.33255e-28
7.90059e-30
7.61181e-28
1.02009e-26
2.52684e-25
7.43868e-24
4.49036e-24
3.33909e-23
2.55252e-24
1.10208e-24
4.72851e-27
6.18133e-28
3.75968e-29
3.05039e-28
2.68647e-28
5.71914e-28
2.75797e-28
6.05568e-28
3.63542e-28
8.28817e-28
4.44444e-28
1.03247e-27
6.04869e-28
1.30852e-27
6.1084e-28
1.38598e-27
8.2709e-28
1.66538e-27
9.59638e-28
1.85568e-27
1.1953e-27
2.13317e-27
1.43746e-27
2.46001e-27
1.62635e-27
2.7748e-27
1.9649e-27
3.13886e-27
2.3045e-27
3.60165e-27
2.57773e-27
3.99039e-27
3.02962e-27
4.52007e-27
3.45794e-27
5.00477e-27
3.71202e-27
5.38142e-27
4.15297e-27
5.63335e-27
4.46409e-27
5.87062e-27
4.22607e-27
5.44134e-27
3.96579e-27
4.72482e-27
2.9873e-27
3.34618e-27
1.69176e-27
1.26046e-27
1.42158e-28
1.886e-29
1.04597e-27
1.32433e-26
3.18133e-25
8.90146e-24
4.51304e-24
4.09929e-23
2.60087e-24
1.39432e-24
5.91475e-27
9.01035e-28
4.55611e-29
3.19511e-28
2.62981e-28
5.89902e-28
2.76799e-28
6.2051e-28
3.66404e-28
8.48873e-28
4.50797e-28
1.06133e-27
6.1261e-28
1.34749e-27
6.09997e-28
1.4368e-27
8.25447e-28
1.72769e-27
9.55835e-28
1.92644e-27
1.19087e-27
2.21184e-27
1.43502e-27
2.5466e-27
1.6257e-27
2.8729e-27
1.96114e-27
3.2449e-27
2.30728e-27
3.71907e-27
2.58674e-27
4.1194e-27
3.04132e-27
4.66465e-27
3.46717e-27
5.16269e-27
3.72663e-27
5.55523e-27
4.15961e-27
5.81106e-27
4.48009e-27
6.04905e-27
4.24264e-27
5.60321e-27
3.9728e-27
4.86362e-27
2.99711e-27
3.45544e-27
1.70483e-27
1.32438e-27
1.54793e-28
4.08786e-29
1.45334e-27
1.71085e-26
3.92445e-25
1.03467e-23
4.54753e-24
4.90788e-23
2.62132e-24
1.71697e-24
7.36165e-27
1.22705e-27
5.7554e-29
3.35672e-28
2.56784e-28
6.09506e-28
2.76752e-28
6.37043e-28
3.68938e-28
8.69404e-28
4.57751e-28
1.09028e-27
6.20874e-28
1.38354e-27
6.11656e-28
1.48551e-27
8.25978e-28
1.78786e-27
9.54617e-28
1.99685e-27
1.18841e-27
2.29006e-27
1.43416e-27
2.63372e-27
1.62647e-27
2.97191e-27
1.95958e-27
3.35291e-27
2.31071e-27
3.83838e-27
2.59735e-27
4.25193e-27
3.05347e-27
4.80962e-27
3.47813e-27
5.32225e-27
3.74183e-27
5.73117e-27
4.16712e-27
5.99078e-27
4.49277e-27
6.22783e-27
4.25674e-27
5.76912e-27
3.9749e-27
5.00272e-27
3.00427e-27
3.56835e-27
1.71596e-27
1.39382e-27
1.72307e-28
7.97726e-29
2.00147e-27
2.18316e-26
4.74452e-25
1.17069e-23
4.59105e-24
5.74153e-23
2.61286e-24
2.06938e-24
9.10257e-27
1.58827e-27
7.33891e-29
3.54098e-28
2.50421e-28
6.31875e-28
2.75817e-28
6.55355e-28
3.71476e-28
8.92561e-28
4.64465e-28
1.11994e-27
6.30239e-28
1.41918e-27
6.15647e-28
1.53287e-27
8.29004e-28
1.84729e-27
9.5581e-28
2.06645e-27
1.18843e-27
2.3693e-27
1.43549e-27
2.72157e-27
1.62991e-27
3.07211e-27
1.96043e-27
3.4632e-27
2.31655e-27
3.96178e-27
2.60951e-27
4.38648e-27
3.06713e-27
4.95815e-27
3.49206e-27
5.48424e-27
3.7599e-27
5.90911e-27
4.17584e-27
6.17369e-27
4.5061e-27
6.41148e-27
4.26906e-27
5.93454e-27
3.97638e-27
5.14653e-27
3.00765e-27
3.68393e-27
1.72846e-27
1.47051e-27
1.97068e-28
1.42863e-28
2.70883e-27
2.73663e-26
5.61495e-25
1.29599e-23
4.67827e-24
6.58714e-23
2.5899e-24
2.44496e-24
1.11919e-26
1.97357e-27
9.31749e-29
3.72952e-28
2.44975e-28
6.5526e-28
2.74397e-28
6.75594e-28
3.73554e-28
9.16699e-28
4.71195e-28
1.15094e-27
6.39479e-28
1.45375e-27
6.20979e-28
1.57885e-27
8.33856e-28
1.90481e-27
9.59291e-28
2.13524e-27
1.19064e-27
2.44769e-27
1.43878e-27
2.8093e-27
1.63487e-27
3.17236e-27
1.96375e-27
3.57449e-27
2.32367e-27
4.08595e-27
2.62299e-27
4.5229e-27
3.0817e-27
5.10696e-27
3.50747e-27
5.64607e-27
3.77822e-27
6.08631e-27
4.18579e-27
6.35621e-27
4.5174e-27
6.59247e-27
4.27864e-27
6.10046e-27
3.97398e-27
5.28746e-27
3.0092e-27
3.80245e-27
1.74155e-27
1.55528e-27
2.30647e-28
2.3692e-28
3.58717e-27
3.37159e-26
6.52227e-25
1.40555e-23
4.79994e-24
7.4209e-23
2.5511e-24
2.84079e-24
1.37042e-26
2.38094e-27
1.16396e-28
3.92955e-28
2.4029e-28
6.80492e-28
2.72746e-28
6.97466e-28
3.75541e-28
9.43541e-28
4.77401e-28
1.18331e-27
6.49045e-28
1.48922e-27
6.27492e-28
1.62439e-27
8.40504e-28
1.96195e-27
9.64728e-28
2.203e-27
1.19514e-27
2.52651e-27
1.44419e-27
2.8969e-27
1.64235e-27
3.27301e-27
1.96938e-27
3.68666e-27
2.33317e-27
4.21247e-27
2.63781e-27
4.65969e-27
3.09773e-27
5.25802e-27
3.52473e-27
5.808e-27
3.79859e-27
6.26288e-27
4.19649e-27
6.53844e-27
4.52905e-27
6.77427e-27
4.28627e-27
6.26243e-27
3.97068e-27
5.42982e-27
3.00812e-27
3.92256e-27
1.75779e-27
1.65019e-27
2.75467e-28
3.70398e-28
4.65027e-27
4.08743e-26
7.43853e-25
1.49774e-23
4.98914e-24
8.23328e-23
2.51103e-24
3.24714e-24
1.67021e-26
2.80351e-27
1.42962e-28
4.12617e-28
2.36435e-28
7.07004e-28
2.70927e-28
7.21339e-28
3.7701e-28
9.71754e-28
4.83349e-28
1.21752e-27
6.57934e-28
1.52527e-27
6.34567e-28
1.66992e-27
8.48239e-28
2.01809e-27
9.71929e-28
2.27026e-27
1.20137e-27
2.60401e-27
1.45145e-27
2.98425e-27
1.65142e-27
3.37325e-27
1.97708e-27
3.79858e-27
2.34412e-27
4.33857e-27
2.65407e-27
4.79716e-27
3.11429e-27
5.40763e-27
3.54285e-27
5.96862e-27
3.8191e-27
6.43693e-27
4.20735e-27
6.71688e-27
4.53891e-27
6.95111e-27
4.29192e-27
6.42223e-27
3.9637e-27
5.56724e-27
3.00629e-27
4.04422e-27
1.77615e-27
1.75728e-27
3.33492e-28
5.5069e-28
5.91621e-27
4.88761e-26
8.34736e-25
1.56859e-23
5.23379e-24
8.99644e-23
2.46837e-24
3.65969e-24
2.02652e-26
3.24014e-27
1.72456e-28
4.32869e-28
2.33322e-28
7.35202e-28
2.69194e-28
7.46522e-28
3.78544e-28
1.00256e-27
4.88689e-28
1.25319e-27
6.66821e-28
1.56306e-27
6.42068e-28
1.71605e-27
8.57054e-28
2.07463e-27
9.80375e-28
2.33694e-27
1.2094e-27
2.68175e-27
1.4604e-27
3.07104e-27
1.66268e-27
3.47335e-27
1.98667e-27
3.91022e-27
2.35724e-27
4.46556e-27
2.67128e-27
4.93375e-27
3.13203e-27
5.55773e-27
3.56178e-27
6.12753e-27
3.84075e-27
6.60863e-27
4.21807e-27
6.89211e-27
4.54861e-27
7.12585e-27
4.29492e-27
6.57582e-27
3.95586e-27
5.70447e-27
3.00234e-27
4.16732e-27
1.79895e-27
1.87843e-27
4.07229e-28
7.88516e-28
7.40538e-27
5.77674e-26
9.21936e-25
1.61831e-23
5.57199e-24
9.70376e-23
2.43922e-24
4.06665e-24
2.44711e-26
3.68563e-27
2.0469e-28
4.52666e-28
2.31367e-28
7.63706e-28
2.67673e-28
7.7317e-28
3.79978e-28
1.03431e-27
4.93891e-28
1.29115e-27
6.75214e-28
1.60157e-27
6.49577e-28
1.76305e-27
8.66435e-28
2.13085e-27
9.89885e-28
2.40358e-27
1.21878e-27
2.75867e-27
1.47092e-27
3.15732e-27
1.67507e-27
3.57233e-27
1.99811e-27
4.02141e-27
2.37169e-27
4.59088e-27
2.68942e-27
5.06964e-27
3.15056e-27
5.70553e-27
3.58122e-27
6.28362e-27
3.86161e-27
6.77549e-27
4.22897e-27
7.063e-27
4.5569e-27
7.29281e-27
4.29526e-27
6.72507e-27
3.94555e-27
5.83506e-27
2.99877e-27
4.29353e-27
1.827e-27
2.0151e-27
4.99333e-28
1.09299e-27
9.15171e-27
6.76003e-26
1.00406e-24
1.64528e-23
5.9833e-24
1.03303e-22
2.42072e-24
4.46165e-24
2.94197e-26
4.1405e-27
2.38672e-28
4.73108e-28
2.30189e-28
7.93043e-28
2.66522e-28
8.00563e-28
3.81708e-28
1.06816e-27
4.98754e-28
1.33046e-27
6.83565e-28
1.64178e-27
6.57183e-28
1.81119e-27
8.76328e-28
2.18803e-27
1.00007e-27
2.47004e-27
1.22936e-27
2.83607e-27
1.48258e-27
3.24276e-27
1.68908e-27
3.67075e-27
2.011e-27
4.13172e-27
2.38775e-27
4.71589e-27
2.70818e-27
5.20329e-27
3.16995e-27
5.85233e-27
3.60072e-27
6.43626e-27
3.88274e-27
6.93811e-27
4.23924e-27
7.22887e-27
4.5643e-27
7.45485e-27
4.29294e-27
6.86597e-27
3.93444e-27
5.96402e-27
2.99449e-27
4.42168e-27
1.86151e-27
2.16915e-27
6.12764e-28
1.4788e-27
1.1182e-26
7.85319e-26
1.07828e-24
1.64995e-23
6.5115e-24
1.08801e-22
2.42576e-24
4.83192e-24
3.51942e-26
4.60067e-27
2.7361e-28
4.93351e-28
2.29383e-28
8.23614e-28
2.65444e-28
8.29536e-28
3.83285e-28
1.10313e-27
5.03575e-28
1.37167e-27
6.91239e-28
1.68345e-27
6.64782e-28
1.86074e-27
8.86302e-28
2.24575e-27
1.01089e-27
2.53707e-27
1.24056e-27
2.91271e-27
1.49528e-27
3.32812e-27
1.70394e-27
3.76808e-27
2.025e-27
4.24083e-27
2.40468e-27
4.83877e-27
2.72785e-27
5.33533e-27
3.18919e-27
5.99508e-27
3.62029e-27
6.5853e-27
3.90305e-27
7.09498e-27
4.24845e-27
7.38787e-27
4.5697e-27
7.6084e-27
4.2889e-27
7.00095e-27
3.92078e-27
6.08617e-27
2.99162e-27
4.552e-27
1.90193e-27
2.34337e-27
7.50999e-28
1.95835e-27
1.35562e-26
9.05992e-26
1.1431e-24
1.6318e-23
7.14052e-24
1.13258e-22
2.45157e-24
5.17204e-24
4.18837e-26
5.05987e-27
3.08488e-28
5.13787e-28
2.29108e-28
8.55078e-28
2.64687e-28
8.58963e-28
3.85241e-28
1.1397e-27
5.08169e-28
1.41357e-27
6.98865e-28
1.72662e-27
6.72327e-28
1.91137e-27
8.96473e-28
2.30461e-27
1.02187e-27
2.60424e-27
1.25237e-27
2.98973e-27
1.50839e-27
3.41248e-27
1.71976e-27
3.86465e-27
2.03974e-27
4.34823e-27
2.4225e-27
4.96032e-27
2.74738e-27
5.46426e-27
3.20849e-27
6.13511e-27
3.63885e-27
6.72919e-27
3.92253e-27
7.24644e-27
4.25584e-27
7.53945e-27
4.57287e-27
7.75517e-27
4.28109e-27
7.12667e-27
3.90576e-27
6.20612e-27
2.98775e-27
4.68464e-27
1.94881e-27
2.53956e-27
9.16998e-28
2.55144e-27
1.63095e-26
1.0407e-25
1.19647e-24
1.59328e-23
7.91486e-24
1.16759e-22
2.51745e-24
5.47041e-24
4.95959e-26
5.51393e-27
3.42457e-28
5.33795e-28
2.29612e-28
8.86696e-28
2.64158e-28
8.89581e-28
3.87384e-28
1.17674e-27
5.12866e-28
1.45754e-27
7.06333e-28
1.77039e-27
6.79746e-28
1.96341e-27
9.06707e-28
2.36391e-27
1.03308e-27
2.67216e-27
1.26457e-27
3.06652e-27
1.52214e-27
3.49665e-27
1.73578e-27
3.95974e-27
2.05525e-27
4.45472e-27
2.44079e-27
5.07891e-27
2.76697e-27
5.59071e-27
3.22773e-27
6.27066e-27
3.65711e-27
6.8682e-27
3.94029e-27
7.3903e-27
4.26223e-27
7.68444e-27
4.57418e-27
7.89108e-27
4.27046e-27
7.24551e-27
3.8893e-27
6.31788e-27
2.98567e-27
4.82147e-27
2.00429e-27
2.75901e-27
1.11563e-27
3.27285e-27
1.95291e-26
1.19046e-25
1.23789e-24
1.5365e-23
8.79523e-24
1.19095e-22
2.61489e-24
5.72063e-24
5.84372e-26
5.96193e-27
3.7371e-28
5.53904e-28
2.308e-28
9.1838e-28
2.64102e-28
9.20301e-28
3.90015e-28
1.21496e-27
5.17564e-28
1.50192e-27
7.13923e-28
1.81514e-27
6.87156e-28
2.01631e-27
9.17042e-28
2.42426e-27
1.04426e-27
2.74017e-27
1.27704e-27
3.1439e-27
1.53588e-27
3.57973e-27
1.75222e-27
4.05388e-27
2.07105e-27
4.55931e-27
2.45931e-27
5.19556e-27
2.7859e-27
5.71314e-27
3.24657e-27
6.40271e-27
3.67377e-27
7.00089e-27
3.95652e-27
7.5273e-27
4.26648e-27
7.82105e-27
4.57263e-27
8.01844e-27
4.25604e-27
7.35374e-27
3.87148e-27
6.42652e-27
2.98344e-27
4.96113e-27
2.06801e-27
3.00407e-27
1.3502e-27
4.14883e-27
2.32577e-26
1.35955e-25
1.26608e-24
1.46327e-23
9.83787e-24
1.20514e-22
2.75437e-24
5.9132e-24
6.85306e-26
6.4066e-27
4.00845e-28
5.73973e-28
2.31947e-28
9.51767e-28
2.64006e-28
9.5273e-28
3.92551e-28
1.25417e-27
5.22385e-28
1.54781e-27
7.21066e-28
1.86125e-27
6.94675e-28
2.07053e-27
9.27277e-28
2.4854e-27
1.05563e-27
2.80901e-27
1.28943e-27
3.2208e-27
1.54993e-27
3.66303e-27
1.76868e-27
4.14677e-27
2.08692e-27
4.6624e-27
2.47776e-27
5.30936e-27
2.80482e-27
5.83254e-27
3.2642e-27
6.52912e-27
3.6897e-27
7.1284e-27
3.97108e-27
7.65632e-27
4.26851e-27
7.94874e-27
4.56837e-27
8.13544e-27
4.23975e-27
7.45394e-27
3.85157e-27
6.52763e-27
2.98358e-27
5.10337e-27
2.14009e-27
3.27838e-27
1.62638e-27
5.19937e-27
2.76316e-26
1.5476e-25
1.28079e-24
1.37572e-23
1.10207e-23
1.20771e-22
2.92874e-24
6.04465e-24
7.99515e-26
6.83464e-27
4.22743e-28
5.93259e-28
2.33675e-28
9.85214e-28
2.64319e-28
9.84953e-28
3.9552e-28
1.29394e-27
5.27208e-28
1.59324e-27
7.28252e-28
1.90788e-27
7.02118e-28
2.12496e-27
9.37531e-28
2.54706e-27
1.06676e-27
2.87762e-27
1.30178e-27
3.2976e-27
1.56341e-27
3.74472e-27
1.78498e-27
4.23835e-27
2.10239e-27
4.76263e-27
2.49562e-27
5.42025e-27
2.82218e-27
5.94729e-27
3.28037e-27
6.65043e-27
3.70273e-27
7.24797e-27
3.98278e-27
7.77746e-27
4.26693e-27
8.06559e-27
4.55944e-27
8.2424e-27
4.21805e-27
7.54314e-27
3.82891e-27
6.62511e-27
2.98226e-27
5.24861e-27
2.21918e-27
3.58399e-27
1.94626e-27
6.45651e-27
3.2696e-26
1.76054e-25
1.2818e-24
1.27707e-23
1.23892e-23
1.20114e-22
3.16505e-24
6.1099e-24
9.28838e-26
7.2439e-27
4.38799e-28
6.11793e-28
2.36083e-28
1.01863e-27
2.64867e-28
1.01834e-27
3.98768e-28
1.33397e-27
5.32209e-28
1.64048e-27
7.35618e-28
1.95456e-27
7.09574e-28
2.18049e-27
9.47919e-28
2.60879e-27
1.07794e-27
2.94676e-27
1.31411e-27
3.37399e-27
1.57706e-27
3.8262e-27
1.80086e-27
4.32809e-27
2.11774e-27
4.86161e-27
2.51313e-27
5.52732e-27
2.83864e-27
6.05842e-27
3.2954e-27
6.76579e-27
3.71457e-27
7.36124e-27
3.99187e-27
7.88888e-27
4.26309e-27
8.17405e-27
4.54807e-27
8.33631e-27
4.19318e-27
7.62376e-27
3.80508e-27
6.71314e-27
2.98308e-27
5.39841e-27
2.30924e-27
3.92108e-27
2.31773e-27
7.94023e-27
3.86138e-26
1.99995e-25
1.26966e-24
1.17151e-23
1.38713e-23
1.18377e-22
3.44409e-24
6.10475e-24
1.07356e-25
7.63194e-27
4.47418e-28
6.29473e-28
2.39376e-28
1.051e-27
2.66069e-28
1.05113e-27
4.02592e-28
1.37423e-27
5.37383e-28
1.68715e-27
7.43222e-28
2.00119e-27
7.17052e-28
2.23595e-27
9.58376e-28
2.67068e-27
1.08892e-27
3.01523e-27
1.32636e-27
3.45018e-27
1.59005e-27
3.90571e-27
1.81632e-27
4.41612e-27
2.13247e-27
4.95754e-27
2.5296e-27
5.63096e-27
2.85317e-27
6.16404e-27
3.30862e-27
6.87556e-27
3.72305e-27
7.46575e-27
3.99754e-27
7.99111e-27
4.25545e-27
8.27114e-27
4.53168e-27
8.41869e-27
4.16304e-27
7.6922e-27
3.77857e-27
6.7966e-27
2.98303e-27
5.55138e-27
2.40804e-27
4.29241e-27
2.7426e-27
9.69037e-27
4.54291e-26
2.27259e-25
1.24505e-24
1.06067e-23
1.55351e-23
1.16004e-22
3.77292e-24
6.02917e-24
1.23503e-25
8.01033e-27
4.47772e-28
6.47416e-28
2.42372e-28
1.08561e-27
2.67182e-28
1.08589e-27
4.06303e-28
1.41558e-27
5.42697e-28
1.73507e-27
7.50435e-28
2.0491e-27
7.24777e-28
2.29227e-27
9.68779e-28
2.73293e-27
1.10004e-27
3.08397e-27
1.33834e-27
3.52545e-27
1.60312e-27
3.98508e-27
1.8314e-27
4.50231e-27
2.14664e-27
5.05136e-27
2.54528e-27
5.73093e-27
2.86687e-27
6.26536e-27
3.3196e-27
6.97851e-27
3.72994e-27
7.5637e-27
4.00065e-27
8.0834e-27
4.24453e-27
8.35748e-27
4.51178e-27
8.48923e-27
4.13069e-27
7.75079e-27
3.74994e-27
6.87183e-27
2.98549e-27
5.70646e-27
2.51642e-27
4.70206e-27
3.22909e-27
1.17328e-26
5.33715e-26
2.5752e-25
1.20902e-24
9.47477e-24
1.73546e-23
1.12762e-22
4.13592e-24
5.88319e-24
1.4129e-25
8.35528e-27
4.39672e-28
6.63907e-28
2.46064e-28
1.11934e-27
2.68851e-28
1.11964e-27
4.10493e-28
1.45638e-27
5.48151e-28
1.78139e-27
7.57746e-28
2.09666e-27
7.32411e-28
2.3477e-27
9.79168e-28
2.79466e-27
1.1108e-27
3.15147e-27
1.35004e-27
3.59943e-27
1.61515e-27
4.0617e-27
1.8456e-27
4.58608e-27
2.15961e-27
5.14082e-27
2.55919e-27
5.82627e-27
2.87779e-27
6.36036e-27
3.32771e-27
7.07409e-27
3.73222e-27
7.65143e-27
3.99878e-27
8.16555e-27
4.22815e-27
8.43e-27
4.48488e-27
8.54728e-27
4.09122e-27
7.79712e-27
3.71675e-27
6.94206e-27
2.98509e-27
5.8643e-27
2.63093e-27
5.15128e-27
3.77575e-27
1.41065e-26
6.24554e-26
2.91578e-25
1.16254e-24
8.34491e-24
1.93657e-23
1.08997e-22
4.57226e-24
5.67314e-24
1.60999e-25
8.6634e-27
4.23857e-28
6.79549e-28
2.50451e-28
1.15273e-27
2.7083e-28
1.1545e-27
4.15068e-28
1.49733e-27
5.53801e-28
1.82945e-27
7.65473e-28
2.14364e-27
7.4012e-28
2.40397e-27
9.89814e-28
2.85575e-27
1.12161e-27
3.21879e-27
1.36159e-27
3.67225e-27
1.62727e-27
4.13733e-27
1.85916e-27
4.66709e-27
2.17191e-27
5.22813e-27
2.57223e-27
5.91651e-27
2.88711e-27
6.45035e-27
3.33368e-27
7.16213e-27
3.73253e-27
7.73102e-27
3.99353e-27
8.23584e-27
4.20834e-27
8.49224e-27
4.45508e-27
8.59004e-27
4.04829e-27
7.83315e-27
3.68235e-27
7.00127e-27
2.98653e-27
6.02574e-27
2.75737e-27
5.63742e-27
4.39325e-27
1.68289e-26
7.28743e-26
3.29506e-25
1.10652e-24
7.26018e-24
2.14499e-23
1.04615e-22
5.04275e-24
5.398e-24
1.8237e-25
8.93035e-27
3.99895e-28
6.93885e-28
2.55972e-28
1.18381e-27
2.73695e-28
1.18788e-27
4.20339e-28
1.53744e-27
5.59768e-28
1.87595e-27
7.73537e-28
2.18961e-27
7.4786e-28
2.45921e-27
1.00051e-27
2.91595e-27
1.13214e-27
3.28435e-27
1.3729e-27
3.74363e-27
1.63838e-27
4.20972e-27
1.87175e-27
4.74509e-27
2.18298e-27
5.31075e-27
2.58326e-27
6.0014e-27
2.89348e-27
6.53299e-27
3.33661e-27
7.24228e-27
3.728e-27
7.79963e-27
3.98302e-27
8.29466e-27
4.18314e-27
8.54047e-27
4.41839e-27
8.61878e-27
3.99882e-27
7.85574e-27
3.64378e-27
7.0542e-27
2.98565e-27
6.18926e-27
2.89131e-27
6.16239e-27
5.07855e-27
1.99414e-26
8.4607e-26
3.71892e-25
1.04297e-24
6.22586e-24
2.36893e-23
1.00245e-22
5.54297e-24
5.07032e-24
2.0551e-25
9.17157e-27
3.68528e-28
7.09242e-28
2.61012e-28
1.21773e-27
2.76433e-28
1.22358e-27
4.25465e-28
1.57887e-27
5.65828e-28
1.92358e-27
7.81041e-28
2.23696e-27
7.55883e-28
2.51491e-27
1.01108e-27
2.97601e-27
1.14278e-27
3.34942e-27
1.38384e-27
3.81331e-27
1.64944e-27
4.28103e-27
1.88378e-27
4.82006e-27
2.19313e-27
5.39005e-27
2.59291e-27
6.08129e-27
2.8984e-27
6.60958e-27
3.33647e-27
7.31414e-27
3.72102e-27
7.85968e-27
3.96928e-27
8.34129e-27
4.154e-27
8.57579e-27
4.37747e-27
8.63413e-27
3.94698e-27
7.86651e-27
3.603e-27
7.09774e-27
2.98684e-27
6.35231e-27
3.03386e-27
6.73013e-27
5.84074e-27
2.34624e-26
9.79092e-26
4.17691e-25
9.73826e-25
5.26321e-24
2.60744e-23
9.53618e-23
6.05144e-24
4.69321e-24
2.30095e-25
9.35685e-27
3.30964e-28
7.23491e-28
2.6681e-28
1.25007e-27
2.79873e-28
1.25744e-27
4.3113e-28
1.61856e-27
5.72172e-28
1.96843e-27
7.88746e-28
2.2834e-27
7.63806e-28
2.56866e-27
1.02158e-27
3.03469e-27
1.1529e-27
3.41217e-27
1.39432e-27
3.88041e-27
1.65917e-27
4.3485e-27
1.8943e-27
4.89129e-27
2.20143e-27
5.4632e-27
2.59988e-27
6.15469e-27
2.89957e-27
6.67784e-27
3.33235e-27
7.37623e-27
3.70821e-27
7.90785e-27
3.94868e-27
8.37588e-27
4.11775e-27
8.59504e-27
4.32779e-27
8.63571e-27
3.88677e-27
7.86422e-27
3.55599e-27
7.13479e-27
2.98319e-27
6.51583e-27
3.17951e-27
7.33878e-27
6.67097e-27
2.74096e-26
1.12664e-25
4.67484e-25
9.00198e-25
4.38425e-24
2.86007e-23
9.02087e-23
6.62581e-24
4.28371e-24
2.56567e-25
9.47446e-27
2.89556e-28
7.37183e-28
2.73381e-28
1.2817e-27
2.8368e-28
1.29239e-27
4.37258e-28
1.65849e-27
5.78675e-28
2.01518e-27
7.96982e-28
2.32837e-27
7.71729e-28
2.62318e-27
1.03235e-27
3.09182e-27
1.16298e-27
3.47401e-27
1.40445e-27
3.94545e-27
1.66885e-27
4.41359e-27
1.90401e-27
4.9584e-27
2.20859e-27
5.53288e-27
2.60551e-27
6.22111e-27
2.89851e-27
6.73934e-27
3.32517e-27
7.42889e-27
3.69282e-27
7.94496e-27
3.9242e-27
8.3961e-27
4.07735e-27
8.60193e-27
4.27511e-27
8.61921e-27
3.82316e-27
7.84961e-27
3.50767e-27
7.15837e-27
2.9805e-27
6.67968e-27
3.33527e-27
7.98071e-27
7.5782e-27
3.17796e-26
1.2892e-25
5.20926e-25
8.22757e-25
3.61788e-24
3.10902e-23
8.52295e-23
7.19149e-24
3.84294e-24
2.8418e-25
9.52332e-27
2.45286e-28
7.50083e-28
2.8139e-28
1.30991e-27
2.88617e-28
1.32499e-27
4.44234e-28
1.69646e-27
5.85647e-28
2.05942e-27
8.05732e-28
2.37162e-27
7.79675e-28
2.67585e-27
1.04311e-27
3.14722e-27
1.17261e-27
3.53306e-27
1.4141e-27
4.00789e-27
1.67723e-27
4.47438e-27
1.91212e-27
5.02118e-27
2.21387e-27
5.59615e-27
2.60829e-27
6.28029e-27
2.89366e-27
6.79144e-27
3.31399e-27
7.47133e-27
3.67161e-27
7.96948e-27
3.89296e-27
8.40304e-27
4.03032e-27
8.59293e-27
4.21444e-27
8.58736e-27
3.75224e-27
7.82075e-27
3.45394e-27
7.17363e-27
2.97351e-27
6.84193e-27
3.49476e-27
8.65497e-27
8.55025e-27
3.65769e-26
1.46474e-25
5.77918e-25
7.44017e-25
2.95711e-24
3.36719e-23
8.09086e-23
7.73505e-24
3.39269e-24
3.1274e-25
9.52264e-27
2.00208e-28
7.65232e-28
2.8888e-28
1.34138e-27
2.93404e-28
1.36036e-27
4.50963e-28
1.73612e-27
5.92552e-28
2.10471e-27
8.13469e-28
2.41643e-27
7.878e-28
2.72856e-27
1.05344e-27
3.20197e-27
1.18218e-27
3.59084e-27
1.42313e-27
4.06771e-27
1.68516e-27
4.53282e-27
1.91938e-27
5.07944e-27
2.21783e-27
5.65445e-27
2.60897e-27
6.33268e-27
2.88669e-27
6.83552e-27
3.29898e-27
7.50371e-27
3.64699e-27
7.98289e-27
3.8581e-27
8.39539e-27
3.97917e-27
8.56861e-27
4.14906e-27
8.5404e-27
3.67911e-27
7.77799e-27
3.3979e-27
7.17743e-27
2.96746e-27
6.99795e-27
3.65823e-27
9.36422e-27
9.59128e-27
4.17871e-26
1.65426e-25
6.36296e-25
6.6661e-25
2.40597e-24
3.63528e-23
7.6727e-23
8.23308e-24
2.9364e-24
3.41525e-25
9.4446e-27
1.56274e-28
7.81141e-28
2.97118e-28
1.37123e-27
2.98985e-28
1.39339e-27
4.58251e-28
1.7732e-27
5.99818e-28
2.14635e-27
8.21439e-28
2.46019e-27
7.95831e-28
2.77855e-27
1.06354e-27
3.25483e-27
1.19095e-27
3.64542e-27
1.43141e-27
4.12397e-27
1.69141e-27
4.58678e-27
1.92443e-27
5.13282e-27
2.21923e-27
5.70505e-27
2.60617e-27
6.37709e-27
2.87523e-27
6.86925e-27
3.27919e-27
7.52417e-27
3.61588e-27
7.98365e-27
3.81514e-27
8.37441e-27
3.92006e-27
8.52699e-27
4.07432e-27
8.47967e-27
3.59745e-27
7.72165e-27
3.33469e-27
7.17285e-27
2.95464e-27
7.14889e-27
3.81916e-27
1.01004e-26
1.06829e-26
4.73526e-26
1.85437e-25
6.96055e-25
5.91068e-25
1.96385e-24
3.90817e-23
7.2973e-23
8.75022e-24
2.49496e-24
3.71246e-25
9.2604e-27
1.16196e-28
7.971e-28
3.06342e-28
1.39963e-27
3.05039e-28
1.42748e-27
4.66042e-28
1.81067e-27
6.07098e-28
2.19033e-27
8.29791e-28
2.50128e-27
8.03645e-28
2.82923e-27
1.07374e-27
3.30492e-27
1.19945e-27
3.69836e-27
1.43887e-27
4.17723e-27
1.69717e-27
4.63643e-27
1.92826e-27
5.18043e-27
2.21882e-27
5.75067e-27
2.60121e-27
6.41205e-27
2.8608e-27
6.89435e-27
3.25531e-27
7.53331e-27
3.58149e-27
7.96945e-27
3.76806e-27
8.33653e-27
3.85641e-27
8.47131e-27
3.99653e-27
8.39756e-27
3.51286e-27
7.6509e-27
3.26992e-27
7.15161e-27
2.94095e-27
7.29468e-27
3.98334e-27
1.08499e-26
1.18205e-26
5.32372e-26
2.06106e-25
7.55379e-25
5.17413e-25
1.64136e-24
4.16421e-23
6.9675e-23
9.20774e-24
2.06907e-24
4.00521e-25
8.99017e-27
8.11174e-29
8.14267e-28
3.1725e-28
1.42427e-27
3.12364e-28
1.45882e-27
4.74738e-28
1.84562e-27
6.1489e-28
2.23124e-27
8.38606e-28
2.54052e-27
8.11364e-28
2.87772e-27
1.08362e-27
3.35297e-27
1.2071e-27
3.74775e-27
1.44549e-27
4.22698e-27
1.70114e-27
4.68124e-27
1.92974e-27
5.22256e-27
2.2159e-27
5.78823e-27
2.59266e-27
6.43841e-27
2.84188e-27
6.90793e-27
3.22687e-27
7.52989e-27
3.54082e-27
7.94185e-27
3.71347e-27
8.28394e-27
3.78603e-27
8.39841e-27
3.91079e-27
8.3004e-27
3.42135e-27