/*--------------------------------*- C++ -*----------------------------------*\
| =========                 |                                                 |
| \\      /  F ield         | OpenFOAM: The Open Source CFD Toolbox           |
|  \\    /   O peration     | Version:  2312                                  |
|   \\  /    A nd           | Website:  www.openfoam.com                      |
|    \\/     M anipulation  |                                                 |
\*---------------------------------------------------------------------------*/
FoamFile
{
    version     2.0;
    format      ascii;
    arch        "LSB;label=32;scalar=64";
    class       volScalarField;
    location    "900";
    object      p;
}
// * * * * * * * * * * * * * * * * * * * * * * * * * * * * * * * * * * * * * //

dimensions      [0 2 -2 0 0 0 0];

internalField   nonuniform List<scalar> 
330000
(
-1.62655e-09
-2.62694e-10
-1.05117e-09
-7.64441e-10
-6.03746e-10
-4.90329e-10
-2.98616e-10
-2.94429e-10
-1.17801e-10
-1.58833e-10
-3.92903e-11
-1.2009e-10
1.69362e-12
-9.32807e-11
3.22203e-11
-6.85928e-11
7.81962e-11
-2.6346e-11
1.10224e-10
-1.07412e-11
1.3544e-10
3.52035e-12
1.45616e-10
1.18042e-12
1.56022e-10
9.94413e-12
1.76477e-10
2.10575e-11
1.86541e-10
1.77193e-11
1.94897e-10
2.38592e-11
2.15989e-10
3.57353e-11
2.24492e-10
3.12959e-11
2.36954e-10
4.55841e-11
2.6378e-10
6.42188e-11
2.80421e-10
6.95744e-11
2.96195e-10
9.17785e-11
3.3407e-10
1.29137e-10
3.5231e-10
1.43235e-10
3.63368e-10
1.68865e-10
3.64346e-10
1.97919e-10
3.6459e-10
2.54643e-10
2.80229e-10
2.74857e-10
9.02083e-11
2.68289e-10
-3.78545e-10
1.20813e-09
-1.61448e-09
-2.63751e-10
-1.05365e-09
-7.65578e-10
-6.0436e-10
-4.90329e-10
-2.98878e-10
-2.94391e-10
-1.18001e-10
-1.58803e-10
-3.94656e-11
-1.20039e-10
1.51373e-12
-9.32256e-11
3.2051e-11
-6.85223e-11
7.80294e-11
-2.62593e-11
1.10036e-10
-1.06445e-11
1.3525e-10
3.62675e-12
1.45432e-10
1.31833e-12
1.5583e-10
1.0088e-11
1.76269e-10
2.12058e-11
1.86337e-10
1.79048e-11
1.94677e-10
2.40482e-11
2.15751e-10
3.59295e-11
2.24255e-10
3.15282e-11
2.36704e-10
4.58236e-11
2.63502e-10
6.44615e-11
2.80143e-10
6.98679e-11
2.95891e-10
9.2069e-11
3.33739e-10
1.29435e-10
3.51974e-10
1.43582e-10
3.63015e-10
1.69239e-10
3.64002e-10
1.98313e-10
3.64319e-10
2.55118e-10
2.80112e-10
2.75548e-10
9.042e-11
2.6754e-10
-3.82186e-10
1.20519e-09
-1.60173e-09
-2.65037e-10
-1.05744e-09
-7.67133e-10
-6.05081e-10
-4.90294e-10
-2.99027e-10
-2.94421e-10
-1.18114e-10
-1.58872e-10
-3.95387e-11
-1.20086e-10
1.43608e-12
-9.32867e-11
3.20031e-11
-6.85781e-11
7.79762e-11
-2.6307e-11
1.09966e-10
-1.06913e-11
1.35179e-10
3.57855e-12
1.45392e-10
1.31339e-12
1.55789e-10
1.00719e-11
1.76206e-10
2.11793e-11
1.86301e-10
1.79293e-11
1.94634e-10
2.40581e-11
2.15682e-10
3.5927e-11
2.24213e-10
3.15794e-11
2.36654e-10
4.5862e-11
2.63413e-10
6.44873e-11
2.80077e-10
6.99695e-11
2.95803e-10
9.21466e-11
3.336e-10
1.2951e-10
3.51842e-10
1.43742e-10
3.62853e-10
1.69443e-10
3.6385e-10
1.98576e-10
3.64214e-10
2.55571e-10
2.8016e-10
2.76474e-10
9.07761e-11
2.66877e-10
-3.89456e-10
1.20617e-09
-1.58824e-09
-2.68156e-10
-1.06191e-09
-7.69413e-10
-6.05841e-10
-4.90136e-10
-2.99062e-10
-2.94357e-10
-1.18178e-10
-1.58933e-10
-3.9555e-11
-1.20128e-10
1.39887e-12
-9.33611e-11
3.2005e-11
-6.86522e-11
7.79537e-11
-2.6383e-11
1.09928e-10
-1.0771e-11
1.35131e-10
3.48817e-12
1.45395e-10
1.28454e-12
1.55791e-10
1.00189e-11
1.76173e-10
2.11026e-11
1.86313e-10
1.79247e-11
1.94641e-10
2.40255e-11
2.15648e-10
3.58673e-11
2.24232e-10
3.15965e-11
2.36662e-10
4.58493e-11
2.63367e-10
6.44449e-11
2.80076e-10
7.00324e-11
2.9578e-10
9.2162e-11
3.33501e-10
1.29504e-10
3.51774e-10
1.43845e-10
3.62755e-10
1.69587e-10
3.63795e-10
1.98777e-10
3.6424e-10
2.55985e-10
2.80488e-10
2.77466e-10
9.17381e-11
2.65548e-10
-3.99101e-10
1.21071e-09
-1.57419e-09
-2.7266e-10
-1.06676e-09
-7.72456e-10
-6.06644e-10
-4.89855e-10
-2.99013e-10
-2.94209e-10
-1.18225e-10
-1.5896e-10
-3.95497e-11
-1.20138e-10
1.36839e-12
-9.34157e-11
3.20186e-11
-6.87091e-11
7.79238e-11
-2.64496e-11
1.09881e-10
-1.08436e-11
1.35065e-10
3.39909e-12
1.45394e-10
1.27627e-12
1.55789e-10
9.97737e-12
1.7612e-10
2.10261e-11
1.86321e-10
1.79435e-11
1.94643e-10
2.40057e-11
2.15594e-10
3.581e-11
2.24248e-10
3.16395e-11
2.36666e-10
4.58494e-11
2.63298e-10
6.43999e-11
2.80069e-10
7.01229e-11
2.95753e-10
9.21832e-11
3.33374e-10
1.29486e-10
3.51699e-10
1.43958e-10
3.62656e-10
1.69732e-10
3.63775e-10
1.98966e-10
3.64354e-10
2.5638e-10
2.8109e-10
2.78476e-10
9.33951e-11
2.63366e-10
-4.10138e-10
1.21755e-09
-1.56044e-09
-2.77719e-10
-1.07174e-09
-7.76224e-10
-6.07493e-10
-4.8947e-10
-2.98894e-10
-2.93996e-10
-1.18266e-10
-1.58964e-10
-3.95321e-11
-1.20123e-10
1.33993e-12
-9.34531e-11
3.20386e-11
-6.87515e-11
7.78839e-11
-2.65068e-11
1.09822e-10
-1.09099e-11
1.34977e-10
3.3121e-12
1.45386e-10
1.28791e-12
1.5578e-10
9.94804e-12
1.76045e-10
2.09513e-11
1.86318e-10
1.7986e-11
1.94637e-10
2.39996e-11
2.15518e-10
3.57585e-11
2.24257e-10
3.17095e-11
2.36662e-10
4.58651e-11
2.63203e-10
6.43564e-11
2.80051e-10
7.02431e-11
2.95716e-10
9.22137e-11
3.33214e-10
1.29463e-10
3.51608e-10
1.44085e-10
3.62548e-10
1.69885e-10
3.63779e-10
1.99149e-10
3.6454e-10
2.56761e-10
2.81949e-10
2.79483e-10
9.57895e-11
2.6031e-10
-4.21871e-10
1.22591e-09
-1.54816e-09
-2.82632e-10
-1.07652e-09
-7.80653e-10
-6.08367e-10
-4.88998e-10
-2.98707e-10
-2.93732e-10
-1.18303e-10
-1.58954e-10
-3.95061e-11
-1.20092e-10
1.31375e-12
-9.34798e-11
3.20646e-11
-6.87865e-11
7.78359e-11
-2.65593e-11
1.09754e-10
-1.09755e-11
1.34873e-10
3.22305e-12
1.45373e-10
1.31326e-12
1.55767e-10
9.92553e-12
1.75953e-10
2.0874e-11
1.8631e-10
1.8046e-11
1.94627e-10
2.40012e-11
2.15425e-10
3.57085e-11
2.24263e-10
3.17996e-11
2.36655e-10
4.58905e-11
2.63089e-10
6.43102e-11
2.80026e-10
7.03859e-11
2.95674e-10
9.22477e-11
3.3303e-10
1.29434e-10
3.51505e-10
1.44222e-10
3.62435e-10
1.70045e-10
3.63807e-10
1.99326e-10
3.64792e-10
2.57127e-10
2.83054e-10
2.80454e-10
9.89762e-11
2.56296e-10
-4.33577e-10
1.23529e-09
-1.53851e-09
-2.86882e-10
-1.08072e-09
-7.85657e-10
-6.09234e-10
-4.88446e-10
-2.98455e-10
-2.9343e-10
-1.18341e-10
-1.58937e-10
-3.94767e-11
-1.20051e-10
1.28743e-12
-9.34999e-11
3.20941e-11
-6.88177e-11
7.77791e-11
-2.66086e-11
1.09678e-10
-1.10427e-11
1.34752e-10
3.13094e-12
1.45354e-10
1.34966e-12
1.55751e-10
9.90808e-12
1.75846e-10
2.0794e-11
1.86297e-10
1.81209e-11
1.94614e-10
2.40089e-11
2.15318e-10
3.566e-11
2.24265e-10
3.19074e-11
2.36645e-10
4.59246e-11
2.62957e-10
6.42619e-11
2.79993e-10
7.05494e-11
2.95627e-10
9.2285e-11
3.32821e-10
1.29401e-10
3.51387e-10
1.44367e-10
3.62316e-10
1.70213e-10
3.63853e-10
1.99497e-10
3.65102e-10
2.57476e-10
2.84399e-10
2.81346e-10
1.03028e-10
2.51227e-10
-4.44518e-10
1.24529e-09
-1.53258e-09
-2.90098e-10
-1.08397e-09
-7.91141e-10
-6.10059e-10
-4.87815e-10
-2.98139e-10
-2.93102e-10
-1.18384e-10
-1.58918e-10
-3.94489e-11
-1.20006e-10
1.25803e-12
-9.3516e-11
3.21235e-11
-6.88474e-11
7.77113e-11
-2.66554e-11
1.09593e-10
-1.11125e-11
1.34615e-10
3.0361e-12
1.45329e-10
1.39588e-12
1.55731e-10
9.89548e-12
1.75723e-10
2.07122e-11
1.86275e-10
1.821e-11
1.94596e-10
2.40228e-11
2.15197e-10
3.56149e-11
2.24261e-10
3.20325e-11
2.3663e-10
4.59684e-11
2.62807e-10
6.42145e-11
2.7995e-10
7.07336e-11
2.95572e-10
9.23274e-11
3.32586e-10
1.29368e-10
3.5125e-10
1.44525e-10
3.62185e-10
1.70392e-10
3.63909e-10
1.99666e-10
3.65459e-10
2.57802e-10
2.85984e-10
2.82105e-10
1.08031e-10
2.44977e-10
-4.54025e-10
1.25567e-09
-1.53138e-09
-2.92033e-10
-1.08591e-09
-7.97004e-10
-6.10802e-10
-4.87103e-10
-2.97755e-10
-2.92753e-10
-1.18437e-10
-1.58901e-10
-3.94273e-11
-1.19959e-10
1.22244e-12
-9.35305e-11
3.21494e-11
-6.88775e-11
7.76302e-11
-2.67005e-11
1.09497e-10
-1.11856e-11
1.34461e-10
2.93892e-12
1.45294e-10
1.451e-12
1.55704e-10
9.88775e-12
1.75584e-10
2.06301e-11
1.86244e-10
1.83128e-11
1.94571e-10
2.40434e-11
2.1506e-10
3.55751e-11
2.24249e-10
3.2175e-11
2.36608e-10
4.60233e-11
2.62638e-10
6.41711e-11
2.79893e-10
7.09395e-11
2.95505e-10
9.23778e-11
3.32321e-10
1.29342e-10
3.5109e-10
1.44699e-10
3.62037e-10
1.70588e-10
3.63969e-10
1.99837e-10
3.65857e-10
2.58099e-10
2.87809e-10
2.82672e-10
1.14073e-10
2.37412e-10
-4.61514e-10
1.26626e-09
-1.53576e-09
-2.92558e-10
-1.0862e-09
-8.03137e-10
-6.11424e-10
-4.86301e-10
-2.97301e-10
-2.92389e-10
-1.18501e-10
-1.5889e-10
-3.94153e-11
-1.19915e-10
1.17835e-12
-9.35453e-11
3.21688e-11
-6.89097e-11
7.75337e-11
-2.67448e-11
1.0939e-10
-1.12626e-11
1.34289e-10
2.8397e-12
1.45248e-10
1.514e-12
1.5567e-10
9.88482e-12
1.75429e-10
2.05487e-11
1.86202e-10
1.84289e-11
1.94539e-10
2.40712e-11
2.14907e-10
3.55425e-11
2.24227e-10
3.23352e-11
2.36577e-10
4.60906e-11
2.62447e-10
6.41347e-11
2.79818e-10
7.11679e-11
2.95424e-10
9.2439e-11
3.32024e-10
1.29326e-10
3.50901e-10
1.44891e-10
3.61867e-10
1.70803e-10
3.64024e-10
2.00011e-10
3.6629e-10
2.58358e-10
2.89885e-10
2.82985e-10
1.21247e-10
2.28396e-10
-4.6652e-10
1.27705e-09
-1.54646e-09
-2.91641e-10
-1.08455e-09
-8.09435e-10
-6.11889e-10
-4.85398e-10
-2.96772e-10
-2.92012e-10
-1.18578e-10
-1.58887e-10
-3.9416e-11
-1.19876e-10
1.12349e-12
-9.3562e-11
3.2179e-11
-6.89451e-11
7.74198e-11
-2.6789e-11
1.0927e-10
-1.13442e-11
1.34097e-10
2.73873e-12
1.4519e-10
1.58415e-12
1.55626e-10
9.88684e-12
1.75256e-10
2.04694e-11
1.86147e-10
1.8558e-11
1.94497e-10
2.4107e-11
2.14736e-10
3.5519e-11
2.24191e-10
3.25135e-11
2.36533e-10
4.6172e-11
2.62234e-10
6.41086e-11
2.79723e-10
7.14199e-11
2.95324e-10
9.25139e-11
3.31692e-10
1.29325e-10
3.50678e-10
1.45104e-10
3.6167e-10
1.7104e-10
3.64069e-10
2.00189e-10
3.66753e-10
2.58566e-10
2.92222e-10
2.82974e-10
1.29642e-10
2.17811e-10
-4.68671e-10
1.28807e-09
-1.56407e-09
-2.89327e-10
-1.08072e-09
-8.15794e-10
-6.12165e-10
-4.84382e-10
-2.96162e-10
-2.91623e-10
-1.18668e-10
-1.58894e-10
-3.94312e-11
-1.19844e-10
1.05632e-12
-9.35815e-11
3.21776e-11
-6.89844e-11
7.72868e-11
-2.6834e-11
1.09136e-10
-1.14305e-11
1.33886e-10
2.63644e-12
1.45118e-10
1.66086e-12
1.55571e-10
9.89409e-12
1.75066e-10
2.03932e-11
1.86076e-10
1.87e-11
1.94444e-10
2.41517e-11
2.14546e-10
3.55064e-11
2.2414e-10
3.27104e-11
2.36475e-10
4.62692e-11
2.61996e-10
6.40956e-11
2.79603e-10
7.16967e-11
2.952e-10
9.26058e-11
3.31319e-10
1.29344e-10
3.50416e-10
1.45342e-10
3.6144e-10
1.71303e-10
3.64098e-10
2.00369e-10
3.67246e-10
2.58706e-10
2.94835e-10
2.82575e-10
1.39337e-10
2.05556e-10
-4.67706e-10
1.29944e-09
-1.58904e-09
-2.85721e-10
-1.07446e-09
-8.22118e-10
-6.12228e-10
-4.83241e-10
-2.95467e-10
-2.91219e-10
-1.1877e-10
-1.5891e-10
-3.94624e-11
-1.1982e-10
9.75386e-13
-9.36043e-11
3.21625e-11
-6.90279e-11
7.7133e-11
-2.68801e-11
1.08987e-10
-1.15216e-11
1.33654e-10
2.53332e-12
1.45029e-10
1.74379e-12
1.55502e-10
9.90706e-12
1.74857e-10
2.03216e-11
1.85987e-10
1.88549e-11
1.94377e-10
2.42063e-11
2.14337e-10
3.55066e-11
2.2407e-10
3.29269e-11
2.36398e-10
4.63842e-11
2.61731e-10
6.40991e-11
2.79454e-10
7.2e-11
2.9505e-10
9.27179e-11
3.30904e-10
1.29387e-10
3.50111e-10
1.45606e-10
3.61172e-10
1.71591e-10
3.64106e-10
2.00549e-10
3.6777e-10
2.58762e-10
2.97742e-10
2.81721e-10
1.50402e-10
1.91559e-10
-4.63449e-10
1.3113e-09
-1.62169e-09
-2.80987e-10
-1.06561e-09
-8.28315e-10
-6.12059e-10
-4.81963e-10
-2.94683e-10
-2.90799e-10
-1.18882e-10
-1.58936e-10
-3.95104e-11
-1.19804e-10
8.79806e-13
-9.36304e-11
3.2132e-11
-6.90756e-11
7.6957e-11
-2.69276e-11
1.08821e-10
-1.16173e-11
1.33401e-10
2.43001e-12
1.44922e-10
1.83273e-12
1.55419e-10
9.92631e-12
1.74627e-10
2.02559e-11
1.8588e-10
1.9023e-11
1.94295e-10
2.42722e-11
2.14105e-10
3.55217e-11
2.23978e-10
3.3164e-11
2.363e-10
4.65188e-11
2.61438e-10
6.4122e-11
2.79273e-10
7.23312e-11
2.94868e-10
9.28532e-11
3.30442e-10
1.29457e-10
3.49757e-10
1.45898e-10
3.60864e-10
1.71907e-10
3.64091e-10
2.00725e-10
3.68328e-10
2.58715e-10
3.00959e-10
2.80356e-10
1.6289e-10
1.7577e-10
-4.55827e-10
1.32382e-09
-1.66219e-09
-2.75325e-10
-1.05399e-09
-8.34295e-10
-6.11642e-10
-4.80538e-10
-2.93807e-10
-2.90362e-10
-1.19005e-10
-1.58971e-10
-3.9576e-11
-1.19796e-10
7.68615e-13
-9.36596e-11
3.20846e-11
-6.91273e-11
7.67577e-11
-2.69767e-11
1.08637e-10
-1.17172e-11
1.33125e-10
2.3272e-12
1.44795e-10
1.92768e-12
1.55319e-10
9.95258e-12
1.74377e-10
2.01974e-11
1.8575e-10
1.92047e-11
1.94194e-10
2.43507e-11
2.13849e-10
3.55536e-11
2.23863e-10
3.34228e-11
2.36179e-10
4.66753e-11
2.61112e-10
6.41673e-11
2.79056e-10
7.26918e-11
2.94651e-10
9.30147e-11
3.2993e-10
1.29558e-10
3.49351e-10
1.46221e-10
3.60511e-10
1.72249e-10
3.6405e-10
2.00893e-10
3.68922e-10
2.58547e-10
3.04501e-10
2.78425e-10
1.76841e-10
1.58173e-10
-4.44826e-10
1.33717e-09
-1.71064e-09
-2.68976e-10
-1.03948e-09
-8.39972e-10
-6.10969e-10
-4.78957e-10
-2.92837e-10
-2.89905e-10
-1.19138e-10
-1.59014e-10
-3.96595e-11
-1.19796e-10
6.41315e-13
-9.36912e-11
3.20192e-11
-6.91823e-11
7.6534e-11
-2.70272e-11
1.08433e-10
-1.18208e-11
1.32825e-10
2.22568e-12
1.44648e-10
2.02879e-12
1.55201e-10
9.98668e-12
1.74104e-10
2.01475e-11
1.85597e-10
1.94004e-11
1.94073e-10
2.44432e-11
2.13568e-10
3.56042e-11
2.23721e-10
3.37045e-11
2.36031e-10
4.68556e-11
2.60753e-10
6.42378e-11
2.78799e-10
7.30834e-11
2.94395e-10
9.32053e-11
3.29365e-10
1.29691e-10
3.48889e-10
1.46574e-10
3.60111e-10
1.72617e-10
3.63982e-10
2.01046e-10
3.69557e-10
2.5824e-10
3.08382e-10
2.75885e-10
1.92273e-10
1.38775e-10
-4.30502e-10
1.35154e-09
-1.76698e-09
-2.622e-10
-1.02198e-09
-8.45264e-10
-6.10038e-10
-4.77213e-10
-2.91773e-10
-2.89425e-10
-1.19278e-10
-1.59064e-10
-3.97613e-11
-1.19803e-10
4.97291e-13
-9.37245e-11
3.19344e-11
-6.92398e-11
7.62849e-11
-2.70789e-11
1.0821e-10
-1.19272e-11
1.32502e-10
2.12631e-12
1.44477e-10
2.13637e-12
1.55062e-10
1.00296e-11
1.73808e-10
2.01078e-11
1.85419e-10
1.96108e-11
1.9393e-10
2.45512e-11
2.1326e-10
3.56754e-11
2.2355e-10
3.40105e-11
2.35853e-10
4.70618e-11
2.60358e-10
6.43363e-11
2.785e-10
7.35074e-11
2.94096e-10
9.34275e-11
3.28743e-10
1.2986e-10
3.48369e-10
1.46958e-10
3.59661e-10
1.73011e-10
3.63886e-10
2.0118e-10
3.70237e-10
2.57778e-10
3.12612e-10
2.727e-10
2.09189e-10
1.17614e-10
-4.12966e-10
1.36711e-09
-1.83107e-09
-2.55282e-10
-1.00142e-09
-8.50092e-10
-6.08847e-10
-4.75303e-10
-2.90615e-10
-2.88922e-10
-1.19428e-10
-1.5912e-10
-3.98815e-11
-1.19817e-10
3.3614e-13
-9.37584e-11
3.18296e-11
-6.9299e-11
7.60097e-11
-2.71314e-11
1.07965e-10
-1.20358e-11
1.32153e-10
2.03003e-12
1.44282e-10
2.2508e-12
1.54902e-10
1.00822e-11
1.73487e-10
2.00795e-11
1.85213e-10
1.98365e-11
1.93763e-10
2.46762e-11
2.12922e-10
3.57691e-11
2.23347e-10
3.43419e-11
2.35643e-10
4.7296e-11
2.59924e-10
6.44653e-11
2.78156e-10
7.39651e-11
2.93751e-10
9.36836e-11
3.28062e-10
1.30067e-10
3.47787e-10
1.47374e-10
3.59159e-10
1.73427e-10
3.63761e-10
2.0129e-10
3.70965e-10
2.57147e-10
3.17197e-10
2.68845e-10
2.27574e-10
9.47548e-11
-3.92389e-10
1.38403e-09
-1.90266e-09
-2.48516e-10
-9.77777e-10
-8.54375e-10
-6.074e-10
-4.73223e-10
-2.89366e-10
-2.88393e-10
-1.19585e-10
-1.59183e-10
-4.00206e-11
-1.19837e-10
1.57252e-13
-9.37922e-11
3.17038e-11
-6.93589e-11
7.57077e-11
-2.71844e-11
1.07698e-10
-1.21455e-11
1.31778e-10
1.93778e-12
1.44062e-10
2.37253e-12
1.54718e-10
1.01455e-11
1.73141e-10
2.00642e-11
1.84979e-10
2.00781e-11
1.93569e-10
2.48197e-11
2.12553e-10
3.58869e-11
2.2311e-10
3.47001e-11
2.35399e-10
4.75599e-11
2.5945e-10
6.46272e-11
2.77762e-10
7.44577e-11
2.93357e-10
9.39758e-11
3.2732e-10
1.30312e-10
3.47141e-10
1.47822e-10
3.58605e-10
1.73865e-10
3.63608e-10
2.0137e-10
3.71744e-10
2.56335e-10
3.22137e-10
2.64302e-10
2.47394e-10
7.02903e-11
-3.68977e-10
1.40245e-09
-1.98142e-09
-2.42215e-10
-9.51041e-10
-8.58038e-10
-6.05701e-10
-4.70972e-10
-2.88026e-10
-2.87837e-10
-1.19751e-10
-1.59251e-10
-4.0179e-11
-1.19861e-10
-3.97228e-14
-9.38248e-11
3.15563e-11
-6.94183e-11
7.53782e-11
-2.72373e-11
1.07408e-10
-1.22554e-11
1.31377e-10
1.85052e-12
1.43815e-10
2.50214e-12
1.5451e-10
1.02206e-11
1.72767e-10
2.00632e-11
1.84713e-10
2.03365e-11
1.93347e-10
2.49831e-11
2.12152e-10
3.60305e-11
2.22838e-10
3.50862e-11
2.35116e-10
4.78553e-11
2.58933e-10
6.4824e-11
2.77318e-10
7.49863e-11
2.9291e-10
9.43058e-11
3.26515e-10
1.30598e-10
3.46431e-10
1.483e-10
3.57996e-10
1.74323e-10
3.63426e-10
2.01416e-10
3.72576e-10
2.55334e-10
3.27432e-10
2.59065e-10
2.68596e-10
4.43337e-11
-3.42974e-10
1.42248e-09
-2.06693e-09
-2.36691e-10
-9.21238e-10
-8.61005e-10
-6.03758e-10
-4.68551e-10
-2.866e-10
-2.87252e-10
-1.19925e-10
-1.59323e-10
-4.0357e-11
-1.1989e-10
-2.55318e-13
-9.38551e-11
3.13865e-11
-6.94764e-11
7.50208e-11
-2.72896e-11
1.07094e-10
-1.23646e-11
1.30948e-10
1.7692e-12
1.4354e-10
2.64024e-12
1.54275e-10
1.03084e-11
1.72366e-10
2.00778e-11
1.84416e-10
2.06123e-11
1.93095e-10
2.5168e-11
2.11716e-10
3.62015e-11
2.22527e-10
3.55014e-11
2.34794e-10
4.81839e-11
2.58371e-10
6.50579e-11
2.7682e-10
7.55519e-11
2.92409e-10
9.46754e-11
3.25645e-10
1.30924e-10
3.45654e-10
1.48809e-10
3.57332e-10
1.74798e-10
3.63215e-10
2.01423e-10
3.7346e-10
2.54135e-10
3.33074e-10
2.53138e-10
2.91108e-10
1.70279e-11
-3.14644e-10
1.44422e-09
-2.15868e-09
-2.32252e-10
-8.88434e-10
-8.63207e-10
-6.01579e-10
-4.65962e-10
-2.8509e-10
-2.86638e-10
-1.20108e-10
-1.594e-10
-4.0555e-11
-1.19923e-10
-4.89998e-13
-9.38822e-11
3.11936e-11
-6.95319e-11
7.4635e-11
-2.73409e-11
1.06755e-10
-1.24719e-11
1.30491e-10
1.6948e-12
1.43237e-10
2.78742e-12
1.54012e-10
1.04101e-11
1.71936e-10
2.01093e-11
1.84085e-10
2.09063e-11
1.9281e-10
2.53756e-11
2.11245e-10
3.64012e-11
2.22177e-10
3.59468e-11
2.34431e-10
4.85472e-11
2.57764e-10
6.53304e-11
2.76268e-10
7.61553e-11
2.9185e-10
9.50859e-11
3.24708e-10
1.31292e-10
3.44809e-10
1.49348e-10
3.56612e-10
1.75289e-10
3.62974e-10
2.0139e-10
3.74397e-10
2.52737e-10
3.39051e-10
2.46535e-10
3.14844e-10
-1.14632e-11
-2.84297e-10
1.46771e-09
-2.2561e-09
-2.29198e-10
-8.52718e-10
-8.64574e-10
-5.99175e-10
-4.6321e-10
-2.835e-10
-2.85994e-10
-1.20299e-10
-1.5948e-10
-4.07735e-11
-1.19958e-10
-7.44312e-13
-9.39053e-11
3.09773e-11
-6.95842e-11
7.42201e-11
-2.73906e-11
1.06391e-10
-1.25764e-11
1.30006e-10
1.6282e-12
1.42904e-10
2.94428e-12
1.53721e-10
1.05264e-11
1.71476e-10
2.0159e-11
1.8372e-10
2.12192e-11
1.92492e-10
2.56072e-11
2.10737e-10
3.66309e-11
2.21785e-10
3.64235e-11
2.34023e-10
4.89464e-11
2.57109e-10
6.56433e-11
2.75658e-10
7.67972e-11
2.91232e-10
9.55386e-11
3.23703e-10
1.31701e-10
3.43895e-10
1.49917e-10
3.55835e-10
1.75795e-10
3.62703e-10
2.01313e-10
3.75383e-10
2.51137e-10
3.45345e-10
2.39278e-10
3.397e-10
-4.09495e-11
-2.52252e-10
1.49297e-09
-2.35855e-09
-2.27833e-10
-8.14216e-10
-8.65037e-10
-5.96554e-10
-4.60299e-10
-2.81833e-10
-2.85317e-10
-1.205e-10
-1.59562e-10
-4.10126e-11
-1.19994e-10
-1.01855e-12
-9.39232e-11
3.0737e-11
-6.96321e-11
7.3776e-11
-2.74383e-11
1.06001e-10
-1.26772e-11
1.29492e-10
1.57027e-12
1.4254e-10
3.11146e-12
1.53399e-10
1.06583e-11
1.70986e-10
2.02279e-11
1.83318e-10
2.15518e-11
1.92139e-10
2.58641e-11
2.1019e-10
3.68919e-11
2.2135e-10
3.69323e-11
2.3357e-10
4.93829e-11
2.56404e-10
6.59981e-11
2.7499e-10
7.74783e-11
2.90553e-10
9.60344e-11
3.22629e-10
1.32153e-10
3.42912e-10
1.50514e-10
3.55e-10
1.76313e-10
3.62401e-10
2.01191e-10
3.76416e-10
2.49338e-10
3.51935e-10
2.31402e-10
3.65554e-10
-7.12292e-11
-2.18841e-10
1.51998e-09
-2.46533e-09
-2.28445e-10
-7.73076e-10
-8.64532e-10
-5.93726e-10
-4.57237e-10
-2.80093e-10
-2.84606e-10
-1.20709e-10
-1.59647e-10
-4.12724e-11
-1.20031e-10
-1.31302e-12
-9.39352e-11
3.04724e-11
-6.96747e-11
7.33023e-11
-2.74835e-11
1.05584e-10
-1.27732e-11
1.28948e-10
1.52182e-12
1.42145e-10
3.28958e-12
1.53047e-10
1.08066e-11
1.70464e-10
2.03172e-11
1.8288e-10
2.19046e-11
1.9175e-10
2.61473e-11
2.09603e-10
3.71852e-11
2.20871e-10
3.74743e-11
2.33071e-10
4.98578e-11
2.5565e-10
6.63959e-11
2.74263e-10
7.81991e-11
2.89811e-10
9.65743e-11
3.21485e-10
1.32647e-10
3.41858e-10
1.51141e-10
3.54106e-10
1.76843e-10
3.62065e-10
2.01024e-10
3.7749e-10
2.47345e-10
3.58793e-10
2.22948e-10
3.92266e-10
-1.02078e-10
-1.84396e-10
1.5487e-09
-2.57568e-09
-2.31301e-10
-7.29488e-10
-8.62999e-10
-5.90704e-10
-4.54033e-10
-2.78285e-10
-2.83859e-10
-1.20926e-10
-1.59734e-10
-4.15531e-11
-1.20068e-10
-1.62804e-12
-9.39402e-11
3.01831e-11
-6.97112e-11
7.27988e-11
-2.75259e-11
1.0514e-10
-1.28636e-11
1.28374e-10
1.48365e-12
1.41718e-10
3.47921e-12
1.52662e-10
1.09721e-11
1.6991e-10
2.04279e-11
1.82404e-10
2.22784e-11
1.91322e-10
2.64578e-11
2.08976e-10
3.75119e-11
2.20347e-10
3.80502e-11
2.32522e-10
5.03719e-11
2.54844e-10
6.6838e-11
2.73474e-10
7.89603e-11
2.89005e-10
9.71591e-11
3.2027e-10
1.33184e-10
3.40734e-10
1.51795e-10
3.53152e-10
1.77384e-10
3.61695e-10
2.00811e-10
3.78599e-10
2.45165e-10
3.65888e-10
2.13971e-10
4.19688e-10
-1.33253e-10
-1.49277e-10
1.57903e-09
-2.68879e-09
-2.3664e-10
-6.83663e-10
-8.60382e-10
-5.87495e-10
-4.50697e-10
-2.76412e-10
-2.83076e-10
-1.21151e-10
-1.5982e-10
-4.18545e-11
-1.20104e-10
-1.96377e-12
-9.39374e-11
2.98691e-11
-6.97409e-11
7.22651e-11
-2.7565e-11
1.04668e-10
-1.29477e-11
1.27769e-10
1.45646e-12
1.41259e-10
3.68088e-12
1.52244e-10
1.11555e-11
1.69323e-10
2.05608e-11
1.81889e-10
2.26738e-11
1.90856e-10
2.67967e-11
2.08307e-10
3.78728e-11
2.19776e-10
3.86608e-11
2.31924e-10
5.09262e-11
2.53986e-10
6.73254e-11
2.72624e-10
7.9762e-11
2.88133e-10
9.77893e-11
3.18984e-10
1.33764e-10
3.39538e-10
1.52477e-10
3.52137e-10
1.77934e-10
3.61288e-10
2.00553e-10
3.79735e-10
2.4281e-10
3.73183e-10
2.0453e-10
4.47655e-10
-1.64496e-10
-1.13841e-10
1.6108e-09
-2.80381e-09
-2.44707e-10
-6.35841e-10
-8.56621e-10
-5.84108e-10
-4.4724e-10
-2.74479e-10
-2.82255e-10
-1.21384e-10
-1.59906e-10
-4.21762e-11
-1.20138e-10
-2.3201e-12
-9.39258e-11
2.95303e-11
-6.97629e-11
7.17013e-11
-2.76005e-11
1.04168e-10
-1.30244e-11
1.27134e-10
1.44091e-12
1.40766e-10
3.89513e-12
1.51793e-10
1.13573e-11
1.68703e-10
2.07169e-11
1.81336e-10
2.30913e-11
1.90349e-10
2.71647e-11
2.07596e-10
3.82687e-11
2.19159e-10
3.93067e-11
2.31275e-10
5.15213e-11
2.53074e-10
6.78589e-11
2.7171e-10
8.06048e-11
2.87194e-10
9.84654e-11
3.17625e-10
1.34385e-10
3.3827e-10
1.53185e-10
3.51061e-10
1.78493e-10
3.60842e-10
2.00252e-10
3.80887e-10
2.40293e-10
3.80637e-10
1.94695e-10
4.75989e-10
-1.95544e-10
-7.84351e-11
1.64387e-09
-2.91988e-09
-2.5572e-10
-5.86282e-10
-8.51664e-10
-5.80548e-10
-4.43675e-10
-2.72487e-10
-2.81392e-10
-1.21621e-10
-1.59989e-10
-4.25177e-11
-1.20168e-10
-2.69685e-12
-9.39045e-11
2.91667e-11
-6.97764e-11
7.11074e-11
-2.76321e-11
1.03639e-10
-1.30931e-11
1.26467e-10
1.43762e-12
1.4024e-10
4.1225e-12
1.51307e-10
1.15782e-11
1.68048e-10
2.08969e-11
1.80742e-10
2.35315e-11
1.89802e-10
2.75627e-11
2.06841e-10
3.87002e-11
2.18493e-10
3.99887e-11
2.30574e-10
5.21578e-11
2.52109e-10
6.84393e-11
2.70734e-10
8.14888e-11
2.86187e-10
9.91877e-11
3.16195e-10
1.35048e-10
3.3693e-10
1.53921e-10
3.49922e-10
1.79061e-10
3.60354e-10
1.99912e-10
3.82045e-10
2.37629e-10
3.88203e-10
1.84541e-10
5.04498e-10
-2.26121e-10
-4.33936e-11
1.67801e-09
-3.03608e-09
-2.69865e-10
-5.35282e-10
-8.45464e-10
-5.76822e-10
-4.40014e-10
-2.70443e-10
-2.80485e-10
-1.21863e-10
-1.60069e-10
-4.28783e-11
-1.20194e-10
-3.09385e-12
-9.38725e-11
2.87786e-11
-6.97808e-11
7.04833e-11
-2.76594e-11
1.03082e-10
-1.3153e-11
1.25769e-10
1.44719e-12
1.3968e-10
4.36345e-12
1.50786e-10
1.18186e-11
1.6736e-10
2.11015e-11
1.80108e-10
2.39949e-11
1.89213e-10
2.79913e-11
2.06043e-10
3.9168e-11
2.17778e-10
4.07072e-11
2.29821e-10
5.28362e-11
2.51088e-10
6.90674e-11
2.69693e-10
8.24145e-11
2.85112e-10
9.99565e-11
3.14691e-10
1.35753e-10
3.35518e-10
1.54682e-10
3.48719e-10
1.79638e-10
3.59821e-10
1.99535e-10
3.83197e-10
2.34838e-10
3.95833e-10
1.74154e-10
5.32987e-10
-2.55941e-10
-9.06704e-12
1.71299e-09
-3.15147e-09
-2.8729e-10
-4.83152e-10
-8.37976e-10
-5.72933e-10
-4.36273e-10
-2.68349e-10
-2.79534e-10
-1.22108e-10
-1.60143e-10
-4.32572e-11
-1.20213e-10
-3.51072e-12
-9.38288e-11
2.83665e-11
-6.97754e-11
6.9829e-11
-2.76822e-11
1.02495e-10
-1.32035e-11
1.2504e-10
1.47013e-12
1.39086e-10
4.61842e-12
1.5023e-10
1.2079e-11
1.66636e-10
2.13314e-11
1.79434e-10
2.44819e-11
1.88582e-10
2.84511e-11
2.052e-10
3.96726e-11
2.17014e-10
4.14627e-11
2.29013e-10
5.35567e-11
2.50013e-10
6.97436e-11
2.68588e-10
8.33817e-11
2.83968e-10
1.00772e-10
3.13115e-10
1.36499e-10
3.34033e-10
1.55469e-10
3.47451e-10
1.80223e-10
3.59239e-10
1.99124e-10
3.84328e-10
2.31941e-10
4.03473e-10
1.63624e-10
5.61251e-10
-2.84708e-10
2.42067e-11
1.7485e-09
-3.2651e-09
-3.08158e-10
-4.30224e-10
-8.29159e-10
-5.68881e-10
-4.32465e-10
-2.66208e-10
-2.78534e-10
-1.22354e-10
-1.60211e-10
-4.36533e-11
-1.20226e-10
-3.94682e-12
-9.37724e-11
2.79307e-11
-6.97594e-11
6.91448e-11
-2.77002e-11
1.0188e-10
-1.32438e-11
1.24278e-10
1.50694e-12
1.38458e-10
4.88785e-12
1.49637e-10
1.23597e-11
1.65878e-10
2.15871e-11
1.78718e-10
2.4993e-11
1.87907e-10
2.89427e-11
2.04311e-10
4.02144e-11
2.162e-10
4.22557e-11
2.28152e-10
5.43198e-11
2.48882e-10
7.04683e-11
2.67419e-10
8.43906e-11
2.82755e-10
1.01633e-10
3.11465e-10
1.37286e-10
3.32476e-10
1.56282e-10
3.46117e-10
1.80816e-10
3.58604e-10
1.98687e-10
3.85423e-10
2.2896e-10
4.11065e-10
1.53044e-10
5.89075e-10
-3.12133e-10
5.61124e-11
1.78424e-09
-3.37602e-09
-3.326e-10
-3.76842e-10
-8.18965e-10
-5.64662e-10
-4.28605e-10
-2.64022e-10
-2.77483e-10
-1.22598e-10
-1.6027e-10
-4.40651e-11
-1.2023e-10
-4.40135e-12
-9.37023e-11
2.74719e-11
-6.97321e-11
6.84312e-11
-2.77133e-11
1.01234e-10
-1.32732e-11
1.23485e-10
1.55804e-12
1.37795e-10
5.17217e-12
1.49008e-10
1.2661e-11
1.65084e-10
2.18692e-11
1.77961e-10
2.55286e-11
1.87189e-10
2.94665e-11
2.03378e-10
4.07936e-11
2.15336e-10
4.30866e-11
2.27237e-10
5.51255e-11
2.47695e-10
7.12418e-11
2.66185e-10
8.54412e-11
2.81471e-10
1.02541e-10
3.09743e-10
1.38113e-10
3.30846e-10
1.57119e-10
3.44716e-10
1.81419e-10
3.57912e-10
1.98227e-10
3.86466e-10
2.2592e-10
4.18552e-10
1.42513e-10
6.16239e-10
-3.37926e-10
8.63564e-11
1.81989e-09
-3.48328e-09
-3.60703e-10
-3.23374e-10
-8.07364e-10
-5.60274e-10
-4.24708e-10
-2.61795e-10
-2.76377e-10
-1.22837e-10
-1.60318e-10
-4.44912e-11
-1.20225e-10
-4.87364e-12
-9.36176e-11
2.69907e-11
-6.96927e-11
6.76881e-11
-2.77212e-11
1.0056e-10
-1.32911e-11
1.2266e-10
1.62389e-12
1.37097e-10
5.4718e-12
1.48343e-10
1.29833e-11
1.64254e-10
2.21782e-11
1.77162e-10
2.60892e-11
1.86426e-10
3.0023e-11
2.02398e-10
4.14107e-11
2.14421e-10
4.39557e-11
2.26266e-10
5.59738e-11
2.46453e-10
7.20643e-11
2.64885e-10
8.65334e-11
2.80118e-10
1.03495e-10
3.07947e-10
1.38979e-10
3.29144e-10
1.57982e-10
3.43246e-10
1.82032e-10
3.57159e-10
1.97751e-10
3.87439e-10
2.22849e-10
4.2587e-10
1.32134e-10
6.42524e-10
-3.61788e-10
1.14636e-10
1.85507e-09
-3.58601e-09
-3.92531e-10
-2.70198e-10
-7.94325e-10
-5.55708e-10
-4.2079e-10
-2.59528e-10
-2.75214e-10
-1.23069e-10
-1.60353e-10
-4.493e-11
-1.20208e-10
-5.36271e-12
-9.35171e-11
2.64882e-11
-6.96408e-11
6.69157e-11
-2.77237e-11
9.98557e-11
-1.32969e-11
1.21803e-10
1.70481e-12
1.36364e-10
5.78708e-12
1.47641e-10
1.33267e-11
1.63388e-10
2.25145e-11
1.76321e-10
2.66749e-11
1.8562e-10
3.06125e-11
2.01373e-10
4.20658e-11
2.13456e-10
4.48632e-11
2.2524e-10
5.68648e-11
2.45154e-10
7.2936e-11
2.63521e-10
8.76671e-11
2.78696e-10
1.04495e-10
3.06079e-10
1.39883e-10
3.27368e-10
1.58869e-10
3.41705e-10
1.82655e-10
3.56338e-10
1.97266e-10
3.88324e-10
2.19773e-10
4.32958e-10
1.22011e-10
6.67708e-10
-3.83424e-10
1.40664e-10
1.88938e-09
-3.68307e-09
-4.28172e-10
-2.177e-10
-7.79816e-10
-5.50953e-10
-4.16865e-10
-2.57224e-10
-2.73989e-10
-1.23292e-10
-1.60372e-10
-4.53796e-11
-1.20178e-10
-5.86738e-12
-9.34e-11
2.59653e-11
-6.95754e-11
6.61147e-11
-2.77208e-11
9.91224e-11
-1.329e-11
1.20913e-10
1.80113e-12
1.35597e-10
6.11841e-12
1.46902e-10
1.36915e-11
1.62487e-10
2.28784e-11
1.75438e-10
2.7286e-11
1.84768e-10
3.12354e-11
2.00301e-10
4.2759e-11
2.12439e-10
4.58093e-11
2.24159e-10
5.77982e-11
2.43798e-10
7.38567e-11
2.62093e-10
8.88419e-11
2.77203e-10
1.0554e-10
3.04138e-10
1.40825e-10
3.2552e-10
1.5978e-10
3.40093e-10
1.83289e-10
3.55446e-10
1.96779e-10
3.891e-10
2.16721e-10
4.3975e-10
1.12249e-10
6.91567e-10
-4.02551e-10
1.6418e-10
1.92246e-09
-3.77365e-09
-4.67688e-10
-1.66269e-10
-7.63805e-10
-5.45993e-10
-4.12946e-10
-2.54882e-10
-2.72697e-10
-1.23499e-10
-1.60374e-10
-4.58373e-11
-1.20134e-10
-6.38621e-12
-9.3265e-11
2.54231e-11
-6.94954e-11
6.52855e-11
-2.77125e-11
9.83598e-11
-1.32696e-11
1.19992e-10
1.9131e-12
1.34794e-10
6.46613e-12
1.46126e-10
1.40778e-11
1.61549e-10
2.32703e-11
1.74513e-10
2.7923e-11
1.83873e-10
3.1892e-11
1.99182e-10
4.34901e-11
2.11372e-10
4.67942e-11
2.23023e-10
5.8774e-11
2.42387e-10
7.48263e-11
2.60599e-10
9.00575e-11
2.75642e-10
1.0663e-10
3.02125e-10
1.41804e-10
3.23599e-10
1.60716e-10
3.38408e-10
1.83936e-10
3.54476e-10
1.96299e-10
3.89749e-10
2.13722e-10
4.46182e-10
1.02953e-10
7.13877e-10
-4.18894e-10
1.84951e-10
1.95393e-09
-3.85684e-09
-5.1109e-10
-1.16303e-10
-7.4627e-10
-5.40812e-10
-4.09046e-10
-2.52503e-10
-2.71336e-10
-1.23688e-10
-1.60356e-10
-4.63012e-11
-1.20074e-10
-6.918e-12
-9.31112e-11
2.48629e-11
-6.94001e-11
6.44283e-11
-2.76987e-11
9.75683e-11
-1.32352e-11
1.19038e-10
2.04099e-12
1.33957e-10
6.83061e-12
1.45313e-10
1.44859e-11
1.60575e-10
2.36904e-11
1.73546e-10
2.85858e-11
1.82932e-10
3.25824e-11
1.98016e-10
4.42593e-11
2.10253e-10
4.7818e-11
2.21832e-10
5.97919e-11
2.4092e-10
7.58446e-11
2.59041e-10
9.13136e-11
2.74012e-10
1.07765e-10
3.0004e-10
1.42819e-10
3.21605e-10
1.61676e-10
3.36647e-10
1.84597e-10
3.53423e-10
1.95833e-10
3.90249e-10
2.10805e-10
4.52188e-10
9.42241e-11
7.3442e-10
-4.32176e-10
2.02736e-10
1.98335e-09
-3.93172e-09
-5.58363e-10
-6.82047e-11
-7.27193e-10
-5.3539e-10
-4.05178e-10
-2.50088e-10
-2.699e-10
-1.23856e-10
-1.60315e-10
-4.67685e-11
-1.19997e-10
-7.46116e-12
-9.29375e-11
2.42862e-11
-6.92887e-11
6.35435e-11
-2.76794e-11
9.67481e-11
-1.31862e-11
1.18053e-10
2.18495e-12
1.33086e-10
7.21216e-12
1.44463e-10
1.49157e-11
1.59565e-10
2.41389e-11
1.72536e-10
2.92748e-11
1.81947e-10
3.33069e-11
1.96804e-10
4.50663e-11
2.09084e-10
4.88807e-11
2.20585e-10
6.08515e-11
2.39396e-10
7.69114e-11
2.57419e-10
9.26096e-11
2.72314e-10
1.08944e-10
2.97882e-10
1.43868e-10
3.19538e-10
1.6266e-10
3.3481e-10
1.85273e-10