/*--------------------------------*- C++ -*----------------------------------*\
| =========                 |                                                 |
| \\      /  F ield         | OpenFOAM: The Open Source CFD Toolbox           |
|  \\    /   O peration     | Version:  2312                                  |
|   \\  /    A nd           | Website:  www.openfoam.com                      |
|    \\/     M anipulation  |                                                 |
\*---------------------------------------------------------------------------*/
FoamFile
{
    version     2.0;
    format      ascii;
    arch        "LSB;label=32;scalar=64";
    class       volScalarField;
    location    "900";
    object      pMean;
}
// * * * * * * * * * * * * * * * * * * * * * * * * * * * * * * * * * * * * * //

dimensions      [0 2 -2 0 0 0 0];

internalField   nonuniform List<scalar> 
330000
(
-7.11014e-09
-1.66785e-09
-4.31634e-09
-3.30431e-09
-2.24629e-09
-1.66589e-09
-8.59916e-10
-7.22494e-10
-1.12587e-10
-1.78153e-10
2.34452e-10
1.48932e-11
4.20993e-10
1.35297e-10
5.38674e-10
2.10029e-10
6.74534e-10
3.177e-10
7.64407e-10
3.46406e-10
8.33672e-10
3.69449e-10
8.64243e-10
3.47007e-10
8.94357e-10
3.4846e-10
9.50392e-10
3.57424e-10
9.82879e-10
3.29037e-10
1.01226e-09
3.19938e-10
1.07305e-09
3.251e-10
1.10634e-09
2.89212e-10
1.15008e-09
2.93513e-10
1.23026e-09
3.10329e-10
1.29124e-09
2.95105e-10
1.3555e-09
3.15259e-10
1.47672e-09
3.76783e-10
1.56217e-09
3.89993e-10
1.64685e-09
4.44946e-10
1.72633e-09
5.33305e-10
1.82796e-09
7.43203e-10
1.76503e-09
1.02522e-09
1.45661e-09
1.54793e-09
-2.10513e-09
7.65346e-09
-7.04989e-09
-1.66478e-09
-4.32576e-09
-3.30897e-09
-2.24832e-09
-1.66625e-09
-8.61052e-10
-7.22937e-10
-1.13543e-10
-1.78563e-10
2.33673e-10
1.46287e-11
4.20279e-10
1.35119e-10
5.38043e-10
2.09952e-10
6.73943e-10
3.17711e-10
7.63788e-10
3.46475e-10
8.33067e-10
3.69582e-10
8.6366e-10
3.47247e-10
8.93755e-10
3.48749e-10
9.49744e-10
3.57759e-10
9.82233e-10
3.29497e-10
1.01156e-09
3.20439e-10
1.07228e-09
3.2566e-10
1.10554e-09
2.89906e-10
1.14921e-09
2.94277e-10
1.22929e-09
3.11163e-10
1.29022e-09
2.96128e-10
1.35435e-09
3.16352e-10
1.47543e-09
3.78014e-10
1.56075e-09
3.91472e-10
1.64525e-09
4.4669e-10
1.72454e-09
5.35386e-10
1.82599e-09
7.45979e-10
1.76267e-09
1.02939e-09
1.4553e-09
1.55326e-09
-2.12766e-09
7.63051e-09
-6.98771e-09
-1.66566e-09
-4.33801e-09
-3.31452e-09
-2.25019e-09
-1.66628e-09
-8.61803e-10
-7.23561e-10
-1.14295e-10
-1.79374e-10
2.33167e-10
1.3983e-11
4.19854e-10
1.3451e-10
5.37773e-10
2.09415e-10
6.73711e-10
3.17232e-10
7.63565e-10
3.46013e-10
8.32882e-10
3.69142e-10
8.63584e-10
3.46921e-10
8.93703e-10
3.48407e-10
9.49663e-10
3.57406e-10
9.8224e-10
3.29273e-10
1.01156e-09
3.2018e-10
1.07224e-09
3.25386e-10
1.10557e-09
2.89755e-10
1.14923e-09
2.94107e-10
1.22922e-09
3.10986e-10
1.2902e-09
2.96144e-10
1.35427e-09
3.1633e-10
1.47522e-09
3.78056e-10
1.56049e-09
3.91782e-10
1.64483e-09
4.47262e-10
1.72394e-09
5.36354e-10
1.82512e-09
7.47919e-10
1.76116e-09
1.03325e-09
1.45465e-09
1.56084e-09
-2.16851e-09
7.62762e-09
-6.92565e-09
-1.6781e-09
-4.34952e-09
-3.321e-09
-2.25152e-09
-1.66541e-09
-8.62055e-10
-7.23859e-10
-1.14903e-10
-1.8013e-10
2.32825e-10
1.33562e-11
4.19541e-10
1.33857e-10
5.37644e-10
2.08821e-10
6.73565e-10
3.16662e-10
7.63438e-10
3.45441e-10
8.32778e-10
3.68566e-10
8.63644e-10
3.46495e-10
8.93793e-10
3.47929e-10
9.49699e-10
3.56879e-10
9.82418e-10
3.2892e-10
1.01174e-09
3.19749e-10
1.07235e-09
3.249e-10
1.10582e-09
2.89437e-10
1.14947e-09
2.93721e-10
1.22935e-09
3.10543e-10
1.29044e-09
2.95947e-10
1.35446e-09
3.16024e-10
1.47523e-09
3.77765e-10
1.56051e-09
3.91794e-10
1.64468e-09
4.47512e-10
1.72367e-09
5.36981e-10
1.82458e-09
7.49546e-10
1.76012e-09
1.0366e-09
1.45607e-09
1.56498e-09
-2.21817e-09
7.64331e-09
-6.8686e-09
-1.69961e-09
-4.35733e-09
-3.32787e-09
-2.25215e-09
-1.66353e-09
-8.61887e-10
-7.23826e-10
-1.15491e-10
-1.80817e-10
2.32506e-10
1.27978e-11
4.19205e-10
1.33241e-10
5.37514e-10
2.08267e-10
6.73363e-10
3.16114e-10
7.63257e-10
3.44884e-10
8.32594e-10
3.67995e-10
8.63665e-10
3.46124e-10
8.93844e-10
3.47489e-10
9.49655e-10
3.56367e-10
9.82552e-10
3.2864e-10
1.01188e-09
3.19369e-10
1.07238e-09
3.24448e-10
1.10602e-09
2.89209e-10
1.14965e-09
2.934e-10
1.22937e-09
3.10136e-10
1.29061e-09
2.95861e-10
1.35457e-09
3.15785e-10
1.4751e-09
3.77517e-10
1.5604e-09
3.91909e-10
1.64437e-09
4.47872e-10
1.72325e-09
5.37731e-10
1.82386e-09
7.5133e-10
1.75903e-09
1.03977e-09
1.4596e-09
1.56369e-09
-2.26839e-09
7.67083e-09
-6.82296e-09
-1.72626e-09
-4.35914e-09
-3.33457e-09
-2.25186e-09
-1.66059e-09
-8.61284e-10
-7.23516e-10
-1.16096e-10
-1.81484e-10
2.32159e-10
1.22589e-11
4.18808e-10
1.32628e-10
5.37342e-10
2.07724e-10
6.73076e-10
3.15569e-10
7.62998e-10
3.44327e-10
8.32312e-10
3.67422e-10
8.63624e-10
3.45798e-10
8.93836e-10
3.47083e-10
9.49514e-10
3.55868e-10
9.8262e-10
3.28434e-10
1.01196e-09
3.19044e-10
1.07231e-09
3.2404e-10
1.10615e-09
2.89078e-10
1.14975e-09
2.9316e-10
1.22925e-09
3.09785e-10
1.29066e-09
2.95906e-10
1.35456e-09
3.15641e-10
1.47477e-09
3.77357e-10
1.56009e-09
3.92177e-10
1.64383e-09
4.48423e-10
1.72257e-09
5.38721e-10
1.82278e-09
7.53447e-10
1.75762e-09
1.04288e-09
1.46515e-09
1.55595e-09
-2.31411e-09
7.7062e-09
-6.79489e-09
-1.75473e-09
-4.35285e-09
-3.34062e-09
-2.25044e-09
-1.65653e-09
-8.60177e-10
-7.22942e-10
-1.16706e-10
-1.82153e-10
2.31769e-10
1.17039e-11
4.18339e-10
1.31985e-10
5.37118e-10
2.07155e-10
6.72696e-10
3.14999e-10
7.62659e-10
3.43741e-10
8.31931e-10
3.66822e-10
8.63519e-10
3.45489e-10
8.93772e-10
3.46688e-10
9.49284e-10
3.55363e-10
9.82628e-10
3.28277e-10
1.01197e-09
3.18752e-10
1.07215e-09
3.2366e-10
1.10621e-09
2.89022e-10
1.14978e-09
2.92981e-10
1.22902e-09
3.09475e-10
1.29062e-09
2.96064e-10
1.35443e-09
3.15582e-10
1.47425e-09
3.77286e-10
1.55958e-09
3.92603e-10
1.64303e-09
4.49192e-10
1.72155e-09
5.40006e-10
1.8212e-09
7.55983e-10
1.75574e-09
1.04592e-09
1.4728e-09
1.54091e-09
-2.35133e-09
7.74666e-09
-6.78942e-09
-1.78252e-09
-4.33654e-09
-3.34563e-09
-2.24773e-09
-1.65128e-09
-8.58498e-10
-7.22098e-10
-1.17295e-10
-1.82817e-10
2.31337e-10
1.11216e-11
4.17792e-10
1.313e-10
5.36827e-10
2.06547e-10
6.72213e-10
3.14393e-10
7.62232e-10
3.43113e-10
8.31446e-10
3.66187e-10
8.63343e-10
3.45187e-10
8.93645e-10
3.46295e-10
9.4896e-10
3.54848e-10
9.82567e-10
3.28162e-10
1.01193e-09
3.18487e-10
1.07189e-09
3.23307e-10
1.1062e-09
2.89038e-10
1.14973e-09
2.92868e-10
1.22866e-09
3.09215e-10
1.29045e-09
2.9634e-10
1.35418e-09
3.15621e-10
1.47352e-09
3.77334e-10
1.55883e-09
3.93221e-10
1.6419e-09
4.50231e-10
1.72011e-09
5.41658e-10
1.81902e-09
7.59004e-10
1.7533e-09
1.04876e-09
1.48271e-09
1.51792e-09
-2.37672e-09
7.78989e-09
-6.81052e-09
-1.80773e-09
-4.3086e-09
-3.34928e-09
-2.24362e-09
-1.64481e-09
-8.562e-10
-7.20973e-10
-1.17838e-10
-1.83464e-10
2.30872e-10
1.05131e-11
4.17171e-10
1.3057e-10
5.36464e-10
2.05892e-10
6.7162e-10
3.13748e-10
7.61712e-10
3.42439e-10
8.30849e-10
3.65515e-10
8.63084e-10
3.44887e-10
8.93446e-10
3.45903e-10
9.48535e-10
3.54325e-10
9.82426e-10
3.28088e-10
1.01181e-09
3.18254e-10
1.07153e-09
3.22991e-10
1.1061e-09
2.89132e-10
1.14959e-09
2.92831e-10
1.22816e-09
3.09025e-10
1.29014e-09
2.96753e-10
1.35375e-09
3.15788e-10
1.47253e-09
3.77543e-10
1.55777e-09
3.94081e-10
1.64038e-09
4.51607e-10
1.71817e-09
5.43757e-10
1.81612e-09
7.62558e-10
1.75025e-09
1.05123e-09
1.49512e-09
1.48649e-09
-2.38777e-09
7.83393e-09
-6.86121e-09
-1.82905e-09
-4.26768e-09
-3.35126e-09
-2.23806e-09
-1.63712e-09
-8.53256e-10
-7.1957e-10
-1.18315e-10
-1.84082e-10
2.30385e-10
9.88507e-12
4.1648e-10
1.29803e-10
5.36027e-10
2.05194e-10
6.70913e-10
3.13064e-10
7.61096e-10
3.41718e-10
8.30137e-10
3.64807e-10
8.62734e-10
3.44587e-10
8.93164e-10
3.45514e-10
9.48002e-10
3.53799e-10
9.82192e-10
3.28055e-10
1.01161e-09
3.18058e-10
1.07106e-09
3.22722e-10
1.10589e-09
2.89313e-10
1.14932e-09
2.92886e-10
1.22748e-09
3.08927e-10
1.28965e-09
2.97323e-10
1.35313e-09
3.16115e-10
1.47125e-09
3.77959e-10
1.55636e-09
3.95234e-10
1.6384e-09
4.53382e-10
1.71562e-09
5.46369e-10
1.81242e-09
7.66661e-10
1.74661e-09
1.05312e-09
1.51028e-09
1.44627e-09
-2.38265e-09
7.87736e-09
-6.94349e-09
-1.84581e-09
-4.21272e-09
-3.35132e-09
-2.23103e-09
-1.62821e-09
-8.49658e-10
-7.17897e-10
-1.18713e-10
-1.84661e-10
2.29885e-10
9.24486e-12
4.1573e-10
1.29004e-10
5.35521e-10
2.04455e-10
6.70096e-10
3.12345e-10
7.60385e-10
3.40954e-10
8.29309e-10
3.64068e-10
8.62288e-10
3.44288e-10
8.92794e-10
3.45129e-10
9.47355e-10
3.53275e-10
9.81854e-10
3.28068e-10
1.01131e-09
3.17906e-10
1.07045e-09
3.22513e-10
1.10556e-09
2.89592e-10
1.14893e-09
2.93049e-10
1.22662e-09
3.08943e-10
1.28895e-09
2.98075e-10
1.35228e-09
3.16637e-10
1.46962e-09
3.78627e-10
1.55454e-09
3.96729e-10
1.6359e-09
4.55616e-10
1.7124e-09
5.49542e-10
1.80786e-09
7.7129e-10
1.74247e-09
1.05418e-09
1.52848e-09
1.39711e-09
-2.36031e-09
7.91936e-09
-7.05848e-09
-1.85782e-09
-4.14304e-09
-3.34918e-09
-2.22254e-09
-1.61813e-09
-8.45416e-10
-7.15972e-10
-1.19029e-10
-1.85201e-10
2.29378e-10
8.59864e-12
4.1493e-10
1.28185e-10
5.34951e-10
2.03685e-10
6.69171e-10
3.11596e-10
7.59582e-10
3.40152e-10
8.28366e-10
3.63304e-10
8.61743e-10
3.43992e-10
8.92331e-10
3.44756e-10
9.46591e-10
3.52762e-10
9.81404e-10
3.28132e-10
1.0109e-09
3.17807e-10
1.06971e-09
3.22376e-10
1.10509e-09
2.8998e-10
1.14837e-09
2.93338e-10
1.22555e-09
3.09099e-10
1.28802e-09
2.99031e-10
1.35115e-09
3.17388e-10
1.46761e-09
3.79589e-10
1.55225e-09
3.98612e-10
1.63281e-09
4.58352e-10
1.70846e-09
5.53305e-10
1.80243e-09
7.76387e-10
1.73795e-09
1.05414e-09
1.54996e-09
1.33901e-09
-2.32032e-09
7.9595e-09
-7.20632e-09
-1.86535e-09
-4.05825e-09
-3.34464e-09
-2.21264e-09
-1.6069e-09
-8.40551e-10
-7.13817e-10
-1.19265e-10
-1.85705e-10
2.28866e-10
7.94915e-12
4.14084e-10
1.27351e-10
5.34319e-10
2.02892e-10
6.68145e-10
3.10826e-10
7.58692e-10
3.39321e-10
8.27311e-10
3.62523e-10
8.61096e-10
3.43707e-10
8.91771e-10
3.44402e-10
9.45706e-10
3.52271e-10
9.80834e-10
3.28255e-10
1.01037e-09
3.17773e-10
1.06882e-09
3.22326e-10
1.10446e-09
2.90492e-10
1.14764e-09
2.93772e-10
1.22425e-09
3.0942e-10
1.28682e-09
3.00218e-10
1.34972e-09
3.18401e-10
1.46519e-09
3.80885e-10
1.54947e-09
4.00918e-10
1.62911e-09
4.61624e-10
1.70377e-09
5.5766e-10
1.79614e-09
7.81869e-10
1.73317e-09
1.05276e-09
1.5749e-09
1.27218e-09
-2.26287e-09
7.99775e-09
-7.38632e-09
-1.86895e-09
-3.95826e-09
-3.33749e-09
-2.20141e-09
-1.5946e-09
-8.35095e-10
-7.11462e-10
-1.19434e-10
-1.8618e-10
2.28343e-10
7.29578e-12
4.13194e-10
1.26509e-10
5.33628e-10
2.02082e-10
6.67021e-10
3.10041e-10
7.57716e-10
3.38469e-10
8.26148e-10
3.61735e-10
8.60348e-10
3.4344e-10
8.91111e-10
3.44077e-10
9.44699e-10
3.51812e-10
9.80136e-10
3.28444e-10
1.00972e-09
3.17817e-10
1.06776e-09
3.22378e-10
1.10366e-09
2.91144e-10
1.14671e-09
2.94372e-10
1.2227e-09
3.09931e-10
1.28533e-09
3.01657e-10
1.34795e-09
3.19706e-10
1.46232e-09
3.82547e-10
1.54615e-09
4.03675e-10
1.62475e-09
4.65448e-10
1.6983e-09
5.62593e-10
1.78904e-09
7.87638e-10
1.7283e-09
1.04983e-09
1.60337e-09
1.19703e-09
-2.18863e-09
8.03418e-09
-7.59693e-09
-1.86938e-09
-3.84324e-09
-3.3276e-09
-2.18895e-09
-1.5813e-09
-8.29091e-10
-7.08938e-10
-1.19552e-10
-1.86641e-10
2.278e-10
6.63425e-12
4.12258e-10
1.2566e-10
5.32876e-10
2.01262e-10
6.65801e-10
3.09247e-10
7.56657e-10
3.37605e-10
8.24877e-10
3.6095e-10
8.59497e-10
3.43198e-10
8.90349e-10
3.43791e-10
9.43567e-10
3.51399e-10
9.79304e-10
3.28712e-10
1.00893e-09
3.17952e-10
1.06654e-09
3.2255e-10
1.10267e-09
2.9195e-10
1.14558e-09
2.95156e-10
1.22089e-09
3.10653e-10
1.28354e-09
3.03371e-10
1.34583e-09
3.21327e-10
1.45897e-09
3.84599e-10
1.54227e-09
4.06902e-10
1.61973e-09
4.69829e-10
1.69207e-09
5.68075e-10
1.78118e-09
7.9359e-10
1.72347e-09
1.04518e-09
1.63535e-09
1.11418e-09
-2.09877e-09
8.06899e-09
-7.83595e-09
-1.86751e-09
-3.71358e-09
-3.31479e-09
-2.17538e-09
-1.56708e-09
-8.22589e-10
-7.06279e-10
-1.1964e-10
-1.87103e-10
2.27223e-10
5.95805e-12
4.11269e-10
1.24806e-10
5.32059e-10
2.00436e-10
6.64484e-10
3.08449e-10
7.55514e-10
3.36736e-10
8.235e-10
3.60176e-10
8.5854e-10
3.4299e-10
8.8948e-10
3.43554e-10
9.42307e-10
3.51043e-10
9.78332e-10
3.29068e-10
1.00799e-09
3.18192e-10
1.06514e-09
3.22856e-10
1.10149e-09
2.92926e-10
1.14422e-09
2.96143e-10
1.21881e-09
3.11609e-10
1.28141e-09
3.05375e-10
1.34333e-09
3.23287e-10
1.45514e-09
3.8706e-10
1.53782e-09
4.10606e-10
1.61403e-09
4.7476e-10
1.68509e-09
5.74066e-10
1.77261e-09
7.99629e-10
1.71881e-09
1.03873e-09
1.6707e-09
1.02445e-09
-1.99476e-09
8.10226e-09
-8.10062e-09
-1.8644e-09
-3.56991e-09
-3.29895e-09
-2.16082e-09
-1.55203e-09
-8.1564e-10
-7.03518e-10
-1.19721e-10
-1.87583e-10
2.26598e-10
5.25896e-12
4.10219e-10
1.23945e-10
5.31171e-10
1.99604e-10
6.6307e-10
3.0765e-10
7.54285e-10
3.35869e-10
8.22016e-10
3.59422e-10
8.57475e-10
3.42823e-10
8.88502e-10
3.43375e-10
9.40917e-10
3.50757e-10
9.77213e-10
3.29522e-10
1.00691e-09
3.18549e-10
1.06355e-09
3.2331e-10
1.1001e-09
2.94084e-10
1.14263e-09
2.97347e-10
1.21643e-09
3.12815e-10
1.27894e-09
3.07684e-10
1.34044e-09
3.25601e-10
1.45081e-09
3.8994e-10
1.53279e-09
4.14791e-10
1.60768e-09
4.80229e-10
1.67738e-09
5.80525e-10
1.76341e-09
8.05666e-10
1.71441e-09
1.03043e-09
1.70917e-09
9.28776e-10
-1.87833e-09
8.13417e-09
-8.38773e-09
-1.8611e-09
-3.41307e-09
-3.27995e-09
-2.14539e-09
-1.53624e-09
-8.08299e-10
-7.00687e-10
-1.19819e-10
-1.88099e-10
2.25908e-10
4.52827e-12
4.09097e-10
1.23072e-10
5.30205e-10
1.98768e-10
6.61553e-10
3.0685e-10
7.52967e-10
3.35009e-10
8.20423e-10
3.58693e-10
8.56299e-10
3.42703e-10
8.8741e-10
3.43264e-10
9.39395e-10
3.5055e-10
9.75943e-10
3.30083e-10
1.00567e-09
3.19036e-10
1.06177e-09
3.23925e-10
1.09849e-09
2.95437e-10
1.14079e-09
2.98782e-10
1.21376e-09
3.14285e-10
1.27612e-09
3.10309e-10
1.33715e-09
3.28279e-10
1.44598e-09
3.93247e-10
1.52719e-09
4.19452e-10
1.60066e-09
4.86216e-10
1.66898e-09
5.87408e-10
1.75363e-09
8.11628e-10
1.71034e-09
1.0203e-09
1.75043e-09
8.28214e-10
-1.75135e-09
8.16475e-09
-8.69359e-09
-1.85865e-09
-3.2441e-09
-3.25771e-09
-2.1292e-09
-1.51981e-09
-8.00616e-10
-6.97813e-10
-1.19954e-10
-1.88665e-10
2.25136e-10
3.75701e-12
4.07894e-10
1.22186e-10
5.29151e-10
1.97928e-10
6.5993e-10
3.06052e-10
7.51553e-10
3.3416e-10
8.18718e-10
3.57997e-10
8.55007e-10
3.42637e-10
8.862e-10
3.43229e-10
9.37737e-10
3.50433e-10
9.74516e-10
3.3076e-10
1.00426e-09
3.19663e-10
1.0598e-09
3.24712e-10
1.09667e-09
2.96995e-10
1.1387e-09
3.00458e-10
1.21079e-09
3.16032e-10
1.27294e-09
3.13256e-10
1.33345e-09
3.31328e-10
1.44065e-09
3.96981e-10
1.52101e-09
4.24582e-10
1.59301e-09
4.927e-10
1.65991e-09
5.94675e-10
1.74333e-09
8.17456e-10
1.70663e-09
1.00841e-09
1.79406e-09
7.23932e-10
-1.61588e-09
8.19391e-09
-9.01433e-09
-1.85803e-09
-3.06418e-09
-3.23217e-09
-2.11238e-09
-1.50283e-09
-7.92644e-10
-6.9492e-10
-1.20149e-10
-1.89298e-10
2.24268e-10
2.93729e-12
4.06597e-10
1.21282e-10
5.28002e-10
1.97082e-10
6.58196e-10
3.05254e-10
7.5004e-10
3.33326e-10
8.16897e-10
3.57336e-10
8.53595e-10
3.42628e-10
8.84867e-10
3.43274e-10
9.3594e-10
3.50412e-10
9.72928e-10
3.31557e-10
1.00269e-09
3.20438e-10
1.05762e-09
3.25679e-10
1.09461e-09
2.98764e-10
1.13635e-09
3.02384e-10
1.20752e-09
3.18063e-10
1.2694e-09
3.1653e-10
1.32935e-09
3.34753e-10
1.43482e-09
4.01139e-10
1.51428e-09
4.30169e-10
1.58474e-09
4.99659e-10
1.65022e-09
6.02285e-10
1.73256e-09
8.23107e-10
1.7033e-09
9.94882e-10
1.83958e-09
6.17181e-10
-1.47395e-09
8.22139e-09
-9.34587e-09
-1.86022e-09
-2.87464e-09
-3.20326e-09
-2.09502e-09
-1.48539e-09
-7.8443e-10
-6.92029e-10
-1.20421e-10
-1.90009e-10
2.23289e-10
2.06239e-12
4.05198e-10
1.20356e-10
5.26749e-10
1.96229e-10
6.56345e-10
3.04455e-10
7.48421e-10
3.32508e-10
8.14957e-10
3.56715e-10
8.5206e-10
3.42681e-10
8.83406e-10
3.43405e-10
9.34002e-10
3.50495e-10
9.71176e-10
3.32481e-10
1.00094e-09
3.21367e-10
1.05524e-09
3.26833e-10
1.09232e-09
3.00751e-10
1.13373e-09
3.04566e-10
1.20394e-09
3.20384e-10
1.2655e-09
3.20131e-10
1.32483e-09
3.38554e-10
1.4285e-09
4.05718e-10
1.50699e-09
4.36202e-10
1.57587e-09
5.07067e-10
1.63992e-09
6.10204e-10
1.72136e-09
8.28549e-10
1.70035e-09
9.79871e-10
1.88646e-09
5.0921e-10
-1.32762e-09
8.24692e-09
-9.68411e-09
-1.86611e-09
-2.6769e-09
-3.17095e-09
-2.07721e-09
-1.46759e-09
-7.76018e-10
-6.89154e-10
-1.20784e-10
-1.90807e-10
2.22188e-10
1.12723e-12
4.03688e-10
1.19405e-10
5.25385e-10
1.95369e-10
6.54372e-10
3.03656e-10
7.46692e-10
3.31709e-10
8.12895e-10
3.56136e-10
8.50395e-10
3.42796e-10
8.81813e-10
3.43626e-10
9.3192e-10
3.50686e-10
9.69256e-10
3.33535e-10
9.99016e-10
3.22457e-10
1.05265e-09
3.28179e-10
1.0898e-09
3.02959e-10
1.13086e-09
3.07007e-10
1.20006e-09
3.22999e-10
1.26124e-09
3.2406e-10
1.31991e-09
3.4273e-10
1.4217e-09
4.1071e-10
1.49916e-09
4.42667e-10
1.56642e-09
5.14903e-10
1.62905e-09
6.184e-10
1.70976e-09
8.33767e-10
1.69773e-09
9.63574e-10
1.9341e-09
4.01285e-10
-1.17881e-09
8.27009e-09
-1.00248e-08
-1.87645e-09
-2.4725e-09
-3.13525e-09
-2.05905e-09
-1.44953e-09
-7.67451e-10
-6.86306e-10
-1.21251e-10
-1.917e-10
2.20953e-10
1.27859e-13
4.02059e-10
1.18429e-10
5.23902e-10
1.94501e-10
6.52275e-10
3.02855e-10
7.44846e-10
3.3093e-10
8.10706e-10
3.556e-10
8.48599e-10
3.42976e-10
8.80083e-10
3.43939e-10
9.29691e-10
3.50989e-10
9.67166e-10
3.34721e-10
9.9691e-10
3.2371e-10
1.04985e-09
3.2972e-10
1.08705e-09
3.05391e-10
1.12772e-09
3.09709e-10
1.19587e-09
3.2591e-10
1.25662e-09
3.28315e-10
1.31459e-09
3.47279e-10
1.41442e-09
4.16107e-10
1.49081e-09
4.49547e-10
1.55641e-09
5.23142e-10
1.61764e-09
6.26843e-10
1.69781e-09
8.38755e-10
1.69539e-09
9.46218e-10
1.98187e-09
2.94689e-10
-1.02944e-09
8.29033e-09
-1.03639e-08
-1.8918e-09
-2.26301e-09
-3.0962e-09
-2.04061e-09
-1.43131e-09
-7.58772e-10
-6.83495e-10
-1.21831e-10
-1.92692e-10
2.19578e-10
-9.37908e-13
4.00304e-10
1.17425e-10
5.22296e-10
1.93624e-10
6.50048e-10
3.02051e-10
7.42879e-10
3.30173e-10
8.08389e-10
3.5511e-10
8.46667e-10
3.43223e-10
8.78214e-10
3.44346e-10
9.27314e-10
3.51408e-10
9.64903e-10
3.36041e-10
9.94621e-10
3.2513e-10
1.04685e-09
3.31459e-10
1.08405e-09
3.08048e-10
1.12431e-09
3.12672e-10
1.19138e-09
3.29117e-10
1.25164e-09
3.32892e-10
1.30887e-09
3.52194e-10
1.40668e-09
4.21899e-10
1.48195e-09
4.56829e-10
1.54587e-09
5.3176e-10
1.60573e-09
6.35507e-10
1.68552e-09
8.43519e-10
1.69325e-09
9.28054e-10
2.02916e-09
1.90686e-10
-8.81269e-10
8.30692e-09
-1.06974e-08
-1.91271e-09
-2.05003e-09
-3.05382e-09
-2.02195e-09
-1.41301e-09
-7.50016e-10
-6.80723e-10
-1.22531e-10
-1.93785e-10
2.18056e-10
-2.07062e-12
3.98421e-10
1.16394e-10
5.20562e-10
1.92739e-10
6.4769e-10
3.01244e-10
7.40789e-10
3.29437e-10
8.05939e-10
3.54666e-10
8.44597e-10
3.43536e-10
8.76203e-10
3.44849e-10
9.24787e-10
3.51944e-10
9.62465e-10
3.37496e-10
9.92146e-10
3.26718e-10
1.04363e-09
3.33395e-10
1.08082e-09
3.1093e-10
1.12064e-09
3.15897e-10
1.1866e-09
3.32619e-10
1.24632e-09
3.37786e-10
1.30276e-09
3.57471e-10
1.39849e-09
4.28073e-10
1.47261e-09
4.64495e-10
1.53482e-09
5.40734e-10
1.59333e-09
6.44368e-10
1.67291e-09
8.48076e-10
1.69123e-09
9.09349e-10
2.07531e-09
9.04523e-11
-7.35877e-10
8.31917e-09
-1.10215e-08
-1.9396e-09
-1.83516e-09
-3.00816e-09
-2.00311e-09
-1.39473e-09
-7.4122e-10
-6.77992e-10
-1.23353e-10
-1.9498e-10
2.16384e-10
-3.26932e-12
3.96404e-10
1.15335e-10
5.18697e-10
1.91847e-10
6.45199e-10
3.00434e-10
7.3857e-10
3.28726e-10
8.03356e-10
3.54269e-10
8.42386e-10
3.43917e-10
8.74046e-10
3.45447e-10
9.22108e-10
3.52598e-10
9.59853e-10
3.39086e-10
9.89485e-10
3.28475e-10
1.04021e-09
3.3553e-10
1.07736e-09
3.14036e-10
1.1167e-09
3.19381e-10
1.18152e-09
3.36414e-10
1.24065e-09
3.42993e-10
1.29626e-09
3.63102e-10
1.38987e-09
4.34619e-10
1.46279e-09
4.72528e-10
1.52328e-09
5.50041e-10
1.58047e-09
6.53406e-10
1.65999e-09
8.52449e-10
1.68923e-09
8.90386e-10
2.11967e-09
-4.90869e-12
-5.94648e-10
8.32631e-09
-1.13328e-08
-1.9727e-09
-1.61997e-09
-2.95932e-09
-1.98414e-09
-1.37656e-09
-7.32417e-10
-6.75301e-10
-1.24301e-10
-1.96274e-10
2.14558e-10
-4.5323e-12
3.94253e-10
1.14251e-10
5.16699e-10
1.90948e-10
6.42573e-10
2.9962e-10
7.36222e-10
3.2804e-10
8.00638e-10
3.5392e-10
8.40033e-10
3.44365e-10
8.71742e-10
3.46143e-10
9.19278e-10
3.53373e-10
9.57064e-10
3.4081e-10
9.86635e-10
3.30402e-10
1.03658e-09
3.37862e-10
1.07366e-09
3.17364e-10
1.11251e-09
3.23121e-10
1.17616e-09
3.40498e-10
1.23465e-09
3.48505e-10
1.28939e-09
3.69079e-10
1.38082e-09
4.41522e-10
1.45251e-09
4.80911e-10
1.51127e-09
5.59658e-10
1.56718e-09
6.62603e-10
1.64678e-09
8.5667e-10
1.68713e-09
8.71452e-10
2.16162e-09
-9.43416e-11
-4.58828e-10
8.32746e-09
-1.16278e-08
-2.01206e-09
-1.40601e-09
-2.90739e-09
-1.96507e-09
-1.35858e-09
-7.2364e-10
-6.72647e-10
-1.25375e-10
-1.97666e-10
2.12579e-10
-5.85669e-12
3.91967e-10
1.13143e-10
5.14567e-10
1.90044e-10
6.39812e-10
2.98804e-10
7.33742e-10
3.2738e-10
7.97783e-10
3.5362e-10
8.37536e-10
3.44882e-10
8.69289e-10
3.46934e-10
9.16295e-10
3.54267e-10
9.541e-10
3.42669e-10
9.83598e-10
3.32497e-10
1.03274e-09
3.4039e-10
1.06973e-09
3.20912e-10
1.10805e-09
3.27114e-10
1.17051e-09
3.44868e-10
1.22832e-09
3.54315e-10
1.28215e-09
3.75393e-10
1.37136e-09
4.4877e-10
1.44179e-09
4.89624e-10
1.49881e-09
5.69561e-10
1.55348e-09
6.71942e-10
1.63327e-09
8.60777e-10
1.68481e-09
8.5284e-10
2.20056e-09
-1.76879e-10
-3.29493e-10
8.32168e-09
-1.19037e-08
-2.05776e-09
-1.19475e-09
-2.85247e-09
-1.94592e-09
-1.34088e-09
-7.14919e-10
-6.70026e-10
-1.26572e-10
-1.99149e-10
2.10447e-10
-7.23843e-12
3.89546e-10
1.12015e-10
5.12302e-10
1.89138e-10
6.36917e-10
2.97985e-10
7.3113e-10
3.26747e-10
7.94793e-10
3.5337e-10
8.34895e-10
3.45467e-10
8.66686e-10
3.47822e-10
9.1316e-10
3.55283e-10
9.50959e-10
3.44661e-10
9.80372e-10
3.34759e-10
1.0287e-09
3.43112e-10
1.06556e-09
3.24676e-10
1.10334e-09
3.31356e-10
1.16458e-09
3.49518e-10
1.22166e-09
3.60416e-10
1.27455e-09
3.82033e-10
1.3615e-09
4.56346e-10
1.43066e-09
4.9865e-10
1.48594e-09
5.79727e-10
1.5394e-09
6.81408e-10
1.61946e-09
8.64813e-10
1.68214e-09
8.34835e-10
2.23591e-09
-2.51685e-10
-2.07477e-10
8.30812e-09
-1.21579e-08
-2.10975e-09
-9.87585e-10
-2.79466e-09
-1.92667e-09
-1.32353e-09
-7.06278e-10
-6.67427e-10
-1.27889e-10
-2.00719e-10
2.08165e-10
-8.67257e-12
3.86993e-10
1.10869e-10
5.09904e-10
1.88231e-10
6.33888e-10
2.97166e-10
7.28383e-10
3.26145e-10
7.91666e-10
3.5317e-10
8.3211e-10
3.4612e-10
8.63933e-10
3.48805e-10
9.09872e-10
3.56419e-10
9.47645e-10
3.46784e-10
9.76959e-10
3.37187e-10
1.02445e-09
3.46026e-10
1.06117e-09
3.28654e-10
1.09838e-09
3.3584e-10
1.15838e-09
3.54443e-10
1.21469e-09
3.66798e-10
1.26659e-09
3.88988e-10
1.35126e-09
4.64235e-10
1.41912e-09
5.07968e-10
1.47267e-09
5.90135e-10
1.52495e-09
6.90991e-10
1.60535e-09
8.68826e-10
1.679e-09
8.17716e-10
2.26713e-09
-3.18043e-10
-9.34101e-11
8.28595e-09
-1.2388e-08
-2.16783e-09
-7.85822e-10
-2.73407e-09
-1.90732e-09
-1.30661e-09
-6.97744e-10
-6.64844e-10
-1.2932e-10
-2.02368e-10
2.05734e-10
-1.0154e-11
3.84308e-10
1.0971e-10
5.07374e-10
1.87326e-10
6.30727e-10
2.96347e-10
7.25504e-10
3.25573e-10
7.88402e-10
3.53021e-10
8.2918e-10
3.46842e-10
8.6103e-10
3.49884e-10
9.06433e-10
3.57674e-10
9.44156e-10
3.49037e-10
9.73358e-10
3.3978e-10
1.02e-09
3.49129e-10
1.05656e-09
3.32842e-10
1.09317e-09
3.40563e-10
1.15191e-09
3.59637e-10
1.20742e-09
3.73452e-10
1.2583e-09
3.96246e-10
1.34066e-09
4.72422e-10
1.40721e-09
5.17561e-10
1.45902e-09
6.00763e-10
1.51016e-09
7.0068e-10
1.59094e-09
8.72864e-10
1.67525e-09
8.0175e-10
2.29375e-09
-3.75319e-10
1.222e-11
8.25431e-09
-1.2592e-08
-2.23168e-09
-5.90662e-10
-2.67086e-09
-1.88787e-09
-1.29017e-09
-6.8934e-10
-6.62267e-10
-1.3086e-10
-2.04089e-10
2.03159e-10
-1.16771e-11
3.81495e-10
1.08541e-10
5.04716e-10
1.86426e-10
6.27435e-10
2.9553e-10
7.22491e-10
3.25035e-10
7.85004e-10
3.52925e-10
8.26107e-10
3.47632e-10
8.57978e-10
3.51057e-10
9.02844e-10
3.5905e-10
9.40496e-10
3.51419e-10
9.69573e-10
3.42534e-10
1.01536e-09
3.52417e-10
1.05172e-09
3.37234e-10
1.08771e-09
3.45517e-10
1.14518e-09
3.65092e-10
1.19984e-09
3.80369e-10
1.24969e-09
4.03795e-10
1.32971e-09
4.80889e-10
1.39493e-09
5.27408e-10
1.44502e-09
6.1159e-10
1.49504e-09
7.10465e-10
1.5762e-09
8.7698e-10
1.67077e-09
7.87187e-10
2.31533e-09
-4.22997e-10
1.09062e-10
8.21235e-09
-1.27684e-08
-2.30104e-09
-4.03198e-10
-2.60512e-09
-1.86827e-09
-1.27428e-09
-6.81085e-10
-6.59685e-10
-1.32502e-10
-2.05872e-10
2.00445e-10
-1.32354e-11
3.78557e-10
1.07366e-10
5.01932e-10
1.85534e-10
6.24015e-10
2.94717e-10
7.19347e-10
3.24531e-10
7.81471e-10
3.52881e-10
8.22891e-10
3.48491e-10
8.54776e-10
3.52323e-10
8.99106e-10
3.60545e-10
9.36665e-10
3.53928e-10
9.65605e-10
3.45448e-10
1.01052e-09
3.55887e-10
1.04667e-09
3.41827e-10
1.08202e-09
3.50697e-10
1.13821e-09
3.70801e-10
1.19198e-09
3.87538e-10
1.24075e-09
4.11622e-10
1.31842e-09
4.8962e-10
1.38231e-09
5.37489e-10
1.43068e-09
6.22594e-10
1.47961e-09
7.2034e-10
1.56113e-09
8.81224e-10
1.66543e-09
7.74259e-10
2.33149e-09
-4.6069e-10
1.96987e-10
8.15937e-09
-1.29159e-08
-2.37559e-09
-2.24401e-10
-2.53697e-09
-1.8485e-09
-1.25899e-09
-6.72995e-10
-6.57082e-10
-1.34235e-10
-2.07709e-10
1.97599e-10
-1.4822e-11
3.755e-10
1.06192e-10
4.99026e-10
1.84653e-10
6.2047e-10
2.93908e-10
7.16072e-10
3.24065e-10
7.77807e-10
3.52891e-10
8.19535e-10
3.49418e-10
8.51428e-10
3.53682e-10
8.9522e-10
3.62157e-10
9.32668e-10
3.5656e-10
9.61456e-10
3.48518e-10
1.00549e-09
3.59534e-10
1.04141e-09
3.46615e-10
1.0761e-09
3.56093e-10
1.13098e-09
3.76756e-10
1.18385e-09
3.94948e-10
1.23152e-09
4.19712e-10
1.30682e-09
4.98597e-10
1.36936e-09
5.47786e-10
1.41603e-09
6.33755e-10
1.46389e-09
7.30299e-10
1.54572e-09
8.85646e-10
1.6591e-09
7.63174e-10
2.3419e-09
-4.88141e-10
2.76024e-10
8.09478e-09
-1.30336e-08
-2.4549e-09
-5.51194e-11
-2.46653e-09
-1.8285e-09
-1.24434e-09
-6.65085e-10
-6.54447e-10
-1.36052e-10
-2.0959e-10
1.94627e-10
-1.64302e-11
3.72327e-10
1.05021e-10
4.96002e-10
1.83787e-10
6.16801e-10
2.93107e-10
7.12668e-10
3.23636e-10
7.74011e-10
3.52956e-10
8.16039e-10
3.50415e-10
8.47934e-10
3.55132e-10
8.9119e-10
3.63887e-10
9.28505e-10
3.59315e-10
9.5713e-10
3.51742e-10
1.00027e-09
3.63355e-10
1.03594e-09
3.51594e-10
1.06995e-09
3.61701e-10
1.12353e-09
3.82949e-10
1.17545e-09
4.02589e-10
1.22199e-09
4.28053e-10
1.29492e-09
5.07803e-10
1.35611e-09
5.58279e-10
1.4011e-09
6.45054e-10
1.4479e-09
7.40336e-10
1.52994e-09
8.90297e-10
1.65167e-09
7.54115e-10
2.34631e-09
-5.05177e-10
3.46305e-10
8.01799e-09
-1.31209e-08
-2.53851e-09
1.03914e-10
-2.39393e-09
-1.80824e-09
-1.23036e-09
-6.57368e-10
-6.51767e-10
-1.37941e-10
-2.11503e-10
1.91535e-10
-1.80533e-11
3.69044e-10
1.0386e-10
4.92865e-10
1.8294e-10
6.13011e-10
2.92314e-10
7.09137e-10
3.23249e-10
7.70087e-10
3.53075e-10
8.12406e-10
3.51479e-10
8.44296e-10
3.56673e-10
8.87017e-10
3.65732e-10
9.2418e-10
3.6219e-10
9.52629e-10
3.55116e-10
9.94867e-10
3.67346e-10
1.03027e-09
3.56756e-10
1.06358e-09
3.67511e-10
1.11584e-09
3.8937e-10
1.16679e-09
4.10449e-10
1.21219e-09
4.3663e-10
1.28274e-09
5.17221e-10
1.34258e-09
5.68948e-10
1.38589e-09
6.56473e-10
1.43164e-09
7.50448e-10
1.51378e-09
8.95221e-10
1.64305e-09
7.4724e-10
2.34451e-09
-5.11737e-10
4.08031e-10
7.92852e-09
-1.31774e-08
-2.626e-09
2.52101e-10
-2.31928e-09
-1.78766e-09
-1.21709e-09
-6.49851e-10
-6.49025e-10
-1.39892e-10
-2.1344e-10
1.88332e-10
-1.96838e-11
3.65656e-10
1.02713e-10
4.89619e-10
1.82114e-10
6.09105e-10
2.91532e-10
7.05482e-10
3.22903e-10
7.66037e-10
3.53249e-10
8.08638e-10
3.52613e-10
8.40517e-10
3.58302e-10
8.82704e-10
3.67691e-10
9.19696e-10
3.65182e-10
9.47957e-10
3.58636e-10
9.89287e-10
3.715e-10
1.0244e-09
3.62097e-10
1.057e-09
3.73515e-10
1.10793e-09
3.96011e-10
1.15789e-09
4.18515e-10
1.20212e-09
4.45428e-10
1.27028e-09
5.26832e-10
1.32878e-09
5.79776e-10
1.37043e-09
6.67992e-10
1.41514e-09
7.60629e-10
1.49722e-09
9.00461e-10
1.63314e-09
7.42679e-10
2.33636e-09
-5.07862e-10
4.61571e-10
7.82602e-09
-1.32033e-08
-2.71697e-09
3.88963e-10
-2.24266e-09
-1.76669e-09
-1.20454e-09
-6.4254e-10
-6.46207e-10
-1.41892e-10
-2.15387e-10
1.85027e-10
-2.1314e-11
3.6217e-10
1.01585e-10
4.86269e-10
1.81314e-10
6.05085e-10
2.90762e-10
7.01705e-10
3.22602e-10
7.61862e-10
3.5348e-10
8.04738e-10
3.53814e-10
8.36599e-10
3.60019e-10
8.78253e-10
3.69763e-10
9.15057e-10
3.68288e-10
9.43119e-10
3.623e-10
9.83534e-10
3.75814e-10
1.01834e-09
3.6761e-10
1.05022e-09
3.79706e-10
1.09982e-09
4.02862e-10
1.14875e-09
4.26777e-10
1.1918e-09
4.54434e-10
1.25758e-09
5.36619e-10
1.31473e-09
5.90743e-10
1.35473e-09
6.79594e-10
1.3984e-09
7.70878e-10
1.48025e-09
9.06055e-10
1.62184e-09
7.40532e-10
2.32178e-09
-4.93702e-10
5.07395e-10
7.71028e-09
-1.31988e-08
-2.81097e-09
5.14154e-10
-2.16419e-09
-1.74527e-09
-1.19272e-09
-6.35436e-10
-6.43294e-10
-1.43928e-10
-2.17335e-10
1.81628e-10
-2.29368e-11
3.58591e-10
1.00481e-10
4.82822e-10
1.80543e-10
6.00954e-10
2.90005e-10
6.97809e-10
3.22347e-10
7.57566e-10
3.53766e-10
8.00709e-10
3.55084e-10
8.32546e-10
3.61821e-10
8.73668e-10
3.71946e-10
9.10267e-10
3.71506e-10
9.38118e-10
3.66103e-10
9.77613e-10
3.80282e-10
1.0121e-09
3.7329e-10
1.04324e-09
3.86075e-10
1.0915e-09
4.09914e-10
1.13939e-09
4.35223e-10
1.18125e-09
4.63632e-10
1.24464e-09
5.46566e-10
1.30046e-09
6.01833e-10
1.33882e-09
6.91262e-10
1.38143e-09
7.81191e-10
1.46286e-09
9.12033e-10
1.6091e-09
7.40868e-10
2.30074e-09
-4.69475e-10
5.46016e-10
7.58116e-09
-1.31643e-08
-2.90753e-09
6.27433e-10
-2.08394e-09
-1.72335e-09
-1.18164e-09
-6.28542e-10
-6.40273e-10
-1.45987e-10
-2.19272e-10
1.78145e-10
-2.45452e-11
3.54926e-10
9.94055e-11
4.79282e-10
1.79805e-10
5.96715e-10
2.89263e-10
6.93797e-10
3.22139e-10
7.53152e-10
3.54109e-10
7.96553e-10
3.56421e-10
8.2836e-10
3.63708e-10
8.68953e-10
3.74237e-10
9.05329e-10
3.74832e-10
9.3296e-10
3.70041e-10
9.71528e-10
3.84898e-10
1.00568e-09
3.79129e-10
1.03607e-09
3.92612e-10
1.08299e-09
4.17156e-10
1.12982e-09
4.43839e-10
1.17047e-09
4.73009e-10
1.23149e-09
5.56654e-10
1.28597e-09
6.13027e-10
1.32271e-09
7.0298e-10
1.36425e-09
7.91563e-10
1.44502e-09
9.18424e-10
1.59485e-09
7.4373e-10
2.27328e-09
-4.35489e-10
5.77961e-10
7.4386e-09
-1.31008e-08
-3.00625e-09
7.28689e-10
-2.00201e-09
-1.70087e-09
-1.1713e-09
-6.21852e-10
-6.37127e-10