/*--------------------------------*- C++ -*----------------------------------*\
| =========                 |                                                 |
| \\      /  F ield         | OpenFOAM: The Open Source CFD Toolbox           |
|  \\    /   O peration     | Version:  2312                                  |
|   \\  /    A nd           | Website:  www.openfoam.com                      |
|    \\/     M anipulation  |                                                 |
\*---------------------------------------------------------------------------*/
FoamFile
{
    version     2.0;
    format      ascii;
    arch        "LSB;label=32;scalar=64";
    class       volScalarField;
    location    "900";
    object      pPrime2Mean;
}
// * * * * * * * * * * * * * * * * * * * * * * * * * * * * * * * * * * * * * //

dimensions      [0 4 -4 0 0 0 0];

internalField   nonuniform List<scalar> 
330000
(
1.23688e-16
4.49398e-17
3.10001e-17
2.57914e-17
2.55838e-17
2.39287e-17
2.24805e-17
2.01036e-17
1.91903e-17
1.76548e-17
1.71995e-17
1.60412e-17
1.59946e-17
1.49301e-17
1.49295e-17
1.38316e-17
1.40364e-17
1.31671e-17
1.30982e-17
1.25632e-17
1.23655e-17
1.18232e-17
1.19173e-17
1.08986e-17
1.16164e-17
1.01865e-17
1.1261e-17
9.76303e-18
1.07621e-17
9.47408e-18
1.02575e-17
9.23844e-18
9.83341e-18
9.02704e-18
9.44537e-18
8.86537e-18
9.15579e-18
8.69322e-18
8.99555e-18
8.48509e-18
8.93337e-18
8.37607e-18
8.95586e-18
8.35158e-18
9.08106e-18
8.28809e-18
9.42112e-18
8.50323e-18
9.93961e-18
9.17135e-18
1.07082e-17
9.95017e-18
1.34718e-17
8.45876e-18
2.09384e-17
7.46864e-18
2.97061e-17
2.24273e-17
8.68773e-18
1.0553e-16
1.22555e-16
4.4736e-17
3.09823e-17
2.57883e-17
2.55808e-17
2.39345e-17
2.24835e-17
2.01075e-17
1.919e-17
1.7655e-17
1.71977e-17
1.60404e-17
1.5993e-17
1.49296e-17
1.49282e-17
1.38316e-17
1.40355e-17
1.31673e-17
1.30976e-17
1.25633e-17
1.23654e-17
1.18236e-17
1.19169e-17
1.08994e-17
1.16153e-17
1.01877e-17
1.12596e-17
9.76416e-18
1.0761e-17
9.47471e-18
1.02567e-17
9.23853e-18
9.83285e-18
9.02665e-18
9.445e-18
8.86443e-18
9.15557e-18
8.69178e-18
8.99532e-18
8.48331e-18
8.93295e-18
8.37397e-18
8.95509e-18
8.34937e-18
9.07996e-18
8.28566e-18
9.41968e-18
8.5008e-18
9.93737e-18
9.16931e-18
1.07067e-17
9.94563e-18
1.34761e-17
8.45011e-18
2.09431e-17
7.47693e-18
2.96617e-17
2.25509e-17
8.78727e-18
1.04928e-16
1.21427e-16
4.45989e-17
3.09289e-17
2.57689e-17
2.55821e-17
2.39481e-17
2.24923e-17
2.01151e-17
1.91919e-17
1.76563e-17
1.7198e-17
1.60407e-17
1.59931e-17
1.49299e-17
1.49287e-17
1.38318e-17
1.4036e-17
1.31681e-17
1.3098e-17
1.25643e-17
1.23661e-17
1.18245e-17
1.1918e-17
1.09002e-17
1.16165e-17
1.01885e-17
1.12606e-17
9.765e-18
1.07622e-17
9.4754e-18
1.02581e-17
9.23898e-18
9.83433e-18
9.02695e-18
9.44668e-18
8.86449e-18
9.15753e-18
8.69158e-18
8.99766e-18
8.48298e-18
8.93561e-18
8.3736e-18
8.95792e-18
8.3494e-18
9.08344e-18
8.28573e-18
9.42414e-18
8.50177e-18
9.94196e-18
9.17265e-18
1.07134e-17
9.94776e-18
1.34949e-17
8.44388e-18
2.09754e-17
7.48673e-18
2.962e-17
2.27287e-17
8.98068e-18
1.0464e-16
1.20217e-16
4.45543e-17
3.0798e-17
2.57075e-17
2.55748e-17
2.39608e-17
2.25007e-17
2.01234e-17
1.9194e-17
1.76583e-17
1.71995e-17
1.6042e-17
1.59944e-17
1.49309e-17
1.49301e-17
1.38324e-17
1.4037e-17
1.31694e-17
1.30987e-17
1.25659e-17
1.23671e-17
1.18256e-17
1.192e-17
1.09009e-17
1.16186e-17
1.01892e-17
1.12624e-17
9.76589e-18
1.07641e-17
9.47628e-18
1.02601e-17
9.23972e-18
9.83632e-18
9.02763e-18
9.44886e-18
8.86506e-18
9.15998e-18
8.69196e-18
9.00056e-18
8.48328e-18
8.93889e-18
8.37391e-18
8.96138e-18
8.35037e-18
9.08769e-18
8.2868e-18
9.42955e-18
8.5037e-18
9.94747e-18
9.17753e-18
1.07201e-17
9.95186e-18
1.35133e-17
8.43907e-18
2.09994e-17
7.49819e-18
2.95328e-17
2.29024e-17
9.23101e-18
1.04599e-16
1.18872e-16
4.45611e-17
3.05432e-17
2.55689e-17
2.55348e-17
2.3956e-17
2.24981e-17
2.01263e-17
1.91924e-17
1.76588e-17
1.72002e-17
1.60427e-17
1.59949e-17
1.49312e-17
1.49309e-17
1.38325e-17
1.40372e-17
1.31704e-17
1.30989e-17
1.25674e-17
1.23679e-17
1.18266e-17
1.1922e-17
1.09014e-17
1.16209e-17
1.01898e-17
1.12642e-17
9.76684e-18
1.0766e-17
9.47727e-18
1.0262e-17
9.24054e-18
9.83823e-18
9.02839e-18
9.45096e-18
8.8657e-18
9.16234e-18
8.69238e-18
9.00334e-18
8.48362e-18
8.94198e-18
8.37424e-18
8.96447e-18
8.35147e-18
9.09148e-18
8.28784e-18
9.43438e-18
8.50525e-18
9.95208e-18
9.18156e-18
1.07249e-17
9.95428e-18
1.35261e-17
8.43315e-18
2.09974e-17
7.51515e-18
2.93613e-17
2.30318e-17
9.50002e-18
1.04668e-16
1.17439e-16
4.45459e-17
3.01429e-17
2.5332e-17
2.54421e-17
2.39191e-17
2.24745e-17
2.01175e-17
1.91832e-17
1.76545e-17
1.71974e-17
1.60408e-17
1.59929e-17
1.49295e-17
1.49297e-17
1.38308e-17
1.40356e-17
1.31702e-17
1.30978e-17
1.25682e-17
1.23679e-17
1.1827e-17
1.19236e-17
1.09015e-17
1.16228e-17
1.01901e-17
1.12657e-17
9.76759e-18
1.07676e-17
9.47809e-18
1.02638e-17
9.24121e-18
9.83999e-18
9.02903e-18
9.45292e-18
8.86621e-18
9.16457e-18
8.69264e-18
9.00594e-18
8.48383e-18
8.94478e-18
8.3744e-18
8.96706e-18
8.35249e-18
9.09457e-18
8.28857e-18
9.43834e-18
8.50587e-18
9.9556e-18
9.18335e-18
1.07278e-17
9.95236e-18
1.35322e-17
8.42419e-18
2.09595e-17
7.54099e-18
2.90826e-17
2.3091e-17
9.75325e-18
1.04714e-16
1.1604e-16
4.44063e-17
2.95943e-17
2.49925e-17
2.52862e-17
2.38402e-17
2.24221e-17
2.0091e-17
1.91622e-17
1.76427e-17
1.71889e-17
1.60341e-17
1.59867e-17
1.49243e-17
1.49252e-17
1.38264e-17
1.40313e-17
1.31681e-17
1.30946e-17
1.25675e-17
1.23664e-17
1.18263e-17
1.19244e-17
1.09008e-17
1.16242e-17
1.01898e-17
1.12668e-17
9.76781e-18
1.0769e-17
9.47849e-18
1.02654e-17
9.24151e-18
9.84156e-18
9.02935e-18
9.45472e-18
8.86643e-18
9.16663e-18
8.69261e-18
9.00832e-18
8.48378e-18
8.94724e-18
8.37426e-18
8.96905e-18
8.35328e-18
9.09679e-18
8.28877e-18
9.44123e-18
8.50503e-18
9.95786e-18
9.1817e-18
1.07286e-17
9.94398e-18
1.35301e-17
8.4108e-18
2.08782e-17
7.57846e-18
2.86821e-17
2.30678e-17
9.95932e-18
1.04577e-16
1.14825e-16
4.40528e-17
2.89021e-17
2.45588e-17
2.50643e-17
2.37147e-17
2.23361e-17
2.00427e-17
1.91261e-17
1.76207e-17
1.71724e-17
1.60212e-17
1.59749e-17
1.49144e-17
1.49164e-17
1.38184e-17
1.40233e-17
1.31633e-17
1.30887e-17
1.25647e-17
1.23629e-17
1.1824e-17
1.19238e-17
1.08988e-17
1.16247e-17
1.01885e-17
1.12671e-17
9.76721e-18
1.077e-17
9.47817e-18
1.02667e-17
9.24119e-18
9.84284e-18
9.02916e-18
9.45628e-18
8.86618e-18
9.16845e-18
8.6921e-18
9.01039e-18
8.48329e-18
8.94925e-18
8.37367e-18
8.97027e-18
8.35367e-18
9.09789e-18
8.28816e-18
9.44274e-18
8.50221e-18
9.95844e-18
9.17571e-18
1.07267e-17
9.92774e-18
1.35181e-17
8.39264e-18
2.07482e-17
7.62954e-18
2.81543e-17
2.29644e-17
1.00928e-17
1.04109e-16
1.1395e-16
4.34232e-17
2.80747e-17
2.40479e-17
2.47804e-17
2.35429e-17
2.22147e-17
1.997e-17
1.90727e-17
1.75865e-17
1.71464e-17
1.60005e-17
1.59562e-17
1.48988e-17
1.49023e-17
1.38062e-17
1.4011e-17
1.31552e-17
1.30796e-17
1.25592e-17
1.2357e-17
1.18197e-17
1.19214e-17
1.08954e-17
1.16238e-17
1.0186e-17
1.12665e-17
9.7655e-18
1.07703e-17
9.47687e-18
1.02676e-17
9.24003e-18
9.84373e-18
9.02824e-18
9.45748e-18
8.86527e-18
9.16994e-18
8.69097e-18
9.01205e-18
8.48222e-18
8.95065e-18
8.3725e-18
8.97051e-18
8.35348e-18
9.0976e-18
8.28647e-18
9.44253e-18
8.49704e-18
9.95676e-18
9.16497e-18
1.07213e-17
9.90331e-18
1.34944e-17
8.37065e-18
2.05678e-17
7.69541e-18
2.7504e-17
2.27964e-17
1.01374e-17
1.03194e-16
1.13555e-16
4.24981e-17
2.71229e-17
2.34779e-17
2.44425e-17
2.3329e-17
2.20595e-17
1.98724e-17
1.90008e-17
1.75391e-17
1.71099e-17
1.59713e-17
1.59299e-17
1.4877e-17
1.48823e-17
1.37892e-17
1.39937e-17
1.31434e-17
1.30668e-17
1.25507e-17
1.23481e-17
1.1813e-17
1.19168e-17
1.08901e-17
1.16214e-17
1.01819e-17
1.12647e-17
9.76241e-18
1.07699e-17
9.47436e-18
1.02679e-17
9.23782e-18
9.84407e-18
9.02644e-18
9.45822e-18
8.86355e-18
9.17096e-18
8.68905e-18
9.01315e-18
8.48044e-18
8.95127e-18
8.37063e-18
8.96956e-18
8.35255e-18
9.09568e-18
8.2835e-18
9.44028e-18
8.48945e-18
9.95221e-18
9.14964e-18
1.07112e-17
9.87142e-18
1.34576e-17
8.34677e-18
2.03388e-17
7.77644e-18
2.67457e-17
2.25871e-17
1.00853e-17
1.01784e-16
1.13751e-16
4.12988e-17
2.6062e-17
2.28676e-17
2.40605e-17
2.30792e-17
2.18737e-17
1.97511e-17
1.89107e-17
1.7478e-17
1.70623e-17
1.59331e-17
1.58955e-17
1.48487e-17
1.48562e-17
1.37673e-17
1.39714e-17
1.31276e-17
1.305e-17
1.25389e-17
1.23362e-17
1.18037e-17
1.19098e-17
1.08828e-17
1.16171e-17
1.01761e-17
1.12616e-17
9.75771e-18
1.07685e-17
9.47044e-18
1.02675e-17
9.2344e-18
9.84376e-18
9.02363e-18
9.45835e-18
8.86091e-18
9.17139e-18
8.68627e-18
9.01356e-18
8.47786e-18
8.95095e-18
8.36801e-18
8.96724e-18
8.3508e-18
9.09195e-18
8.27922e-18
9.43568e-18
8.4796e-18
9.94422e-18
9.13035e-18
1.06958e-17
9.83358e-18
1.34069e-17
8.32328e-18
2.00661e-17
7.87233e-18
2.59003e-17
2.23627e-17
9.93664e-18
9.9897e-17
1.14619e-16
3.98719e-17
2.49103e-17
2.22321e-17
2.3644e-17
2.28007e-17
2.16621e-17
1.96086e-17
1.88033e-17
1.74039e-17
1.70038e-17
1.58862e-17
1.58531e-17
1.48138e-17
1.48239e-17
1.37403e-17
1.39439e-17
1.31078e-17
1.30291e-17
1.25235e-17
1.23209e-17
1.17916e-17
1.19002e-17
1.08734e-17
1.16108e-17
1.01684e-17
1.12571e-17
9.75127e-18
1.07661e-17
9.46498e-18
1.02662e-17
9.22968e-18
9.84263e-18
9.01972e-18
9.45774e-18
8.8573e-18
9.17109e-18
8.68256e-18
9.01311e-18
8.47446e-18
8.94952e-18
8.36462e-18
8.96341e-18
8.34821e-18
9.08626e-18
8.27368e-18
9.42852e-18
8.46785e-18
9.93239e-18
9.10795e-18
1.06745e-17
9.79167e-18
1.33422e-17
8.30236e-18
1.97565e-17
7.98223e-18
2.49917e-17
2.21473e-17
9.69721e-18
9.75972e-17
1.16205e-16
3.82746e-17
2.36893e-17
2.15837e-17
2.32015e-17
2.25e-17
2.14296e-17
1.94475e-17
1.86804e-17
1.73174e-17
1.69349e-17
1.58308e-17
1.58028e-17
1.47725e-17
1.47853e-17
1.37086e-17
1.39114e-17
1.3084e-17
1.30043e-17
1.25046e-17
1.23024e-17
1.17766e-17
1.1888e-17
1.08616e-17
1.16024e-17
1.01587e-17
1.12509e-17
9.74299e-18
1.07625e-17
9.45792e-18
1.02639e-17
9.2236e-18
9.84057e-18
9.01468e-18
9.45626e-18
8.85268e-18
9.16991e-18
8.67792e-18
9.01169e-18
8.47026e-18
8.94685e-18
8.3605e-18
8.95795e-18
8.34481e-18
9.07852e-18
8.26703e-18
9.41864e-18
8.45465e-18
9.91649e-18
9.08337e-18
1.0647e-17
9.74755e-18
1.32643e-17
8.28559e-18
1.94177e-17
8.105e-18
2.40428e-17
2.19596e-17
9.37829e-18
9.49779e-17
1.18521e-16
3.65627e-17
2.24219e-17
2.09323e-17
2.27404e-17
2.21827e-17
2.11806e-17
1.92709e-17
1.85438e-17
1.72196e-17
1.68564e-17
1.57674e-17
1.57451e-17
1.47251e-17
1.47408e-17
1.36721e-17
1.38739e-17
1.30563e-17
1.29757e-17
1.24823e-17
1.22806e-17
1.17587e-17
1.1873e-17
1.08474e-17
1.15919e-17
1.01469e-17
1.12431e-17
9.73285e-18
1.07575e-17
9.44926e-18
1.02605e-17
9.21617e-18
9.83744e-18
9.00852e-18
9.45377e-18
8.84708e-18
9.16774e-18
8.67239e-18
9.00916e-18
8.46529e-18
8.94282e-18
8.35572e-18
8.9508e-18
8.34067e-18
9.06871e-18
8.25946e-18
9.40598e-18
8.44041e-18
9.89649e-18
9.05743e-18
1.06134e-17
9.70283e-18
1.31739e-17
8.27397e-18
1.9057e-17
8.2394e-18
2.30736e-17
2.18127e-17
8.99478e-18
9.21382e-17
1.21543e-16
3.47873e-17
2.11323e-17
2.02847e-17
2.22666e-17
2.18536e-17
2.0919e-17
1.90816e-17
1.83952e-17
1.71117e-17
1.6769e-17
1.56967e-17
1.56805e-17
1.46721e-17
1.46908e-17
1.36313e-17
1.38318e-17
1.30249e-17
1.29434e-17
1.24566e-17
1.22559e-17
1.1738e-17
1.18555e-17
1.0831e-17
1.15793e-17
1.01331e-17
1.12336e-17
9.72091e-18
1.07512e-17
9.43905e-18
1.02559e-17
9.20746e-18
9.83313e-18
9.00131e-18
9.45017e-18
8.84056e-18
9.16447e-18
8.66603e-18
9.00544e-18
8.45964e-18
8.93735e-18
8.35032e-18
8.94194e-18
8.33585e-18
9.05683e-18
8.25115e-18
9.39057e-18
8.42546e-18
9.87249e-18
9.03078e-18
1.05738e-17
9.6587e-18
1.30725e-17
8.2679e-18
1.86809e-17
8.38414e-18
2.21006e-17
2.1714e-17
8.56511e-18
8.91727e-17
1.2522e-16
3.29899e-17
1.98443e-17
1.9646e-17
2.17845e-17
2.15161e-17
2.06481e-17
1.88819e-17
1.82366e-17
1.69948e-17
1.66734e-17
1.56193e-17
1.56096e-17
1.46137e-17
1.46355e-17
1.35863e-17
1.37853e-17
1.299e-17
1.29078e-17
1.24277e-17
1.22282e-17
1.17145e-17
1.18356e-17
1.08122e-17
1.15647e-17
1.01174e-17
1.12223e-17
9.70725e-18
1.07434e-17
9.42739e-18
1.025e-17
9.19754e-18
9.82755e-18
8.99311e-18
9.44537e-18
8.83318e-18
9.16001e-18
8.65889e-18
9.00044e-18
8.45335e-18
8.93042e-18
8.34437e-18
8.93139e-18
8.3304e-18
9.04292e-18
8.24223e-18
9.37249e-18
8.41005e-18
9.84473e-18
9.00387e-18
1.05286e-17
9.61596e-18
1.29613e-17
8.26735e-18
1.82951e-17
8.53802e-18
2.11371e-17
2.16667e-17
8.10877e-18
8.61619e-17
1.29476e-16
3.12051e-17
1.85807e-17
1.90194e-17
2.12979e-17
2.11729e-17
2.03704e-17
1.8674e-17
1.80693e-17
1.68699e-17
1.65706e-17
1.55358e-17
1.55329e-17
1.45506e-17
1.45755e-17
1.35375e-17
1.37348e-17
1.29517e-17
1.2869e-17
1.23958e-17
1.2198e-17
1.16883e-17
1.18134e-17
1.07913e-17
1.1548e-17
1.00998e-17
1.12093e-17
9.69203e-18
1.0734e-17
9.41442e-18
1.02426e-17
9.18652e-18
9.82062e-18
8.98401e-18
9.43929e-18
8.82502e-18
9.1543e-18
8.65106e-18
8.99413e-18
8.44649e-18
8.922e-18
8.3379e-18
8.91917e-18
8.32439e-18
9.02705e-18
8.2328e-18
9.35188e-18
8.39428e-18
9.81345e-18
8.97697e-18
1.04783e-17
9.57508e-18
1.28418e-17
8.27195e-18
1.79038e-17
8.69982e-18
2.01928e-17
2.16702e-17
7.64561e-18
8.31733e-17
1.34211e-16
2.94593e-17
1.73629e-17
1.84069e-17
2.08098e-17
2.08262e-17
2.00879e-17
1.84595e-17
1.78948e-17
1.6738e-17
1.64611e-17
1.54466e-17
1.54509e-17
1.4483e-17
1.4511e-17
1.34852e-17
1.36807e-17
1.29104e-17
1.28273e-17
1.23609e-17
1.21653e-17
1.16596e-17
1.1789e-17
1.07682e-17
1.15294e-17
1.00805e-17
1.11945e-17
9.67539e-18
1.07229e-17
9.40028e-18
1.02337e-17
9.17454e-18
9.81228e-18
8.97411e-18
9.43189e-18
8.81615e-18
9.14732e-18
8.64258e-18
8.9865e-18
8.43909e-18
8.91212e-18
8.33094e-18
8.90535e-18
8.31781e-18
9.00932e-18
8.2229e-18
9.32889e-18
8.37823e-18
9.77897e-18
8.95024e-18
1.04232e-17
9.53625e-18
1.27152e-17
8.28117e-18
1.75105e-17
8.86835e-18
1.92751e-17
2.17211e-17
7.19372e-18
8.02582e-17
1.39305e-16
2.7773e-17
1.62106e-17
1.78101e-17
2.03223e-17
2.04773e-17
1.98022e-17
1.82398e-17
1.77142e-17
1.65999e-17
1.63456e-17
1.53523e-17
1.5364e-17
1.44114e-17
1.44426e-17
1.34296e-17
1.36232e-17
1.28661e-17
1.2783e-17
1.23233e-17
1.21305e-17
1.16283e-17
1.17627e-17
1.07432e-17
1.15089e-17
1.00597e-17
1.11779e-17
9.65753e-18
1.07102e-17
9.38514e-18
1.02234e-17
9.1617e-18
9.80251e-18
8.96349e-18
9.42314e-18
8.80663e-18
9.13904e-18
8.63351e-18
8.97754e-18
8.43117e-18
8.90081e-18
8.32348e-18
8.89e-18
8.31066e-18
8.9898e-18
8.21255e-18
9.30369e-18
8.36189e-18
9.74152e-18
8.92374e-18
1.03638e-17
9.49944e-18
1.25827e-17
8.29436e-18
1.71179e-17
9.04235e-18
1.83896e-17
2.18134e-17
6.76918e-18
7.74535e-17
1.4462e-16
2.61616e-17
1.51403e-17
1.72296e-17
1.98374e-17
2.01273e-17
1.95145e-17
1.80161e-17
1.75287e-17
1.64563e-17
1.62247e-17
1.52534e-17
1.52728e-17
1.4336e-17
1.43705e-17
1.33709e-17
1.35627e-17
1.28191e-17
1.27363e-17
1.22831e-17
1.20937e-17
1.15948e-17
1.17347e-17
1.07162e-17
1.14866e-17
1.00375e-17
1.11595e-17
9.63861e-18
1.06957e-17
9.36915e-18
1.02114e-17
9.14813e-18
9.79128e-18
8.95224e-18
9.41303e-18
8.79652e-18
9.12947e-18
8.62388e-18
8.96727e-18
8.42275e-18
8.88811e-18
8.3155e-18
8.87318e-18
8.30292e-18
8.96861e-18
8.20171e-18
9.27643e-18
8.34522e-18
9.70136e-18
8.89747e-18
1.03004e-17
9.46451e-18
1.24453e-17
8.31084e-18
1.6728e-17
9.22051e-18
1.75398e-17
2.19389e-17
6.38462e-18
7.47812e-17
1.50009e-16
2.46364e-17
1.41646e-17
1.66659e-17
1.93565e-17
1.97771e-17
1.92257e-17
1.77894e-17
1.73391e-17
1.6308e-17
1.60991e-17
1.51502e-17
1.51776e-17
1.42572e-17
1.42952e-17
1.33095e-17
1.34994e-17
1.27695e-17
1.26875e-17
1.22405e-17
1.20552e-17
1.1559e-17
1.1705e-17
1.06876e-17
1.14627e-17
1.0014e-17
1.11392e-17
9.61883e-18
1.06795e-17
9.35244e-18
1.01979e-17
9.13392e-18
9.77859e-18
8.94042e-18
9.40158e-18
8.78587e-18
9.11863e-18
8.6137e-18
8.95574e-18
8.41381e-18
8.87409e-18
8.30697e-18
8.85497e-18
8.29455e-18
8.94582e-18
8.19036e-18
9.24724e-18
8.32819e-18
9.65867e-18
8.87141e-18
1.02335e-17
9.43121e-18
1.2304e-17
8.32992e-18
1.63423e-17
9.40144e-18
1.67281e-17
2.20881e-17
6.04935e-18
7.22531e-17
1.55319e-16
2.32053e-17
1.32927e-17
1.61192e-17
1.88809e-17
1.94273e-17
1.89366e-17
1.75606e-17
1.71463e-17
1.61557e-17
1.59693e-17
1.50432e-17
1.50788e-17
1.41754e-17
1.4217e-17
1.32455e-17
1.34336e-17
1.27175e-17
1.26367e-17
1.21956e-17
1.20151e-17
1.15211e-17
1.16739e-17
1.06573e-17
1.14371e-17
9.98955e-18
1.11172e-17
9.59833e-18
1.06614e-17
9.33517e-18
1.01827e-17
9.11918e-18
9.76445e-18
8.92808e-18
9.38881e-18
8.7747e-18
9.10654e-18
8.603e-18
8.94298e-18
8.40434e-18
8.8588e-18
8.29788e-18
8.83543e-18
8.28553e-18
8.92153e-18
8.17845e-18
9.21625e-18
8.31076e-18
9.61362e-18
8.8455e-18
1.01634e-17
9.39926e-18
1.21597e-17
8.35096e-18
1.59619e-17
9.58366e-18
1.59556e-17
2.22505e-17
5.76902e-18
6.98708e-17
1.6039e-16
2.18734e-17
1.25296e-17
1.55898e-17
1.84118e-17
1.90784e-17
1.86479e-17
1.73304e-17
1.69511e-17
1.6e-17
1.58358e-17
1.49327e-17
1.49769e-17
1.40907e-17
1.41362e-17
1.31792e-17
1.33656e-17
1.26633e-17
1.25841e-17
1.21485e-17
1.19738e-17
1.14812e-17
1.16415e-17
1.06255e-17
1.14099e-17
9.96418e-18
1.10933e-17
9.57729e-18
1.06416e-17
9.31745e-18
1.0166e-17
9.10399e-18
9.74889e-18
8.91529e-18
9.37474e-18
8.76303e-18
9.09325e-18
8.59178e-18
8.92904e-18
8.39433e-18
8.8423e-18
8.28818e-18
8.81463e-18
8.2758e-18
8.89583e-18
8.16592e-18
9.18355e-18
8.2929e-18
9.56634e-18
8.81972e-18
1.00905e-17
9.36834e-18
1.20131e-17
8.37337e-18
1.55876e-17
9.76564e-18
1.52225e-17
2.24143e-17
5.54629e-18
6.76264e-17
1.65072e-16
2.06434e-17
1.18765e-17
1.50779e-17
1.79502e-17
1.87309e-17
1.836e-17
1.70994e-17
1.67541e-17
1.58416e-17
1.56992e-17
1.48192e-17
1.48721e-17
1.40035e-17
1.40531e-17
1.31109e-17
1.32957e-17
1.26071e-17
1.253e-17
1.20994e-17
1.19312e-17
1.14395e-17
1.16079e-17
1.05925e-17
1.13813e-17
9.93808e-18
1.10677e-17
9.55583e-18
1.06201e-17
9.29938e-18
1.01477e-17
9.08843e-18
9.73195e-18
8.90208e-18
9.35942e-18
8.75089e-18
9.07879e-18
8.58003e-18
8.91397e-18
8.38375e-18
8.82466e-18
8.27786e-18
8.79263e-18
8.26534e-18
8.8688e-18
8.15276e-18
9.14924e-18
8.2746e-18
9.51694e-18
8.794e-18
1.0015e-17
9.33815e-18
1.18649e-17
8.39662e-18
1.52202e-17
9.94582e-18
1.45282e-17
2.25676e-17
5.38115e-18
6.55047e-17
1.69223e-16
1.95167e-17
1.13307e-17
1.45838e-17
1.7497e-17
1.83851e-17
1.80733e-17
1.68683e-17
1.6556e-17
1.56809e-17
1.556e-17
1.4703e-17
1.47648e-17
1.39141e-17
1.39679e-17
1.30408e-17
1.32242e-17
1.25491e-17
1.24745e-17
1.20485e-17
1.18877e-17
1.13961e-17
1.15732e-17
1.05583e-17
1.13511e-17
9.91141e-18
1.10404e-17
9.53408e-18
1.05968e-17
9.28106e-18
1.01279e-17
9.07254e-18
9.71367e-18
8.88848e-18
9.34289e-18
8.73829e-18
9.06321e-18
8.56776e-18
8.89782e-18
8.37261e-18
8.80591e-18
8.2669e-18
8.7695e-18
8.25412e-18
8.84052e-18
8.13892e-18
9.11339e-18
8.25588e-18
9.46555e-18
8.76831e-18
9.93735e-18
9.3084e-18
1.17158e-17
8.42027e-18
1.486e-17
1.01226e-17
1.38719e-17
2.26993e-17
5.27169e-18
6.34863e-17
1.72717e-16
1.84931e-17
1.08863e-17
1.41076e-17
1.70531e-17
1.80416e-17
1.77884e-17
1.66376e-17
1.63574e-17
1.55187e-17
1.54187e-17
1.45847e-17
1.46554e-17
1.38227e-17
1.38811e-17
1.29691e-17
1.31512e-17
1.24894e-17
1.24179e-17
1.19959e-17
1.18433e-17
1.13512e-17
1.15375e-17
1.05231e-17
1.13196e-17
9.88429e-18
1.10114e-17
9.51215e-18
1.05718e-17
9.26257e-18
1.01066e-17
9.0564e-18
9.69411e-18
8.87453e-18
9.32522e-18
8.72524e-18
9.04657e-18
8.55497e-18
8.88065e-18
8.36088e-18
8.78614e-18
8.2553e-18
8.74531e-18
8.24212e-18
8.81108e-18
8.12442e-18
9.0761e-18
8.23677e-18
9.41228e-18
8.74261e-18
9.85788e-18
9.27884e-18
1.15662e-17
8.44396e-18
1.45075e-17
1.02943e-17
1.32519e-17
2.2799e-17
5.21449e-18
6.1549e-17
1.75448e-16
1.75712e-17
1.05348e-17
1.36497e-17
1.66194e-17
1.77007e-17
1.75055e-17
1.64078e-17
1.61588e-17
1.53555e-17
1.52758e-17
1.44644e-17
1.45442e-17
1.37295e-17
1.37928e-17
1.2896e-17
1.3077e-17
1.24284e-17
1.23603e-17
1.19418e-17
1.17982e-17
1.13049e-17
1.1501e-17
1.0487e-17
1.12867e-17
9.85687e-18
1.09808e-17
9.49012e-18
1.05453e-17
9.24398e-18
1.00839e-17
9.04006e-18
9.67334e-18
8.86027e-18
9.30646e-18
8.71178e-18
9.02893e-18
8.54168e-18
8.86252e-18
8.34858e-18
8.76539e-18
8.24305e-18
8.72012e-18
8.22936e-18
8.78057e-18
8.10927e-18
9.03742e-18
8.21733e-18
9.35729e-18
8.71689e-18
9.77696e-18
9.24926e-18
1.14168e-17
8.4674e-18
1.4163e-17
1.04595e-17
1.26666e-17
2.28574e-17
5.2054e-18
5.96674e-17
1.7733e-16
1.67483e-17
1.02657e-17
1.32104e-17
1.61966e-17
1.73629e-17
1.72252e-17
1.61793e-17
1.59608e-17
1.51917e-17
1.51318e-17
1.43428e-17
1.44315e-17
1.36349e-17
1.37032e-17
1.28218e-17
1.30018e-17
1.23661e-17
1.23019e-17
1.18864e-17
1.17525e-17
1.12574e-17
1.14637e-17
1.04503e-17
1.12526e-17
9.82926e-18
1.09487e-17
9.46809e-18
1.05172e-17
9.22534e-18
1.00598e-17
9.02355e-18
9.65141e-18
8.84572e-18
9.28668e-18
8.6979e-18
9.01036e-18
8.5279e-18
8.8435e-18
8.33573e-18
8.74373e-18
8.23019e-18
8.69401e-18
8.21584e-18
8.74908e-18
8.09352e-18
8.99746e-18
8.19764e-18
9.30072e-18
8.69112e-18
9.69495e-18
9.21953e-18
1.1268e-17
8.49036e-18
1.38268e-17
1.06167e-17
1.21144e-17
2.28667e-17
5.24e-18
5.78161e-17
1.78303e-16
1.60212e-17
1.00674e-17
1.279e-17
1.57854e-17
1.70288e-17
1.69477e-17
1.59526e-17
1.57636e-17
1.50279e-17
1.49872e-17
1.42201e-17
1.43177e-17
1.35392e-17
1.36127e-17
1.27467e-17
1.29258e-17
1.23028e-17
1.22429e-17
1.18297e-17
1.17063e-17
1.12088e-17
1.14256e-17
1.0413e-17
1.12173e-17
9.80157e-18
1.09151e-17
9.44612e-18
1.04877e-17
9.20672e-18
1.00345e-17
9.00694e-18
9.6284e-18
8.83092e-18
9.26595e-18
8.68366e-18
8.99092e-18
8.51365e-18
8.82364e-18
8.32235e-18
8.72123e-18
8.21675e-18
8.66707e-18
8.2016e-18
8.71672e-18
8.07722e-18
8.95631e-18
8.17777e-18
9.24276e-18
8.66531e-18
9.61221e-18
9.18955e-18
1.11203e-17
8.51267e-18
1.34993e-17
1.07644e-17
1.15935e-17
2.28213e-17
5.31397e-18
5.59709e-17
1.78336e-16
1.53858e-17
9.92721e-18
1.23887e-17
1.53864e-17
1.66988e-17
1.66734e-17
1.5728e-17
1.55678e-17
1.48644e-17
1.48424e-17
1.40968e-17
1.42031e-17
1.34424e-17
1.35214e-17
1.26708e-17
1.28493e-17
1.22386e-17
1.21834e-17
1.17721e-17
1.16598e-17
1.11593e-17
1.1387e-17
1.03754e-17
1.11809e-17
9.77391e-18
1.08802e-17
9.42426e-18
1.04569e-17
9.18816e-18
1.0008e-17
8.99026e-18
9.6044e-18
8.8159e-18
9.24436e-18
8.66906e-18
8.9707e-18
8.49897e-18
8.80303e-18
8.30848e-18
8.69797e-18
8.20276e-18
8.63938e-18
8.18669e-18
8.68358e-18
8.06046e-18
8.91406e-18
8.15782e-18
9.18363e-18
8.63948e-18
9.52912e-18
9.15929e-18
1.09739e-17
8.53423e-18
1.31808e-17
1.09016e-17
1.11024e-17
2.27177e-17
5.42323e-18
5.4111e-17
1.77421e-16
1.48371e-17
9.83289e-18
1.20066e-17
1.50003e-17
1.63735e-17
1.64027e-17
1.5506e-17
1.53737e-17
1.47017e-17
1.46977e-17
1.39731e-17
1.4088e-17
1.33451e-17
1.34295e-17
1.25944e-17
1.27724e-17
1.21738e-17
1.21235e-17
1.17135e-17
1.1613e-17
1.11091e-17
1.13477e-17
1.03375e-17
1.11435e-17
9.74636e-18
1.0844e-17
9.40259e-18
1.04248e-17
9.16969e-18
9.98046e-18
8.97355e-18
9.57948e-18
8.80071e-18
9.22196e-18
8.65415e-18
8.94975e-18
8.48389e-18
8.78173e-18
8.29418e-18
8.67401e-18
8.18828e-18
8.61105e-18
8.17116e-18
8.64977e-18
8.04334e-18
8.87085e-18
8.1379e-18
9.12354e-18
8.61365e-18
9.44601e-18
9.12876e-18
1.08294e-17
8.55491e-18
1.28715e-17
1.1027e-17
1.06399e-17
2.25542e-17
5.56404e-18
5.22175e-17
1.75577e-16
1.43695e-17
9.77267e-18
1.1644e-17
1.46275e-17
1.60534e-17
1.6136e-17
1.52869e-17
1.51817e-17
1.45401e-17
1.45536e-17
1.38495e-17
1.39727e-17
1.32473e-17
1.33373e-17
1.25177e-17
1.26953e-17
1.21084e-17
1.20635e-17
1.16543e-17
1.1566e-17
1.10583e-17
1.13079e-17
1.02994e-17
1.11051e-17
9.71899e-18
1.08068e-17
9.38113e-18
1.03917e-17
9.15136e-18
9.95188e-18
8.95685e-18
9.55372e-18
8.78538e-18
9.19886e-18
8.63897e-18
8.92817e-18
8.46847e-18
8.75981e-18
8.27948e-18
8.64944e-18
8.17336e-18
8.58216e-18
8.1551e-18
8.6154e-18
8.02597e-18
8.82679e-18
8.11809e-18
9.06274e-18
8.58787e-18
9.36323e-18
9.09801e-18
1.06871e-17
8.57467e-18
1.25719e-17
1.11397e-17
1.02049e-17
2.2331e-17
5.73314e-18
5.02754e-17
1.72842e-16
1.39766e-17
9.73568e-18
1.1301e-17
1.42684e-17
1.5739e-17
1.58736e-17
1.5071e-17
1.49919e-17
1.43799e-17
1.44104e-17
1.37263e-17
1.38574e-17
1.31493e-17
1.32449e-17
1.24408e-17
1.26181e-17
1.20428e-17
1.20035e-17
1.15946e-17
1.15189e-17
1.10071e-17
1.12676e-17
1.02614e-17
1.1066e-17
9.69189e-18
1.07685e-17
9.35994e-18
1.03575e-17
9.13321e-18
9.9224e-18
8.9402e-18
9.52722e-18
8.76995e-18
9.17513e-18
8.62356e-18
8.90603e-18
8.45276e-18
8.73734e-18
8.26446e-18
8.62434e-18
8.15808e-18
8.55283e-18
8.1386e-18
8.58058e-18
8.00846e-18
8.78203e-18
8.0985e-18
9.00148e-18
8.56219e-18
9.28108e-18
9.06715e-18
1.05473e-17
8.59342e-18
1.22824e-17
1.12392e-17
9.79661e-18
2.20502e-17
5.92756e-18
4.82742e-17
1.69279e-16
1.36518e-17
9.71216e-18
1.09774e-17
1.39232e-17
1.54308e-17
1.56158e-17
1.48588e-17
1.48048e-17
1.42214e-17
1.42683e-17
1.36038e-17
1.37425e-17
1.30513e-17
1.31526e-17
1.23638e-17
1.2541e-17
1.19769e-17
1.19435e-17
1.15345e-17
1.14718e-17
1.09556e-17
1.1227e-17
1.02234e-17
1.1026e-17
9.66511e-18
1.07293e-17
9.33905e-18
1.03224e-17
9.11526e-18
9.89211e-18
8.92364e-18
9.50006e-18
8.75446e-18
9.15085e-18
8.60796e-18
8.88341e-18
8.4368e-18
8.71442e-18
8.24919e-18
8.59881e-18
8.14251e-18
8.52316e-18
8.12174e-18
8.54541e-18
7.99093e-18
8.73672e-18
8.07923e-18
8.94e-18
8.53669e-18
9.19987e-18
9.03627e-18
1.04102e-17
8.6111e-18
1.20031e-17
1.13246e-17
9.41465e-18
2.17157e-17
6.14456e-18
4.62085e-17
1.64966e-16
1.33881e-17
9.69416e-18
1.06732e-17
1.35922e-17
1.51294e-17
1.5363e-17
1.46503e-17
1.46204e-17
1.40649e-17
1.41277e-17
1.34821e-17
1.36281e-17
1.29536e-17
1.30604e-17
1.2287e-17
1.24641e-17
1.19109e-17
1.18837e-17
1.14742e-17
1.14247e-17
1.0904e-17
1.1186e-17
1.01857e-17
1.09854e-17
9.63869e-18
1.06893e-17
9.3185e-18
1.02866e-17
9.09755e-18
9.86111e-18
8.90719e-18
9.47233e-18
8.73895e-18
9.12611e-18
8.59224e-18
8.86037e-18
8.42068e-18
8.6911e-18
8.23372e-18
8.57293e-18
8.12672e-18
8.49324e-18
8.10464e-18
8.51001e-18
7.97351e-18
8.69103e-18
8.06035e-18
8.87857e-18
8.51145e-18
9.11986e-18
9.00551e-18
1.02763e-17
8.62765e-18
1.17345e-17
1.13958e-17
9.05877e-18
2.13324e-17
6.38129e-18
4.40772e-17
1.59992e-16
1.3178e-17
9.6752e-18
1.03884e-17
1.32755e-17
1.4835e-17
1.51156e-17
1.4446e-17
1.44391e-17
1.39106e-17
1.39887e-17
1.33617e-17
1.35145e-17
1.28564e-17
1.29686e-17
1.22104e-17
1.23875e-17
1.1845e-17
1.18242e-17
1.14139e-17
1.13777e-17
1.08524e-17
1.11447e-17
1.01482e-17
1.09443e-17
9.61268e-18
1.06487e-17
9.2983e-18
1.025e-17
9.0801e-18
9.82949e-18
8.8909e-18
9.44411e-18
8.72346e-18
9.10098e-18
8.57643e-18
8.83701e-18
8.40444e-18
8.66746e-18
8.21813e-18
8.54679e-18
8.11079e-18
8.46317e-18
8.08739e-18
8.47448e-18
7.9563e-18
8.6451e-18
8.04196e-18
8.81742e-18
8.48655e-18
9.04127e-18
8.97499e-18
1.01457e-17
8.64301e-18
1.1477e-17
1.14524e-17
8.72895e-18
2.09061e-17
6.63491e-18
4.18836e-17
1.54458e-16
1.30137e-17
9.65031e-18
1.01225e-17
1.29731e-17
1.45482e-17
1.48737e-17
1.42461e-17
1.4261e-17
1.37587e-17
1.38515e-17
1.32425e-17
1.34019e-17
1.27598e-17
1.28772e-17
1.21343e-17
1.23114e-17
1.17793e-17
1.1765e-17
1.13536e-17
1.13308e-17
1.08009e-17
1.11032e-17
1.0111e-17
1.09027e-17
9.58712e-18
1.06076e-17
9.27849e-18
1.02129e-17
9.06293e-18
9.79735e-18
8.87479e-18
9.41549e-18
8.70803e-18
9.07554e-18
8.56059e-18
8.81338e-18
8.38815e-18
8.64359e-18
8.20248e-18
8.52047e-18
8.09479e-18
8.43304e-18
8.0701e-18
8.43893e-18
7.93941e-18
8.5991e-18
8.02412e-18
8.75677e-18
8.46208e-18
8.96431e-18
8.94485e-18
1.00188e-17
8.65709e-18
1.12307e-17
1.14945e-17
8.42537e-18
2.04432e-17
6.90231e-18
3.96343e-17
1.48467e-16
1.28879e-17
9.61589e-18
9.87541e-18
1.26849e-17
1.42692e-17
1.46376e-17
1.40508e-17
1.40863e-17
1.36093e-17
1.37163e-17
1.3125e-17
1.32904e-17
1.26641e-17
1.27866e-17
1.20586e-17
1.22359e-17
1.17139e-17
1.17063e-17
1.12935e-17
1.12841e-17
1.07497e-17
1.10615e-17
1.00743e-17
1.08607e-17
9.56204e-18
1.0566e-17
9.25907e-18
1.01754e-17
9.04608e-18
9.76479e-18
8.85889e-18
9.38655e-18
8.6927e-18
9.04986e-18
8.54477e-18
8.78956e-18
8.37188e-18
8.61955e-18
8.18684e-18
8.49406e-18
8.07881e-18
8.40295e-18
8.05286e-18
8.40346e-18
7.92294e-18
8.5532e-18
8.00689e-18
8.69685e-18
8.43813e-18
8.88918e-18
8.91519e-18
9.89569e-18
8.66981e-18
1.09959e-17
1.15221e-17
8.14824e-18
1.99508e-17
7.18009e-18
3.73407e-17
1.4213e-16
1.2793e-17
9.57e-18
9.64666e-18
1.24109e-17
1.39984e-17
1.44076e-17
1.38603e-17
1.39151e-17
1.34625e-17
1.35832e-17
1.30091e-17
1.31803e-17
1.25693e-17
1.26967e-17
1.19836e-17
1.21609e-17
1.16488e-17
1.1648e-17
1.12338e-17
1.12376e-17
1.06988e-17
1.10197e-17
1.0038e-17
1.08184e-17
9.53744e-18
1.0524e-17
9.24008e-18
1.01375e-17
9.02956e-18
9.73188e-18
8.84323e-18
9.35737e-18
8.6775e-18
9.02401e-18
8.52902e-18
8.7656e-18
8.35567e-18
8.59541e-18
8.17127e-18
8.46765e-18
8.06292e-18
8.37298e-18
8.03578e-18
8.36817e-18
7.90697e-18
8.50755e-18
7.99034e-18
8.63785e-18
8.4148e-18
8.816e-18
8.88614e-18
9.77663e-18
8.68108e-18
1.07727e-17
1.15355e-17
7.89784e-18
1.94355e-17
7.4643e-18
3.50166e-17
1.35551e-16
1.27219e-17
9.51178e-18
9.43591e-18
1.21508e-17
1.37361e-17
1.41839e-17
1.36747e-17
1.37476e-17
1.33185e-17
1.34523e-17
1.28951e-17
1.30716e-17
1.24757e-17
1.26076e-17
1.19093e-17
1.20867e-17
1.15842e-17
1.15903e-17
1.11745e-17
1.11914e-17
1.06484e-17
1.09778e-17
1.00022e-17
1.07758e-17
9.51336e-18
1.04818e-17
9.22152e-18
1.00993e-17
9.01338e-18
9.69871e-18
8.82782e-18
9.32801e-18
8.66247e-18
8.99805e-18
8.51339e-18
8.74158e-18
8.3396e-18
8.57124e-18
8.15583e-18
8.4413e-18
8.04718e-18
8.3432e-18
8.01895e-18
8.33316e-18
7.89159e-18
8.46229e-18
7.9745e-18
8.57994e-18
8.39215e-18
8.74493e-18
8.85777e-18
9.66179e-18
8.69082e-18
1.05615e-17
1.15349e-17
7.67443e-18
1.89036e-17
7.75074e-18
3.26789e-17
1.28833e-16
1.26674e-17
9.44135e-18
9.24269e-18
1.19045e-17
1.34823e-17
1.39665e-17
1.34941e-17
1.35839e-17
1.31774e-17
1.33239e-17
1.2783e-17
1.29644e-17
1.23833e-17
1.25196e-17
1.18358e-17
1.20133e-17
1.15201e-17
1.15331e-17
1.11157e-17
1.11455e-17
1.05985e-17
1.09359e-17
9.96706e-18
1.07331e-17
9.48981e-18
1.04395e-17
9.2034e-18
1.0061e-17
8.99757e-18
9.66537e-18
8.8127e-18
9.29855e-18
8.64765e-18
8.97205e-18
8.49793e-18
8.71754e-18
8.3237e-18
8.54711e-18
8.14058e-18
8.41508e-18
8.03168e-18
8.31367e-18
8.00245e-18
8.29851e-18
7.87685e-18
8.41758e-18