/*--------------------------------*- C++ -*----------------------------------*\
| =========                 |                                                 |
| \\      /  F ield         | OpenFOAM: The Open Source CFD Toolbox           |
|  \\    /   O peration     | Version:  2312                                  |
|   \\  /    A nd           | Website:  www.openfoam.com                      |
|    \\/     M anipulation  |                                                 |
\*---------------------------------------------------------------------------*/
FoamFile
{
    version     2.0;
    format      ascii;
    arch        "LSB;label=32;scalar=64";
    class       volScalarField;
    location    "600";
    object      nut;
}
// * * * * * * * * * * * * * * * * * * * * * * * * * * * * * * * * * * * * * //

dimensions      [0 2 -1 0 0 0 0];

internalField   nonuniform List<scalar> 
144000
(
9.4294e-28
4.8182e-29
4.24321e-29
1.0526e-27
1.85297e-28
5.40228e-32
7.61594e-29
1.9321e-29
4.63159e-29
3.50793e-29
4.19983e-29
3.87495e-29
4.56751e-29
4.66166e-29
4.02763e-29
4.05658e-29
4.86657e-29
6.1405e-29
4.71577e-29
5.44842e-29
5.55166e-29
6.96185e-29
5.73456e-29
6.6737e-29
5.45098e-29
6.69593e-29
6.28796e-29
7.54857e-29
6.2653e-29
7.19338e-29
5.64895e-29
6.58077e-29
6.6327e-29
7.80882e-29
6.14848e-29
6.71091e-29
5.22874e-29
5.93844e-29
5.06208e-29
5.74822e-29
4.02506e-29
4.42425e-29
2.48806e-29
2.45966e-29
1.8813e-29
2.10554e-29
6.09354e-30
4.47297e-30
4.51439e-31
2.40253e-31
1.17967e-30
4.35767e-30
4.20274e-29
1.00473e-28
5.46077e-28
1.42659e-28
2.24592e-27
1.45411e-25
2.2426e-25
1.24928e-26
1.55184e-25
7.83247e-27
5.41691e-27
1.08829e-26
9.20553e-29
5.05466e-30
1.28709e-28
5.95213e-29
5.5343e-29
1.23677e-28
5.19329e-29
1.19385e-28
6.34309e-29
1.33956e-28
6.36767e-29
1.05652e-28
7.53823e-29
1.60141e-28
8.20095e-29
1.28608e-28
9.39696e-29
1.70205e-28
9.97667e-29
1.58169e-28
9.50236e-29
1.55944e-28
1.0858e-28
1.78605e-28
1.10291e-28
1.6709e-28
1.00572e-28
1.48289e-28
1.14014e-28
1.82032e-28
1.09703e-28
1.49592e-28
9.25334e-29
1.29544e-28
8.83523e-29
1.25855e-28
7.1762e-29
9.17372e-29
4.54962e-29
4.76528e-29
3.04368e-29
4.50193e-29
1.04605e-29
7.39459e-30
5.69285e-31
3.1258e-31
2.30754e-30
1.43024e-29
7.9762e-29
2.90627e-28
9.84463e-28
6.90329e-28
2.78758e-27
3.42175e-25
1.39375e-24
8.3298e-27
3.93159e-25
4.42293e-26
2.91859e-26
1.10717e-26
4.61578e-28
5.48884e-30
1.52948e-28
1.10618e-28
6.76035e-29
1.8013e-28
7.28176e-29
1.68473e-28
8.93844e-29
1.89355e-28
8.57884e-29
1.59259e-28
1.02714e-28
2.29259e-28
1.09842e-28
1.93803e-28
1.25192e-28
2.493e-28
1.31482e-28
2.37186e-28
1.23551e-28
2.38384e-28
1.41397e-28
2.67426e-28
1.43296e-28
2.53087e-28
1.28636e-28
2.32542e-28
1.46853e-28
2.73375e-28
1.40875e-28
2.29445e-28
1.17554e-28
2.02459e-28
1.1243e-28
1.92604e-28
9.03551e-29
1.44319e-28
5.44461e-29
8.14072e-29
3.70589e-29
7.13017e-29
1.14882e-29
1.44023e-29
3.93009e-31
1.31716e-30
5.63218e-30
1.09481e-29
1.46684e-28
3.10744e-28
1.53729e-27
5.17415e-28
1.02512e-26
5.76877e-25
1.4308e-24
1.02273e-25
1.58945e-24
4.65142e-25
1.06106e-25
4.59701e-26
4.95931e-28
1.12867e-29
1.39168e-28
1.43537e-28
5.98525e-29
2.0163e-28
6.62328e-29
1.86878e-28
8.19927e-29
2.09646e-28
7.82342e-29
1.75065e-28
9.29015e-29
2.53846e-28
1.00064e-28
2.13157e-28
1.14677e-28
2.736e-28
1.21099e-28
2.59483e-28
1.12944e-28
2.62082e-28
1.28674e-28
2.95223e-28
1.3085e-28
2.77612e-28
1.17285e-28
2.56695e-28
1.33254e-28
3.03145e-28
1.28071e-28
2.53381e-28
1.06557e-28
2.252e-28
1.01337e-28
2.16126e-28
8.19292e-29
1.62256e-28
4.90253e-29
9.39062e-29
3.33728e-29
8.38182e-29
9.96907e-30
1.86088e-29
3.41962e-31
2.84309e-30
5.54441e-30
8.96992e-30
1.40271e-28
2.6569e-28
1.38456e-27
4.01594e-28
1.34364e-26
8.74583e-25
2.10932e-24
6.71671e-25
3.27609e-24
2.31759e-24
1.73189e-25
1.54365e-25
1.33652e-27
2.81174e-29
1.4697e-28
1.8749e-28
5.37154e-29
2.37162e-28
5.59263e-29
2.17361e-28
7.2417e-29
2.3994e-28
6.91733e-29
1.97534e-28
8.3254e-29
2.87403e-28
8.97865e-29
2.36433e-28
1.0527e-28
3.03634e-28
1.11161e-28
2.84638e-28
1.03334e-28
2.88049e-28
1.1863e-28
3.26111e-28
1.19601e-28
3.05014e-28
1.07064e-28
2.82181e-28
1.23038e-28
3.37037e-28
1.16548e-28
2.79995e-28
9.67334e-29
2.50869e-28
9.25541e-29
2.43946e-28
7.4343e-29
1.84786e-28
4.43331e-29
1.09638e-28
3.10324e-29
1.02006e-28
8.82083e-30
2.57818e-29
3.9586e-31
6.40037e-30
4.98595e-30
7.48264e-30
1.26933e-28
2.20618e-28
1.15442e-27
2.59299e-28
1.9984e-26
1.43443e-24
2.87312e-24
2.95317e-24
4.76346e-24
7.10321e-24
1.85587e-25
3.81905e-25
4.18444e-27
6.9535e-29
1.75787e-28
2.38252e-28
5.50448e-29
2.79027e-28
4.86675e-29
2.53971e-28
6.58887e-29
2.77358e-28
6.26865e-29
2.29707e-28
7.76213e-29
3.30779e-28
8.24481e-29
2.68795e-28
9.99781e-29
3.44511e-28
1.05075e-28
3.18374e-28
9.79045e-29
3.23084e-28
1.13836e-28
3.66869e-28
1.13513e-28
3.4071e-28
1.01359e-28
3.1673e-28
1.19225e-28
3.81124e-28
1.10398e-28
3.1527e-28
9.17354e-29
2.86102e-28
8.8779e-29
2.82128e-28
7.08832e-29
2.16327e-28
4.23022e-29
1.33155e-28
3.14456e-29
1.29153e-28
8.6933e-30
3.83746e-29
6.81395e-31
1.44532e-29
3.86569e-30
7.92947e-30
1.06007e-28
1.7848e-28
8.6328e-28
1.37276e-28
3.00963e-26
2.3418e-24
3.66508e-24
8.60852e-24
5.71362e-24
1.65931e-23
1.47207e-25
7.77832e-25
1.13943e-26
1.48174e-28
2.19684e-28
2.92422e-28
6.18701e-29
3.20034e-28
4.46211e-29
2.89644e-28
6.22558e-29
3.15448e-28
5.79147e-29
2.63153e-28
7.50626e-29
3.77973e-28
7.69231e-29
3.06814e-28
9.69716e-29
3.91379e-28
1.00412e-28
3.57263e-28
9.43294e-29
3.64753e-28
1.11755e-28
4.12814e-28
1.09435e-28
3.81582e-28
9.79107e-29
3.58842e-28
1.18814e-28
4.30941e-28
1.06825e-28
3.56125e-28
8.95597e-29
3.29038e-28
8.84432e-29
3.27618e-28
7.00082e-29
2.5623e-28
4.25179e-29
1.66012e-28
3.45714e-29
1.66692e-28
9.81096e-30
5.97041e-29
1.61702e-30
3.23366e-29
2.53054e-30
1.37417e-29
7.97293e-29
1.43861e-28
5.5891e-28
9.79391e-29
4.10611e-26
3.66415e-24
4.81642e-24
1.93782e-23
5.92408e-24
3.20094e-23
8.49869e-26
1.36653e-24
2.67275e-26
2.70638e-28
2.76532e-28
3.51876e-28
7.11598e-29
3.62587e-28
4.2236e-29
3.23797e-28
6.0323e-29
3.53226e-28
5.43788e-29
2.95768e-28
7.41166e-29
4.26224e-28
7.25071e-29
3.47271e-28
9.50125e-29
4.41941e-28
9.63744e-29
3.9935e-28
9.1737e-29
4.10492e-28
1.1024e-28
4.62706e-28
1.06447e-28
4.25606e-28
9.57205e-29
4.05652e-28
1.19598e-28
4.8535e-28
1.04688e-28
4.01347e-28
8.93375e-29
3.78355e-28
8.98891e-29
3.80928e-28
7.15334e-29
3.05066e-28
4.50033e-29
2.09726e-28
4.05896e-29
2.19475e-28
1.28462e-29
9.64132e-29
4.41487e-30
7.14436e-29
2.18059e-30
3.78355e-29
5.82968e-29
1.47356e-28
3.43389e-28
3.35418e-28
5.28358e-26
5.47214e-24
6.52287e-24
3.58891e-23
5.71602e-24
5.45902e-23
3.32634e-26
2.1698e-24
5.70295e-26
4.58255e-28
3.487e-28
4.06701e-28
8.11688e-29
4.09838e-28
4.05561e-29
3.58024e-28
5.97648e-29
3.90825e-28
5.18377e-29
3.31256e-28
7.48307e-29
4.74964e-28
6.90341e-29
3.8973e-28
9.47044e-29
4.94886e-28
9.28449e-29
4.44516e-28
8.99856e-29
4.60149e-28
1.10122e-28
5.15768e-28
1.03916e-28
4.73789e-28
9.45442e-29
4.57875e-28
1.22247e-28
5.44499e-28
1.03515e-28
4.52301e-28
9.09352e-29
4.35276e-28
9.41461e-29
4.4342e-28
7.54006e-29
3.66554e-28
5.04629e-29
2.6894e-28
5.15887e-29
2.94908e-28
1.9408e-29
1.59949e-28
1.25252e-29
1.54377e-28
5.95586e-30
1.16045e-28
6.24636e-29
2.65202e-28
3.73213e-28
1.71343e-27
6.20122e-26
7.85287e-24
9.79898e-24
5.85903e-23
5.24952e-24
8.45117e-23
1.3393e-26
3.15151e-24
1.11661e-25
7.50688e-28
4.32894e-28
4.47877e-28
9.19713e-29
4.63375e-28
3.9271e-29
3.93385e-28
6.00753e-29
4.28864e-28
5.03306e-29
3.68166e-28
7.65359e-29
5.24002e-28
6.65959e-29
4.33641e-28
9.55084e-29
5.49739e-28
9.03453e-29
4.91995e-28
8.93911e-29
5.13301e-28
1.10542e-28
5.72675e-28
1.02486e-28
5.25514e-28
9.46101e-29
5.15476e-28
1.25889e-28
6.0972e-28
1.03857e-28
5.09975e-28
9.47221e-29
5.018e-28
1.00807e-28
5.18973e-28
8.28047e-29
4.44525e-28
6.01787e-29
3.50209e-28
6.96886e-29
4.05349e-28
3.3053e-29
2.70043e-28
3.45666e-29
3.25368e-28
2.74019e-29
3.34249e-28
1.46338e-28
7.3369e-28
1.03617e-27
6.7389e-27
7.02647e-26
1.09301e-23
1.54025e-23
8.62466e-23
5.2737e-24
1.22123e-22
2.55244e-26
4.28338e-24
2.03417e-25
1.23962e-27
5.48549e-28
4.64408e-28
1.02969e-28
5.24232e-28
3.82149e-29
4.29926e-28
6.12322e-29
4.673e-28
4.93816e-29
4.07191e-28
7.93749e-29
5.73008e-28
6.49162e-29
4.79552e-28
9.77884e-29
6.05443e-28
8.86597e-29
5.42071e-28
8.9786e-29
5.70129e-28
1.12386e-28
6.32119e-28
1.01821e-28
5.81906e-28
9.5807e-29
5.79755e-28
1.31425e-28
6.81043e-28
1.05645e-28
5.76472e-28
1.00904e-28
5.8059e-28
1.11398e-28
6.10291e-28
9.44451e-29
5.45894e-28
7.59734e-29
4.63556e-28
9.97925e-29
5.67478e-28
6.04695e-29
4.57897e-28
8.95104e-29
6.55357e-28
1.09881e-28
8.80779e-28
4.81952e-28
2.14927e-27
3.5629e-27
1.9995e-26
7.4555e-26
1.50018e-23
2.60289e-23
1.17707e-22
5.78221e-24
1.66835e-22
1.29343e-25
5.51875e-24
3.47626e-25
2.17625e-27
7.04221e-28
4.53417e-28
1.13471e-28
5.97339e-28
3.67826e-29
4.70159e-28
6.23385e-29
5.08802e-28
4.86992e-29
4.48789e-28
8.23985e-29
6.23552e-28
6.36887e-29
5.27992e-28
1.0066e-28
6.63048e-28
8.77516e-29
5.95024e-28
9.1228e-29
6.30471e-28
1.14509e-28
6.95272e-28
1.02484e-28
6.42577e-28
9.83234e-29
6.50348e-28
1.38185e-28
7.60319e-28
1.09411e-28
6.53418e-28
1.10137e-28
6.74532e-28
1.25728e-28
7.23132e-28
1.12488e-28
6.77549e-28
1.00771e-28
6.21011e-28
1.48088e-28
8.06833e-28
1.13754e-28
7.72214e-28
2.12874e-28
1.25679e-27
3.5631e-28
2.0921e-27
1.47914e-27
5.65656e-27
1.0501e-26
4.82485e-26
8.02005e-26
2.063e-23
4.30482e-23
1.50178e-22
8.37921e-24
2.18065e-22
4.00386e-25
6.81677e-24
5.53308e-25
4.02974e-27
9.39511e-28
4.0263e-28
1.23659e-28
6.82358e-28
3.49992e-29
5.13997e-28
6.34951e-29
5.53611e-28
4.77349e-29
4.94135e-28
8.60041e-29
6.75441e-28
6.25537e-29
5.79889e-28
1.04586e-28
7.22257e-28
8.70972e-29
6.52314e-28
9.32647e-29
6.9438e-28
1.18066e-28
7.61469e-28
1.03713e-28
7.09646e-28
1.01894e-28
7.2825e-28
1.47663e-28
8.47689e-28
1.1495e-28
7.44098e-28
1.22724e-28
7.86635e-28
1.46256e-28
8.62234e-28
1.38063e-28
8.50897e-28
1.3831e-28
8.39271e-28
2.26162e-28
1.15403e-27
2.11181e-28
1.28866e-27
4.69902e-28
2.33194e-27
9.48296e-28
4.51565e-27
3.86936e-27
1.30283e-26
2.55568e-26
9.82316e-26
8.44246e-26
2.84414e-23
7.30512e-23
1.81174e-22
1.41331e-23
2.80186e-22
8.88945e-25
8.24009e-24
8.31095e-25
7.86667e-27
1.19862e-27
3.24682e-28
1.32578e-28
7.80727e-28
3.29963e-29
5.6092e-28
6.46189e-29
6.01023e-28
4.70498e-29
5.42252e-28
8.92723e-29
7.29745e-28
6.17277e-29
6.3532e-28
1.0855e-28
7.84296e-28
8.70528e-29
7.13374e-28
9.61284e-29
7.62206e-28
1.21808e-28
8.32772e-28
1.06094e-28
7.82166e-28
1.07009e-28
8.14044e-28
1.58603e-28
9.46261e-28
1.23163e-28
8.49674e-28
1.3979e-28
9.20585e-28
1.73265e-28
1.03527e-27
1.7476e-28
1.07455e-27
1.95009e-28
1.13863e-27
3.46987e-28
1.64989e-27
3.83092e-28
2.10309e-27
9.61173e-28
4.1471e-27
2.18533e-27
8.89006e-27
8.75641e-27
2.66026e-26
5.37448e-26
1.78232e-25
9.08491e-26
3.91301e-23
1.18475e-22
2.07696e-22
2.59092e-23
3.46734e-22
1.58158e-24
9.89674e-24
1.16911e-24
1.5338e-26
1.48591e-27
2.27398e-28
1.41964e-28
8.83927e-28
3.14591e-29
6.06693e-28
6.66829e-29
6.47878e-28
4.66797e-29
5.9237e-28
9.31031e-29
7.84196e-28
6.11987e-29
6.93947e-28
1.13385e-28
8.47412e-28
8.74864e-29
7.78952e-28
9.95593e-29
8.34167e-28
1.26767e-28
9.07973e-28
1.09225e-28
8.62315e-28
1.13371e-28
9.0944e-28
1.72334e-28
1.05605e-27
1.34043e-28
9.73864e-28
1.61839e-28
1.08058e-27
2.09717e-28
1.24787e-27
2.25153e-28
1.36423e-27
2.78445e-28
1.54379e-27
5.28833e-28
2.34619e-27
6.71713e-28
3.33298e-27
1.82261e-27
7.01704e-27
4.46392e-27
1.61648e-26
1.74594e-26
4.90853e-26
9.96969e-26
2.93445e-25
9.72893e-26
5.36122e-23
1.88339e-22
2.24506e-22
4.41202e-23
4.10617e-22
2.74305e-24
1.22432e-23
1.54317e-24
2.95783e-26
1.72934e-27
1.41302e-28
1.47189e-28
1.00421e-27
2.93441e-29
6.56548e-28
6.85616e-29
6.97619e-28
4.65454e-29
6.44799e-28
9.6435e-29
8.41209e-28
6.08987e-29
7.56482e-28
1.18066e-28
9.13601e-28
8.85496e-29
8.48881e-28
1.038e-28
9.10616e-28
1.31588e-28
9.89079e-28
1.13889e-28
9.49022e-28
1.21426e-28
1.01427e-27
1.87748e-28
1.18042e-27
1.48504e-28
1.11806e-27
1.90335e-28
1.27073e-27
2.56021e-28
1.50858e-27
2.95629e-28
1.73375e-27
4.00733e-28
2.06993e-27
7.89277e-28
3.30092e-27
1.13306e-27
5.10469e-27
3.22864e-27
1.12932e-26
8.24572e-27
2.71717e-26
3.12177e-26
8.20586e-26
1.65552e-25
4.372e-25
1.20233e-25
7.44383e-23
2.84626e-22
2.34426e-22
7.98157e-23
4.87437e-22
3.82519e-24
1.51529e-23
1.92108e-24
5.54795e-26
1.96513e-27
7.34373e-29
1.50115e-28
1.13948e-27
2.67149e-29
7.10244e-28
7.05207e-29
7.50192e-28
4.60354e-29
7.0012e-28
1.00327e-28
8.98565e-28
6.0622e-29
8.23027e-28
1.23711e-28
9.81273e-28
8.97439e-29
9.25008e-28
1.08318e-28
9.90925e-28
1.3789e-28
1.07469e-27
1.19128e-28
1.04555e-27
1.30548e-28
1.12898e-27
2.07271e-28
1.3181e-27
1.66168e-28
1.28723e-27
2.25476e-28
1.49449e-27
3.16326e-28
1.82308e-27
3.87714e-28
2.19524e-27
5.61361e-28
2.753e-27
1.15794e-27
4.55958e-27
1.81415e-27
7.55763e-27
5.32352e-27
1.71962e-26
1.38999e-26
4.26742e-26
5.06981e-26
1.26401e-25
2.5091e-25
6.02496e-25
1.60186e-25
1.02752e-22
4.2118e-22
2.33243e-22
1.37876e-22
5.92122e-22
4.59747e-24
1.93079e-23
2.26811e-24
9.97149e-26
2.04275e-27
2.83731e-29
1.55957e-28
1.28038e-27
2.3841e-29
7.68426e-28
7.22295e-29
8.0527e-28
4.57324e-29
7.57495e-28
1.03479e-28
9.58958e-28
6.06383e-29
8.94023e-28
1.28979e-28
1.05267e-27
9.15297e-29
1.0057e-27
1.1353e-28
1.07534e-27
1.44346e-28
1.16715e-27
1.25555e-28
1.14937e-27
1.41566e-28
1.25368e-27
2.29047e-28
1.47332e-27
1.88354e-28
1.47995e-27
2.69062e-28
1.75349e-27
3.90914e-28
2.19578e-27
5.06087e-28
2.74356e-27
7.652e-28
3.6202e-27
1.65314e-27
6.1507e-27
2.76946e-27
1.07401e-26
8.20316e-27
2.46244e-26
2.17396e-26
6.234e-26
7.60561e-26
1.80658e-25
3.54026e-25
7.84139e-25
2.30353e-25
1.39462e-22
5.94685e-22
2.2375e-22
2.2817e-22
7.03226e-22
5.01175e-24
2.5139e-23
2.48352e-24
1.64642e-25
1.90931e-27
1.10048e-29
1.7403e-28
1.39994e-27
2.17183e-29
8.22624e-28
7.5396e-29
8.55799e-28
4.59213e-29
8.14176e-28
1.07444e-28
1.01705e-27
6.11099e-29
9.67475e-28
1.35167e-28
1.12335e-27
9.38918e-29
1.0903e-27
1.19255e-28
1.1629e-27
1.52171e-28
1.26342e-27
1.32796e-28
1.26218e-27
1.53876e-28
1.38933e-27
2.5478e-28
1.64308e-27
2.1475e-28
1.69791e-27
3.20728e-28
2.04773e-27
4.82149e-28
2.62917e-27
6.52584e-28
3.41173e-27
1.03383e-27
4.65658e-27
2.28989e-27
8.07625e-27
4.01166e-27
1.46782e-26
1.18785e-26
3.37157e-26
3.13242e-26
8.5193e-26
1.05364e-25
2.40189e-25
4.6517e-25
9.6158e-25
3.39696e-25
1.85771e-22
8.17233e-22
2.03539e-22
3.46871e-22
8.29956e-22
5.1563e-24
3.35759e-23
2.56076e-24
2.58628e-25
1.46463e-27
1.25913e-29
2.01334e-28
1.51843e-27
1.91153e-29
8.84002e-28
7.83599e-29
9.06771e-28
4.672e-29
8.71399e-28
1.10786e-28
1.07688e-27
6.21248e-29
1.0444e-27
1.40913e-28
1.19584e-27
9.71587e-29
1.17732e-27
1.25992e-28
1.25402e-27
1.59786e-28
1.36481e-27
1.41943e-28
1.38046e-27
1.68295e-28
1.53463e-27
2.82015e-28
1.82859e-27
2.46054e-28
1.9382e-27
3.81635e-28
2.37573e-27
5.87865e-28
3.12256e-27
8.34402e-28
4.17946e-27
1.37793e-27
5.83851e-27
3.05565e-27
1.02889e-26
5.54141e-27
1.9209e-26
1.62669e-26
4.39892e-26
4.21248e-26
1.09254e-25
1.3562e-25
2.97385e-25
5.7344e-25
1.1133e-24
5.34987e-25
2.43033e-22
1.06272e-21
1.77274e-22
5.11726e-22
9.58944e-22
4.84798e-24
4.42549e-23
2.4465e-24
3.79323e-25
9.98964e-28
3.19829e-29
2.56076e-28
1.61028e-27
1.65243e-29
9.52926e-28
8.07644e-29
9.60122e-28
4.71885e-29
9.30177e-28
1.1422e-28
1.13573e-27
6.31727e-29
1.12395e-27
1.47063e-28
1.26828e-27
1.00597e-28
1.26988e-27
1.32793e-28
1.34671e-27
1.68545e-28
1.4684e-27
1.51643e-28
1.50648e-27
1.83581e-28
1.68583e-27
3.12912e-28
2.02364e-27
2.8062e-28
2.20357e-27
4.49685e-28
2.73455e-27
7.10731e-28
3.66478e-27
1.04336e-27
5.02432e-27
1.76631e-27
7.15337e-27
3.9212e-27
1.26938e-26
7.24655e-27
2.41034e-26
2.09541e-26
5.45304e-26
5.29778e-26
1.32671e-25
1.62762e-25
3.47037e-25
6.63661e-25
1.2213e-24
8.24986e-25
3.10116e-22
1.33916e-21
1.42944e-22
7.20756e-22
1.09623e-21
4.34806e-24
5.75715e-23
2.1611e-24
5.22308e-25
6.54523e-28
6.77111e-29
3.49934e-28
1.6738e-27
1.38933e-29
1.03251e-27
8.14687e-29
1.01778e-27
4.73161e-29
9.89951e-28
1.16695e-28
1.19684e-27
6.43272e-29
1.20537e-27
1.5282e-28
1.34254e-27
1.04166e-28
1.36496e-27
1.39638e-28
1.43906e-27
1.77457e-28
1.57387e-27
1.61731e-28
1.63578e-27
1.99885e-28
1.83826e-27
3.46415e-28
2.22784e-27
3.19099e-28
2.48109e-27
5.24202e-28
3.11002e-27
8.46476e-28
4.2366e-27
1.27274e-27
5.90949e-27
2.18381e-27
8.50671e-27
4.82883e-27
1.51066e-26
8.97975e-27
2.88376e-26
2.53626e-26
6.38275e-26
6.2171e-26
1.5074e-25
1.81375e-25
3.7615e-25
7.13906e-25
1.24931e-24
1.27209e-24
3.85397e-22
1.61512e-21
1.10005e-22
9.71528e-22
1.22296e-21
3.92278e-24
7.2443e-23
1.73857e-24
6.71929e-25
6.19994e-28
1.21895e-28
5.28892e-28
1.65775e-27
1.26785e-29
1.09154e-27
8.41478e-29
1.05983e-27
4.83852e-29
1.03615e-27
1.20791e-28
1.24669e-27
6.61021e-29
1.27754e-27
1.60087e-28
1.40623e-27
1.08275e-28
1.45258e-27
1.46503e-28
1.52337e-27
1.86803e-28
1.6717e-27
1.71506e-28
1.76103e-27
2.15191e-28
1.98532e-27
3.80932e-28
2.42833e-27
3.57936e-28
2.75646e-27
5.97666e-28
3.48281e-27
9.83033e-28
4.80884e-27
1.49518e-27
6.79052e-27
2.57345e-27
9.8036e-27
5.64948e-27
1.72977e-26
1.04181e-26
3.28395e-26
2.85591e-26
7.0382e-26
6.70604e-26
1.5948e-25
1.84101e-25
3.74774e-25
7.02873e-25
1.18766e-24
1.89081e-24
4.61005e-22
1.86094e-21
8.04973e-23
1.25902e-21
1.3714e-21
3.9447e-24
8.99408e-23
1.27876e-24
8.14661e-25
1.02986e-27
2.19321e-28
8.33129e-28
1.56936e-27
1.29266e-29
1.10922e-27
9.22287e-29
1.06923e-27
5.35119e-29
1.04925e-27
1.27578e-28
1.27494e-27
7.08736e-29
1.32388e-27
1.69816e-28
1.45041e-27
1.15766e-28
1.51946e-27
1.56087e-28
1.59198e-27
1.95379e-28
1.759e-27
1.82717e-28
1.87151e-27
2.31193e-28
2.11779e-27
4.08493e-28
2.62609e-27
3.95953e-28
3.01778e-27
6.65259e-28
3.84434e-27
1.09765e-27
5.37081e-27
1.68546e-27
7.61765e-27
2.8779e-27
1.09647e-26
6.17242e-27
1.91483e-26
1.12345e-26
3.56917e-26
2.97239e-26
7.34532e-26
6.64172e-26
1.57756e-25
1.70001e-25
3.49166e-25
6.44715e-25
1.11183e-24
2.56313e-24
5.262e-22
2.07433e-21
6.49313e-23
1.58126e-21
1.56278e-21
4.50964e-24
1.12692e-22
8.52845e-25
9.69352e-25
2.32179e-27
3.80139e-28
1.38511e-27
1.50092e-27
1.29432e-29
1.17574e-27
1.05356e-28
1.10552e-27
6.00546e-29
1.0932e-27
1.42817e-28
1.33278e-27
7.81024e-29
1.40796e-27
1.89675e-28
1.52434e-27
1.27992e-28
1.61998e-27
1.73772e-28
1.69039e-27
2.16082e-28
1.87537e-27
2.02784e-28
2.01765e-27
2.57816e-28
2.28428e-27
4.61215e-28
2.86216e-27
4.4966e-28
3.32314e-27
7.61085e-28
4.24168e-27
1.26061e-27
5.96171e-27
1.92317e-27
8.45123e-27
3.23351e-27
1.20277e-26
6.79458e-27
2.05692e-26
1.19381e-26
3.73752e-26
3.03986e-26
7.32416e-26
6.34975e-26
1.47722e-25
1.50259e-25
3.10663e-25
5.78255e-25
1.03417e-24
3.38377e-24
5.98336e-22
2.27976e-21
6.32875e-23
1.17336e-27
4.55729e-29
4.1411e-29
1.05412e-27
1.65259e-28
1.22072e-31
6.96096e-29
2.18921e-29
4.38017e-29
3.65555e-29
4.13737e-29
3.88623e-29
4.59033e-29
4.59373e-29
4.15021e-29
3.94271e-29
4.99227e-29
5.94456e-29
4.83707e-29
5.29171e-29
5.64434e-29
6.8169e-29
5.8038e-29
6.53575e-29
5.57575e-29
6.5316e-29
6.35394e-29
7.48108e-29
6.23734e-29
7.20586e-29
5.63475e-29
6.59606e-29
6.57647e-29
7.83607e-29
6.10572e-29
6.7245e-29
5.24018e-29
5.93343e-29
5.04245e-29
5.78359e-29
3.99432e-29
4.4773e-29
2.49206e-29
2.49613e-29
1.86056e-29
2.11026e-29
6.11832e-30
4.50306e-30
4.6173e-31
2.42866e-31
1.10938e-30
4.27477e-30
4.18138e-29
9.85433e-29
5.49121e-28
1.50513e-28
2.14945e-27
1.47819e-25
2.32344e-25
1.2056e-26
1.6274e-25
8.13981e-27
5.34581e-27
1.07631e-26
7.98536e-29
5.94532e-30
1.20445e-28
6.507e-29
5.20117e-29
1.28196e-28
5.06295e-29
1.20961e-28
6.28037e-29
1.34126e-28
6.42161e-29
1.04796e-28
7.61846e-29
1.57833e-28
8.25532e-29
1.27239e-28
9.45302e-29
1.68402e-28
1.00391e-28
1.5581e-28
9.7086e-29
1.52659e-28
1.10379e-28
1.76553e-28
1.10638e-28
1.6654e-28
1.0117e-28
1.47965e-28
1.13975e-28
1.81847e-28
1.09838e-28
1.49262e-28
9.3328e-29
1.29172e-28
8.86858e-29
1.26033e-28
7.1855e-29
9.22977e-29
4.58995e-29
4.82172e-29
3.02717e-29
4.51471e-29
1.04462e-29
7.53333e-30
5.66323e-31
3.23476e-31
2.27871e-30
1.36743e-29
8.0922e-29
2.82651e-28
9.97082e-28
7.1417e-28
2.68676e-27
3.47347e-25
1.42745e-24
8.11446e-27
3.9671e-25
4.44473e-26
2.87681e-26
1.08508e-26
4.35219e-28
5.96809e-30
1.44958e-28
1.17714e-28
6.41685e-29
1.84806e-28
7.15457e-29
1.69888e-28
8.86449e-29
1.89182e-28
8.6395e-29
1.5785e-28
1.03762e-28
2.26521e-28
1.10094e-28
1.92777e-28
1.25235e-28
2.48334e-28
1.31547e-28
2.34732e-28
1.25938e-28
2.34039e-28
1.43854e-28
2.6488e-28
1.4397e-28
2.52083e-28
1.29868e-28
2.31559e-28
1.47476e-28
2.72547e-28
1.41709e-28
2.28398e-28
1.1911e-28
2.01411e-28
1.13331e-28
1.92755e-28
9.07169e-29
1.44815e-28
5.5145e-29
8.19505e-29
3.70574e-29
7.13312e-29
1.14766e-29
1.46393e-29
3.79353e-31
1.34877e-30
5.68721e-30
1.037e-29
1.50065e-28
2.98108e-28
1.5703e-27
5.28431e-28
1.009e-26
5.84134e-25
1.45843e-24
1.01382e-25
1.59343e-24
4.64641e-25
1.05284e-25
4.53632e-26
4.74305e-28
1.15588e-29
1.34172e-28
1.49206e-28
5.78746e-29
2.04547e-28
6.57237e-29
1.87335e-28
8.15353e-29
2.08693e-28
7.89415e-29
1.74226e-28
9.42781e-29
2.50569e-28
1.00413e-28
2.12872e-28
1.14446e-28
2.74005e-28
1.20351e-28
2.58416e-28
1.1478e-28
2.58858e-28
1.30924e-28
2.93418e-28
1.31239e-28
2.77221e-28
1.18589e-28
2.56058e-28
1.34225e-28
3.02244e-28
1.29112e-28
2.52115e-28
1.08447e-28
2.23926e-28
1.02702e-28
2.16107e-28
8.23679e-29
1.62583e-28
4.98811e-29
9.43187e-29
3.36921e-29
8.32491e-29
1.00615e-29
1.87328e-29
3.34242e-31
2.83284e-30
5.56766e-30
8.65608e-30
1.4245e-28
2.54696e-28
1.40987e-27
4.09707e-28
1.32789e-26
8.8039e-25
2.14578e-24
6.69985e-25
3.28514e-24
2.31663e-24
1.72587e-25
1.53093e-25
1.29924e-27
2.77479e-29
1.43926e-28
1.9211e-28
5.30071e-29
2.38416e-28
5.60988e-29
2.1672e-28
7.22775e-29
2.38403e-28
7.00692e-29
1.96909e-28
8.49183e-29
2.82969e-28
9.06645e-29
2.36257e-28
1.0526e-28
3.04561e-28
1.1005e-28
2.85191e-28
1.04711e-28
2.86247e-28
1.20722e-28
3.24712e-28
1.198e-28
3.05563e-28
1.08258e-28
2.82137e-28
1.24037e-28
3.36253e-28
1.17583e-28
2.78958e-28
9.87103e-29
2.49593e-28
9.42151e-29
2.43508e-28
7.48245e-29
1.85234e-28
4.51835e-29
1.1009e-28
3.14546e-29
1.00779e-28
9.00854e-30
2.57634e-29
3.94733e-31
6.30398e-30
4.91246e-30
7.34574e-30
1.2747e-28
2.12384e-28
1.17345e-27
2.63723e-28
1.98272e-26
1.44001e-24
2.92464e-24
2.953e-24
4.77881e-24
7.10198e-24
1.85597e-25
3.79542e-25
4.10646e-27
6.80661e-29
1.73272e-28
2.41432e-28
5.52839e-29
2.78766e-28
4.93595e-29
2.51977e-28
6.61962e-29
2.75224e-28
6.38946e-29
2.27887e-28
7.96648e-29
3.24652e-28
8.41594e-29
2.67937e-28
1.00609e-28
3.44859e-28
1.04191e-28
3.2015e-28
9.91368e-29
3.22568e-28
1.15851e-28
3.6559e-28
1.13681e-28
3.42446e-28
1.02362e-28
3.17609e-28
1.20077e-28
3.80764e-28
1.11347e-28
3.14919e-28
9.36531e-29
2.85172e-28
9.05697e-29
2.8126e-28
7.14498e-29
2.17129e-28
4.31041e-29
1.33838e-28
3.18694e-29
1.27388e-28
8.98813e-30
3.82041e-29
6.93726e-31
1.42068e-29
3.69462e-30
7.97553e-30
1.05188e-28
1.73826e-28
8.77541e-28
1.37867e-28
3.00325e-26
2.34989e-24
3.72825e-24
8.61285e-24
5.73612e-24
1.66063e-23
1.47646e-25
7.74437e-25
1.12457e-26
1.45155e-28
2.17296e-28
2.93573e-28
6.27712e-29
3.19366e-28
4.54922e-29
2.87038e-28
6.27892e-29
3.13373e-28
5.92679e-29
2.61879e-28
7.71289e-29
3.70441e-28
7.93328e-29
3.04895e-28
9.83224e-29
3.90375e-28
1.0014e-28
3.59762e-28
9.56175e-29
3.65084e-28
1.13821e-28
4.11096e-28
1.09874e-28
3.84205e-28
9.87778e-29
3.60512e-28
1.19447e-28
4.31156e-28
1.0773e-28
3.5673e-28
9.13109e-29
3.2869e-28
9.02342e-29
3.26374e-28
7.07178e-29
2.57433e-28
4.32529e-29
1.6699e-28
3.49032e-29
1.64663e-28
1.02315e-29
5.94024e-29
1.66326e-30
3.18408e-29
2.34693e-30
1.4092e-29
7.82566e-29
1.43242e-28
5.70446e-28
9.52917e-29
4.11017e-26
3.67905e-24
4.89854e-24
1.94114e-23
5.94554e-24
3.20482e-23
8.53145e-26
1.36206e-24
2.64246e-26
2.65452e-28
2.75997e-28
3.51758e-28
7.26615e-29
3.62167e-28
4.31149e-29
3.21353e-28
6.09041e-29
3.51824e-28
5.56844e-29
2.96462e-28
7.59366e-29
4.18181e-28
7.53491e-29
3.44475e-28
9.70171e-29
4.39374e-28
9.68537e-29
4.02096e-28
9.32087e-29
4.11416e-28
1.12423e-28
4.60281e-28
1.07305e-28
4.28671e-28
9.65441e-29
4.07948e-28
1.20177e-28
4.86249e-28
1.05616e-28
4.02951e-28
9.09085e-29
3.7887e-28
9.16222e-29
3.79552e-28
7.23848e-29
3.06692e-28
4.56794e-29
2.1115e-28
4.08645e-29
2.17524e-28
1.34126e-29
9.60865e-29
4.53866e-30
7.05763e-29
2.08434e-30
3.85948e-29
5.68416e-29
1.50341e-28
3.50547e-28
3.27424e-28
5.30821e-26
5.49592e-24
6.62061e-24
3.59652e-23
5.74014e-24
5.46928e-23
3.31293e-26
2.16526e-24
5.64444e-26
4.50492e-28
3.486e-28
4.06226e-28
8.32445e-29
4.09941e-28
4.13943e-29
3.56248e-28
6.02725e-29
3.907e-28
5.29446e-29
3.33466e-28
7.61246e-29
4.67615e-28
7.19936e-29
3.86521e-28
9.7123e-29
4.90952e-28
9.40317e-29
4.47279e-28
9.16589e-29
4.61444e-28
1.1241e-28
5.12406e-28
1.05291e-28
4.76766e-28
9.54419e-29
4.60436e-28
1.22878e-28
5.4601e-28
1.04563e-28
4.54775e-28
9.2375e-29
4.36728e-28
9.57944e-29
4.42073e-28
7.6414e-29
3.68581e-28
5.11033e-29
2.70927e-28
5.17976e-29
2.93345e-28
2.01833e-29
1.5972e-28
1.28157e-29
1.52943e-28
6.06964e-30
1.17258e-28
6.13274e-29
2.71594e-28
3.77618e-28
1.69692e-27
6.24135e-26
7.88438e-24
9.92664e-24
5.87544e-23
5.27648e-24
8.47164e-23
1.26933e-26
3.14746e-24
1.10543e-25
7.3741e-28
4.32087e-28
4.46682e-28
9.48411e-29
4.63466e-28
4.01808e-29
3.9213e-28
6.056e-29
4.30127e-28
5.12557e-29
3.72022e-28
7.71586e-29
5.18481e-28
6.94534e-29
4.30648e-28
9.81138e-29
5.44918e-28
9.21142e-29
4.94706e-28
9.125e-29
5.14959e-28
1.12898e-28
5.68404e-28
1.04386e-28
5.28019e-28
9.5691e-29
5.18133e-28
1.26668e-28
6.11743e-28
1.05123e-28
5.13063e-28
9.61334e-29
5.04205e-28
1.024e-28
5.17738e-28
8.40377e-29
4.46871e-28
6.08486e-29
3.52973e-28
6.98183e-29
4.04494e-28
3.41739e-29
2.70024e-28
3.51657e-29
3.22293e-28
2.8267e-29
3.35907e-28
1.45916e-28
7.44366e-28
1.03981e-27
6.74125e-27
7.08289e-26
1.09666e-23
1.55677e-23
8.65132e-23
5.32808e-24
1.22518e-22
2.33175e-26
4.28161e-24
2.01525e-25
1.21578e-27
5.56312e-28
4.59931e-28
1.07039e-28
5.2284e-28
3.93365e-29
4.28462e-28
6.18663e-29
4.6951e-28
5.02338e-29
4.12453e-28
7.93776e-29
5.69899e-28
6.75482e-29
4.77215e-28
1.0042e-28
6.00223e-28
9.08689e-29
5.44761e-28
9.17786e-29
5.72154e-28
1.14734e-28
6.27167e-28
1.04172e-28
5.83792e-28
9.71136e-29
5.82399e-28
1.32411e-28
6.83481e-28
1.07173e-28
5.79939e-28
1.02377e-28
5.83824e-28
1.1298e-28
6.09207e-28
9.5944e-29
5.48523e-28
7.67297e-29
4.67302e-28
9.98257e-29
5.67703e-28
6.21076e-29
4.58238e-28
9.05855e-29
6.50815e-28
1.12663e-28
8.82442e-28
4.84258e-28
2.16609e-27
3.573e-27
2.00836e-26
7.51024e-26
1.50451e-23
2.63091e-23
1.18149e-22
5.84957e-24
1.67467e-22
1.22944e-25
5.51975e-24
3.44923e-25
2.13469e-27
7.22546e-28
4.45734e-28
1.18713e-28
5.93623e-28
3.80376e-29
4.6818e-28
6.30851e-29
5.11777e-28
4.94677e-29
4.55369e-28
8.18424e-29
6.23331e-28
6.59806e-29
5.26877e-28
1.03161e-28
6.58088e-28
9.02405e-29
5.97792e-28
9.33004e-29
6.33003e-28
1.16765e-28
6.90039e-28
1.05184e-28
6.4378e-28
9.98836e-29
6.52903e-28
1.39458e-28
7.63133e-28
1.11224e-28
6.56984e-28
1.11771e-28
6.78456e-28
1.27364e-28
7.22178e-28
1.14339e-28
6.80229e-28
1.01729e-28
6.25832e-28
1.481e-28
8.08507e-28
1.16133e-28
7.7306e-28
2.14838e-28
1.2543e-27
3.62872e-28
2.09277e-27
1.48965e-27
5.68206e-27
1.05449e-26
4.85755e-26
8.08882e-26
2.06965e-23
4.34228e-23
1.50801e-22
8.50358e-24
2.18969e-22
3.86387e-25
6.81804e-24
5.49962e-25
3.95622e-27
9.6716e-28
3.93655e-28
1.30034e-28
6.75461e-28
3.64193e-29
5.10987e-28
6.43273e-29
5.56748e-28
4.84274e-29
5.01731e-28
8.50252e-29
6.77956e-28
6.4512e-29
5.80257e-28
1.06871e-28
7.17979e-28
8.97546e-29
6.5522e-28
9.53924e-29
6.97444e-28
1.20161e-28
7.56385e-28
1.06637e-28
7.10296e-28
1.03715e-28
7.30722e-28
1.49247e-28
8.50847e-28
1.17033e-28
7.47617e-28
1.24609e-28
7.91099e-28
1.48005e-28
8.61464e-28
1.40317e-28
8.53574e-28
1.39635e-28
8.45323e-28
2.2628e-28
1.15774e-27
2.14653e-28
1.29068e-27
4.73053e-28
2.33033e-27
9.61547e-28
4.51705e-27
3.89674e-27
1.30712e-26
2.56772e-26
9.88956e-26
8.51483e-26
2.85308e-23
7.36683e-23
1.82031e-22
1.43649e-23
2.81558e-22
8.63317e-25
8.24153e-24
8.2731e-25
7.73757e-27
1.23866e-27
3.15817e-28
1.39925e-28
7.69988e-28
3.46702e-29
5.56866e-28
6.55603e-29
6.04021e-28
4.76606e-29
5.50612e-28
8.79558e-29
7.34755e-28
6.33912e-29
6.3724e-28
1.10534e-28
7.81001e-28
8.98126e-29
7.1639e-28
9.83138e-29
7.65735e-28
1.23729e-28
8.28076e-28
1.0919e-28
7.82312e-28
1.09124e-28
8.16494e-28
1.60397e-28
9.4979e-28
1.25533e-28
8.52946e-28
1.42034e-28
9.25441e-28
1.75189e-28
1.03462e-27
1.7758e-28
1.07705e-27
1.97019e-28
1.14605e-27
3.47315e-28
1.65623e-27
3.88404e-28
2.10672e-27
9.66626e-28
4.14306e-27
2.21111e-27
8.8952e-27
8.81868e-27
2.6681e-26
5.40442e-26
1.79578e-25
9.14649e-26
3.92349e-23
1.19456e-22
2.08834e-22
2.63779e-23
3.48678e-22
1.53875e-24
9.8932e-24
1.16557e-24
1.51354e-26
1.54233e-27
2.20308e-28
1.50195e-28
8.6884e-28
3.34488e-29
6.01493e-28
6.79085e-29
6.50824e-28
4.72463e-29
6.01201e-28
9.16135e-29
7.91295e-28
6.26319e-29
6.97408e-28
1.15072e-28
8.45319e-28
9.02818e-29
7.82119e-28
1.01784e-28
8.38115e-28
1.28543e-28
9.03898e-28
1.12452e-28
8.62165e-28
1.15757e-28
9.11955e-28
1.74392e-28
1.05988e-27
1.36693e-28
9.76861e-28
1.64549e-28
1.08574e-27
2.11918e-28
1.24739e-27
2.28676e-28
1.36672e-27
2.8141e-28
1.55297e-27
5.29623e-28
2.35592e-27
6.79602e-28
3.33959e-27
1.83243e-27
7.01835e-27
4.50879e-27
1.61847e-26
1.75813e-26
4.92443e-26
1.00295e-25
2.95711e-25
9.75425e-26
5.37265e-23
1.89966e-22
2.25827e-22
4.47649e-23
4.13136e-22
2.6861e-24
1.22364e-23
1.54191e-24
2.935e-26
1.77628e-27
1.36549e-28
1.55878e-28
9.85399e-28
3.15162e-29
6.50184e-28
7.00854e-29
7.00766e-28
4.70962e-29
6.54183e-28
9.47409e-29
8.50336e-28
6.20612e-29
7.61796e-28
1.1934e-28
9.13101e-28
9.1272e-29
8.52355e-28
1.05962e-28
9.15268e-28
1.33144e-28
9.86033e-28
1.17189e-28
9.48994e-28
1.23993e-28
1.01677e-27
1.90159e-28
1.18431e-27
1.51473e-28
1.12075e-27
1.93593e-28
1.27615e-27
2.58558e-28
1.50824e-27
3.00082e-28
1.73576e-27
4.05044e-28
2.08124e-27
7.90775e-28
3.31483e-27
1.14469e-27
5.11636e-27