/*--------------------------------*- C++ -*----------------------------------*\
| =========                 |                                                 |
| \\      /  F ield         | OpenFOAM: The Open Source CFD Toolbox           |
|  \\    /   O peration     | Version:  2312                                  |
|   \\  /    A nd           | Website:  www.openfoam.com                      |
|    \\/     M anipulation  |                                                 |
\*---------------------------------------------------------------------------*/
FoamFile
{
    version     2.0;
    format      ascii;
    arch        "LSB;label=32;scalar=64";
    class       volScalarField;
    location    "600";
    object      p;
}
// * * * * * * * * * * * * * * * * * * * * * * * * * * * * * * * * * * * * * //

dimensions      [0 2 -2 0 0 0 0];

internalField   nonuniform List<scalar> 
144000
(
8.72132e-10
8.31814e-10
5.07208e-10
2.56051e-10
2.47638e-10
3.14359e-10
4.03328e-10
4.5233e-10
4.97968e-10
5.0883e-10
5.32319e-10
5.31368e-10
5.48472e-10
5.43633e-10
5.59812e-10
5.54523e-10
5.67661e-10
5.58637e-10
5.74057e-10
5.67713e-10
5.8221e-10
5.7251e-10
5.87044e-10
5.78243e-10
5.92812e-10
5.84074e-10
5.98324e-10
5.88124e-10
6.02764e-10
5.9393e-10
6.09429e-10
6.01213e-10
6.15263e-10
6.04349e-10
6.18701e-10
6.09417e-10
6.2342e-10
6.14335e-10
6.26924e-10
6.16687e-10
6.28983e-10
6.20396e-10
6.31641e-10
6.23883e-10
6.29997e-10
6.1953e-10
6.25958e-10
6.21727e-10
6.25904e-10
6.24752e-10
6.26175e-10
6.30792e-10
6.19301e-10
6.20852e-10
5.86203e-10
5.92224e-10
5.25936e-10
4.33748e-10
7.99899e-11
4.78685e-10
8.8805e-10
8.40398e-10
5.03795e-10
2.52411e-10
2.45891e-10
3.13927e-10
4.03121e-10
4.5226e-10
4.9777e-10
5.08701e-10
5.3211e-10
5.31276e-10
5.48291e-10
5.43572e-10
5.59675e-10
5.54508e-10
5.67539e-10
5.58612e-10
5.73945e-10
5.67728e-10
5.82111e-10
5.72518e-10
5.86949e-10
5.78281e-10
5.92728e-10
5.84116e-10
5.98238e-10
5.88163e-10
6.02678e-10
5.93986e-10
6.09359e-10
6.01278e-10
6.15187e-10
6.04401e-10
6.18627e-10
6.09495e-10
6.2336e-10
6.14419e-10
6.26868e-10
6.16767e-10
6.2894e-10
6.20499e-10
6.31622e-10
6.24009e-10
6.29988e-10
6.19633e-10
6.25975e-10
6.21871e-10
6.2597e-10
6.24899e-10
6.26319e-10
6.30984e-10
6.19579e-10
6.2104e-10
5.86688e-10
5.9274e-10
5.28432e-10
4.35885e-10
6.88291e-11
4.70765e-10
9.07899e-10
8.49205e-10
4.9978e-10
2.48049e-10
2.43407e-10
3.13106e-10
4.02866e-10
4.52106e-10
4.97625e-10
5.08474e-10
5.31913e-10
5.31073e-10
5.48132e-10
5.43407e-10
5.59556e-10
5.54407e-10
5.6748e-10
5.58497e-10
5.73865e-10
5.67653e-10
5.82074e-10
5.72438e-10
5.86905e-10
5.78244e-10
5.92705e-10
5.84079e-10
5.98223e-10
5.88124e-10
6.02653e-10
5.9397e-10
6.09354e-10
6.01269e-10
6.15196e-10
6.04379e-10
6.18621e-10
6.09511e-10
6.23378e-10
6.14444e-10
6.26899e-10
6.16789e-10
6.28978e-10
6.20557e-10
6.31684e-10
6.24109e-10
6.30096e-10
6.19718e-10
6.26078e-10
6.22015e-10
6.26145e-10
6.25052e-10
6.26538e-10
6.31203e-10
6.1997e-10
6.2134e-10
5.87276e-10
5.93146e-10
5.31608e-10
4.4193e-10
5.18477e-11
4.61267e-10
9.30872e-10
8.56793e-10
4.95892e-10
2.43497e-10
2.39924e-10
3.1185e-10
4.02553e-10
4.51992e-10
4.9754e-10
5.08223e-10
5.31686e-10
5.30814e-10
5.47944e-10
5.43191e-10
5.59404e-10
5.54271e-10
5.67436e-10
5.58341e-10
5.73759e-10
5.67541e-10
5.82048e-10
5.72323e-10
5.86853e-10
5.78184e-10
5.92688e-10
5.84019e-10
5.98225e-10
5.8806e-10
6.02633e-10
5.93935e-10
6.09363e-10
6.01243e-10
6.15242e-10
6.04338e-10
6.18629e-10
6.09516e-10
6.2343e-10
6.14458e-10
6.26977e-10
6.16797e-10
6.29053e-10
6.20604e-10
6.31796e-10
6.24215e-10
6.30302e-10
6.198e-10
6.26252e-10
6.22154e-10
6.26442e-10
6.2518e-10
6.26888e-10
6.31377e-10
6.20607e-10
6.21558e-10
5.88185e-10
5.93216e-10
5.36475e-10
4.50995e-10
3.00584e-11
4.51507e-10
9.5383e-10
8.5982e-10
4.93144e-10
2.40539e-10
2.35874e-10
3.10205e-10
4.02216e-10
4.51985e-10
4.97532e-10
5.07963e-10
5.31397e-10
5.3049e-10
5.47693e-10
5.42915e-10
5.59187e-10
5.54099e-10
5.67381e-10
5.58152e-10
5.73599e-10
5.67399e-10
5.82013e-10
5.72187e-10
5.8677e-10
5.7811e-10
5.9266e-10
5.8395e-10
5.98228e-10
5.87989e-10
6.02597e-10
5.93893e-10
6.09369e-10
6.01216e-10
6.15309e-10
6.04294e-10
6.18628e-10
6.09519e-10
6.23497e-10
6.14474e-10
6.27084e-10
6.168e-10
6.29149e-10
6.20643e-10
6.3195e-10
6.24331e-10
6.30603e-10
6.19876e-10
6.26494e-10
6.22266e-10
6.26872e-10
6.25243e-10
6.27395e-10
6.31438e-10
6.21551e-10
6.21568e-10
5.89539e-10
5.92716e-10
5.43263e-10
4.62219e-10
4.84243e-12
4.44261e-10
9.74927e-10
8.53556e-10
4.91616e-10
2.41168e-10
2.3207e-10
3.08262e-10
4.01896e-10
4.52139e-10
4.97637e-10
5.07707e-10
5.31038e-10
5.30088e-10
5.47365e-10
5.42568e-10
5.58891e-10
5.53883e-10
5.67303e-10
5.57924e-10
5.73377e-10
5.67219e-10
5.81961e-10
5.72027e-10
5.86648e-10
5.78017e-10
5.92616e-10
5.83871e-10
5.98227e-10
5.87909e-10
6.0254e-10
5.9384e-10
6.09369e-10
6.01186e-10
6.15394e-10
6.04248e-10
6.18615e-10
6.09514e-10
6.23577e-10
6.14487e-10
6.27218e-10
6.16794e-10
6.29263e-10
6.20666e-10
6.32145e-10
6.24443e-10
6.31001e-10
6.19932e-10
6.26809e-10
6.22318e-10
6.27445e-10
6.25199e-10
6.28087e-10
6.31312e-10
6.22852e-10
6.2125e-10
5.91456e-10
5.9142e-10
5.52103e-10
4.74841e-10
-2.31689e-11
4.43458e-10
9.94194e-10
8.33174e-10
4.90302e-10
2.47217e-10
2.29449e-10
3.06143e-10
4.01623e-10
4.52506e-10
4.97894e-10
5.07474e-10
5.30614e-10
5.29605e-10
5.46953e-10
5.42145e-10
5.58506e-10
5.53602e-10
5.67191e-10
5.57655e-10
5.73088e-10
5.66992e-10
5.81886e-10
5.71843e-10
5.86482e-10
5.77899e-10
5.92551e-10
5.83778e-10
5.9822e-10
5.87822e-10
6.0246e-10
5.93774e-10
6.0936e-10
6.01148e-10
6.15495e-10
6.042e-10
6.18588e-10
6.09497e-10
6.2367e-10
6.14492e-10
6.27379e-10
6.16775e-10
6.29394e-10
6.20662e-10
6.32383e-10
6.24539e-10
6.31496e-10
6.19955e-10
6.27207e-10
6.22277e-10
6.28178e-10
6.25004e-10
6.28996e-10
6.30926e-10
6.24566e-10
6.2048e-10
5.94062e-10
5.89135e-10
5.63076e-10
4.88276e-10
-5.42655e-11
4.53021e-10
1.01313e-09
7.94453e-10
4.87355e-10
2.60243e-10
2.29034e-10
3.03989e-10
4.01401e-10
4.53136e-10
4.98338e-10
5.07288e-10
5.30132e-10
5.29046e-10
5.46454e-10
5.41647e-10
5.58031e-10
5.53252e-10
5.67036e-10
5.57347e-10
5.7273e-10
5.66713e-10
5.81777e-10
5.71635e-10
5.8627e-10
5.77752e-10
5.92463e-10
5.8367e-10
5.98199e-10
5.87726e-10
6.02355e-10
5.93692e-10
6.09342e-10
6.01103e-10
6.15604e-10
6.04152e-10
6.18546e-10
6.09461e-10
6.23771e-10
6.14485e-10
6.2756e-10
6.16739e-10
6.29543e-10
6.20624e-10
6.32666e-10
6.24604e-10
6.32089e-10
6.19931e-10
6.27701e-10
6.22112e-10
6.29084e-10
6.24619e-10
6.30159e-10
6.30214e-10
6.26748e-10
6.19157e-10
5.97466e-10
5.85741e-10
5.76129e-10
5.02223e-10
-8.93032e-11
4.76135e-10
1.03442e-09
7.34171e-10
4.8028e-10
2.81385e-10
2.31903e-10
3.01966e-10
4.01213e-10
4.54051e-10
4.98995e-10
5.07167e-10
5.296e-10
5.28416e-10
5.45869e-10
5.41076e-10
5.57464e-10
5.52833e-10
5.66827e-10
5.57001e-10
5.72304e-10
5.6638e-10
5.81628e-10
5.71404e-10
5.8601e-10
5.77574e-10
5.92347e-10
5.83548e-10
5.98161e-10
5.87624e-10
6.02224e-10
5.93594e-10
6.09311e-10
6.01049e-10
6.15717e-10
6.04104e-10
6.18489e-10
6.09404e-10
6.23878e-10
6.14462e-10
6.27761e-10
6.16682e-10
6.29709e-10
6.20544e-10
6.32997e-10
6.24625e-10
6.32779e-10
6.19846e-10
6.28305e-10
6.21796e-10
6.30176e-10
6.24008e-10
6.31606e-10
6.29112e-10
6.29435e-10
6.17215e-10
6.01725e-10
5.81221e-10
5.91065e-10
5.16628e-10
-1.29485e-10
5.1496e-10
1.06109e-09
6.50496e-10
4.66408e-10
3.1129e-10
2.39091e-10
3.00258e-10
4.01012e-10
4.55254e-10
4.99883e-10
5.07126e-10
5.29025e-10
5.2772e-10
5.45198e-10
5.40436e-10
5.56809e-10
5.52341e-10
5.66555e-10
5.5662e-10
5.71812e-10
5.65992e-10
5.8143e-10
5.71151e-10
5.857e-10
5.77364e-10
5.92201e-10
5.83412e-10
5.981e-10
5.87515e-10
6.02067e-10
5.93479e-10
6.09266e-10
6.00986e-10
6.15827e-10
6.04058e-10
6.18418e-10
6.09322e-10
6.2399e-10
6.14421e-10
6.27976e-10
6.16599e-10
6.29896e-10
6.20414e-10
6.33377e-10
6.24591e-10
6.33562e-10
6.19686e-10
6.29032e-10
6.21305e-10
6.31463e-10
6.23145e-10
6.33357e-10
6.27593e-10
6.32639e-10
6.14638e-10
6.06832e-10
5.75663e-10
6.07484e-10
5.31709e-10
-1.75779e-10
5.70294e-10
1.09624e-09
5.43191e-10
4.4308e-10
3.50007e-10
2.51531e-10
2.99084e-10
4.00725e-10
4.56723e-10
5.01007e-10
5.07175e-10
5.28412e-10
5.26964e-10
5.44442e-10
5.39731e-10
5.56066e-10
5.51778e-10
5.66214e-10
5.56204e-10
5.71257e-10
5.65551e-10
5.81177e-10
5.70877e-10
5.85343e-10
5.7712e-10
5.92021e-10
5.83262e-10
5.98013e-10
5.87401e-10
6.01883e-10
5.93346e-10
6.09205e-10
6.00913e-10
6.15928e-10
6.04012e-10
6.18336e-10
6.09212e-10
6.24103e-10
6.14359e-10
6.28204e-10
6.16488e-10
6.30104e-10
6.20231e-10
6.33806e-10
6.24493e-10
6.34435e-10
6.19441e-10
6.29888e-10
6.20628e-10
6.32942e-10
6.2202e-10
6.35415e-10
6.25655e-10
6.36331e-10
6.11465e-10
6.12705e-10
5.69267e-10
6.2487e-10
5.4785e-10
-2.28841e-10
6.41589e-10
1.14231e-09
4.13506e-10
4.08041e-10
3.96985e-10
2.69973e-10
2.98712e-10
4.00267e-10
4.58411e-10
5.02361e-10
5.07318e-10
5.27765e-10
5.2615e-10
5.43601e-10
5.38961e-10
5.55239e-10
5.51144e-10
5.65797e-10
5.55755e-10
5.70643e-10
5.65057e-10
5.80865e-10
5.70582e-10
5.8494e-10
5.76844e-10
5.91805e-10
5.83099e-10
5.97896e-10
5.87281e-10
6.01675e-10
5.93197e-10
6.09128e-10
6.00832e-10
6.16018e-10
6.03964e-10
6.18246e-10
6.09074e-10
6.24216e-10
6.14272e-10
6.28443e-10
6.16345e-10
6.30336e-10
6.19991e-10
6.34283e-10
6.24326e-10
6.3539e-10
6.19107e-10
6.30874e-10
6.19764e-10
6.34598e-10
6.20637e-10
6.37758e-10
6.23328e-10
6.40449e-10
6.07792e-10
6.19197e-10
5.62322e-10
6.42599e-10
5.65441e-10
-2.88651e-10
7.2708e-10
1.20126e-09
2.64052e-10
3.59404e-10
4.51025e-10
2.94946e-10
2.99489e-10
3.99595e-10
4.60243e-10
5.03925e-10
5.0756e-10
5.27087e-10
5.25282e-10
5.42674e-10
5.3813e-10
5.54328e-10
5.5044e-10
5.65299e-10
5.55272e-10
5.69974e-10
5.64514e-10
5.80488e-10
5.70265e-10
5.84493e-10
5.76536e-10
5.91551e-10
5.82924e-10
5.97748e-10
5.87154e-10
6.01445e-10
5.93032e-10
6.09033e-10
6.00741e-10
6.16094e-10
6.03914e-10
6.18149e-10
6.08906e-10
6.24326e-10
6.14161e-10
6.28689e-10
6.16169e-10
6.30591e-10
6.19694e-10
6.34803e-10
6.24088e-10
6.36415e-10
6.18685e-10
6.31981e-10
6.18724e-10
6.36406e-10
6.19025e-10
6.40342e-10
6.20674e-10
6.44889e-10
6.03767e-10
6.26105e-10
5.55172e-10
6.60118e-10
5.84691e-10
-3.54776e-10
8.24215e-10
1.27369e-09
9.87023e-11
2.96237e-10
5.10426e-10
3.26651e-10
3.01796e-10
3.98687e-10
4.62119e-10
5.05661e-10
5.079e-10
5.26385e-10
5.24364e-10
5.41664e-10
5.37239e-10
5.53337e-10
5.49669e-10
5.64717e-10
5.54754e-10
5.69254e-10
5.63922e-10
5.80044e-10
5.69925e-10
5.84005e-10
5.76198e-10
5.91258e-10
5.82736e-10
5.97567e-10
5.8702e-10
6.01193e-10
5.92852e-10
6.08918e-10
6.00641e-10
6.16152e-10
6.0386e-10
6.1805e-10
6.08711e-10
6.2443e-10
6.14024e-10
6.28941e-10
6.15962e-10
6.30866e-10
6.19346e-10
6.35358e-10
6.23786e-10
6.37492e-10
6.18185e-10
6.33192e-10
6.17534e-10
6.38325e-10
6.17232e-10
6.43097e-10
6.17786e-10
6.49519e-10
5.99575e-10
6.33191e-10
5.48177e-10
6.76884e-10
6.05638e-10
-4.2595e-10
9.29853e-10
1.35915e-09
-7.75551e-11
2.18627e-10
5.73093e-10
3.64972e-10
3.06036e-10
3.97556e-10
4.63919e-10
5.07515e-10
5.08332e-10
5.25663e-10
5.23401e-10
5.40572e-10
5.36291e-10
5.52269e-10
5.48833e-10
5.64048e-10
5.542e-10
5.68486e-10
5.63287e-10
5.79529e-10
5.6956e-10
5.83478e-10
5.75829e-10
5.90924e-10
5.82536e-10
5.97352e-10
5.86879e-10
6.00923e-10
5.92658e-10
6.08783e-10
6.00532e-10
6.1619e-10
6.03801e-10
6.17947e-10
6.08492e-10
6.24524e-10
6.13863e-10
6.29192e-10
6.15727e-10
6.31155e-10
6.18953e-10
6.35935e-10
6.23428e-10
6.38602e-10
6.17624e-10
6.34475e-10
6.16232e-10
6.40302e-10
6.15321e-10
6.45937e-10
6.14786e-10
6.54178e-10
5.95428e-10
6.40188e-10
5.41706e-10
6.92421e-10
6.28249e-10
-5.00533e-10
1.04106e-09
1.4564e-09
-2.60788e-10
1.27391e-10
6.36522e-10
4.09383e-10
3.12586e-10
3.96257e-10
4.65515e-10
5.0941e-10
5.08848e-10
5.24926e-10
5.22396e-10
5.394e-10
5.35284e-10
5.51127e-10
5.47937e-10
5.63292e-10
5.53609e-10
5.67673e-10
5.6261e-10
5.78944e-10
5.69169e-10
5.82914e-10
5.75433e-10
5.90548e-10
5.82323e-10
5.97103e-10
5.8673e-10
6.00636e-10
5.92452e-10
6.08625e-10
6.00416e-10
6.16206e-10
6.03736e-10
6.17842e-10
6.08251e-10
6.24602e-10
6.13682e-10
6.29437e-10
6.15471e-10
6.31451e-10
6.1853e-10
6.36517e-10
6.23031e-10
6.39719e-10
6.17026e-10
6.35795e-10
6.14869e-10
6.42268e-10
6.13373e-10
6.48758e-10
6.11812e-10
6.58688e-10
5.91557e-10
6.46827e-10
5.36107e-10
7.06305e-10
6.52362e-10
-5.76437e-10
1.15179e-09
1.56391e-09
-4.40814e-10
2.35973e-11
6.97767e-10
4.58945e-10
3.21813e-10
3.94893e-10
4.66792e-10
5.11259e-10
5.09432e-10
5.24182e-10
5.21352e-10
5.38148e-10
5.34221e-10
5.49911e-10
5.46982e-10
5.62449e-10
5.5298e-10
5.66818e-10
5.61896e-10
5.78286e-10
5.68751e-10
5.82315e-10
5.7501e-10
5.9013e-10
5.82098e-10
5.96819e-10
5.86573e-10
6.00331e-10
5.92236e-10
6.08442e-10
6.00293e-10
6.16199e-10
6.03666e-10
6.17732e-10
6.07995e-10
6.24659e-10
6.13484e-10
6.29668e-10
6.15202e-10
6.31741e-10
6.1809e-10
6.37088e-10
6.22611e-10
6.40808e-10
6.16422e-10
6.37108e-10
6.13504e-10
6.44149e-10
6.11475e-10
6.51444e-10
6.09015e-10
6.62868e-10
5.88186e-10
6.52865e-10
5.31656e-10
7.18373e-10
6.77485e-10
-6.51381e-10
1.25857e-09
1.67848e-09
-6.13583e-10
-9.04319e-11
7.54033e-10
5.12426e-10
3.34066e-10
3.93644e-10
4.67585e-10
5.12963e-10
5.10066e-10
5.23439e-10
5.20278e-10
5.36819e-10
5.33103e-10
5.48627e-10
5.45973e-10
5.61521e-10
5.52311e-10
5.65925e-10
5.61148e-10
5.77557e-10
5.68303e-10
5.81682e-10
5.74563e-10
5.89668e-10
5.8186e-10
5.965e-10
5.86408e-10
6.0001e-10
5.92013e-10
6.08232e-10
6.00166e-10
6.16164e-10
6.03593e-10
6.17614e-10
6.07731e-10
6.24687e-10
6.13278e-10
6.29876e-10
6.1493e-10
6.32013e-10
6.17652e-10
6.37627e-10
6.22192e-10
6.41837e-10
6.15851e-10
6.38365e-10
6.12201e-10
6.45867e-10
6.0971e-10
6.53875e-10
6.06544e-10
6.66543e-10
5.85522e-10
6.58094e-10
5.28561e-10
7.2856e-10
7.02945e-10
-7.22577e-10
1.35766e-09
1.79572e-09
-7.72753e-10
-2.11157e-10
8.02751e-10
5.68329e-10
3.49609e-10
3.92764e-10
4.67774e-10
5.14404e-10
5.10724e-10
5.22706e-10
5.19178e-10
5.35417e-10
5.3193e-10
5.47277e-10
5.44914e-10
5.60509e-10
5.51603e-10
5.64994e-10
5.60371e-10
5.76758e-10
5.67826e-10
5.81016e-10
5.74094e-10
5.89162e-10
5.8161e-10
5.96146e-10
5.86236e-10
5.99672e-10
5.91786e-10
6.07993e-10
6.00036e-10
6.161e-10
6.03518e-10
6.17486e-10
6.07465e-10
6.2468e-10
6.13068e-10
6.30051e-10
6.14669e-10
6.32253e-10
6.17231e-10
6.38108e-10
6.218e-10
6.42773e-10
6.15349e-10
6.39516e-10
6.11024e-10
6.47348e-10
6.08202e-10
6.55932e-10
6.04537e-10
6.69547e-10
5.83749e-10
6.62329e-10
5.26991e-10
7.36852e-10
7.28122e-10
-7.8712e-10
1.44514e-09
1.91076e-09
-9.1204e-10
-3.34465e-10
8.41534e-10
6.24899e-10
3.68531e-10
3.9247e-10
4.67262e-10
5.15447e-10
5.11366e-10
5.21985e-10
5.1806e-10
5.33943e-10
5.30702e-10
5.45863e-10
5.43809e-10
5.59417e-10
5.50856e-10
5.64028e-10
5.59566e-10
5.75892e-10
5.67318e-10
5.80317e-10
5.73605e-10
5.88614e-10
5.81349e-10
5.95755e-10
5.86058e-10
5.99318e-10
5.91558e-10
6.07722e-10
5.99907e-10
6.16002e-10
6.03444e-10
6.17341e-10
6.07206e-10
6.2463e-10
6.12865e-10
6.30184e-10
6.1443e-10
6.32446e-10
6.16847e-10
6.3851e-10
6.21463e-10
6.43581e-10
6.14956e-10
6.40511e-10
6.10038e-10
6.48524e-10
6.07029e-10
6.57511e-10
6.03133e-10
6.71741e-10
5.83011e-10
6.65425e-10
5.27074e-10
7.43231e-10
7.52466e-10
-8.41972e-10
1.51711e-09
2.01921e-09
-1.02571e-09
-4.56362e-10
8.68221e-10
6.80298e-10
3.90821e-10
3.9303e-10
4.65993e-10
5.15961e-10
5.11944e-10
5.21279e-10
5.16927e-10
5.324e-10
5.29418e-10
5.44385e-10
5.4266e-10
5.58248e-10
5.5007e-10
5.63028e-10
5.58739e-10
5.74959e-10
5.66779e-10
5.79586e-10
5.73098e-10
5.88021e-10
5.81078e-10
5.95328e-10
5.85875e-10
5.98946e-10
5.91332e-10
6.07416e-10
5.99782e-10
6.1587e-10
6.03375e-10
6.17175e-10
6.0696e-10
6.24529e-10
6.12676e-10
6.30263e-10
6.14227e-10
6.32575e-10
6.16521e-10
6.38812e-10
6.21207e-10
6.44231e-10
6.14708e-10
6.41301e-10
6.09298e-10
6.49329e-10
6.06262e-10
6.58528e-10
6.02438e-10
6.73018e-10
5.83453e-10
6.67274e-10
5.28898e-10
7.47747e-10
7.75509e-10
-8.84614e-10
1.57003e-09
2.11688e-09
-1.10884e-09
-5.72949e-10
8.81145e-10
7.32759e-10
4.16336e-10
3.94687e-10
4.63949e-10
5.15828e-10
5.12406e-10
5.20588e-10
5.15788e-10
5.3079e-10
5.28078e-10
5.42845e-10
5.41471e-10
5.57006e-10
5.49245e-10
5.61994e-10
5.57889e-10
5.73965e-10
5.66211e-10
5.78821e-10
5.72575e-10
5.87386e-10
5.80797e-10
5.94865e-10
5.85689e-10
5.98555e-10
5.9111e-10
6.07073e-10
5.99665e-10
6.157e-10
6.03316e-10
6.1698e-10
6.06736e-10
6.24371e-10
6.1251e-10
6.30279e-10
6.14073e-10
6.32626e-10
6.16271e-10
6.38994e-10
6.21053e-10
6.44694e-10
6.14641e-10
6.41846e-10
6.08854e-10
6.49713e-10
6.05965e-10
6.58919e-10
6.02523e-10
6.7331e-10
5.85139e-10
6.6782e-10
5.32527e-10
7.50372e-10
7.96943e-10
-9.12704e-10
1.6007e-09
2.20003e-09
-1.15718e-09
-6.80653e-10
8.79212e-10
7.80706e-10
4.44738e-10
3.97617e-10
4.61141e-10
5.14945e-10
5.12693e-10
5.19908e-10
5.14647e-10
5.29119e-10
5.26683e-10
5.41246e-10
5.40242e-10
5.55695e-10
5.48384e-10
5.60928e-10
5.5702e-10
5.7291e-10
5.65613e-10
5.78022e-10
5.72037e-10
5.86708e-10
5.80507e-10
5.94366e-10
5.85502e-10
5.98145e-10
5.90895e-10
6.06692e-10
5.99556e-10
6.1549e-10
6.03269e-10
6.16754e-10
6.06541e-10
6.24149e-10
6.12374e-10
6.30224e-10
6.13981e-10
6.32588e-10
6.16113e-10
6.3904e-10
6.21021e-10
6.4495e-10
6.14782e-10
6.4212e-10
6.08743e-10
6.49647e-10
6.06181e-10
6.58653e-10
6.03429e-10
6.72597e-10
5.88087e-10
6.67071e-10
5.38019e-10
7.50886e-10
8.16751e-10
-9.24191e-10
1.6059e-09
2.26552e-09
-1.16705e-09
-7.76493e-10
8.61891e-10
8.22901e-10
4.75512e-10
4.01905e-10
4.57589e-10
5.13225e-10
5.12738e-10
5.19227e-10
5.13502e-10
5.27384e-10
5.2523e-10
5.39587e-10
5.38969e-10
5.54316e-10
5.47488e-10
5.59832e-10
5.56128e-10
5.71795e-10
5.64988e-10
5.7719e-10
5.71484e-10
5.8599e-10
5.80208e-10
5.93829e-10
5.85317e-10
5.97716e-10
5.90689e-10
6.06271e-10
5.99459e-10
6.15236e-10
6.0324e-10
6.16491e-10
6.06378e-10
6.23859e-10
6.12276e-10
6.30092e-10
6.13961e-10
6.32454e-10
6.16061e-10
6.38942e-10
6.21122e-10
6.44987e-10
6.15152e-10
6.42109e-10
6.08982e-10
6.49123e-10
6.06929e-10
6.57736e-10
6.05154e-10
6.70916e-10
5.92266e-10
6.65076e-10
5.45528e-10
7.48678e-10
8.35959e-10
-9.17158e-10
1.58205e-09
2.31067e-09
-1.13506e-09
-8.58229e-10
8.28975e-10
8.58489e-10
5.08128e-10
4.07594e-10
4.53312e-10
5.10591e-10
5.12474e-10
5.1853e-10
5.1235e-10
5.25581e-10
5.23716e-10
5.37866e-10
5.3765e-10
5.52867e-10
5.46559e-10
5.58706e-10
5.55213e-10
5.7062e-10
5.64339e-10
5.76321e-10
5.70915e-10
5.85228e-10
5.79899e-10
5.93253e-10
5.85135e-10
5.97266e-10
5.90495e-10
6.05808e-10
5.99374e-10
6.14936e-10
6.03236e-10
6.16189e-10
6.06252e-10
6.23496e-10
6.12219e-10
6.29877e-10
6.14022e-10
6.32215e-10
6.16121e-10
6.38691e-10
6.21364e-10
6.44793e-10
6.15764e-10
6.41805e-10
6.09576e-10
6.48144e-10
6.08202e-10
6.56193e-10
6.07659e-10
6.68324e-10
5.97634e-10
6.61829e-10
5.55445e-10
7.42638e-10
8.55202e-10
-8.88927e-10
1.5254e-09
8.72729e-10
8.30443e-10
5.0556e-10
2.54602e-10
2.46273e-10
3.13498e-10
4.02757e-10
4.51877e-10
4.97475e-10
5.08225e-10
5.31682e-10
5.30737e-10
5.47866e-10
5.43055e-10
5.5928e-10
5.54032e-10
5.67299e-10
5.5841e-10
5.73901e-10
5.67605e-10
5.82153e-10
5.72501e-10
5.87031e-10
5.78235e-10
5.92788e-10
5.84031e-10
5.98289e-10
5.88105e-10
6.02709e-10
5.93864e-10
6.09341e-10
6.01108e-10
6.15127e-10
6.04196e-10
6.18556e-10
6.09316e-10
6.2335e-10
6.14291e-10
6.26929e-10
6.16738e-10
6.29071e-10
6.20526e-10
6.31812e-10
6.24079e-10
6.3027e-10
6.1988e-10
6.26397e-10
6.22257e-10
6.26572e-10
6.25544e-10
6.27119e-10
6.31858e-10
6.20672e-10
6.22427e-10
5.88042e-10
5.94243e-10
5.27643e-10
4.34107e-10
7.74904e-11
4.77561e-10
8.88651e-10
8.39032e-10
5.02128e-10
2.5097e-10
2.44532e-10
3.1307e-10
4.02555e-10
4.51808e-10
4.97276e-10
5.08092e-10
5.31469e-10
5.3064e-10
5.47679e-10
5.42988e-10
5.59136e-10
5.54008e-10
5.67172e-10
5.58382e-10
5.73787e-10
5.67616e-10
5.82054e-10
5.72509e-10
5.86936e-10
5.78271e-10
5.92704e-10
5.84071e-10
5.98206e-10
5.88146e-10
6.02625e-10
5.9392e-10
6.09272e-10
6.01172e-10
6.15053e-10
6.04248e-10
6.18483e-10
6.09393e-10
6.2329e-10
6.14373e-10
6.26875e-10
6.16819e-10
6.29029e-10
6.2063e-10
6.31793e-10
6.24204e-10
6.30262e-10
6.19984e-10
6.26414e-10
6.224e-10
6.26639e-10
6.25692e-10
6.27265e-10
6.32052e-10
6.20956e-10
6.22623e-10
5.88534e-10
5.94767e-10
5.30152e-10
4.36245e-10
6.63202e-11
4.69628e-10
9.08488e-10
8.47851e-10
4.98088e-10
2.4663e-10
2.42063e-10
3.12256e-10
4.02307e-10
4.51655e-10
4.97128e-10
5.07859e-10
5.31265e-10
5.30428e-10
5.47513e-10
5.42815e-10
5.59009e-10
5.53896e-10
5.67107e-10
5.58261e-10
5.73703e-10
5.67536e-10
5.82016e-10
5.72429e-10
5.86891e-10
5.78232e-10
5.9268e-10
5.84032e-10
5.98193e-10
5.8811e-10
6.02604e-10
5.93906e-10
6.09269e-10
6.01163e-10
6.15063e-10
6.04227e-10
6.18478e-10
6.09409e-10
6.23309e-10
6.14396e-10
6.26909e-10
6.16844e-10
6.29069e-10
6.20688e-10
6.31855e-10
6.24302e-10
6.30369e-10
6.20069e-10
6.26517e-10
6.22543e-10
6.26815e-10
6.25845e-10
6.27485e-10
6.32272e-10
6.2135e-10
6.22927e-10
5.89122e-10
5.95174e-10
5.33332e-10
4.42326e-10
4.93564e-11
4.60085e-10
9.31419e-10
8.55447e-10
4.94158e-10
2.42106e-10
2.38613e-10
3.11013e-10
4.02006e-10
4.51545e-10
4.97042e-10
5.07601e-10
5.31029e-10
5.30159e-10
5.47315e-10
5.42587e-10
5.58847e-10
5.53746e-10
5.67053e-10
5.58097e-10
5.73593e-10
5.67417e-10
5.81989e-10
5.72314e-10
5.8684e-10
5.78169e-10
5.92663e-10
5.83968e-10
5.98199e-10
5.88052e-10
6.0259e-10
5.93873e-10
6.09282e-10
6.01138e-10
6.15112e-10
6.04187e-10
6.18486e-10
6.09412e-10
6.23361e-10
6.14409e-10
6.26988e-10
6.16855e-10
6.29148e-10
6.20736e-10
6.31969e-10
6.24406e-10
6.30574e-10
6.2015e-10
6.26691e-10
6.22679e-10
6.27111e-10
6.25974e-10
6.27836e-10
6.32445e-10
6.21989e-10
6.23151e-10
5.90025e-10
5.95242e-10
5.38208e-10
4.51445e-10
2.76274e-11
4.50266e-10
9.54295e-10
8.58478e-10
4.91351e-10
2.39173e-10
2.34611e-10
3.09387e-10
4.01686e-10
4.51545e-10
4.97035e-10
5.07335e-10
5.30731e-10
5.29825e-10
5.47054e-10
5.42299e-10
5.58618e-10
5.53559e-10
5.66985e-10
5.57898e-10
5.73428e-10
5.67268e-10
5.81951e-10
5.72178e-10
5.86758e-10
5.78092e-10
5.92634e-10
5.83895e-10
5.98203e-10
5.87986e-10
6.0256e-10
5.93834e-10
6.09292e-10
6.01111e-10
6.15182e-10
6.04145e-10
6.18488e-10
6.09414e-10
6.23429e-10
6.14422e-10
6.27096e-10
6.16861e-10
6.29248e-10
6.20776e-10
6.32124e-10
6.24519e-10
6.30872e-10
6.20224e-10
6.26932e-10
6.22787e-10
6.27538e-10
6.26035e-10
6.28343e-10
6.32503e-10
6.2293e-10
6.23166e-10
5.91369e-10
5.94739e-10
5.45009e-10
4.62735e-10
2.50669e-12
4.42959e-10
9.75293e-10
8.52219e-10
4.89755e-10
2.39815e-10
2.30861e-10
3.07469e-10
4.01388e-10
4.51713e-10
4.97145e-10
5.07074e-10
5.30364e-10
5.29413e-10
5.46717e-10
5.41941e-10
5.58311e-10
5.53324e-10
5.66891e-10
5.57658e-10
5.732e-10
5.67079e-10
5.81895e-10
5.72019e-10
5.86638e-10
5.77996e-10
5.92588e-10
5.83811e-10
5.98203e-10
5.87912e-10
6.02511e-10
5.93786e-10
6.09296e-10
6.01082e-10
6.1527e-10
6.04101e-10
6.18477e-10
6.09409e-10
6.2351e-10
6.14432e-10
6.27231e-10
6.16858e-10
6.29367e-10
6.20801e-10
6.32321e-10
6.24629e-10
6.31266e-10
6.20277e-10
6.27245e-10
6.22834e-10
6.28107e-10
6.25986e-10
6.29032e-10
6.32372e-10
6.24225e-10
6.2285e-10
5.93275e-10
5.93434e-10
5.53863e-10
4.75428e-10
-2.53853e-11
4.42101e-10
9.94466e-10
8.3184e-10
4.88362e-10
2.45858e-10
2.28292e-10
3.05379e-10
4.01141e-10
4.52095e-10
4.97413e-10
5.06841e-10
5.29934e-10
5.28922e-10
5.46297e-10
5.41508e-10
5.57917e-10
5.53028e-10
5.66762e-10
5.57376e-10
5.72904e-10
5.66842e-10
5.81814e-10
5.71834e-10
5.86476e-10
5.77876e-10
5.92523e-10
5.83713e-10
5.98194e-10
5.87829e-10
6.02441e-10
5.93725e-10
6.09293e-10
6.01047e-10
6.15374e-10
6.04055e-10
6.18453e-10
6.09391e-10
6.23603e-10
6.14434e-10
6.2739e-10
6.16842e-10
6.29503e-10
6.208e-10
6.32561e-10
6.24723e-10
6.31757e-10
6.20295e-10
6.2764e-10
6.22787e-10
6.28833e-10
6.25786e-10
6.29936e-10
6.31979e-10
6.25927e-10
6.2208e-10
5.9587e-10
5.91138e-10
5.64852e-10
4.88933e-10
-5.63544e-11
4.51632e-10
1.01332e-09
7.93116e-10
4.85327e-10
2.58858e-10
2.27923e-10
3.03256e-10
4.00948e-10
4.52746e-10
4.9787e-10
5.06657e-10
5.29448e-10
5.28356e-10
5.45793e-10
5.41001e-10
5.57433e-10
5.52666e-10
5.66589e-10
5.57053e-10
5.72538e-10
5.66553e-10
5.81698e-10
5.71625e-10
5.86268e-10
5.77727e-10
5.92434e-10
5.836e-10
5.9817e-10
5.87737e-10
6.02345e-10
5.93648e-10
6.0928e-10
6.01005e-10
6.15487e-10
6.0401e-10
6.18414e-10
6.09355e-10
6.23706e-10
6.14424e-10
6.2757e-10
6.16807e-10
6.29656e-10
6.20764e-10
6.32847e-10
6.24786e-10
6.32344e-10
6.20265e-10
6.2813e-10
6.22615e-10
6.2973e-10
6.25392e-10
6.31091e-10
6.31257e-10
6.28093e-10
6.20754e-10
5.99263e-10
5.87729e-10
5.77923e-10
5.02941e-10
-9.1268e-11
4.74753e-10
1.03457e-09
7.32822e-10
4.78156e-10
2.79955e-10
2.30826e-10
3.01265e-10
4.0079e-10
4.53684e-10
4.98544e-10
5.06542e-10
5.28914e-10
5.27722e-10
5.45204e-10
5.40423e-10
5.5686e-10
5.52235e-10
5.66362e-10
5.56692e-10
5.72104e-10
5.6621e-10
5.81541e-10
5.71392e-10
5.86011e-10
5.77549e-10
5.92317e-10
5.83473e-10
5.98128e-10
5.87637e-10
6.02223e-10
5.93556e-10
6.09255e-10
6.00954e-10
6.15603e-10
6.03965e-10
6.18361e-10
6.09299e-10
6.23815e-10
6.14399e-10
6.27767e-10
6.16751e-10
6.29827e-10
6.20687e-10
6.3318e-10
6.24806e-10
6.33028e-10
6.20173e-10
6.28729e-10
6.2229e-10
6.30813e-10
6.2477e-10
6.32528e-10
6.30142e-10
6.30761e-10
6.18805e-10
6.03514e-10
5.83192e-10
5.9288e-10
5.17393e-10
-1.31346e-10
5.13631e-10
1.06125e-09
6.49127e-10
4.6419e-10
3.09803e-10
2.3803e-10
2.99584e-10
4.00624e-10
4.54912e-10
4.99452e-10
5.06511e-10
5.28341e-10
5.27024e-10
5.44533e-10
5.3978e-10
5.56201e-10
5.51735e-10
5.66075e-10
5.56295e-10
5.71603e-10
5.65812e-10
5.81333e-10
5.71135e-10
5.85705e-10
5.77338e-10
5.9217e-10
5.83332e-10
5.98061e-10
5.87529e-10
6.02074e-10
5.93447e-10
6.09217e-10
6.00895e-10
6.15717e-10
6.03921e-10
6.18293e-10
6.09218e-10
6.23928e-10
6.14356e-10
6.27979e-10
6.16668e-10
6.30018e-10
6.20561e-10
6.33562e-10
6.24771e-10
6.33805e-10
6.20005e-10
6.2945e-10
6.2179e-10
6.32088e-10
6.23895e-10
6.34266e-10
6.28607e-10
6.33942e-10
6.16215e-10
6.08616e-10
5.77616e-10
6.09321e-10
5.32511e-10
-1.77564e-10
5.69058e-10
1.09645e-09
5.41806e-10
4.40775e-10
3.48452e-10
2.50467e-10
2.98428e-10
4.00363e-10
4.56407e-10
5.00598e-10
5.06572e-10
5.27732e-10
5.26269e-10
5.43778e-10
5.39073e-10
5.55456e-10
5.51166e-10
5.6572e-10
5.55865e-10
5.71039e-10
5.65361e-10
5.81071e-10
5.70856e-10
5.85351e-10
5.77096e-10
5.9199e-10
5.83178e-10
5.97967e-10
5.87415e-10
6.01897e-10
5.93321e-10
6.09163e-10
6.00827e-10
6.15822e-10
6.03877e-10
6.18214e-10
6.09109e-10
6.24043e-10
6.14292e-10
6.28203e-10
6.16556e-10
6.3023e-10
6.20381e-10
6.33995e-10
6.24672e-10
6.34673e-10
6.19752e-10
6.30299e-10
6.21104e-10
6.33554e-10
6.22754e-10
6.36308e-10
6.26649e-10
6.37609e-10
6.13024e-10
6.14485e-10
5.71203e-10
6.2673e-10
5.48685e-10
-2.30587e-10
6.40464e-10
1.14259e-09
4.12119e-10
4.05673e-10
3.95363e-10
2.6889e-10
2.98062e-10
3.99929e-10
4.5812e-10
5.01974e-10
5.06732e-10
5.27091e-10
5.25457e-10
5.4294e-10
5.38304e-10
5.54629e-10
5.50528e-10
5.65291e-10
5.55402e-10
5.70416e-10
5.64858e-10
5.80748e-10
5.70555e-10
5.8495e-10
5.76821e-10
5.91773e-10
5.83012e-10
5.97843e-10
5.87292e-10
6.01695e-10
5.93178e-10
6.09092e-10
6.0075e-10
6.15917e-10
6.03833e-10
6.18127e-10
6.08973e-10
6.24158e-10
6.14204e-10
6.28438e-10
6.16411e-10
6.30464e-10
6.20144e-10
6.34475e-10
6.24504e-10
6.35622e-10
6.19409e-10
6.31276e-10
6.20229e-10
6.35198e-10
6.21354e-10
6.38634e-10
6.24298e-10
6.417e-10
6.09329e-10
6.20974e-10
5.6424e-10
6.4448e-10
5.66312e-10
-2.90384e-10
7.26065e-10
1.20166e-09
2.62668e-10
3.5699e-10
4.4934e-10
2.9383e-10
2.98835e-10
3.99277e-10
4.59975e-10
5.0356e-10
5.0699e-10
5.26422e-10
5.24594e-10
5.42019e-10
5.37477e-10
5.5372e-10
5.49824e-10
5.64784e-10
5.54907e-10
5.69738e-10
5.64306e-10
5.80361e-10
5.70231e-10
5.84505e-10
5.76515e-10
5.91519e-10
5.82834e-10
5.97688e-10
5.87162e-10
6.01469e-10
5.93019e-10
6.09003e-10
6.00664e-10
6.15997e-10
6.03785e-10
6.18033e-10
6.08807e-10
6.24269e-10
6.14092e-10
6.2868e-10
6.16233e-10
6.3072e-10
6.1985e-10
6.34998e-10
6.24266e-10
6.36642e-10
6.18978e-10
6.32374e-10
6.19177e-10
6.36992e-10
6.19724e-10
6.41199e-10
6.21618e-10
6.46112e-10
6.05276e-10
6.2788e-10
5.57073e-10
6.62022e-10
5.85595e-10
-3.56531e-10
8.23312e-10
1.27422e-09
9.7318e-11
2.93798e-10
5.08695e-10
3.25494e-10
3.01128e-10
3.98381e-10
4.6187e-10
5.05316e-10
5.07347e-10
5.25729e-10
5.23682e-10
5.41016e-10
5.36591e-10
5.52733e-10
5.49053e-10
5.64196e-10
5.54379e-10
5.6901e-10
5.63707e-10
5.79906e-10
5.69884e-10
5.84017e-10
5.76177e-10
5.91226e-10
5.82644e-10
5.97501e-10
5.87025e-10
6.01222e-10
5.92844e-10
6.08895e-10
6.00569e-10
6.16059e-10
6.03734e-10
6.17935e-10
6.08613e-10
6.24375e-10
6.13955e-10
6.28928e-10
6.16022e-10
6.30996e-10
6.19504e-10
6.35556e-10
6.23963e-10
6.37715e-10
6.1847e-10
6.33575e-10
6.17975e-10
6.38897e-10
6.17911e-10
6.43934e-10
6.18702e-10
6.50712e-10
6.01051e-10
6.34961e-10
5.50062e-10
6.78811e-10
6.06575e-10
-4.2775e-10
9.29064e-10
1.35982e-09
-7.89215e-11
2.16195e-10
5.71333e-10
3.63769e-10
3.05343e-10
3.97255e-10
4.63686e-10
5.07188e-10
5.07796e-10
5.25017e-10
5.22725e-10
5.39931e-10
5.35648e-10
5.51669e-10
5.4822e-10
5.63522e-10
5.53816e-10
5.68235e-10
5.63065e-10
5.79382e-10
5.69511e-10
5.83489e-10
5.7581e-10
5.90891e-10
5.82442e-10
5.9728e-10
5.86878e-10
6.00954e-10
5.92655e-10
6.08766e-10
6.00466e-10
6.16102e-10
6.03678e-10
6.17834e-10
6.08395e-10
6.2447e-10
6.13795e-10
6.29176e-10
6.15784e-10
6.31285e-10
6.19113e-10
6.36135e-10
6.23606e-10
6.3882e-10
6.17899e-10
6.34848e-10
6.1666e-10
6.40858e-10
6.15978e-10
6.46753e-10
6.15671e-10
6.55339e-10
5.9687e-10
6.41951e-10
5.43575e-10
6.94368e-10
6.29225e-10
-5.0239e-10
1.04039e-09
1.45719e-09
-2.62083e-10
1.25017e-10
6.3476e-10
4.0813e-10
3.11858e-10
3.95952e-10
4.65292e-10
5.09098e-10
5.08326e-10
5.24291e-10
5.21727e-10
5.38766e-10
5.3465e-10
5.50532e-10
5.47327e-10
5.62764e-10
5.53219e-10
5.67416e-10
5.62383e-10
5.78787e-10
5.69113e-10
5.82923e-10
5.75415e-10
5.90515e-10
5.82227e-10
5.97025e-10
5.86724e-10
6.00667e-10
5.92454e-10
6.08614e-10
6.00355e-10
6.16123e-10
6.03616e-10
6.17731e-10
6.08155e-10
6.2455e-10
6.13614e-10
6.29417e-10
6.15523e-10
6.3158e-10
6.18689e-10