/*--------------------------------*- C++ -*----------------------------------*\
| =========                 |                                                 |
| \\      /  F ield         | OpenFOAM: The Open Source CFD Toolbox           |
|  \\    /   O peration     | Version:  2312                                  |
|   \\  /    A nd           | Website:  www.openfoam.com                      |
|    \\/     M anipulation  |                                                 |
\*---------------------------------------------------------------------------*/
FoamFile
{
    version     2.0;
    format      ascii;
    arch        "LSB;label=32;scalar=64";
    class       volScalarField;
    location    "800";
    object      pMean;
}
// * * * * * * * * * * * * * * * * * * * * * * * * * * * * * * * * * * * * * //

dimensions      [0 2 -2 0 0 0 0];

internalField   nonuniform List<scalar> 
144000
(
1.39679e-09
1.3019e-09
4.21605e-10
-1.57938e-10
-1.50615e-10
2.72855e-11
2.26839e-10
3.41975e-10
4.43493e-10
4.77466e-10
5.28183e-10
5.32916e-10
5.68244e-10
5.62233e-10
5.93254e-10
5.83832e-10
6.09055e-10
5.91792e-10
6.18217e-10
6.03228e-10
6.28846e-10
6.08938e-10
6.34717e-10
6.15313e-10
6.41926e-10
6.21789e-10
6.47851e-10
6.2462e-10
6.51516e-10
6.29047e-10
6.57489e-10
6.35167e-10
6.62023e-10
6.35064e-10
6.62909e-10
6.3798e-10
6.66753e-10
6.41828e-10
6.6963e-10
6.42808e-10
6.70966e-10
6.46524e-10
6.74543e-10
6.50779e-10
6.7265e-10
6.44923e-10
6.66406e-10
6.47983e-10
6.66762e-10
6.5477e-10
6.68654e-10
6.70054e-10
6.66576e-10
6.78563e-10
6.39954e-10
6.83902e-10
6.28187e-10
6.74559e-10
-4.35595e-10
1.91571e-10
1.42505e-09
1.31915e-09
4.14353e-10
-1.63878e-10
-1.52446e-10
2.73537e-11
2.26843e-10
3.4194e-10
4.43149e-10
4.77154e-10
5.27743e-10
5.32647e-10
5.67875e-10
5.62033e-10
5.92952e-10
5.8372e-10
6.08796e-10
5.91678e-10
6.17974e-10
6.03186e-10
6.28637e-10
6.089e-10
6.34518e-10
6.15321e-10
6.4175e-10
6.21821e-10
6.47678e-10
6.2465e-10
6.51345e-10
6.29108e-10
6.57335e-10
6.35256e-10
6.61865e-10
6.35135e-10
6.62744e-10
6.38095e-10
6.66602e-10
6.41962e-10
6.69478e-10
6.42945e-10
6.70817e-10
6.46699e-10
6.74424e-10
6.51e-10
6.72531e-10
6.45123e-10
6.66286e-10
6.4826e-10
6.66685e-10
6.55066e-10
6.68643e-10
6.70405e-10
6.66699e-10
6.78824e-10
6.40212e-10
6.83712e-10
6.31595e-10
6.84729e-10
-4.5283e-10
1.68667e-10
1.47532e-09
1.33024e-09
3.96237e-10
-1.70385e-10
-1.52833e-10
2.83466e-11
2.27486e-10
3.42138e-10
4.43133e-10
4.76786e-10
5.27356e-10
5.3218e-10
5.67537e-10
5.61619e-10
5.92674e-10
5.83423e-10
6.08628e-10
5.91372e-10
6.17781e-10
6.0296e-10
6.28528e-10
6.08677e-10
6.34408e-10
6.15161e-10
6.41685e-10
6.21685e-10
6.47638e-10
6.24509e-10
6.51299e-10
6.29002e-10
6.57313e-10
6.35182e-10
6.61875e-10
6.35034e-10
6.62721e-10
6.38047e-10
6.66615e-10
6.41938e-10
6.69507e-10
6.42922e-10
6.70832e-10
6.46723e-10
6.74477e-10
6.51096e-10
6.72642e-10
6.45203e-10
6.66352e-10
6.48426e-10
6.66844e-10
6.55225e-10
6.68849e-10
6.70591e-10
6.67142e-10
6.78906e-10
6.41079e-10
6.8183e-10
6.36085e-10
7.05315e-10
-4.90363e-10
1.46813e-10
1.54054e-09
1.32025e-09
3.69866e-10
-1.73122e-10
-1.5135e-10
3.06317e-11
2.2908e-10
3.43079e-10
4.43643e-10
4.76633e-10
5.27009e-10
5.31656e-10
5.67157e-10
5.61118e-10
5.92318e-10
5.83055e-10
6.0845e-10
5.90983e-10
6.1751e-10
6.02655e-10
6.28402e-10
6.08391e-10
6.34254e-10
6.14943e-10
6.41605e-10
6.21506e-10
6.47603e-10
6.24322e-10
6.51239e-10
6.28852e-10
6.57291e-10
6.35082e-10
6.61925e-10
6.34899e-10
6.62692e-10
6.37969e-10
6.66653e-10
6.41893e-10
6.6958e-10
6.4287e-10
6.70874e-10
6.46713e-10
6.74588e-10
6.51179e-10
6.72894e-10
6.45241e-10
6.66511e-10
6.48525e-10
6.67188e-10
6.55262e-10
6.69301e-10
6.70512e-10
6.68162e-10
6.783e-10
6.43165e-10
6.77027e-10
6.45275e-10
7.28406e-10
-5.4471e-10
1.41954e-10
1.60874e-09
1.27303e-09
3.38848e-10
-1.64316e-10
-1.4609e-10
3.41629e-11
2.31518e-10
3.44871e-10
4.44814e-10
4.76826e-10
5.26721e-10
5.31111e-10
5.66702e-10
5.60548e-10
5.91847e-10
5.82627e-10
6.0822e-10
5.9053e-10
6.17112e-10
6.02286e-10
6.28217e-10
6.08059e-10
6.34005e-10
6.14685e-10
6.41463e-10
6.21309e-10
6.47527e-10
6.24118e-10
6.5111e-10
6.28684e-10
6.57218e-10
6.34984e-10
6.61964e-10
6.34765e-10
6.62603e-10
6.37888e-10
6.66665e-10
6.41861e-10
6.69649e-10
6.42822e-10
6.70891e-10
6.46694e-10
6.74715e-10
6.51282e-10
6.73238e-10
6.45266e-10
6.66716e-10
6.4854e-10
6.67704e-10
6.55095e-10
6.70044e-10
6.70007e-10
6.6991e-10
6.76746e-10
6.46757e-10
6.69212e-10
6.59618e-10
7.48682e-10
-6.09798e-10
1.68388e-10
1.67518e-09
1.1766e-09
3.04167e-10
-1.37933e-10
-1.35134e-10
3.84887e-11
2.34463e-10
3.4741e-10
4.46622e-10
4.77359e-10
5.26498e-10
5.30541e-10
5.66173e-10
5.59914e-10
5.91266e-10
5.82141e-10
6.07934e-10
5.90027e-10
6.16589e-10
6.01853e-10
6.27966e-10
6.07691e-10
6.33657e-10
6.14387e-10
6.41251e-10
6.21095e-10
6.47402e-10
6.23902e-10
6.50905e-10
6.28499e-10
6.57086e-10
6.34892e-10
6.61983e-10
6.34643e-10
6.62443e-10
6.37803e-10
6.66641e-10
6.41843e-10
6.69701e-10
6.42781e-10
6.70872e-10
6.46662e-10
6.74841e-10
6.51389e-10
6.73667e-10
6.45265e-10
6.66978e-10
6.48422e-10
6.68418e-10
6.54655e-10
6.7114e-10
6.6893e-10
6.72527e-10
6.73963e-10
6.52192e-10
6.58273e-10
6.79334e-10
7.64045e-10
-6.83993e-10
2.34953e-10
1.74199e-09
1.02473e-09
2.62819e-10
-9.0285e-11
-1.16313e-10
4.33301e-11
2.37484e-10
3.50554e-10
4.48996e-10
4.78193e-10
5.26287e-10
5.29934e-10
5.6555e-10
5.59205e-10
5.90559e-10
5.81585e-10
6.07583e-10
5.89484e-10
6.15948e-10
6.01361e-10
6.27651e-10
6.07302e-10
6.33214e-10
6.14053e-10
6.40973e-10
6.20871e-10
6.47228e-10
6.23685e-10
6.50627e-10
6.28301e-10
6.56894e-10
6.34808e-10
6.61975e-10
6.3454e-10
6.62211e-10
6.37713e-10
6.66574e-10
6.41837e-10
6.69728e-10
6.42749e-10
6.70811e-10
6.4661e-10
6.74963e-10
6.51486e-10
6.74178e-10
6.45218e-10
6.6731e-10
6.48127e-10
6.69349e-10
6.53874e-10
6.72665e-10
6.67147e-10
6.7614e-10
6.69743e-10
6.59682e-10
6.44251e-10
7.03961e-10
7.74657e-10
-7.6827e-10
3.45331e-10
1.81308e-09
8.16524e-10
2.10931e-10
-1.99998e-11
-8.7747e-11
4.85815e-11
2.40181e-10
3.54137e-10
4.51839e-10
4.79246e-10
5.26037e-10
5.29233e-10
5.64784e-10
5.58399e-10
5.89709e-10
5.80944e-10
6.07144e-10
5.88905e-10
6.15191e-10
6.00808e-10
6.2726e-10
6.069e-10
6.32679e-10
6.1369e-10
6.40627e-10
6.20647e-10
6.47e-10
6.23479e-10
6.50274e-10
6.28099e-10
6.56644e-10
6.34742e-10
6.61933e-10
6.34471e-10
6.61909e-10
6.37626e-10
6.66463e-10
6.4185e-10
6.69723e-10
6.42732e-10
6.7071e-10
6.46537e-10
6.75087e-10
6.51562e-10
6.74767e-10
6.45113e-10
6.67741e-10
6.47601e-10
6.70528e-10
6.52688e-10
6.74679e-10
6.64578e-10
6.80789e-10
6.64086e-10
6.6913e-10
6.27743e-10
7.32038e-10
7.81786e-10
-8.62402e-10
4.97885e-10
1.89291e-09
5.57791e-10
1.44333e-10
7.15949e-11
-4.788e-11
5.44302e-11
2.42203e-10
3.57979e-10
4.55072e-10
4.80479e-10
5.25699e-10
5.28405e-10
5.6384e-10
5.5747e-10
5.88697e-10
5.80199e-10
6.06588e-10
5.88282e-10
6.14312e-10
6.0019e-10
6.26777e-10
6.06484e-10
6.32051e-10
6.13299e-10
6.40209e-10
6.20425e-10
6.46712e-10
6.2329e-10
6.49851e-10
6.27898e-10
6.56334e-10
6.34699e-10
6.61849e-10
6.34443e-10
6.61543e-10
6.37542e-10
6.66304e-10
6.41885e-10
6.69687e-10
6.42728e-10
6.70579e-10
6.46438e-10
6.75221e-10
6.516e-10
6.75439e-10
6.44928e-10
6.68294e-10
6.46819e-10
6.71969e-10
6.51075e-10
6.77178e-10
6.61223e-10
6.86382e-10
6.572e-10
6.80111e-10
6.09776e-10
7.61527e-10
7.87436e-10
-9.65039e-10
6.84712e-10
1.98388e-09
2.59664e-10
6.02902e-11
1.8079e-10
4.03031e-12
6.12671e-11
2.43269e-10
3.61879e-10
4.58615e-10
4.81852e-10
5.25243e-10
5.27413e-10
5.62692e-10
5.56406e-10
5.87507e-10
5.79329e-10
6.05886e-10
5.87605e-10
6.13307e-10
5.99499e-10
6.26187e-10
6.06052e-10
6.31327e-10
6.12879e-10
6.39713e-10
6.20205e-10
6.46358e-10
6.23118e-10
6.49358e-10
6.27702e-10
6.55967e-10
6.34679e-10
6.61717e-10
6.34457e-10
6.61122e-10
6.37462e-10
6.66103e-10
6.41938e-10
6.69621e-10
6.42733e-10
6.70428e-10
6.46306e-10
6.75374e-10
6.51587e-10
6.76191e-10
6.44651e-10
6.68986e-10
6.45779e-10
6.73656e-10
6.49056e-10
6.80109e-10
6.5721e-10
6.92696e-10
6.49498e-10
6.91945e-10
5.91708e-10
7.90061e-10
7.93699e-10
-1.07293e-09
8.94445e-10
2.08628e-09
-6.3228e-11
-4.2295e-11
3.01791e-10
6.78647e-11
6.96258e-11
2.43206e-10
3.65614e-10
4.6237e-10
4.8333e-10
5.24645e-10
5.26255e-10
5.61327e-10
5.55198e-10
5.86132e-10
5.78328e-10
6.0502e-10
5.86866e-10
6.12178e-10
5.98733e-10
6.25477e-10
6.05596e-10
6.30508e-10
6.12426e-10
6.39133e-10
6.19985e-10
6.45931e-10
6.22961e-10
6.48799e-10
6.2751e-10
6.55541e-10
6.3468e-10
6.61532e-10
6.3451e-10
6.60655e-10
6.37383e-10
6.65859e-10
6.42004e-10
6.69527e-10
6.42739e-10
6.70267e-10
6.46137e-10
6.75547e-10
6.51516e-10
6.77013e-10
6.44284e-10
6.69811e-10
6.44506e-10
6.75538e-10
6.46702e-10
6.83365e-10
6.52739e-10
6.99395e-10
6.41513e-10
7.0381e-10
5.74932e-10
8.15522e-10
8.02244e-10
-1.18129e-09
1.1135e-09
2.19765e-09
-3.93538e-10
-1.62437e-10
4.27934e-10
1.42488e-10
8.0097e-11
2.41974e-10
3.6894e-10
4.66215e-10
4.84876e-10
5.23904e-10
5.24932e-10
5.59744e-10
5.53846e-10
5.84571e-10
5.77192e-10
6.03979e-10
5.8606e-10
6.10926e-10
5.97892e-10
6.24637e-10
6.05111e-10
6.29594e-10
6.11938e-10
6.38467e-10
6.19758e-10
6.45427e-10
6.22816e-10
6.48176e-10
6.27322e-10
6.55057e-10
6.34698e-10
6.61292e-10
6.34595e-10
6.60149e-10
6.37304e-10
6.65577e-10
6.42078e-10
6.69404e-10
6.42746e-10
6.70101e-10
6.45935e-10
6.75736e-10
6.51389e-10
6.77885e-10
6.43842e-10
6.70745e-10
6.43047e-10
6.77537e-10
6.44118e-10
6.8678e-10
6.48076e-10
7.06089e-10
6.33834e-10
7.14889e-10
5.60678e-10
8.36267e-10
8.14065e-10
-1.2842e-09
1.32839e-09
2.31397e-09
-7.14978e-10
-2.97595e-10
5.52207e-10
2.25983e-10
9.33498e-11
2.39721e-10
3.7164e-10
4.70009e-10
4.86461e-10
5.23031e-10
5.23455e-10
5.57949e-10
5.52351e-10
5.82828e-10
5.75926e-10
6.02761e-10
5.85187e-10
6.0956e-10
5.96978e-10
6.23663e-10
6.0459e-10
6.2859e-10
6.11416e-10
6.3771e-10
6.19521e-10
6.44846e-10
6.22675e-10
6.47493e-10
6.27134e-10
6.54516e-10
6.34726e-10
6.60995e-10
6.34707e-10
6.5961e-10
6.37223e-10
6.65253e-10
6.42154e-10
6.69252e-10
6.4275e-10
6.69931e-10
6.45705e-10
6.75934e-10
6.51215e-10
6.78779e-10
6.43351e-10
6.71749e-10
6.41468e-10
6.79554e-10
6.4146e-10
6.90158e-10
6.43512e-10
7.12372e-10
6.27018e-10
7.24455e-10
5.49888e-10
8.51436e-10
8.29235e-10
-1.37582e-09
1.52756e-09
2.42944e-09
-1.01403e-09
-4.43208e-10
6.68277e-10
3.15795e-10
1.09994e-10
2.3676e-10
3.73522e-10
4.73596e-10
4.88055e-10
5.22046e-10
5.21844e-10
5.55951e-10
5.5072e-10
5.80915e-10
5.74538e-10
6.01369e-10
5.84244e-10
6.08087e-10
5.95996e-10
6.22557e-10
6.04031e-10
6.27502e-10
6.1086e-10
6.36866e-10
6.19272e-10
6.44187e-10
6.22536e-10
6.46756e-10
6.26947e-10
6.5392e-10
6.34762e-10
6.60639e-10
6.34836e-10
6.59045e-10
6.37141e-10
6.64885e-10
6.42231e-10
6.6907e-10
6.42753e-10
6.69752e-10
6.45457e-10
6.76124e-10
6.5101e-10
6.79658e-10
6.42846e-10
6.72769e-10
6.3986e-10
6.81478e-10
6.38878e-10
6.93294e-10
6.3934e-10
7.17875e-10
6.2153e-10
7.31988e-10
5.43104e-10
8.60812e-10
8.47073e-10
-1.45126e-09
1.70219e-09
2.53779e-09
-1.27927e-09
-5.93459e-10
7.70802e-10
4.08933e-10
1.30452e-10
2.33512e-10
3.74432e-10
4.76794e-10
4.89621e-10
5.20971e-10
5.20119e-10
5.53766e-10
5.48964e-10
5.78844e-10
5.73037e-10
5.99809e-10
5.83231e-10
6.06518e-10
5.94954e-10
6.21322e-10
6.03429e-10
6.26335e-10
6.10274e-10
6.35936e-10
6.19007e-10
6.43453e-10
6.22394e-10
6.45969e-10
6.26761e-10
6.53269e-10
6.34801e-10
6.60225e-10
6.3498e-10
6.58457e-10
6.37059e-10
6.64474e-10
6.42308e-10
6.68852e-10
6.42759e-10
6.69559e-10
6.45207e-10
6.76283e-10
6.50801e-10
6.80481e-10
6.42371e-10
6.73736e-10
6.38318e-10
6.83193e-10
6.36532e-10
6.95997e-10
6.35816e-10
7.223e-10
6.17705e-10
7.37176e-10
5.4051e-10
8.64664e-10
8.66369e-10
-1.50646e-09
1.84598e-09
2.6327e-09
-1.50244e-09
-7.42127e-10
8.55803e-10
5.0221e-10
1.54913e-10
2.30461e-10
3.74263e-10
4.7942e-10
4.91105e-10
5.19826e-10
5.18303e-10
5.51408e-10
5.47091e-10
5.76626e-10
5.71433e-10
5.98087e-10
5.82153e-10
6.04861e-10
5.93858e-10
6.19964e-10
6.02784e-10
6.25095e-10
6.09661e-10
6.34923e-10
6.18723e-10
6.42648e-10
6.22249e-10
6.45136e-10
6.26574e-10
6.52565e-10
6.3484e-10
6.59754e-10
6.35133e-10
6.57847e-10
6.36983e-10
6.64017e-10
6.42387e-10
6.68591e-10
6.42776e-10
6.6934e-10
6.44973e-10
6.76388e-10
6.50613e-10
6.81209e-10
6.41973e-10
6.74584e-10
6.36939e-10
6.84591e-10
6.34562e-10
6.981e-10
6.33144e-10
7.25437e-10
6.15738e-10
7.39927e-10
5.41965e-10
8.63701e-10
8.85868e-10
-1.53857e-09
1.95521e-09
2.70856e-09
-1.67838e-09
-8.83027e-10
9.20663e-10
5.92478e-10
1.83353e-10
2.28143e-10
3.72988e-10
4.81299e-10
4.92447e-10
5.1863e-10
5.16423e-10
5.48896e-10
5.45114e-10
5.74276e-10
5.69737e-10
5.96218e-10
5.81012e-10
6.03126e-10
5.92716e-10
6.18491e-10
6.02095e-10
6.23788e-10
6.09023e-10
6.33833e-10
6.18418e-10
6.41775e-10
6.22098e-10
6.44262e-10
6.2639e-10
6.51813e-10
6.34878e-10
6.59225e-10
6.35294e-10
6.57216e-10
6.36915e-10
6.63509e-10
6.4247e-10
6.68282e-10
6.42814e-10
6.69081e-10
6.44777e-10
6.76415e-10
6.50475e-10
6.81795e-10
6.41701e-10
6.75253e-10
6.35809e-10
6.85577e-10
6.33082e-10
6.99474e-10
6.31462e-10
7.27174e-10
6.1568e-10
7.40341e-10
5.47097e-10
8.58894e-10
9.04137e-10
-1.54602e-09
2.02886e-09
2.76101e-09
-1.80508e-09
-1.01076e-09
9.64148e-10
6.7692e-10
2.1551e-10
2.27085e-10
3.70648e-10
4.8227e-10
4.93579e-10
5.17403e-10
5.14506e-10
5.46249e-10
5.43042e-10
5.71806e-10
5.67959e-10
5.94212e-10
5.79811e-10
6.01322e-10
5.91534e-10
6.16913e-10
6.01361e-10
6.22421e-10
6.08364e-10
6.3267e-10
6.18093e-10
6.40841e-10
6.2194e-10
6.4335e-10
6.26209e-10
6.51014e-10
6.34913e-10
6.58642e-10
6.35462e-10
6.56564e-10
6.36861e-10
6.62947e-10
6.42563e-10
6.67917e-10
6.42883e-10
6.68769e-10
6.44637e-10
6.76341e-10
6.50416e-10
6.82201e-10
6.416e-10
6.75688e-10
6.35001e-10
6.86078e-10
6.32177e-10
7.00042e-10
6.3085e-10
7.27488e-10
6.17467e-10
7.3868e-10
5.5535e-10
8.51361e-10
9.19789e-10
-1.52859e-09
2.06798e-09
2.78646e-09
-1.88281e-09
-1.12039e-09
9.86362e-10
7.53052e-10
2.50883e-10
2.27744e-10
3.67338e-10
4.82197e-10
4.94428e-10
5.16157e-10
5.12577e-10
5.43486e-10
5.40885e-10
5.69229e-10
5.6611e-10
5.92084e-10
5.78556e-10
5.99458e-10
5.9032e-10
6.15238e-10
6.00584e-10
6.20998e-10
6.07688e-10
6.31441e-10
6.17746e-10
6.39848e-10
6.21775e-10
6.42405e-10
6.26033e-10
6.5017e-10
6.34945e-10
6.58005e-10
6.35636e-10
6.55888e-10
6.36828e-10
6.62329e-10
6.42672e-10
6.67487e-10
6.42996e-10
6.68392e-10
6.44573e-10
6.76142e-10
6.50462e-10
6.82397e-10
6.41708e-10
6.75845e-10
6.3457e-10
6.8605e-10
6.3191e-10
6.99768e-10
6.31313e-10
7.26442e-10
6.20943e-10
7.35301e-10
5.66098e-10
8.42096e-10
9.31837e-10
-1.48676e-09
2.07464e-09
2.78262e-09
-1.91328e-09
-1.20795e-09
9.88253e-10
8.18878e-10
2.88771e-10
2.30467e-10
3.63197e-10
4.8097e-10
4.94913e-10
5.14894e-10
5.10659e-10
5.40626e-10
5.38649e-10
5.66555e-10
5.64198e-10
5.89846e-10
5.77249e-10
5.97541e-10
5.89078e-10
6.13477e-10
5.99766e-10
6.19525e-10
6.06997e-10
6.30152e-10
6.17378e-10
6.38802e-10
6.21605e-10
6.41429e-10
6.25863e-10
6.49284e-10
6.34974e-10
6.57315e-10
6.35819e-10
6.55187e-10
6.36819e-10
6.61651e-10
6.42801e-10
6.66987e-10
6.43161e-10
6.67937e-10
6.44603e-10
6.75801e-10
6.50636e-10
6.82359e-10
6.42051e-10
6.75693e-10
6.34548e-10
6.85474e-10
6.32292e-10
6.98668e-10
6.32821e-10
7.24162e-10
6.25886e-10
7.30576e-10
5.78711e-10
8.31991e-10
9.39734e-10
-1.42181e-09
2.05148e-09
2.74818e-09
-1.89916e-09
-1.27048e-09
9.7152e-10
8.72929e-10
3.28346e-10
2.35482e-10
3.584e-10
4.7852e-10
4.94955e-10
5.13609e-10
5.08769e-10
5.37685e-10
5.36342e-10
5.63791e-10
5.62231e-10
5.87511e-10
5.75897e-10
5.95577e-10
5.87814e-10
6.11639e-10
5.98907e-10
6.18004e-10
6.06293e-10
6.28807e-10
6.16989e-10
6.37708e-10
6.21429e-10
6.40424e-10
6.25701e-10
6.48357e-10
6.35003e-10
6.56577e-10
6.36011e-10
6.54458e-10
6.3684e-10
6.60909e-10
6.42958e-10
6.66411e-10
6.43389e-10
6.67392e-10
6.44739e-10
6.75305e-10
6.50954e-10
6.82075e-10
6.42644e-10
6.75217e-10
6.34948e-10
6.84354e-10
6.33304e-10
6.96796e-10
6.3528e-10
7.20817e-10
6.32054e-10
7.24923e-10
5.92602e-10
8.21609e-10
9.4336e-10
-1.33528e-09
2.00118e-09
2.68325e-09
-1.84403e-09
-1.30648e-09
9.3841e-10
9.14409e-10
3.68729e-10
2.42879e-10
3.53142e-10
4.74822e-10
4.94482e-10
5.1229e-10
5.06921e-10
5.3468e-10
5.3397e-10
5.60947e-10
5.60214e-10
5.85093e-10
5.74503e-10
5.93571e-10
5.86531e-10
6.09734e-10
5.98009e-10
6.16439e-10
6.05577e-10
6.27411e-10
6.1658e-10
6.3657e-10
6.21249e-10
6.39394e-10
6.25547e-10
6.47393e-10
6.3503e-10
6.55791e-10
6.36215e-10
6.53698e-10
6.36894e-10
6.60104e-10
6.43146e-10
6.65757e-10
6.43687e-10
6.66754e-10
6.44991e-10
6.74648e-10
6.51424e-10
6.81541e-10
6.43495e-10
6.74418e-10
6.35765e-10
6.82722e-10
6.34905e-10
6.94233e-10
6.38569e-10
7.16615e-10
6.39178e-10
7.18712e-10
6.07274e-10
8.1126e-10
9.42896e-10
-1.2291e-09
1.92665e-09
2.5888e-09
-1.75259e-09
-1.31567e-09
8.91598e-10
9.43297e-10
4.09041e-10
2.52594e-10
3.4761e-10
4.69893e-10
4.93439e-10
5.10921e-10
5.05123e-10
5.31626e-10
5.31541e-10
5.58032e-10
5.58149e-10
5.82601e-10
5.73073e-10
5.91531e-10
5.85228e-10
6.07769e-10
5.97077e-10
6.14836e-10
6.04848e-10
6.25971e-10
6.1615e-10
6.35395e-10
6.21065e-10
6.38341e-10
6.25403e-10
6.46394e-10
6.35057e-10
6.54961e-10
6.36433e-10
6.52908e-10
6.36982e-10
6.59236e-10
6.43368e-10
6.65024e-10
6.44059e-10
6.6602e-10
6.45363e-10
6.73832e-10
6.52045e-10
6.80766e-10
6.446e-10
6.73314e-10
6.36974e-10
6.80633e-10
6.37034e-10
6.91093e-10
6.42544e-10
7.11777e-10
6.46985e-10
7.1228e-10
6.22355e-10
8.0089e-10
9.38774e-10
-1.10524e-09
1.83088e-09
2.46714e-09
-1.63003e-09
-1.29926e-09
8.33932e-10
9.60273e-10
4.48515e-10
2.64436e-10
3.41946e-10
4.63762e-10
4.91768e-10
5.09479e-10
5.03374e-10
5.28532e-10
5.29056e-10
5.5505e-10
5.56035e-10
5.80043e-10
5.7161e-10
5.8946e-10
5.83905e-10
6.05749e-10
5.9611e-10
6.13197e-10
6.04106e-10
6.2449e-10
6.15699e-10
6.34183e-10
6.2088e-10
6.37269e-10
6.25267e-10
6.45364e-10
6.3508e-10
6.54087e-10
6.36668e-10
6.52087e-10
6.37105e-10
6.58306e-10
6.43626e-10
6.64213e-10
6.4451e-10
6.65196e-10
6.45854e-10
6.72865e-10
6.5281e-10
6.79765e-10
6.45945e-10
6.71942e-10
6.38535e-10
6.78162e-10
6.39613e-10
6.87521e-10
6.47051e-10
7.06546e-10
6.5523e-10
7.05907e-10
6.37689e-10
7.90135e-10
9.31684e-10
-9.65779e-10
1.71688e-09
2.32156e-09
-1.48067e-09
-1.25955e-09
7.67903e-10
9.66446e-10
4.86539e-10
2.78171e-10
3.36263e-10
4.56449e-10
4.8941e-10
5.07928e-10
5.01667e-10
5.25397e-10
5.26515e-10
5.52001e-10
5.53864e-10
5.7742e-10
5.7012e-10
5.87362e-10
5.82559e-10
6.03676e-10
5.95113e-10
6.11522e-10
6.03349e-10
6.2297e-10
6.15226e-10
6.32937e-10
6.20695e-10
6.36178e-10
6.25141e-10
6.44304e-10
6.35099e-10
6.5317e-10
6.36925e-10
6.51235e-10
6.37261e-10
6.57314e-10
6.43916e-10
6.63326e-10
6.45037e-10
6.64283e-10
6.46457e-10
6.71757e-10
6.53704e-10
6.78556e-10
6.47509e-10
6.70338e-10
6.40392e-10
6.75383e-10
6.42548e-10
6.83652e-10
6.5193e-10
7.01128e-10
6.63714e-10
6.99762e-10
6.53356e-10
7.78271e-10
9.22307e-10
-8.12465e-10
1.58675e-09
1.39693e-09
1.302e-09
4.22638e-10
-1.57172e-10
-1.50267e-10
2.82621e-11
2.28161e-10
3.43171e-10
4.44227e-10
4.77611e-10
5.27903e-10
5.32349e-10
5.67513e-10
5.61399e-10
5.92391e-10
5.82964e-10
6.0834e-10
5.9127e-10
6.17824e-10
6.02923e-10
6.2864e-10
6.08829e-10
6.34632e-10
6.1525e-10
6.41854e-10
6.21705e-10
6.47792e-10
6.24613e-10
6.51485e-10
6.29014e-10
6.57423e-10
6.35081e-10
6.61882e-10
6.34901e-10
6.62729e-10
6.37858e-10
6.66638e-10
6.41747e-10
6.69569e-10
6.42824e-10
6.70974e-10
6.46591e-10
6.74554e-10
6.50776e-10
6.72557e-10
6.44871e-10
6.66246e-10
6.47899e-10
6.66601e-10
6.54756e-10
6.68529e-10
6.70089e-10
6.66631e-10
6.78989e-10
6.40325e-10
6.8483e-10
6.29004e-10
6.73594e-10
-4.37284e-10
1.90478e-10
1.42521e-09
1.31926e-09
4.15311e-10
-1.63092e-10
-1.52068e-10
2.83466e-11
2.28183e-10
3.43144e-10
4.43886e-10
4.77296e-10
5.27458e-10
5.32073e-10
5.67136e-10
5.6119e-10
5.92081e-10
5.82843e-10
6.08075e-10
5.91152e-10
6.17578e-10
6.02876e-10
6.2843e-10
6.08791e-10
6.34432e-10
6.15256e-10
6.41677e-10
6.21734e-10
6.47621e-10
6.24647e-10
6.51316e-10
6.29078e-10
6.5727e-10
6.3517e-10
6.61725e-10
6.34973e-10
6.62564e-10
6.37972e-10
6.66487e-10
6.41879e-10
6.69419e-10
6.42963e-10
6.70826e-10
6.46766e-10
6.74435e-10
6.50993e-10
6.72437e-10
6.45069e-10
6.66124e-10
6.48173e-10
6.66523e-10
6.55048e-10
6.68515e-10
6.70437e-10
6.66756e-10
6.7925e-10
6.40589e-10
6.84645e-10
6.32431e-10
6.83785e-10
-4.5453e-10
1.67529e-10
1.47555e-09
1.33076e-09
3.97162e-10
-1.69674e-10
-1.52445e-10
2.93501e-11
2.28848e-10
3.43358e-10
4.43876e-10
4.76927e-10
5.27065e-10
5.31597e-10
5.66789e-10
5.60765e-10
5.91791e-10
5.82531e-10
6.07898e-10
5.90839e-10
6.1738e-10
6.02643e-10
6.2832e-10
6.08568e-10
6.34322e-10
6.15093e-10
6.41612e-10
6.21594e-10
6.47585e-10
6.24511e-10
6.51276e-10
6.28974e-10
6.57251e-10
6.35095e-10
6.61737e-10
6.34873e-10
6.62541e-10
6.37923e-10
6.665e-10
6.41853e-10
6.6945e-10
6.42943e-10
6.70844e-10
6.4679e-10
6.74487e-10
6.51086e-10
6.72545e-10
6.45148e-10
6.66186e-10
6.48333e-10
6.6668e-10
6.55207e-10
6.68721e-10
6.70618e-10
6.67203e-10
6.79336e-10
6.41456e-10
6.82762e-10
6.3691e-10
7.04565e-10
-4.92043e-10
1.452e-10
1.54074e-09
1.32139e-09
3.70742e-10
-1.72554e-10
-1.50954e-10
3.16519e-11
2.30464e-10
3.44314e-10
4.44401e-10
4.76776e-10
5.26712e-10
5.31064e-10
5.66398e-10
5.60251e-10
5.91423e-10
5.82144e-10
6.07705e-10
5.90439e-10
6.17104e-10
6.02329e-10
6.28191e-10
6.08282e-10
6.34169e-10
6.14871e-10
6.4153e-10
6.21411e-10
6.47552e-10
6.24331e-10
6.51223e-10
6.28828e-10
6.57234e-10
6.34996e-10
6.6179e-10
6.3474e-10
6.62514e-10
6.37844e-10
6.66538e-10
6.41805e-10
6.69524e-10
6.42894e-10
6.7089e-10
6.46781e-10
6.746e-10
6.51165e-10
6.72793e-10
6.45185e-10
6.66346e-10
6.48426e-10
6.67022e-10
6.5524e-10
6.69171e-10
6.70525e-10
6.68224e-10
6.7873e-10
6.43534e-10
6.7798e-10
6.46086e-10
7.27955e-10
-5.46282e-10
1.39633e-10
1.60886e-09
1.27488e-09
3.39675e-10
-1.63954e-10
-1.45679e-10
3.52062e-11
2.3295e-10
3.46138e-10
4.45591e-10
4.76978e-10
5.26423e-10
5.30512e-10
5.65933e-10
5.59668e-10
5.90939e-10
5.81696e-10
6.07456e-10
5.89973e-10
6.16698e-10
6.0195e-10
6.28001e-10
6.07951e-10
6.33923e-10
6.14611e-10
6.41387e-10
6.21208e-10
6.47476e-10
6.24134e-10
6.51105e-10
6.28666e-10
6.57167e-10
6.349e-10
6.61832e-10
6.3461e-10
6.62428e-10
6.37762e-10
6.6655e-10
6.41769e-10
6.69593e-10
6.4285e-10
6.70913e-10
6.46765e-10
6.74731e-10
6.51264e-10
6.73134e-10
6.45208e-10
6.66551e-10
6.48436e-10
6.67536e-10
6.55068e-10
6.69921e-10
6.70006e-10
6.69967e-10
6.77171e-10
6.47113e-10
6.70184e-10
6.60414e-10
7.4856e-10
-6.11221e-10
1.6529e-10
1.67516e-09
1.17899e-09
3.04907e-10
-1.37776e-10
-1.34693e-10
3.95742e-11
2.35948e-10
3.48717e-10
4.4743e-10
4.77522e-10
5.26199e-10
5.29938e-10
5.65397e-10
5.59023e-10
5.90346e-10
5.81189e-10
6.07148e-10
5.89453e-10
6.16167e-10
6.01506e-10
6.27744e-10
6.07584e-10
6.33579e-10
6.1431e-10
6.41175e-10
6.20986e-10
6.4735e-10
6.23924e-10
6.50912e-10
6.28488e-10
6.57042e-10
6.3481e-10
6.61855e-10
6.3449e-10
6.62271e-10
6.37676e-10
6.66528e-10
6.41746e-10
6.69643e-10
6.42812e-10
6.70901e-10
6.46736e-10
6.74862e-10
6.51368e-10
6.73561e-10
6.45202e-10
6.66816e-10
6.48311e-10
6.68248e-10
6.5462e-10
6.71018e-10
6.68914e-10
6.7258e-10
6.74379e-10
6.52522e-10
6.59223e-10
6.80096e-10
7.64242e-10
-6.85211e-10
2.31221e-10
1.74175e-09
1.02755e-09
2.63538e-10
-9.03218e-11
-1.15864e-10
4.44552e-11
2.39022e-10
3.51908e-10
4.49839e-10
4.78375e-10
5.25998e-10
5.29327e-10
5.6477e-10
5.58305e-10
5.8963e-10
5.80616e-10
6.06773e-10
5.88891e-10
6.15518e-10
6.01001e-10
6.27419e-10
6.07194e-10
6.33142e-10
6.13975e-10
6.40895e-10
6.20755e-10
6.4717e-10
6.23713e-10
6.50645e-10
6.28298e-10
6.56859e-10
6.3473e-10
6.6185e-10
6.3439e-10
6.62043e-10
6.37587e-10
6.66463e-10
6.41735e-10
6.69667e-10
6.42783e-10
6.70849e-10
6.4669e-10
6.74992e-10
6.51465e-10
6.74071e-10
6.4515e-10
6.67152e-10
6.48007e-10
6.69179e-10
6.53831e-10
6.72548e-10
6.67118e-10
6.76186e-10
6.70152e-10
6.59992e-10
6.45171e-10
7.04706e-10
7.7513e-10
-7.69264e-10
3.41144e-10
1.81254e-09
8.19606e-10
2.11676e-10
-2.02111e-11
-8.73213e-11
4.97411e-11
2.41774e-10
3.55542e-10
4.52726e-10
4.79458e-10
5.2576e-10
5.28629e-10
5.64008e-10
5.57494e-10
5.88774e-10
5.79961e-10
6.06312e-10
5.88293e-10
6.1475e-10
6.00436e-10
6.27017e-10
6.0679e-10
6.32613e-10
6.13612e-10
6.40549e-10
6.20523e-10
6.46934e-10
6.23509e-10
6.50305e-10
6.28105e-10
6.56618e-10
6.34668e-10
6.61812e-10
6.34324e-10
6.61746e-10
6.375e-10
6.66355e-10
6.41745e-10
6.69659e-10
6.42766e-10
6.70758e-10
6.46623e-10
6.75126e-10
6.51541e-10
6.74659e-10
6.4504e-10
6.67588e-10
6.47474e-10
6.70359e-10
6.52636e-10
6.74567e-10
6.6453e-10
6.80823e-10
6.64483e-10
6.69428e-10
6.28626e-10
7.32785e-10
7.82471e-10
-8.63171e-10
4.93457e-10
1.8922e-09
5.60931e-10
1.45083e-10
7.12295e-11
-4.7499e-11
5.56172e-11
2.43846e-10
3.59436e-10
4.56008e-10
4.80725e-10
5.25436e-10
5.27805e-10
5.63067e-10
5.56565e-10
5.8776e-10
5.79205e-10
6.05735e-10
5.87651e-10
6.13861e-10
5.99805e-10
6.26523e-10
6.0637e-10
6.31991e-10
6.13224e-10
6.40131e-10
6.20294e-10
6.46638e-10
6.23321e-10
6.49893e-10
6.27914e-10
6.56318e-10
6.3463e-10
6.61733e-10
6.34298e-10
6.61386e-10
6.37418e-10
6.662e-10
6.41776e-10
6.69619e-10
6.42762e-10
6.70636e-10
6.46531e-10
6.75271e-10
6.5158e-10
6.75332e-10
6.4485e-10
6.68147e-10
6.46685e-10
6.71801e-10
6.51015e-10
6.77071e-10
6.61159e-10
6.86405e-10
6.57579e-10
6.80408e-10
6.10606e-10
7.62286e-10
7.88262e-10
-9.65667e-10
6.803e-10
1.9831e-09
2.62646e-10
6.10014e-11
1.80302e-10
4.34663e-12
6.2472e-11
2.4496e-10
3.63389e-10
4.59601e-10
4.82134e-10
5.24999e-10
5.26824e-10
5.61927e-10
5.55506e-10
5.86572e-10
5.7833e-10
6.05016e-10
5.86956e-10
6.12846e-10
5.99103e-10
6.25919e-10
6.05932e-10
6.31274e-10
6.12806e-10
6.39636e-10
6.20068e-10
6.46273e-10
6.23147e-10
6.49411e-10
6.27728e-10
6.55961e-10
6.34616e-10
6.61605e-10
6.34315e-10
6.60969e-10
6.3734e-10
6.66003e-10
6.41827e-10
6.69548e-10
6.42765e-10
6.70494e-10
6.46407e-10
6.75436e-10
6.51571e-10
6.76086e-10
6.44569e-10
6.68846e-10
6.45641e-10
6.7349e-10
6.48985e-10
6.80007e-10
6.5713e-10
6.92707e-10
6.49852e-10
6.92254e-10
5.92483e-10
7.90848e-10
7.94598e-10
-1.07354e-09
8.90305e-10
2.08558e-09
-6.05486e-11
-4.16641e-11
3.01212e-10
6.81036e-11
7.08318e-11
2.44939e-10
3.67176e-10
4.63404e-10
4.8365e-10
5.24424e-10
5.25679e-10
5.60575e-10
5.54307e-10
5.85203e-10
5.77328e-10
6.04137e-10
5.86202e-10
6.11708e-10
5.98326e-10
6.25196e-10
6.0547e-10
6.30459e-10
6.12356e-10
6.39057e-10
6.19842e-10
6.45835e-10
6.22986e-10
6.48859e-10
6.27545e-10
6.55546e-10
6.34623e-10
6.61425e-10
6.3437e-10
6.60506e-10
6.37263e-10
6.65764e-10
6.41891e-10
6.6945e-10
6.42769e-10
6.70342e-10
6.46246e-10
6.75623e-10
6.51504e-10
6.76912e-10
6.44199e-10
6.69679e-10
6.44363e-10
6.75377e-10
6.46622e-10
6.83269e-10
6.5264e-10
6.99394e-10
6.41837e-10
7.04142e-10
5.7565e-10
8.16351e-10
8.03171e-10
-1.18199e-09
1.10981e-09
2.19713e-09
-3.91237e-10
-1.61901e-10
4.27302e-10
1.42635e-10
8.12829e-11
2.43736e-10
3.70547e-10
4.67292e-10
4.85233e-10
5.23708e-10
5.24372e-10
5.59007e-10
5.52966e-10
5.8365e-10
5.76195e-10
6.03087e-10
5.85384e-10
6.10448e-10
5.97475e-10
6.24342e-10
6.04977e-10
6.29549e-10
6.11872e-10
6.3839e-10
6.1961e-10
6.45321e-10
6.22836e-10
6.48243e-10
6.27365e-10
6.55072e-10
6.34646e-10
6.6119e-10
6.34458e-10
6.60004e-10
6.37186e-10
6.65486e-10
6.41964e-10
6.69324e-10
6.42772e-10
6.70184e-10
6.46051e-10
6.75826e-10
6.51383e-10
6.7779e-10
6.43754e-10
6.7062e-10
6.429e-10
6.77381e-10
6.44029e-10
6.86691e-10
6.47957e-10
7.06078e-10
6.34123e-10
7.1525e-10
5.61343e-10
8.37141e-10
8.14999e-10
-1.28507e-09
1.32521e-09
2.31376e-09
-7.13116e-10
-2.97199e-10
5.51557e-10
2.26041e-10
9.44987e-11
2.41501e-10
3.73284e-10
4.71125e-10
4.86853e-10
5.22861e-10
5.22912e-10
5.57227e-10
5.51485e-10
5.8192e-10
5.74936e-10
6.01865e-10
5.84501e-10
6.09075e-10
5.96554e-10
6.23357e-10
6.04448e-10
6.28547e-10
6.11353e-10
6.37635e-10
6.1937e-10
6.4473e-10
6.22688e-10
6.47565e-10
6.27186e-10
6.54541e-10
6.34682e-10
6.60898e-10
6.34572e-10
6.59469e-10
6.37107e-10
6.65167e-10
6.4204e-10
6.69169e-10
6.42771e-10
6.70019e-10
6.45827e-10
6.76037e-10
6.51216e-10
6.78691e-10
6.43261e-10
6.71633e-10
6.41319e-10
6.79404e-10
6.41361e-10
6.90076e-10
6.43372e-10
7.12354e-10
6.27269e-10
7.24848e-10
5.50506e-10
8.52355e-10
8.30162e-10
-1.37696e-09
1.52494e-09
2.42968e-09
-1.01265e-09
-4.43004e-10
6.67637e-10
3.15773e-10
1.11092e-10
2.38545e-10
3.75194e-10
4.74742e-10
4.88479e-10
5.219e-10
5.21318e-10
5.55246e-10
5.49871e-10
5.80021e-10
5.73557e-10
6.00473e-10
5.83552e-10
6.07598e-10
5.95566e-10
6.2224e-10
6.0388e-10
6.2746e-10
6.10801e-10
6.36791e-10
6.19118e-10
6.44062e-10
6.2254e-10
6.4683e-10
6.27005e-10
6.53954e-10
6.34724e-10
6.60548e-10
6.34704e-10
6.58907e-10
6.37026e-10
6.64803e-10
6.42117e-10
6.68984e-10
6.4277e-10
6.69846e-10
6.45585e-10
6.76241e-10
6.51019e-10
6.79577e-10
6.42755e-10
6.72661e-10
6.39708e-10
6.81335e-10
6.3877e-10
6.93218e-10
6.39179e-10
7.17852e-10
6.21743e-10
7.32411e-10
5.43682e-10
8.61777e-10
8.47976e-10
-1.45274e-09
1.70018e-09
2.53853e-09
-1.27834e-09
-5.93454e-10
7.70204e-10
4.08847e-10
1.31486e-10
2.35286e-10
3.7612e-10
4.77965e-10
4.90072e-10
5.20848e-10
5.1961e-10
5.53078e-10
5.48133e-10
5.77965e-10
5.72068e-10
5.98915e-10
5.82536e-10
6.06025e-10
5.9452e-10
6.20996e-10
6.0327e-10
6.26292e-10
6.10218e-10
6.35862e-10
6.1885e-10
6.43319e-10
6.22389e-10
6.46044e-10
6.26824e-10
6.53312e-10
6.3477e-10
6.6014e-10
6.3485e-10
6.58321e-10
6.36945e-10
6.64396e-10
6.42195e-10
6.68765e-10
6.42771e-10
6.69657e-10
6.45339e-10
6.76413e-10
6.50816e-10
6.8041e-10
6.42279e-10
6.73636e-10
6.38165e-10
6.83057e-10
6.36415e-10
6.95927e-10
6.35635e-10
7.22271e-10
6.17881e-10
7.37628e-10
5.41056e-10
8.65676e-10
8.67253e-10
-1.50831e-09
1.84452e-09
2.63393e-09
-1.5019e-09
-7.42294e-10
8.55278e-10
5.02073e-10
1.55871e-10
2.32207e-10
3.75956e-10
4.80607e-10
4.91578e-10
5.19722e-10
5.1781e-10
5.50737e-10
5.46279e-10
5.75763e-10
5.70478e-10
5.972e-10
5.81457e-10
6.04367e-10
5.93422e-10
6.19631e-10
6.02617e-10
6.25051e-10
6.09607e-10
6.3485e-10
6.18564e-10
6.42506e-10
6.22235e-10
6.45211e-10
6.26643e-10
6.52617e-10
6.34816e-10
6.59674e-10
6.35006e-10
6.57714e-10
6.36869e-10
6.63941e-10
6.42275e-10
6.68504e-10