/*--------------------------------*- C++ -*----------------------------------*\
| =========                 |                                                 |
| \\      /  F ield         | OpenFOAM: The Open Source CFD Toolbox           |
|  \\    /   O peration     | Version:  2312                                  |
|   \\  /    A nd           | Website:  www.openfoam.com                      |
|    \\/     M anipulation  |                                                 |
\*---------------------------------------------------------------------------*/
FoamFile
{
    version     2.0;
    format      ascii;
    arch        "LSB;label=32;scalar=64";
    class       volScalarField;
    location    "80";
    object      p;
}
// * * * * * * * * * * * * * * * * * * * * * * * * * * * * * * * * * * * * * //

dimensions      [0 2 -2 0 0 0 0];

internalField   nonuniform List<scalar> 
144000
(
2.89359e-09
-1.49694e-10
-2.54431e-09
-2.35041e-09
-1.03284e-09
-1.08316e-10
1.9521e-10
7.97016e-10
1.10476e-09
1.223e-09
1.1272e-09
1.30162e-09
9.42239e-10
1.11416e-09
1.5347e-09
2.02687e-09
1.72356e-09
6.59152e-10
2.09315e-10
-4.04419e-10
8.3339e-10
1.1534e-09
2.54669e-09
2.29507e-09
2.2483e-09
1.85308e-09
9.68798e-10
8.43625e-10
2.60656e-10
2.49649e-11
2.96256e-10
-3.23867e-10
2.58719e-10
-1.67609e-10
-7.60418e-11
1.35193e-10
-1.05704e-10
-1.17267e-11
2.28307e-10
-2.73718e-10
1.87023e-10
-1.19098e-10
-1.86607e-10
5.48801e-12
-1.93343e-10
-3.0636e-10
1.0884e-10
-3.89143e-10
-1.07618e-10
7.81526e-11
-2.69849e-10
-7.00163e-11
2.49057e-10
-1.83338e-10
-4.62071e-11
4.73618e-10
-5.2121e-11
5.91421e-10
-3.63522e-09
-2.69007e-11
2.99768e-09
-6.72815e-11
-2.57241e-09
-2.38055e-09
-1.03972e-09
-1.05405e-10
1.90589e-10
7.94898e-10
1.10556e-09
1.22218e-09
1.12393e-09
1.3037e-09
9.41507e-10
1.10674e-09
1.53225e-09
2.02897e-09
1.73604e-09
6.57714e-10
2.12185e-10
-4.17039e-10
8.30474e-10
1.14926e-09
2.54682e-09
2.30659e-09
2.24177e-09
1.86864e-09
9.61466e-10
8.50582e-10
2.63e-10
1.69279e-11
3.06791e-10
-3.31886e-10
2.61314e-10
-1.63548e-10
-8.50326e-11
1.44415e-10
-1.09163e-10
-1.49759e-11
2.35999e-10
-2.79932e-10
1.88083e-10
-1.14235e-10
-1.94975e-10
1.29186e-11
-1.93382e-10
-3.11867e-10
1.15247e-10
-3.90469e-10
-1.13689e-10
8.81272e-11
-2.7515e-10
-7.3573e-11
2.57179e-10
-1.86038e-10
-5.26003e-11
4.85295e-10
-4.92805e-11
6.45435e-10
-3.68901e-09
-1.53744e-10
3.10157e-09
-7.34044e-11
-2.59048e-09
-2.3725e-09
-1.04292e-09
-1.02127e-10
1.82601e-10
7.92875e-10
1.10709e-09
1.22139e-09
1.11756e-09
1.30736e-09
9.39213e-10
1.0984e-09
1.52893e-09
2.03268e-09
1.75142e-09
6.53051e-10
2.16901e-10
-4.38322e-10
8.30523e-10
1.14122e-09
2.55125e-09
2.32028e-09
2.23336e-09
1.88885e-09
9.49005e-10
8.56914e-10
2.65925e-10
3.80378e-12
3.23972e-10
-3.46191e-10
2.67375e-10
-1.58626e-10
-9.82798e-11
1.57236e-10
-1.14187e-10
-2.04099e-11
2.49207e-10
-2.91206e-10
1.91408e-10
-1.07736e-10
-2.07409e-10
2.15498e-11
-1.93167e-10
-3.21464e-10
1.26898e-10
-3.94527e-10
-1.21778e-10
1.02587e-10
-2.82549e-10
-7.9873e-11
2.71708e-10
-1.93056e-10
-5.94432e-11
4.88459e-10
-5.18382e-11
7.24e-10
-3.77207e-09
-2.16599e-10
3.18092e-09
-2.61614e-10
-2.58838e-09
-2.30433e-09
-1.03621e-09
-1.02454e-10
1.72097e-10
7.91219e-10
1.10886e-09
1.21991e-09
1.10832e-09
1.31069e-09
9.3734e-10
1.09094e-09
1.52445e-09
2.03293e-09
1.76554e-09
6.46626e-10
2.25185e-10
-4.62263e-10
8.33325e-10
1.13211e-09
2.55382e-09
2.33396e-09
2.22067e-09
1.91158e-09
9.335e-10
8.6397e-10
2.70734e-10
-1.21654e-11
3.45633e-10
-3.62663e-10
2.73941e-10
-1.51066e-10
-1.15342e-10
1.73325e-10
-1.20219e-10
-2.72972e-11
2.65489e-10
-3.04353e-10
1.94603e-10
-9.89606e-11
-2.23128e-10
3.14915e-11
-1.93084e-10
-3.33157e-10
1.40872e-10
-3.99189e-10
-1.31511e-10
1.19585e-10
-2.9073e-10
-8.84826e-11
2.90962e-10
-2.04317e-10
-6.23133e-11
4.78263e-10
-3.31659e-11
7.74487e-10
-3.8827e-09
-1.21567e-10
3.23989e-09
-7.15749e-10
-2.57408e-09
-2.11207e-09
-1.00828e-09
-1.09557e-10
1.58988e-10
7.89547e-10
1.10964e-09
1.21694e-09
1.09645e-09
1.3125e-09
9.36894e-10
1.08549e-09
1.51706e-09
2.02556e-09
1.77444e-09
6.41133e-10
2.39993e-10
-4.77476e-10
8.38767e-10
1.12116e-09
2.5494e-09
2.34319e-09
2.20315e-09
1.93319e-09
9.18163e-10
8.70788e-10
2.79136e-10
-2.8439e-11
3.69833e-10
-3.77668e-10
2.79131e-10
-1.40018e-10
-1.34923e-10
1.90773e-10
-1.25693e-10
-3.53801e-11
2.83112e-10
-3.16984e-10
1.96128e-10
-8.76637e-11
-2.40922e-10
4.11546e-11
-1.92929e-10
-3.45586e-10
1.5487e-10
-4.02885e-10
-1.42542e-10
1.37102e-10
-2.98111e-10
-9.94445e-11
3.13259e-10
-2.19512e-10
-5.75349e-11
4.50087e-10
1.96373e-11
7.71527e-10
-4.03655e-09
2.10219e-10
3.30957e-09
-1.45437e-09
-2.57571e-09
-1.79767e-09
-9.48006e-10
-1.24831e-10
1.42897e-10
7.87716e-10
1.10846e-09
1.21198e-09
1.08263e-09
1.31228e-09
9.37897e-10
1.08234e-09
1.5059e-09
2.00855e-09
1.77575e-09
6.37911e-10
2.62755e-10
-4.81375e-10
8.47477e-10
1.10784e-09
2.53536e-09
2.34366e-09
2.18078e-09
1.95011e-09
9.05166e-10
8.76673e-10
2.9167e-10
-4.23269e-11
3.94547e-10
-3.88086e-10
2.81737e-10
-1.25397e-10
-1.55183e-10
2.07661e-10
-1.29057e-10
-4.44353e-11
3.00588e-10
-3.27021e-10
1.95069e-10
-7.40476e-11
-2.59481e-10
4.90967e-11
-1.92344e-10
-3.57484e-10
1.67114e-10
-4.04636e-10
-1.54255e-10
1.533e-10
-3.03335e-10
-1.12231e-10
3.37116e-10
-2.3835e-10
-4.27336e-11
4.01776e-10
1.07455e-10
7.15929e-10
-4.24811e-09
7.87272e-10
3.42597e-09
-2.43112e-09
-2.6223e-09
-1.37468e-09
-8.48514e-10
-1.47976e-10
1.23099e-10
7.85626e-10
1.10479e-09
1.20473e-09
1.06767e-09
1.30995e-09
9.39847e-10
1.08104e-09
1.49089e-09
1.98182e-09
1.76878e-09
6.37073e-10
2.93296e-10
-4.72517e-10
8.60363e-10
1.09205e-09
2.51126e-09
2.33261e-09
2.15363e-09
1.95993e-09
8.94779e-10
8.81848e-10
3.07327e-10
-5.1168e-11
4.17806e-10
-3.91956e-10
2.81558e-10
-1.08067e-10
-1.7404e-10
2.22359e-10
-1.29436e-10
-5.36356e-11
3.1636e-10
-3.3267e-10
1.91164e-10
-5.86736e-11
-2.77471e-10
5.41971e-11
-1.8934e-10
-3.67539e-10
1.76182e-10
-4.03938e-10
-1.65749e-10
1.6654e-10
-3.05531e-10
-1.26134e-10
3.60877e-10
-2.60025e-10
-1.77219e-11
3.37501e-10
2.19478e-10
6.27516e-10
-4.51679e-09
1.58462e-09
3.60686e-09
-3.53308e-09
-2.72677e-09
-8.80473e-10
-7.08917e-10
-1.77034e-10
9.85699e-11
7.82811e-10
1.09853e-09
1.19496e-09
1.05209e-09
1.30557e-09
9.42433e-10
1.08081e-09
1.4722e-09
1.94624e-09
1.75436e-09
6.38197e-10
3.307e-10
-4.5167e-10
8.77917e-10
1.07386e-09
2.47795e-09
2.30955e-09
2.12172e-09
1.96206e-09
8.85667e-10
8.87159e-10
3.24168e-10
-5.31498e-11
4.38442e-10
-3.89119e-10
2.79617e-10
-8.9676e-11
-1.89765e-10
2.33994e-10
-1.27119e-10
-6.15353e-11
3.2908e-10
-3.32828e-10
1.85128e-10
-4.27035e-11
-2.93729e-10
5.59172e-11
-1.85869e-10
-3.74361e-10
1.81186e-10
-4.009e-10
-1.75842e-10
1.75677e-10
-3.0475e-10
-1.41516e-10
3.82796e-10
-2.82914e-10
1.48211e-11
2.65979e-10
3.34149e-10
5.346e-10
-4.82254e-09
2.42871e-09
3.84285e-09
-4.62431e-09
-2.88817e-09
-3.64342e-10
-5.33491e-10
-2.0812e-10
6.87479e-11
7.78416e-10
1.08986e-09
1.18277e-09
1.03608e-09
1.29907e-09
9.45515e-10
1.081e-09
1.4503e-09
1.90288e-09
1.73419e-09
6.40722e-10
3.73851e-10
-4.21012e-10
8.99918e-10
1.05348e-09
2.43653e-09
2.27563e-09
2.08484e-09
1.95772e-09
8.75685e-10
8.9396e-10
3.40364e-10
-4.76375e-11
4.56747e-10
-3.80878e-10
2.77743e-10
-7.18171e-11
-2.01653e-10
2.42331e-10
-1.23533e-10
-6.67548e-11
3.37859e-10
-3.27699e-10
1.78685e-10
-2.74582e-11
-3.07754e-10
5.46191e-11
-1.82897e-10
-3.76721e-10
1.82093e-10
-3.96297e-10
-1.83409e-10
1.80526e-10
-3.01976e-10
-1.54135e-10
4.01352e-10
-3.0483e-10
5.00065e-11
1.98183e-10
4.29647e-10
4.60194e-10
-5.12394e-09
3.2235e-09
4.10219e-09
-5.58511e-09
-3.09555e-09
1.20909e-10
-3.32069e-10
-2.3643e-10
3.38752e-11
7.71329e-10
1.07902e-09
1.16854e-09
1.01971e-09
1.29015e-09
9.4897e-10
1.08119e-09
1.42614e-09
1.85276e-09
1.71009e-09
6.43979e-10
4.21696e-10
-3.82974e-10
9.25466e-10
1.03156e-09
2.38768e-09
2.23449e-09
2.04256e-09
1.94919e-09
8.63034e-10
9.02484e-10
3.55089e-10
-3.63507e-11
4.74125e-10
-3.69244e-10
2.77501e-10
-5.50172e-11
-2.10025e-10
2.48588e-10
-1.20363e-10
-6.87036e-11
3.42633e-10
-3.18615e-10
1.73944e-10
-1.41051e-11
-3.19988e-10
5.15115e-11
-1.81323e-10
-3.74106e-10
1.7978e-10
-3.91207e-10
-1.8789e-10
1.82005e-10
-2.98692e-10
-1.62432e-10
4.15137e-10
-3.23161e-10
8.21841e-11
1.42754e-10
4.90679e-10
4.15315e-10
-5.36968e-09
3.86471e-09
4.34674e-09
-6.29781e-09
-3.32838e-09
5.28576e-10
-1.18605e-10
-2.57285e-10
-4.86815e-12
7.60378e-10
1.06614e-09
1.15289e-09
1.00321e-09
1.27836e-09
9.52581e-10
1.08101e-09
1.40091e-09
1.79703e-09
1.68362e-09
6.47076e-10
4.72979e-10
-3.39459e-10
9.53259e-10
1.00932e-09
2.33148e-09
2.18917e-09
1.99452e-09
1.93885e-09
8.47166e-10
9.11978e-10
3.68711e-10
-2.19253e-11
4.91954e-10
-3.55871e-10
2.79498e-10
-3.8716e-11
-2.16093e-10
2.54135e-10
-1.18719e-10
-6.77115e-11
3.44024e-10
-3.07294e-10
1.72648e-10
-3.71538e-12
-3.31641e-10
4.82014e-11
-1.81713e-10
-3.66874e-10
1.75677e-10
-3.8646e-10
-1.89552e-10
1.81673e-10
-2.96266e-10
-1.66507e-10
4.22963e-10
-3.3497e-10
1.06084e-10
1.10681e-10
5.11642e-10
4.0191e-10
-5.50474e-09
4.27826e-09
4.5158e-09
-6.72227e-09
-3.56074e-09
8.31084e-10
9.29981e-11
-2.66388e-10
-4.52109e-11
7.44616e-10
1.05111e-09
1.13647e-09
9.8709e-10
1.26333e-09
9.55937e-10
1.08004e-09
1.3749e-09
1.73714e-09
1.65611e-09
6.49169e-10
5.25919e-10
-2.9177e-10
9.81836e-10
9.88375e-10
2.26758e-09
2.14253e-09
1.94088e-09
1.92813e-09
8.28904e-10
9.21188e-10
3.82319e-10
-7.00299e-12
5.10747e-10
-3.41622e-10
2.83421e-10
-2.20275e-11
-2.20734e-10
2.60079e-10
-1.18963e-10
-6.44643e-11
3.43073e-10
-2.95512e-10
1.76506e-10
2.92215e-12
-3.45244e-10
4.62757e-11
-1.84105e-10
-3.56062e-10
1.71256e-10
-3.82367e-10
-1.89298e-10
1.81181e-10
-2.95552e-10
-1.6605e-10
4.24122e-10
-3.3793e-10
1.18148e-10
1.01475e-10
4.94218e-10
4.14418e-10
-5.50226e-09
4.43676e-09
4.57606e-09
-6.84586e-09
-3.74176e-09
1.01563e-09
2.89087e-10
-2.61354e-10
-8.44206e-11
7.23492e-10
1.03349e-09
1.11967e-09
9.72022e-10
1.24511e-09
9.58509e-10
1.0778e-09
1.35127e-09
1.67467e-09
1.62868e-09
6.49924e-10
5.78333e-10
-2.40907e-10
1.00974e-09
9.70454e-10
2.1969e-09
2.09651e-09
1.88242e-09
1.9173e-09
8.09787e-10
9.28912e-10
3.97046e-10
6.6601e-12
5.30221e-10
-3.27052e-10
2.88365e-10
-4.21585e-12
-2.24412e-10
2.67284e-10
-1.21028e-10
-5.95234e-11
3.4024e-10
-2.84846e-10
1.87368e-10
4.95551e-12
-3.63743e-10
4.69025e-11
-1.88002e-10
-3.42918e-10
1.67684e-10
-3.78651e-10
-1.88222e-10
1.81715e-10
-2.96856e-10
-1.60967e-10
4.18285e-10
-3.31137e-10
1.17396e-10
1.14662e-10
4.42478e-10
4.39796e-10
-5.3537e-09
4.34803e-09
4.51231e-09
-6.68692e-09
-3.85635e-09
1.08342e-09
4.57878e-10
-2.41925e-10
-1.19699e-10
6.97157e-10
1.01275e-09
1.10252e-09
9.58597e-10
1.22416e-09
9.59953e-10
1.07372e-09
1.32942e-09
1.61133e-09
1.60219e-09
6.49414e-10
6.28086e-10
-1.87829e-10
1.03568e-09
9.56942e-10
2.12039e-09
2.05221e-09
1.82038e-09
1.90581e-09
7.91245e-10
9.34341e-10
4.13625e-10
1.83963e-11
5.49822e-10
-3.12612e-10
2.93403e-10
1.50227e-11
-2.27506e-10
2.76405e-10
-1.24657e-10
-5.32824e-11
3.3677e-10
-2.76615e-10
2.06976e-10
1.53892e-12
-3.90491e-10
5.04021e-11
-1.92661e-10
-3.28752e-10
1.65625e-10
-3.74699e-10
-1.87146e-10
1.83761e-10
-3.00029e-10
-1.51285e-10
4.05523e-10
-3.15192e-10
1.05549e-10
1.46774e-10
3.63246e-10
4.66748e-10
-5.06893e-09
4.04805e-09
4.32174e-09
-6.29407e-09
-3.89208e-09
1.04918e-09
5.91729e-10
-2.09466e-10
-1.48524e-10
6.66494e-10
9.88548e-10
1.08477e-09
9.47087e-10
1.20119e-09
9.60215e-10
1.06737e-09
1.30921e-09
1.54861e-09
1.57724e-09
6.48118e-10
6.73498e-10
-1.33507e-10
1.05866e-09
9.48492e-10
2.03977e-09
2.01016e-09
1.75631e-09
1.8929e-09
7.74142e-10
9.37067e-10
4.32315e-10
2.82543e-11
5.69118e-10
-2.98589e-10
2.97917e-10
3.55656e-11
-2.30475e-10
2.8775e-10
-1.29392e-10
-4.62334e-11
3.3386e-10
-2.7192e-10
2.38306e-10
-5.89692e-12
-4.28547e-10
5.54451e-11
-1.95779e-10
-3.14782e-10
1.65042e-10
-3.70052e-10
-1.86463e-10
1.87296e-10
-3.04787e-10
-1.37239e-10
3.86523e-10
-2.91847e-10
8.59437e-11
1.9216e-10
2.7307e-10
4.85507e-10
-4.66981e-09
3.58901e-09
4.01445e-09
-5.72855e-09
-3.84435e-09
9.34538e-10
6.87133e-10
-1.6672e-10
-1.69147e-10
6.3283e-10
9.60895e-10
1.06607e-09
9.37387e-10
1.1769e-09
9.59432e-10
1.05873e-09
1.29026e-09
1.48752e-09
1.55406e-09
6.46678e-10
7.13561e-10
-7.88215e-11
1.07808e-09
9.44966e-10
1.95681e-09
1.9706e-09
1.69175e-09
1.8781e-09
7.58795e-10
9.36943e-10
4.53032e-10
3.65173e-11
5.8794e-10
-2.85144e-10
3.01493e-10
5.7195e-11
-2.33806e-10
3.01241e-10
-1.34705e-10
-3.89243e-11
3.32298e-10
-2.71142e-10
2.79028e-10
-6.40564e-12
-4.75138e-10
6.11766e-11
-2.03202e-10
-3.0188e-10
1.6549e-10
-3.64652e-10
-1.86248e-10
1.92041e-10
-3.10884e-10
-1.19352e-10
3.62672e-10
-2.63565e-10
6.22466e-11
2.44784e-10
1.80664e-10
4.89078e-10
-4.18617e-09
3.02802e-09
3.60604e-09
-5.05156e-09
-3.71416e-09
7.63853e-10
7.43599e-10
-1.17357e-10
-1.80783e-10
5.97567e-10
9.3008e-10
1.04617e-09
9.29135e-10
1.15184e-09
9.57802e-10
1.04811e-09
1.2721e-09
1.42866e-09
1.5326e-09
6.45661e-10
7.47908e-10
-2.44879e-11
1.09367e-09
9.45743e-10
1.87307e-09
1.93358e-09
1.62811e-09
1.86122e-09
7.45182e-10
9.33958e-10
4.75486e-10
4.34364e-11
6.06286e-10
-2.72277e-10
3.03846e-10
7.98423e-11
-2.38051e-10
3.16831e-10
-1.40417e-10
-3.12766e-11
3.31201e-10
-2.72435e-10
3.01332e-10
-1.34424e-13
-5.00502e-10
7.3279e-11
-2.1128e-10
-2.901e-10
1.66913e-10
-3.58523e-10
-1.86253e-10
1.97728e-10
-3.1807e-10
-9.83654e-11
3.35737e-10
-2.32987e-10
3.7919e-11
2.99186e-10
9.27106e-11
4.74472e-10
-3.6472e-09
2.41685e-09
3.11954e-09
-4.31924e-09
-3.50992e-09
5.60339e-10
7.63331e-10
-6.51472e-11
-1.83356e-10
5.62042e-10
8.96554e-10
1.02497e-09
9.21896e-10
1.12636e-09
9.55493e-10
1.03599e-09
1.25436e-09
1.37236e-09
1.51264e-09
6.45427e-10
7.76609e-10
2.89709e-11
1.10546e-09
9.50044e-10
1.78976e-09
1.89911e-09
1.56646e-09
1.84223e-09
7.33108e-10
9.28169e-10
4.99316e-10
4.91612e-11
6.24188e-10
-2.5984e-10
3.04797e-10
1.03518e-10
-2.43592e-10
3.34192e-10
-1.46791e-10
-2.31997e-11
3.29636e-10
-2.73779e-10
2.86046e-10
1.62986e-12
-4.81812e-10
9.66357e-11
-2.16415e-10
-2.79088e-10
1.69567e-10
-3.51812e-10
-1.86117e-10
2.0416e-10
-3.26104e-10
-7.52158e-11
3.07665e-10
-2.02528e-10
1.58697e-11
3.50927e-10
1.4139e-11
4.41827e-10
-3.08177e-09
1.79935e-09
2.58009e-09
-3.57883e-09
-3.2443e-09
3.44686e-10
7.50547e-10
-1.36471e-11
-1.77406e-10
5.27427e-10
8.60878e-10
1.00252e-09
9.1526e-10
1.10068e-09
9.52605e-10
1.02289e-09
1.23678e-09
1.31881e-09
1.49393e-09
6.46107e-10
7.99976e-10
8.12042e-11
1.11373e-09
9.56991e-10
1.70769e-09
1.86708e-09
1.50755e-09
1.82136e-09
7.22411e-10
9.19676e-10
5.24164e-10
5.37688e-11
6.41659e-10
-2.47645e-10
3.04305e-10
1.28146e-10
-2.50393e-10
3.52637e-10
-1.52452e-10
-1.57413e-11
3.28967e-10
-2.76742e-10
2.54952e-10
1.07836e-11
-4.39901e-10
1.25502e-10
-2.22471e-10
-2.6933e-10
1.73053e-10
-3.45077e-10
-1.85701e-10
2.11085e-10
-3.3488e-10
-5.10518e-11
2.80283e-10
-1.74145e-10
-1.65625e-12
3.96656e-10
-5.22779e-11
3.93639e-10
-2.51517e-09
1.20913e-09
2.01175e-09
-2.86422e-09
-2.93109e-09
1.34751e-10
7.1108e-10
3.41889e-11
-1.63884e-10
4.94664e-10
8.2361e-10
9.78953e-10
9.08884e-10
1.07494e-09
9.49173e-10
1.00922e-09
1.2192e-09
1.26809e-09
1.4762e-09
6.47669e-10
8.1842e-10
1.32e-10
1.1189e-09
9.65728e-10
1.62735e-09
1.83729e-09
1.45188e-09
1.79898e-09
7.12996e-10
9.08617e-10
5.49713e-10
5.73366e-11
6.58643e-10
-2.35497e-10
3.02378e-10
1.53666e-10
-2.58296e-10
3.71555e-10
-1.57163e-10
-9.84275e-12
3.30408e-10
-2.82405e-10
2.3233e-10
2.82314e-11
-4.09378e-10
1.53178e-10
-2.29967e-10
-2.61202e-10
1.76807e-10
-3.38805e-10
-1.84851e-10
2.18263e-10
-3.43723e-10
-2.68941e-11
2.55024e-10
-1.49306e-10
-1.31372e-11
4.34294e-10
-1.05433e-10
3.33796e-10
-1.96879e-09
6.70689e-10
1.43313e-09
-2.21485e-09
-2.58246e-09
-5.4364e-11
6.51608e-10
7.60371e-11
-1.44086e-10
4.64424e-10
7.85253e-10
9.54391e-10
9.02499e-10
1.04921e-09
9.45197e-10
9.95333e-10
1.20151e-09
1.22022e-09
1.45925e-09
6.49995e-10
8.32358e-10
1.81244e-10
1.12143e-09
9.75575e-10
1.54905e-09
1.80956e-09
1.39978e-09
1.77536e-09
7.04762e-10
8.95174e-10
5.75695e-10
5.99715e-11
6.7502e-10
-2.2322e-10
2.9905e-10
1.80043e-10
-2.67159e-10
3.90562e-10
-1.60862e-10
-5.53831e-12
3.33834e-10
-2.89718e-10
2.20689e-10
4.23586e-11
-3.90745e-10
1.79602e-10
-2.36908e-10
-2.54292e-10
1.81891e-10
-3.33228e-10
-1.83335e-10
2.25498e-10
-3.52285e-10
-3.58885e-12
2.32896e-10
-1.2897e-10
-1.77868e-11
4.62939e-10
-1.45737e-10
2.67053e-10
-1.45783e-09
1.9889e-10
8.60726e-10
-1.64191e-09
-2.21148e-09
-2.12769e-10
5.78406e-10
1.10173e-10
-1.19509e-10
4.37126e-10
7.46274e-10
9.28984e-10
8.95901e-10
1.02354e-09
9.40682e-10
9.81464e-10
1.18365e-09
1.17517e-09
1.44295e-09
6.52931e-10
8.42186e-10
2.28885e-10
1.12176e-09
9.85992e-10
1.47297e-09
1.78365e-09
1.35144e-09
1.75071e-09
6.97624e-10
8.79562e-10
6.01898e-10
6.18056e-11
6.9065e-10
-2.10696e-10
2.94409e-10
2.07166e-10
-2.76748e-10
4.09282e-10
-1.63482e-10
-2.77358e-12
3.39034e-10
-2.97878e-10
2.16036e-10
5.27452e-11
-3.80702e-10
2.06003e-10
-2.42376e-10
-2.4836e-10
1.88082e-10
-3.28575e-10
-1.81034e-10
2.32581e-10
-3.60204e-10
1.81779e-11
2.14577e-10
-1.13621e-10
-1.54118e-11
4.8239e-10
-1.74505e-10
1.97608e-10
-9.91702e-10
-1.99087e-10
3.09021e-10
-1.15632e-09
-1.83206e-09
-3.34906e-10
4.97363e-10
1.35754e-10
-9.1557e-11
4.13027e-10
7.07124e-10
9.02907e-10
8.88943e-10
9.97964e-10
9.35647e-10
9.67791e-10
1.16556e-09
1.13288e-09
1.42722e-09
6.56313e-10
8.48275e-10
2.74914e-10
1.12032e-09
9.9653e-10
1.39921e-09
1.75932e-09
1.30694e-09
1.72516e-09
6.91494e-10
8.62019e-10
6.28126e-10
6.30115e-11
7.05386e-10
-1.97844e-10
2.88571e-10
2.34869e-10
-2.8679e-10
4.27369e-10
-1.64842e-10
-1.63247e-12
3.4589e-10
-3.06512e-10
2.15516e-10
6.07972e-11
-3.76056e-10
2.32473e-10
-2.46419e-10
-2.43468e-10
1.95373e-10
-3.25045e-10
-1.77889e-10
2.39331e-10
-3.67169e-10
3.79469e-11
2.00406e-10
-1.03359e-10
-6.19098e-12
4.92747e-10
-1.936e-10
1.28658e-10
-5.75318e-10
-5.20019e-10
-2.112e-10
-7.6566e-10
-1.45652e-09
-4.17848e-10
4.14206e-10
1.52901e-10
-6.13582e-11
3.92258e-10
6.68195e-10
8.76319e-10
8.81511e-10
9.72501e-10
9.30107e-10
9.54411e-10
1.14718e-09
1.09327e-09
1.41199e-09
6.59963e-10
8.50964e-10
3.19344e-10
1.11748e-09
1.0068e-09
1.32782e-09
1.73638e-09
1.26629e-09
1.69885e-09
6.86237e-10
8.42824e-10
6.54184e-10
6.37971e-11
7.19094e-10
-1.8465e-10
2.81691e-10
2.62953e-10
-2.97016e-10
4.44585e-10
-1.64877e-10
-2.1231e-12
3.5433e-10
-3.15476e-10
2.1753e-10
6.79304e-11
-3.75116e-10
2.58457e-10
-2.49282e-10
-2.39649e-10
2.03749e-10
-3.22746e-10
-1.73834e-10
2.45604e-10
-3.72954e-10
5.55129e-11
1.90412e-10
-9.79557e-11
9.38571e-12
4.94586e-10
-2.04406e-10
6.15032e-11
-2.10948e-10
-7.61588e-10
-6.91259e-10
-4.72862e-10
-1.09474e-09
-4.60928e-10
3.33609e-10
1.62141e-10
-2.98683e-11
3.74837e-10
6.29817e-10
8.4935e-10
8.73499e-10
9.47142e-10
9.24101e-10
9.41364e-10
1.12844e-09
1.05622e-09
1.39727e-09
6.63723e-10
8.50533e-10
3.62226e-10
1.11356e-09
1.01652e-09
1.25872e-09
1.71472e-09
1.22939e-09
1.67191e-09
6.81673e-10
8.22244e-10
6.7994e-10
6.4312e-11
7.31729e-10
-1.71185e-10
2.73942e-10
2.91248e-10
-3.07248e-10
4.60837e-10
-1.63658e-10
-4.101e-12
3.64209e-10
-3.24776e-10
2.21263e-10
7.48736e-11
-3.76967e-10
2.83512e-10
-2.51173e-10
-2.36844e-10
2.13257e-10
-3.21752e-10
-1.68822e-10
2.51308e-10
-3.77482e-10
7.08525e-11
1.8446e-10
-9.70759e-11
3.07355e-11
4.88637e-10
-2.07844e-10
-3.62212e-12
9.9654e-11
-9.2332e-10
2.91497e-09
-1.41302e-10
-2.54653e-09
-2.35e-09
-1.02997e-09
-1.01569e-10
2.03967e-10
8.0541e-10
1.11136e-09
1.22688e-09
1.12877e-09
1.30161e-09
9.41069e-10
1.11233e-09
1.53242e-09
2.02473e-09
1.72174e-09
6.57809e-10
2.0824e-10
-4.05508e-10
8.32799e-10
1.15271e-09
2.54685e-09
2.29483e-09
2.24866e-09
1.85318e-09
9.69107e-10
8.44026e-10
2.61056e-10
2.51108e-11
2.96621e-10
-3.2439e-10
2.58751e-10
-1.68429e-10
-7.62711e-11
1.34529e-10
-1.0555e-10
-1.24812e-11
2.29363e-10
-2.73797e-10
1.88453e-10
-1.16396e-10
-1.857e-10
5.83054e-12
-1.93621e-10
-3.0751e-10
1.07166e-10
-3.91398e-10
-1.09884e-10
7.51831e-11
-2.73107e-10
-7.38738e-11
2.44944e-10
-1.8791e-10
-5.06806e-11
4.69903e-10
-5.33656e-11
5.88646e-10
-3.65127e-09
-2.65308e-11
3.01981e-09
-5.81559e-11
-2.57488e-09
-2.38028e-09
-1.03681e-09
-9.86267e-11
1.99418e-10
8.03322e-10
1.11217e-09
1.22605e-09
1.12549e-09
1.30369e-09
9.40323e-10
1.10488e-09
1.52995e-09
2.02678e-09
1.7342e-09
6.56355e-10
2.11107e-10
-4.18143e-10
8.29889e-10
1.14855e-09
2.54698e-09
2.30635e-09
2.24212e-09
1.86875e-09
9.61761e-10
8.51022e-10
2.63402e-10
1.70834e-11
3.07171e-10
-3.32415e-10
2.61348e-10
-1.64348e-10
-8.52914e-11
1.43755e-10
-1.08991e-10
-1.57182e-11
2.37052e-10
-2.79952e-10
1.89591e-10
-1.11426e-10
-1.93916e-10
1.32403e-11
-1.93693e-10
-3.13042e-10
1.13565e-10
-3.92734e-10
-1.15965e-10
8.51484e-11
-2.78449e-10
-7.74511e-11
2.53043e-10
-1.90628e-10
-5.70905e-11
4.8144e-10
-5.04281e-11
6.43004e-10
-3.70553e-09
-1.54169e-10
3.12419e-09
-6.28608e-11
-2.59299e-09
-2.37242e-09
-1.04003e-09
-9.53704e-11
1.9151e-10
8.01351e-10
1.11376e-09
1.22527e-09
1.11911e-09
1.30733e-09
9.38007e-10
1.09652e-09
1.52659e-09
2.03044e-09
1.74955e-09
6.5167e-10
2.15821e-10
-4.39446e-10
8.2995e-10
1.14048e-09
2.55142e-09
2.32004e-09
2.2337e-09
1.88895e-09
9.49279e-10
8.57379e-10
2.66334e-10
3.97446e-12
3.24371e-10
-3.46729e-10
2.67415e-10
-1.59397e-10
-9.85712e-11
1.56583e-10
-1.13992e-10
-2.11517e-11
2.50264e-10
-2.91193e-10
1.93055e-10
-1.04803e-10
-2.06128e-10
2.21374e-11
-1.93475e-10
-3.22682e-10
1.25202e-10
-3.96802e-10
-1.24057e-10
9.96032e-11
-2.85865e-10
-8.37794e-11
2.67556e-10
-1.97668e-10
-6.39593e-11
4.84615e-10
-5.29016e-11
7.22295e-10
-3.78895e-09
-2.187e-10
3.20323e-09
-2.49179e-10
-2.5905e-09
-2.30466e-09
-1.03341e-09
-9.57465e-11
1.8111e-10
7.99786e-10
1.11561e-09
1.22384e-09
1.10986e-09
1.31065e-09
9.36111e-10
1.08904e-09
1.52205e-09
2.03066e-09
1.76363e-09
6.45217e-10
2.24098e-10
-4.63536e-10
8.32759e-10
1.13135e-09
2.55401e-09
2.33373e-09
2.221e-09
1.91169e-09
9.33738e-10
8.64465e-10
2.7115e-10
-1.19654e-11
3.46056e-10
-3.63194e-10
2.73976e-10
-1.51798e-10
-1.15675e-10
1.72696e-10
-1.2004e-10
-2.80398e-11
2.66533e-10
-3.04407e-10
1.96478e-10
-9.59863e-11
-2.21551e-10
3.26433e-11
-1.93634e-10
-3.34445e-10
1.39156e-10
-4.01461e-10
-1.33781e-10
1.16603e-10
-2.94055e-10
-9.23809e-11
2.86787e-10
-2.08956e-10
-6.68848e-11
4.744e-10
-3.42481e-11
7.73728e-10
-3.89947e-09
-1.25876e-10
3.26088e-09
-7.01508e-10
-2.57536e-09
-2.11267e-09
-1.00561e-09
-1.02911e-10
1.6813e-10
7.98249e-10
1.11652e-09
1.22094e-09
1.09799e-09
1.31245e-09
9.35644e-10
1.08358e-09
1.51461e-09
2.02323e-09
1.77249e-09
6.39686e-10
2.38899e-10
-4.78776e-10
8.38202e-10
1.12039e-09
2.54961e-09
2.34298e-09
2.20345e-09
1.9333e-09
9.18348e-10
8.71317e-10
2.79553e-10
-2.81968e-11
3.70281e-10
-3.78177e-10
2.79126e-10
-1.40689e-10
-1.35322e-10
1.902e-10
-1.25567e-10
-3.61187e-11
2.84157e-10
-3.17222e-10
1.98349e-10
-8.48604e-11
-2.39006e-10
4.33232e-11
-1.9289e-10
-3.47009e-10
1.53124e-10
-4.05134e-10
-1.4479e-10
1.34132e-10
-3.01435e-10
-1.03353e-10
3.09054e-10
-2.24183e-10
-6.21881e-11
4.46163e-10
1.8456e-11
7.7175e-10
-4.05258e-09
2.03671e-10
3.32817e-09
-1.43881e-09
-2.57574e-09
-1.79841e-09
-9.45501e-10
-1.18249e-10
1.52177e-10
7.96591e-10
1.1155e-09
1.21608e-09
1.08418e-09
1.31223e-09
9.36637e-10
1.08043e-09
1.50341e-09
2.00618e-09
1.77374e-09
6.36418e-10
2.6165e-10
-4.82708e-10
8.46906e-10
1.10706e-09
2.53559e-09
2.34347e-09
2.18105e-09
1.95023e-09
9.05276e-10
8.77237e-10
2.92077e-10
-4.20337e-11
3.95007e-10
-3.88533e-10
2.8166e-10
-1.25985e-10
-1.55681e-10
2.07169e-10
-1.2904e-10
-4.516e-11
3.0166e-10
-3.27574e-10
1.97727e-10
-7.16769e-11
-2.57146e-10
5.28416e-11
-1.91141e-10
-3.59095e-10
1.65328e-10
-4.06836e-10
-1.56461e-10
1.50354e-10
-3.06647e-10
-1.16129e-10
3.32877e-10
-2.43055e-10
-4.74893e-11
3.97742e-10
1.06113e-10
7.17023e-10
-4.2627e-09
7.78785e-10
3.44144e-09
-2.41497e-09
-2.6208e-09
-1.37535e-09
-8.46184e-10
-1.4145e-10
1.32509e-10
7.94694e-10
1.11202e-09
1.20894e-09
1.06926e-09
1.30991e-09
9.38587e-10
1.07914e-09
1.48837e-09
1.97941e-09
1.76669e-09
6.35531e-10
2.92174e-10
-4.73877e-10
8.59779e-10
1.09126e-09
2.51151e-09
2.33246e-09
2.15386e-09
1.96007e-09
8.94795e-10
8.8245e-10
3.07713e-10
-5.08145e-11
4.1825e-10
-3.923e-10
2.814e-10
-1.08538e-10
-1.74673e-10
2.21973e-10
-1.29575e-10
-5.43209e-11
3.17437e-10
-3.33633e-10
1.9428e-10
-5.70474e-11
-2.74447e-10
6.01624e-11
-1.87635e-10
-3.69365e-10
1.74343e-10
-4.06062e-10
-1.67897e-10
1.63632e-10
-3.08824e-10
-1.30001e-10
3.56611e-10
-2.64753e-10
-2.25912e-11
3.33344e-10
2.17925e-10
6.29299e-10
-4.52942e-09
1.57575e-09
3.61889e-09
-3.51715e-09
-2.72351e-09
-8.80864e-10
-7.06743e-10
-1.70574e-10
1.08089e-10
7.92076e-10
1.10595e-09
1.19929e-09
1.05373e-09
1.30555e-09
9.41183e-10
1.07893e-09
1.46967e-09
1.9438e-09
1.75219e-09
6.36607e-10
3.29557e-10
-4.53049e-10
8.77315e-10
1.07308e-09
2.47822e-09
2.30944e-09
2.1219e-09
1.96224e-09
8.85579e-10
8.87805e-10
3.24522e-10
-5.27379e-11
4.38854e-10
-3.89307e-10
2.79333e-10
-8.99853e-11
-1.9057e-10
2.3373e-10
-1.2747e-10
-6.21347e-11
3.30011e-10
-3.3433e-10
1.8851e-10
-4.20865e-11
-2.89407e-10
6.48598e-11
-1.83478e-10
-3.76433e-10
1.79282e-10
-4.02926e-10
-1.77916e-10
1.7282e-10
-3.08022e-10
-1.455e-10
3.78514e-10
-2.8765e-10
9.85954e-12
2.61681e-10
3.32287e-10
5.36876e-10
-4.83307e-09
2.41913e-09
3.85183e-09
-4.60983e-09
-2.88339e-09
-3.6429e-10
-5.31422e-10
-2.01733e-10
7.83571e-11
7.87874e-10
1.09745e-09
1.18723e-09
1.03777e-09
1.29908e-09
9.44282e-10
1.07916e-09
1.44777e-09
1.90042e-09
1.73195e-09
6.39089e-10
3.72687e-10
-4.22398e-10
8.99294e-10
1.05271e-09
2.43679e-09
2.27558e-09
2.08497e-09
1.95793e-09
8.7549e-10
8.94642e-10
3.40671e-10
-4.71375e-11
4.57105e-10
-3.80918e-10
2.77297e-10
-7.19107e-11
-2.02737e-10
2.42354e-10
-1.24144e-10
-6.71656e-11
3.38446e-10
-3.298e-10
1.81804e-10
-2.81573e-11
-3.01045e-10
6.74077e-11
-1.79754e-10
-3.79133e-10
1.80123e-10
-3.98211e-10
-1.85391e-10
1.77738e-10
-3.05224e-10
-1.58532e-10
3.97044e-10
-3.09579e-10
4.4996e-11
1.93742e-10
4.27448e-10
4.6272e-10
-5.13262e-09
3.21429e-09
4.10881e-09
-5.57234e-09
-3.08977e-09
1.2149e-10
-3.30016e-10
-2.30106e-10
4.35674e-11
7.80972e-10
1.08678e-09
1.17312e-09
1.02146e-09
1.29019e-09
9.47758e-10
1.07939e-09
1.42361e-09
1.85028e-09
1.70778e-09
6.42312e-10
4.2051e-10
-3.84354e-10
9.24816e-10
1.03082e-09
2.38792e-09
2.23452e-09
2.04264e-09
1.94946e-09
8.62732e-10
9.032e-10
3.55338e-10
-3.57541e-11
4.74398e-10
-3.69109e-10
2.76871e-10
-5.48675e-11
-2.11377e-10
2.48892e-10
-1.21288e-10
-6.8793e-11
3.42578e-10
-3.2127e-10
1.7581e-10
-1.6302e-11
-3.09212e-10
6.90699e-11
-1.77449e-10
-3.7696e-10
1.77745e-10
-3.92993e-10
-1.89768e-10
1.793e-10
-3.0189e-10
-1.66715e-10
4.10795e-10
-3.27949e-10
7.7156e-11
1.38293e-10
4.88222e-10
4.17792e-10
-5.37686e-09
3.85665e-09
4.35165e-09
-6.28728e-09
-3.32207e-09
5.29773e-10
-1.16466e-10
-2.51013e-10
4.89233e-12
7.70187e-10
1.07404e-09
1.15758e-09
1.00502e-09
1.27843e-09
9.51395e-10
1.07927e-09
1.39838e-09
1.79456e-09
1.68124e-09
6.45376e-10
4.71771e-10
-3.40819e-10
9.52576e-10
1.00861e-09
2.33169e-09
2.18928e-09
1.99455e-09
1.93917e-09
8.46762e-10
9.12724e-10
3.68891e-10
-2.12368e-11
4.92118e-10
-3.55529e-10
2.78667e-10
-3.83073e-11
-2.17729e-10
2.54769e-10
-1.20065e-10
-6.72637e-11
3.42966e-10
-3.10507e-10
1.71799e-10
-7.05992e-12
-3.14551e-10
7.13186e-11
-1.77223e-10
-3.70202e-10
1.73601e-10
-3.88105e-10
-1.91317e-10
1.79063e-10
-2.99392e-10
-1.70683e-10
4.18578e-10
-3.39785e-10
1.01064e-10
1.06136e-10
5.08992e-10
4.0408e-10
-5.51084e-09
4.27187e-09
4.51987e-09
-6.71412e-09
-3.55443e-09
8.32941e-10
9.53167e-11
-2.60143e-10
-3.5402e-11
7.54553e-10
1.05912e-09
1.14124e-09
9.88952e-10
1.26344e-09
9.54777e-10
1.07837e-09
1.37261e-09
1.73467e-09
1.65369e-09
6.47448e-10
5.24696e-10
-2.93104e-10
9.81118e-10
9.87713e-10
2.2678e-09
2.14271e-09
1.94086e-09
1.92851e-09
8.28402e-10
9.2196e-10
3.82422e-10
-6.22838e-12
5.10794e-10
-3.41069e-10
2.82394e-10
-2.13386e-11
-2.22664e-10
2.61093e-10
-1.20865e-10
-6.32319e-11
3.4042e-10
-2.99331e-10
1.70504e-10
-5.46226e-13
-3.18232e-10
7.55033e-11
-1.79284e-10
-3.59841e-10
1.69219e-10
-3.83842e-10
-1.90947e-10
1.78666e-10
-2.986e-10
-1.70145e-10
4.19729e-10
-3.42713e-10
1.13147e-10
9.6851e-11
4.91405e-10
4.16248e-10
-5.50774e-09
4.43236e-09
4.58001e-09
-6.8401e-09
-3.73587e-09
1.01811e-09
2.91651e-10
-2.55097e-10
-7.46002e-11
7.33533e-10
1.04156e-09
1.12452e-09
9.73928e-10
1.24525e-09
9.57376e-10
1.0762e-09
1.34901e-09
1.67223e-09
1.62622e-09
6.4819e-10
5.77094e-10
-2.42209e-10
1.00899e-09
9.69844e-10
2.19706e-09
2.09677e-09
1.88234e-09
1.91773e-09
8.09197e-10
9.29704e-10
3.97064e-10
7.52267e-12
5.30152e-10
-3.26299e-10
2.87154e-10
-3.24626e-12
-2.26646e-10
2.687e-10
-1.2356e-10
-5.73231e-11
3.35894e-10
-2.89317e-10
1.72098e-10
3.55462e-12
-3.21645e-10
8.24587e-11
-1.83373e-10
-3.47195e-10
1.65726e-10
-3.79939e-10
-1.89757e-10
1.79298e-10
-2.99818e-10
-1.64986e-10
4.13948e-10
-3.35886e-10
1.124e-10
1.09983e-10
4.39588e-10
4.4107e-10
-5.35899e-09
4.34571e-09
4.5167e-09
-6.68343e-09
-3.85124e-09
1.08643e-09
4.60747e-10
-2.35635e-10
-1.09912e-10
7.07257e-10
1.02082e-09
1.10743e-09
9.6054e-10
1.22434e-09
9.58846e-10
1.07218e-09
1.32719e-09
1.60893e-09
1.59974e-09
6.47673e-10
6.26826e-10
-1.89097e-10
1.0349e-09
9.56388e-10
2.12049e-09
2.05254e-09
1.82026e-09
1.90627e-09
7.90577e-10
9.35145e-10
4.13561e-10
1.93483e-11
5.49644e-10
-3.11681e-10
2.92036e-10
1.62298e-11
-2.30005e-10
2.78178e-10
-1.2779e-10
-5.00463e-11
3.30471e-10
-2.8162e-10
1.76313e-10
5.9106e-12
-3.25876e-10
9.24266e-11
-1.8888e-10
-3.33559e-10
1.6368e-10
-3.7585e-10
-1.88591e-10
1.81436e-10
-3.02903e-10
-1.55223e-10
4.01256e-10
-3.19915e-10
1.00565e-10
1.42096e-10
3.60376e-10
4.67362e-10
-5.07438e-09
4.04774e-09
4.32691e-09
-6.29258e-09
-3.88793e-09
1.05261e-09
5.94944e-10
-2.03137e-10
-1.38813e-10
6.7659e-10
9.966e-10
1.08972e-09
9.49062e-10
1.2014e-09
9.59132e-10
1.06588e-09
1.30703e-09
1.54626e-09
1.57481e-09
6.46374e-10
6.72214e-10
-1.34737e-10
1.05785e-09
9.48003e-10
2.03982e-09
2.01055e-09
1.75615e-09
1.89339e-09
7.73407e-10
9.37875e-10
4.3218e-10
2.92886e-11
5.68843e-10
-2.97515e-10
2.96427e-10
3.695e-11
-2.33181e-10