/*--------------------------------*- C++ -*----------------------------------*\
| =========                 |                                                 |
| \\      /  F ield         | OpenFOAM: The Open Source CFD Toolbox           |
|  \\    /   O peration     | Version:  2312                                  |
|   \\  /    A nd           | Website:  www.openfoam.com                      |
|    \\/     M anipulation  |                                                 |
\*---------------------------------------------------------------------------*/
FoamFile
{
    version     2.0;
    format      ascii;
    arch        "LSB;label=32;scalar=64";
    class       volScalarField;
    location    "80";
    object      pMean;
}
// * * * * * * * * * * * * * * * * * * * * * * * * * * * * * * * * * * * * * //

dimensions      [0 2 -2 0 0 0 0];

internalField   nonuniform List<scalar> 
144000
(
2.17686e-09
1.76957e-09
-3.21124e-10
-1.30047e-09
-1.26307e-09
-9.59569e-10
-6.91454e-10
-5.00147e-10
-3.82035e-10
-3.08266e-10
-2.64781e-10
-2.27643e-10
-2.05095e-10
-1.76792e-10
-1.70931e-10
-1.63918e-10
-1.76419e-10
-1.68963e-10
-1.59511e-10
-1.38752e-10
-1.21613e-10
-1.31589e-10
-1.31432e-10
-1.70664e-10
-1.652e-10
-2.00894e-10
-1.79624e-10
-1.9928e-10
-1.6601e-10
-1.74192e-10
-1.30435e-10
-1.4347e-10
-8.9348e-11
-1.17674e-10
-5.53736e-11
-8.88432e-11
-2.40285e-11
-5.93336e-11
7.98038e-12
-3.6935e-11
4.20211e-11
-1.04267e-11
7.84999e-11
1.82511e-11
1.05108e-10
3.77645e-11
1.29248e-10
5.72769e-11
1.62863e-10
8.95013e-11
1.95322e-10
1.39544e-10
2.40795e-10
2.11105e-10
2.96281e-10
3.366e-10
4.34281e-10
1.15512e-09
-1.33102e-09
-6.92845e-10
2.21012e-09
1.80392e-09
-3.28428e-10
-1.30687e-09
-1.26145e-09
-9.58738e-10
-6.92034e-10
-5.01309e-10
-3.83401e-10
-3.0954e-10
-2.65911e-10
-2.2856e-10
-2.05957e-10
-1.77433e-10
-1.71454e-10
-1.64352e-10
-1.76934e-10
-1.69611e-10
-1.59974e-10
-1.39281e-10
-1.21675e-10
-1.31936e-10
-1.31383e-10
-1.71008e-10
-1.65316e-10
-2.01168e-10
-1.79983e-10
-1.99431e-10
-1.66443e-10
-1.74335e-10
-1.30737e-10
-1.43702e-10
-8.95139e-11
-1.17937e-10
-5.55981e-11
-8.89403e-11
-2.4361e-11
-5.93372e-11
7.68267e-12
-3.70359e-11
4.17674e-11
-1.04371e-11
7.83072e-11
1.8449e-11
1.04685e-10
3.79504e-11
1.28813e-10
5.75522e-11
1.62396e-10
9.00142e-11
1.94539e-10
1.40373e-10
2.39753e-10
2.12105e-10
2.94439e-10
3.36302e-10
4.35795e-10
1.17809e-09
-1.34479e-09
-7.4046e-10
2.29122e-09
1.78521e-09
-3.69739e-10
-1.29792e-09
-1.24682e-09
-9.51399e-10
-6.89569e-10
-5.00941e-10
-3.84247e-10
-3.10918e-10
-2.67417e-10
-2.29799e-10
-2.07226e-10
-1.78364e-10
-1.72355e-10
-1.65003e-10
-1.77744e-10
-1.70478e-10
-1.6068e-10
-1.39997e-10
-1.21757e-10
-1.32464e-10
-1.31289e-10
-1.71616e-10
-1.65402e-10
-2.01681e-10
-1.80321e-10
-1.99792e-10
-1.66863e-10
-1.74693e-10
-1.30918e-10
-1.44221e-10
-8.94235e-11
-1.18567e-10
-5.55815e-11
-8.93786e-11
-2.44395e-11
-5.96944e-11
7.69852e-12
-3.76201e-11
4.18889e-11
-1.10308e-11
7.85974e-11
1.83468e-11
1.04752e-10
3.76043e-11
1.28874e-10
5.72329e-11
1.62521e-10
8.99491e-11
1.94269e-10
1.40565e-10
2.3941e-10
2.1204e-10
2.9463e-10
3.3172e-10
4.39558e-10
1.20108e-09
-1.40067e-09
-7.44664e-10
2.38153e-09
1.66338e-09
-4.30141e-10
-1.26063e-09
-1.21676e-09
-9.3675e-10
-6.82514e-10
-4.97496e-10
-3.83299e-10
-3.11454e-10
-2.6878e-10
-2.3114e-10
-2.0874e-10
-1.79532e-10
-1.73593e-10
-1.65909e-10
-1.78793e-10
-1.71563e-10
-1.61636e-10
-1.40961e-10
-1.22021e-10
-1.33254e-10
-1.31359e-10
-1.72411e-10
-1.65587e-10
-2.02262e-10
-1.80749e-10
-2.00169e-10
-1.67401e-10
-1.7508e-10
-1.31168e-10
-1.44805e-10
-8.93456e-11
-1.19264e-10
-5.56581e-11
-8.98281e-11
-2.46431e-11
-6.00215e-11
7.60104e-12
-3.82481e-11
4.18738e-11
-1.1676e-11
7.87843e-11
1.85055e-11
1.04709e-10
3.73482e-11
1.2865e-10
5.70816e-11
1.62422e-10
9.00683e-11
1.93733e-10
1.40749e-10
2.39312e-10
2.11015e-10
2.97436e-10
3.20233e-10
4.54916e-10
1.19595e-09
-1.47986e-09
-6.50382e-10
2.4541e-09
1.42598e-09
-4.96281e-10
-1.18358e-09
-1.17205e-09
-9.17168e-10
-6.72106e-10
-4.90915e-10
-3.80046e-10
-3.10687e-10
-2.69478e-10
-2.32134e-10
-2.10134e-10
-1.80721e-10
-1.7497e-10
-1.66887e-10
-1.79865e-10
-1.72679e-10
-1.6274e-10
-1.42159e-10
-1.22587e-10
-1.34322e-10
-1.31687e-10
-1.73288e-10
-1.65861e-10
-2.02782e-10
-1.81218e-10
-2.00481e-10
-1.68017e-10
-1.75484e-10
-1.31524e-10
-1.45424e-10
-8.93721e-11
-1.19965e-10
-5.59491e-11
-9.02427e-11
-2.50699e-11
-6.02954e-11
7.29165e-12
-3.88287e-11
4.15799e-11
-1.21991e-11
7.86518e-11
1.9022e-11
1.04348e-10
3.73887e-11
1.27932e-10
5.72081e-11
1.61847e-10
9.04666e-11
1.92845e-10
1.40882e-10
2.39528e-10
2.08558e-10
3.03146e-10
3.02453e-10
4.82617e-10
1.16093e-09
-1.56649e-09
-4.53735e-10
2.50815e-09
1.09186e-09
-5.62326e-10
-1.06823e-09
-1.11567e-09
-8.96575e-10
-6.60431e-10
-4.82412e-10
-3.75219e-10
-3.08806e-10
-2.69487e-10
-2.32661e-10
-2.11219e-10
-1.81788e-10
-1.76291e-10
-1.67768e-10
-1.8073e-10
-1.73587e-10
-1.63818e-10
-1.4347e-10
-1.23439e-10
-1.35594e-10
-1.32233e-10
-1.74127e-10
-1.66113e-10
-2.03116e-10
-1.81581e-10
-2.00654e-10
-1.68577e-10
-1.75862e-10
-1.31896e-10
-1.46045e-10
-8.95131e-11
-1.20627e-10
-5.64648e-11
-9.06098e-11
-2.57334e-11
-6.05074e-11
6.73145e-12
-3.9298e-11
4.09113e-11
-1.25592e-11
7.81323e-11
1.98696e-11
1.03533e-10
3.7729e-11
1.26715e-10
5.7683e-11
1.60781e-10
9.11289e-11
1.91623e-10
1.4078e-10
2.40228e-10
2.04476e-10
3.11909e-10
2.79252e-10
5.20858e-10
1.10282e-09
-1.66127e-09
-1.74304e-10
2.54687e-09
6.87552e-10
-6.28804e-10
-9.20772e-10
-1.04957e-09
-8.76767e-10
-6.49198e-10
-4.73161e-10
-3.6957e-10
-3.06367e-10
-2.69127e-10
-2.32927e-10
-2.12078e-10
-1.82738e-10
-1.77505e-10
-1.6849e-10
-1.81282e-10
-1.74175e-10
-1.64737e-10
-1.44776e-10
-1.24474e-10
-1.36978e-10
-1.32908e-10
-1.74831e-10
-1.66212e-10
-2.03163e-10
-1.81673e-10
-2.00601e-10
-1.68929e-10
-1.76139e-10
-1.32212e-10
-1.46584e-10
-8.9734e-11
-1.21166e-10
-5.71734e-11
-9.08735e-11
-2.66027e-11
-6.06068e-11
5.92173e-12
-3.95997e-11
3.98604e-11
-1.26833e-11
7.72097e-11
2.10136e-11
1.02297e-10
3.84052e-11
1.24988e-10
5.848e-11
1.59203e-10
9.19862e-11
1.90142e-10
1.40397e-10
2.41419e-10
1.98868e-10
3.22899e-10
2.534e-10
5.63548e-10
1.0303e-09
-1.75669e-09
1.61528e-10
2.56954e-09
2.53631e-10
-6.95202e-10
-7.53071e-10
-9.75001e-10
-8.5834e-10
-6.39236e-10
-4.63933e-10
-3.63654e-10
-3.0381e-10
-2.68679e-10
-2.33231e-10
-2.12948e-10
-1.83707e-10
-1.78702e-10
-1.69116e-10
-1.81569e-10
-1.74473e-10
-1.65466e-10
-1.46053e-10
-1.25632e-10
-1.38437e-10
-1.33627e-10
-1.75378e-10
-1.66061e-10
-2.02898e-10
-1.81387e-10
-2.00263e-10
-1.68975e-10
-1.76228e-10
-1.32417e-10
-1.46942e-10
-9.00083e-11
-1.21503e-10
-5.80207e-11
-9.09906e-11
-2.76172e-11
-6.05588e-11
4.89913e-12
-3.96687e-11
3.84644e-11
-1.25334e-11
7.58891e-11
2.23752e-11
1.00632e-10
3.94041e-11
1.22797e-10
5.95914e-11
1.57155e-10
9.29855e-11
1.88412e-10
1.39728e-10
2.42831e-10
1.92639e-10
3.34375e-10
2.28892e-10
6.02194e-10
9.53719e-10
-1.8397e-09
5.04972e-10
2.5737e-09
-1.66005e-10
-7.60314e-10
-5.80757e-10
-8.94182e-10
-8.40823e-10
-6.31125e-10
-4.5535e-10
-3.57907e-10
-3.01434e-10
-2.68481e-10
-2.33758e-10
-2.13966e-10
-1.84853e-10
-1.7998e-10
-1.69771e-10
-1.817e-10
-1.74594e-10
-1.6604e-10
-1.47338e-10
-1.26892e-10
-1.39993e-10
-1.34347e-10
-1.75803e-10
-1.65634e-10
-2.02347e-10
-1.80708e-10
-1.99607e-10
-1.68699e-10
-1.76053e-10
-1.32483e-10
-1.47053e-10
-9.03038e-11
-1.21594e-10
-5.89376e-11
-9.09318e-11
-2.87169e-11
-6.034e-11
3.71308e-12
-3.94516e-11
3.68066e-11
-1.20722e-11
7.41779e-11
2.39565e-11
9.85931e-11
4.07203e-11
1.20207e-10
6.09987e-11
1.54675e-10
9.41724e-11
1.86411e-10
1.39041e-10
2.43992e-10
1.86761e-10
3.44178e-10
2.09562e-10
6.29225e-10
8.82034e-10
-1.89507e-09
8.153e-10
2.55372e-09
-5.31498e-10
-8.22039e-10
-4.19258e-10
-8.10337e-10
-8.23572e-10
-6.24985e-10
-4.47804e-10
-3.525e-10
-2.99371e-10
-2.6857e-10
-2.34575e-10
-2.15199e-10
-1.86242e-10
-1.81394e-10
-1.70512e-10
-1.81753e-10
-1.74674e-10
-1.66492e-10
-1.48692e-10
-1.28217e-10
-1.41677e-10
-1.35037e-10
-1.76158e-10
-1.64965e-10
-2.01549e-10
-1.79701e-10
-1.98651e-10
-1.68147e-10
-1.75588e-10
-1.32429e-10
-1.46883e-10
-9.06053e-11
-1.21425e-10
-5.98861e-11
-9.0686e-11
-2.98724e-11
-5.98831e-11
2.34865e-12
-3.89004e-11
3.49599e-11
-1.13188e-11
7.20935e-11
2.57076e-11
9.62336e-11
4.23196e-11
1.17325e-10
6.26686e-11
1.51843e-10
9.55607e-11
1.84085e-10
1.38729e-10
2.44331e-10
1.824e-10
3.50453e-10
1.98321e-10
6.40492e-10
8.19984e-10
-1.90861e-09
1.06143e-09
2.50085e-09
-8.13985e-10
-8.76574e-10
-2.81508e-10
-7.26963e-10
-8.05697e-10
-6.20577e-10
-4.41535e-10
-3.47673e-10
-2.97645e-10
-2.68956e-10
-2.35695e-10
-2.16654e-10
-1.87885e-10
-1.82931e-10
-1.71411e-10
-1.81789e-10
-1.74796e-10
-1.66863e-10
-1.50157e-10
-1.29575e-10
-1.43514e-10
-1.35696e-10
-1.76466e-10
-1.64127e-10
-2.00551e-10
-1.78471e-10
-1.97399e-10
-1.67394e-10
-1.74811e-10
-1.32283e-10
-1.46439e-10
-9.0908e-11
-1.21023e-10
-6.08351e-11
-9.02356e-11
-3.1096e-11
-5.91782e-11
8.52338e-13
-3.7985e-11
3.29957e-11
-1.03494e-11
6.97071e-11
2.7531e-11
9.36028e-11
4.42035e-11
1.142e-10
6.45729e-11
1.48649e-10
9.71938e-11
1.81316e-10
1.39068e-10
2.43289e-10
1.80388e-10
3.52002e-10
1.96371e-10
6.35135e-10
7.68295e-10
-1.86935e-09
1.22639e-09
2.40991e-09
-1.00492e-09
-9.17341e-10
-1.74605e-10
-6.4749e-10
-7.86408e-10
-6.17441e-10
-4.3669e-10
-3.43471e-10
-2.9623e-10
-2.69587e-10
-2.37092e-10
-2.18307e-10
-1.89764e-10
-1.84607e-10
-1.72487e-10
-1.81836e-10
-1.75028e-10
-1.67172e-10
-1.51746e-10
-1.30953e-10
-1.45499e-10
-1.36342e-10
-1.76735e-10
-1.63205e-10
-1.9937e-10
-1.77129e-10
-1.95876e-10
-1.66523e-10
-1.73756e-10
-1.32078e-10
-1.45757e-10
-9.11905e-11
-1.20404e-10
-6.18049e-11
-8.9582e-11
-3.23977e-11
-5.82372e-11
-7.63805e-13
-3.67719e-11
3.10695e-11
-9.20241e-12
6.70163e-11
2.9441e-11
9.07951e-11
4.63224e-11
1.10877e-10
6.6724e-11
1.4523e-10
9.91122e-11
1.78006e-10
1.40269e-10
2.4064e-10
1.81207e-10
3.48487e-10
2.03378e-10
6.15411e-10
7.25148e-10
-1.7782e-09
1.307e-09
2.28124e-09
-1.10516e-09
-9.39857e-10
-1.00953e-10
-5.7486e-10
-7.65206e-10
-6.14901e-10
-4.3332e-10
-3.4002e-10
-2.95086e-10
-2.70399e-10
-2.3872e-10
-2.20103e-10
-1.91864e-10
-1.86382e-10
-1.73767e-10
-1.81912e-10
-1.75413e-10
-1.67432e-10
-1.5345e-10
-1.32342e-10
-1.47592e-10
-1.37002e-10
-1.76954e-10
-1.62281e-10
-1.9802e-10
-1.75771e-10
-1.9412e-10
-1.65602e-10
-1.72473e-10
-1.31839e-10
-1.44872e-10
-9.14682e-11
-1.19594e-10
-6.27916e-11
-8.87466e-11
-3.37756e-11
-5.70862e-11
-2.49266e-12
-3.5312e-11
2.92438e-11
-7.80648e-12
6.40738e-11
3.13977e-11
8.78353e-11
4.8623e-11
1.07425e-10
6.90642e-11
1.41531e-10
1.01393e-10
1.74108e-10
1.42422e-10
2.36306e-10
1.84823e-10
3.40329e-10
2.17937e-10
5.84864e-10
6.86816e-10
-1.64018e-09
1.31134e-09
2.11813e-09
-1.12601e-09
-9.42729e-10
-5.88926e-11
-5.11128e-10
-7.4189e-10
-6.12323e-10
-4.31341e-10
-3.37334e-10
-2.94177e-10
-2.71323e-10
-2.40514e-10
-2.22004e-10
-1.94112e-10
-1.88206e-10
-1.75217e-10
-1.82032e-10
-1.75957e-10
-1.6766e-10
-1.55242e-10
-1.3374e-10
-1.49743e-10
-1.37706e-10
-1.77105e-10
-1.61422e-10
-1.96522e-10
-1.74465e-10
-1.92176e-10
-1.64679e-10
-1.71009e-10
-1.31591e-10
-1.43825e-10
-9.17544e-11
-1.18624e-10
-6.37939e-11
-8.77501e-11
-3.52266e-11
-5.5755e-11
-4.32927e-12
-3.3661e-11
2.73175e-11
-6.25797e-12
6.1073e-11
3.3368e-11
8.47787e-11
5.10746e-11
1.03917e-10
7.15367e-11
1.37625e-10
1.04019e-10
1.69662e-10
1.45513e-10
2.3044e-10
1.9086e-10
3.28518e-10
2.37954e-10
5.47775e-10
6.5006e-10
-1.46443e-09
1.25529e-09
1.92601e-09
-1.08404e-09
-9.25552e-10
-4.37145e-11
-4.57481e-10
-7.16669e-10
-6.09227e-10
-4.30577e-10
-3.3542e-10
-2.93486e-10
-2.72296e-10
-2.42424e-10
-2.23971e-10
-1.96469e-10
-1.90057e-10
-1.76817e-10
-1.82213e-10
-1.76656e-10
-1.67877e-10
-1.57085e-10
-1.35149e-10
-1.51895e-10
-1.38476e-10
-1.77172e-10
-1.60677e-10
-1.949e-10
-1.73253e-10
-1.90087e-10
-1.63786e-10
-1.69407e-10
-1.31352e-10
-1.4265e-10
-9.20564e-11
-1.1752e-10
-6.48115e-11
-8.66121e-11
-3.67447e-11
-5.42732e-11
-6.25558e-12
-3.1864e-11
2.49906e-11
-4.09789e-12
5.83947e-11
3.52746e-11
8.16252e-11
5.36031e-11
1.00396e-10
7.41302e-11
1.33571e-10
1.06922e-10
1.64762e-10
1.49388e-10
2.23371e-10
1.98682e-10
3.14342e-10
2.61001e-10
5.08172e-10
6.12331e-10
-1.26247e-09
1.15676e-09
1.71252e-09
-9.98115e-10
-8.89644e-10
-4.94946e-11
-4.14214e-10
-6.90043e-10
-6.05224e-10
-4.30783e-10
-3.34283e-10
-2.93004e-10
-2.73271e-10
-2.44395e-10
-2.25964e-10
-1.98904e-10
-1.91914e-10
-1.78533e-10
-1.82452e-10
-1.77494e-10
-1.68107e-10
-1.58941e-10
-1.36572e-10
-1.54002e-10
-1.39322e-10
-1.77146e-10
-1.60071e-10
-1.93182e-10
-1.72161e-10
-1.87893e-10
-1.62943e-10
-1.67705e-10
-1.31135e-10
-1.41382e-10
-9.23797e-11
-1.16309e-10
-6.584e-11
-8.5363e-11
-3.83124e-11
-5.2696e-11
-8.22601e-12
-2.99313e-11
2.22697e-11
-1.81443e-12
5.68984e-11
3.7194e-11
7.83847e-11
5.61358e-11
9.69022e-11
7.67772e-11
1.2943e-10
1.10012e-10
1.59557e-10
1.53825e-10
2.15513e-10
2.07563e-10
2.99105e-10
2.84814e-10
4.69429e-10
5.72185e-10
-1.04579e-09
1.0342e-09
1.48483e-09
-8.84788e-10
-8.37023e-10
-7.00824e-11
-3.81082e-10
-6.62696e-10
-6.00068e-10
-4.31724e-10
-3.33908e-10
-2.92732e-10
-2.74212e-10
-2.46376e-10
-2.27961e-10
-2.01388e-10
-1.93761e-10
-1.80327e-10
-1.82752e-10
-1.78444e-10
-1.68368e-10
-1.60777e-10
-1.38011e-10
-1.56026e-10
-1.40251e-10
-1.77023e-10
-1.59622e-10
-1.91396e-10
-1.71197e-10
-1.85626e-10
-1.62151e-10
-1.65936e-10
-1.30944e-10
-1.40055e-10
-9.27153e-11
-1.15022e-10
-6.68705e-11
-8.40327e-11
-3.99068e-11
-5.10713e-11
-1.01993e-11
-2.79681e-11
1.85198e-11
-5.12585e-14
5.61575e-11
3.92807e-11
7.52333e-11
5.86558e-11
9.34915e-11
7.94214e-11
1.25283e-10
1.13191e-10
1.54211e-10
1.58565e-10
2.07316e-10
2.16828e-10
2.84056e-10
3.07523e-10
4.33659e-10
5.29301e-10
-8.24301e-10
9.01883e-10
1.25061e-09
-7.58451e-10
-7.70709e-10
-9.97976e-11
-3.57318e-10
-6.35298e-10
-5.93641e-10
-4.33166e-10
-3.34257e-10
-2.92679e-10
-2.75096e-10
-2.48328e-10
-2.29938e-10
-2.03896e-10
-1.95588e-10
-1.82172e-10
-1.83115e-10
-1.79476e-10
-1.68672e-10
-1.62566e-10
-1.3947e-10
-1.57943e-10
-1.41249e-10
-1.76805e-10
-1.59318e-10
-1.89566e-10
-1.70364e-10
-1.83318e-10
-1.61416e-10
-1.64128e-10
-1.30779e-10
-1.38695e-10
-9.30629e-11
-1.13682e-10
-6.78963e-11
-8.26416e-11
-4.15101e-11
-4.94466e-11
-1.21199e-11
-2.61893e-11
1.69122e-11
2.12779e-12
5.29504e-11
4.12313e-11
7.2337e-11
6.11381e-11
9.02175e-11
8.20121e-11
1.21213e-10
1.16352e-10
1.48903e-10
1.63348e-10
1.99205e-10
2.25834e-10
2.70109e-10
3.27809e-10
4.02089e-10
4.8414e-10
-6.06687e-10
7.71032e-10
1.01697e-09
-6.31241e-10
-6.94146e-10
-1.33561e-10
-3.41785e-10
-6.08624e-10
-5.85938e-10
-4.34836e-10
-3.35275e-10
-2.92856e-10
-2.75914e-10
-2.50222e-10
-2.31877e-10
-2.06394e-10
-1.97395e-10
-1.84044e-10
-1.83547e-10
-1.80569e-10
-1.69026e-10
-1.64291e-10
-1.4095e-10
-1.59741e-10
-1.42312e-10
-1.76496e-10
-1.59155e-10
-1.87717e-10
-1.69656e-10
-1.80992e-10
-1.60733e-10
-1.62302e-10
-1.30634e-10
-1.37322e-10
-9.34183e-11
-1.12318e-10
-6.89126e-11
-8.12116e-11
-4.3109e-11
-4.78247e-11
-1.39764e-11
-2.43925e-11
1.50824e-11
3.51234e-12
5.02342e-11
4.32534e-11
6.95974e-11
6.35127e-11
8.70901e-11
8.44882e-11
1.17299e-10
1.19374e-10
1.43786e-10
1.67915e-10
1.91549e-10
2.3404e-10
2.57955e-10
3.44799e-10
3.75203e-10
4.37745e-10
-3.99741e-10
6.49892e-10
7.90132e-10
-5.1161e-10
-6.11085e-10
-1.67415e-10
-3.33102e-10
-5.83231e-10
-5.77086e-10
-4.36551e-10
-3.3689e-10
-2.93276e-10
-2.7667e-10
-2.52036e-10
-2.33765e-10
-2.08871e-10
-1.99181e-10
-1.85926e-10
-1.84043e-10
-1.81702e-10
-1.69434e-10
-1.6594e-10
-1.42448e-10
-1.61413e-10
-1.43429e-10
-1.76101e-10
-1.59121e-10
-1.85864e-10
-1.69066e-10
-1.78669e-10
-1.60098e-10
-1.60479e-10
-1.30504e-10
-1.35954e-10
-9.3776e-11
-1.10944e-10
-6.99071e-11
-7.97668e-11
-4.46749e-11
-4.62378e-11
-1.57574e-11
-2.27533e-11
1.28776e-11
4.74075e-12
4.81829e-11
4.51018e-11
6.69296e-11
6.57193e-11
8.41481e-11
8.67891e-11
1.13611e-10
1.22159e-10
1.39035e-10
1.72059e-10
1.84649e-10
2.41068e-10
2.47974e-10
3.58073e-10
3.53065e-10
3.91258e-10
-2.08464e-10
5.43985e-10
5.748e-10
-4.05937e-10
-5.24851e-10
-1.9831e-10
-3.29792e-10
-5.59628e-10
-5.6731e-10
-4.38146e-10
-3.39021e-10
-2.9395e-10
-2.77375e-10
-2.53755e-10
-2.35595e-10
-2.11312e-10
-2.00947e-10
-1.878e-10
-1.84599e-10
-1.8286e-10
-1.69898e-10
-1.67505e-10
-1.43964e-10
-1.62961e-10
-1.44589e-10
-1.75628e-10
-1.59201e-10
-1.84023e-10
-1.68581e-10
-1.76369e-10
-1.59503e-10
-1.58672e-10
-1.30382e-10
-1.34604e-10
-9.41273e-11
-1.09569e-10
-7.08774e-11
-7.83236e-11
-4.61999e-11
-4.47093e-11
-1.74448e-11
-2.12621e-11
1.1003e-11
6.48314e-12
4.61541e-11
4.66496e-11
6.43482e-11
6.77466e-11
8.14231e-11
8.88722e-11
1.10212e-10
1.24621e-10
1.34752e-10
1.75621e-10
1.78718e-10
2.46678e-10
2.40338e-10
3.67465e-10
3.35269e-10
3.45953e-10
-3.58044e-11
4.56086e-10
3.74537e-10
-3.17647e-10
-4.38709e-10
-2.24187e-10
-3.30393e-10
-5.3814e-10
-5.56874e-10
-4.39512e-10
-3.4158e-10
-2.9488e-10
-2.78042e-10
-2.55373e-10
-2.37361e-10
-2.1371e-10
-2.02693e-10
-1.89658e-10
-1.85216e-10
-1.84029e-10
-1.70415e-10
-1.68984e-10
-1.45495e-10
-1.64388e-10
-1.45784e-10
-1.75086e-10
-1.5938e-10
-1.82206e-10
-1.68189e-10
-1.74103e-10
-1.58939e-10
-1.56897e-10
-1.30261e-10
-1.33283e-10
-9.44654e-11
-1.08207e-10
-7.18188e-11
-7.68946e-11
-4.76789e-11
-4.32418e-11
-1.90518e-11
-1.98845e-11
9.35854e-12
8.0097e-12
4.4078e-11
4.79753e-11
6.1942e-11
6.95961e-11
7.89463e-11
9.0704e-11
1.07156e-10
1.26696e-10
1.31022e-10
1.78476e-10
1.73881e-10
2.50765e-10
2.35033e-10
3.73117e-10
3.21179e-10
3.02852e-10
1.16872e-10
3.87275e-10
1.92038e-10
-2.48802e-10
-3.55556e-10
-2.43824e-10
-3.33536e-10
-5.18952e-10
-5.46066e-10
-4.40581e-10
-3.4448e-10
-2.96066e-10
-2.7869e-10
-2.5689e-10
-2.39062e-10
-2.16058e-10
-2.04419e-10
-1.91494e-10
-1.85891e-10
-1.85201e-10
-1.70983e-10
-1.70378e-10
-1.47039e-10
-1.65702e-10
-1.47003e-10
-1.74485e-10
-1.59646e-10
-1.80425e-10
-1.67878e-10
-1.71883e-10
-1.58398e-10
-1.55163e-10
-1.30135e-10
-1.31999e-10
-9.47849e-11
-1.06867e-10
-7.27256e-11
-7.54914e-11
-4.91037e-11
-4.18426e-11
-2.05823e-11
-1.85964e-11
7.88516e-12
9.31463e-12
4.20849e-11
4.91559e-11
5.97421e-11
7.12538e-11
7.67357e-11
9.22564e-11
1.04479e-10
1.28342e-10
1.27901e-10
1.80574e-10
1.70196e-10
2.53311e-10
2.31902e-10
3.75259e-10
3.10063e-10
2.62581e-10
2.49179e-10
3.37976e-10
2.91511e-11
-2.00503e-10
-2.77855e-10
-2.56665e-10
-3.37958e-10
-5.02103e-10
-5.35175e-10
-4.41351e-10
-3.47659e-10
-2.97515e-10
-2.79348e-10
-2.58317e-10
-2.40703e-10
-2.18357e-10
-2.0613e-10
-1.93307e-10
-1.86623e-10
-1.86368e-10
-1.71599e-10
-1.71692e-10
-1.48596e-10
-1.6691e-10
-1.48238e-10
-1.73835e-10
-1.59984e-10
-1.78691e-10
-1.67633e-10
-1.69719e-10
-1.57871e-10
-1.5348e-10
-1.30001e-10
-1.30758e-10
-9.50827e-11
-1.05553e-10
-7.35928e-11
-7.41254e-11
-5.04664e-11
-4.0522e-11
-2.20169e-11
-1.74054e-11
6.51904e-12
1.04224e-11
4.02454e-11
5.01947e-11
5.7742e-11
7.2702e-11
7.47982e-11
9.35124e-11
1.022e-10
1.2954e-10
1.2542e-10
1.81911e-10
1.67653e-10
2.54404e-10
2.30715e-10
3.74229e-10
3.01406e-10
2.25174e-10
3.61317e-10
3.08453e-10
-1.12593e-10
-1.72846e-10
-2.07468e-10
-2.62567e-10
-3.42591e-10
-4.87489e-10
-5.24445e-10
-4.41847e-10
-3.51072e-10
-2.99234e-10
-2.80046e-10
-2.59672e-10
-2.42293e-10
-2.20612e-10
-2.07831e-10
-1.95102e-10
-1.87414e-10
-1.87529e-10
-1.72259e-10
-1.72932e-10
-1.50166e-10
-1.68021e-10
-1.49483e-10
-1.73145e-10
-1.60384e-10
-1.77013e-10
-1.67447e-10
-1.67613e-10
-1.57355e-10
-1.51851e-10
-1.29857e-10
-1.29564e-10
-9.53571e-11
-1.04268e-10
-7.44169e-11
-7.28037e-11
-5.17655e-11
-3.92844e-11
-2.33527e-11
-1.63192e-11
5.29568e-12
1.13685e-11
3.85571e-11
5.10741e-11
5.59328e-11
7.39346e-11
7.31336e-11
9.4463e-11
1.00323e-10
1.30291e-10
1.2358e-10
1.82511e-10
1.66207e-10
2.5418e-10
2.31259e-10
3.70272e-10
2.94963e-10
1.90569e-10
4.53264e-10
2.98311e-10
2.16185e-09
1.77708e-09
-3.08426e-10
-1.29473e-09
-1.2598e-09
-9.55986e-10
-6.87648e-10
-4.9683e-10
-3.79549e-10
-3.06805e-10
-2.64224e-10
-2.27829e-10
-2.05764e-10
-1.77789e-10
-1.72102e-10
-1.65198e-10
-1.7765e-10
-1.70026e-10
-1.60389e-10
-1.39473e-10
-1.22182e-10
-1.31994e-10
-1.31727e-10
-1.70882e-10
-1.65382e-10
-2.01042e-10
-1.7974e-10
-1.99293e-10
-1.66e-10
-1.74118e-10
-1.30394e-10
-1.4338e-10
-8.93427e-11
-1.17583e-10
-5.53892e-11
-8.87147e-11
-2.4039e-11
-5.91631e-11
8.03477e-12
-3.6615e-11
4.22609e-11
-1.00342e-11
7.88138e-11
1.86117e-11
1.04635e-10
3.74286e-11
1.28306e-10
5.66312e-11
1.61302e-10
8.83925e-11
1.93011e-10
1.37867e-10
2.37447e-10
2.08932e-10
2.91712e-10
3.33787e-10
4.29397e-10
1.15009e-09
-1.32047e-09
-7.01663e-10
2.19484e-09
1.81202e-09
-3.1581e-10
-1.30132e-09
-1.25811e-09
-9.5511e-10
-6.88204e-10
-4.97972e-10
-3.80909e-10
-3.08071e-10
-2.65353e-10
-2.28746e-10
-2.06629e-10
-1.78433e-10
-1.7263e-10
-1.65637e-10
-1.78169e-10
-1.70675e-10
-1.60853e-10
-1.40003e-10
-1.22245e-10
-1.32341e-10
-1.31679e-10
-1.71227e-10
-1.65498e-10
-2.01318e-10
-1.80097e-10
-1.99443e-10
-1.66431e-10
-1.74261e-10
-1.30695e-10
-1.43614e-10
-8.95058e-11
-1.1785e-10
-5.56102e-11
-8.88168e-11
-2.43663e-11
-5.91717e-11
7.74192e-12
-3.67096e-11
4.20238e-11
-1.00372e-11
7.86043e-11
1.87792e-11
1.04206e-10
3.76218e-11
1.27875e-10
5.69048e-11
1.60834e-10
8.89046e-11
1.9222e-10
1.38692e-10
2.36404e-10
2.09922e-10
2.89882e-10
3.33504e-10
4.30874e-10
1.17311e-09
-1.33391e-09
-7.49643e-10
2.27657e-09
1.79496e-09
-3.57423e-10
-1.29303e-09
-1.24351e-09
-9.47671e-10
-6.85667e-10
-4.97578e-10
-3.81729e-10
-3.09437e-10
-2.66856e-10
-2.29983e-10
-2.079e-10
-1.79364e-10
-1.73533e-10
-1.66292e-10
-1.78986e-10
-1.71544e-10
-1.61561e-10
-1.40722e-10
-1.22329e-10
-1.32868e-10
-1.31583e-10
-1.71837e-10
-1.65584e-10
-2.01835e-10
-1.80434e-10
-1.99803e-10
-1.66846e-10
-1.74621e-10
-1.30871e-10
-1.44138e-10
-8.94104e-11
-1.18486e-10
-5.55856e-11
-8.92625e-11
-2.44408e-11
-5.95311e-11
7.75769e-12
-3.72775e-11
4.2153e-11
-1.0572e-11
7.8908e-11
1.85885e-11
1.04222e-10
3.72936e-11
1.27932e-10
5.65908e-11
1.60946e-10
8.88494e-11
1.91948e-10
1.3889e-10
2.36063e-10
2.09849e-10
2.90075e-10
3.28853e-10
4.34713e-10
1.19685e-09
-1.39009e-09
-7.55716e-10
2.3679e-09
1.67573e-09
-4.18172e-10
-1.25669e-09
-1.21364e-09
-9.32882e-10
-6.78542e-10
-4.94061e-10
-3.80751e-10
-3.09956e-10
-2.6821e-10
-2.31322e-10
-2.09412e-10
-1.80532e-10
-1.74773e-10
-1.67204e-10
-1.80043e-10
-1.72633e-10
-1.62517e-10
-1.41689e-10
-1.22594e-10
-1.33659e-10
-1.3165e-10
-1.72634e-10
-1.65767e-10
-2.02423e-10
-1.8086e-10
-2.00181e-10
-1.67375e-10
-1.75011e-10
-1.31111e-10
-1.44734e-10
-8.93225e-11
-1.19194e-10
-5.56499e-11
-8.97244e-11
-2.46382e-11
-5.98608e-11
7.65484e-12
-3.78698e-11
4.21219e-11
-1.11026e-11
7.91598e-11
1.86131e-11
1.04085e-10
3.70499e-11
1.27731e-10
5.64405e-11
1.60844e-10
8.89608e-11
1.91418e-10
1.39028e-10
2.36026e-10
2.0878e-10
2.92953e-10
3.17272e-10
4.5005e-10
1.19283e-09
-1.46974e-09
-6.63941e-10
2.44061e-09
1.44073e-09
-4.84526e-10
-1.18054e-09
-1.16911e-09
-9.13324e-10
-6.67986e-10
-4.87372e-10
-3.77418e-10
-3.0916e-10
-2.68884e-10
-2.32301e-10
-2.10802e-10
-1.8172e-10
-1.76149e-10
-1.68189e-10
-1.81123e-10
-1.73755e-10
-1.63619e-10
-1.42891e-10
-1.23162e-10
-1.34727e-10
-1.31973e-10
-1.73515e-10
-1.66036e-10
-2.02952e-10
-1.81326e-10
-2.00498e-10
-1.67977e-10
-1.75422e-10
-1.31448e-10
-1.45369e-10
-8.93332e-11
-1.19912e-10
-5.59244e-11
-9.01542e-11
-2.50595e-11
-6.01323e-11
7.32628e-12
-3.84069e-11
4.18211e-11
-1.14895e-11
7.91211e-11
1.89657e-11
1.03597e-10
3.71008e-11
1.27039e-10
5.65526e-11
1.6029e-10
8.9347e-11
1.90554e-10
1.39148e-10
2.36303e-10
2.06236e-10
2.98716e-10
2.99431e-10
4.77726e-10
1.15857e-09
-1.5568e-09
-4.69728e-10
2.49541e-09
1.10837e-09
-5.50734e-10
-1.06598e-09
-1.1129e-09
-8.9269e-10
-6.56188e-10
-4.78744e-10
-3.72541e-10
-3.0726e-10
-2.68874e-10
-2.32815e-10
-2.11876e-10
-1.82778e-10
-1.77465e-10
-1.69072e-10
-1.81993e-10
-1.74666e-10
-1.64694e-10
-1.44205e-10
-1.24014e-10
-1.36e-10
-1.32511e-10
-1.74358e-10
-1.66281e-10
-2.03299e-10
-1.81684e-10
-2.00679e-10
-1.6852e-10
-1.75809e-10
-1.31802e-10
-1.46008e-10
-8.94556e-11
-1.20595e-10
-5.64225e-11
-9.05381e-11
-2.57166e-11
-6.0345e-11
6.74108e-12
-3.88311e-11
4.116e-11
-1.16981e-11
7.87026e-11
1.96275e-11
1.02665e-10
3.74442e-11
1.25857e-10
5.70064e-11
1.59252e-10
8.99858e-11
1.89385e-10
1.38999e-10
2.37059e-10
2.02067e-10
3.07522e-10
2.7614e-10
5.15897e-10
1.10119e-09
-1.65199e-09
-1.91676e-10
2.5344e-09
7.04889e-10
-6.17306e-10
-9.19114e-10
-1.04701e-09
-8.72831e-10
-6.44848e-10
-4.6941e-10
-3.66831e-10
-3.04769e-10
-2.68477e-10
-2.33054e-10
-2.12719e-10
-1.83717e-10
-1.78669e-10
-1.69792e-10
-1.82547e-10
-1.75256e-10
-1.65608e-10
-1.45513e-10
-1.25049e-10
-1.37387e-10
-1.33175e-10
-1.75067e-10
-1.66372e-10
-2.03359e-10
-1.81771e-10
-2.00636e-10
-1.68852e-10
-1.76097e-10
-1.32097e-10
-1.46565e-10
-8.96525e-11
-1.21154e-10
-5.71114e-11
-9.08179e-11
-2.65795e-11
-6.0444e-11
5.90284e-12
-3.90877e-11
4.01269e-11
-1.16691e-11
7.78281e-11
2.05815e-11
1.01323e-10
3.81207e-11
1.24179e-10
5.77849e-11
1.57705e-10
9.08255e-11
1.87973e-10
1.38569e-10
2.38319e-10
1.96396e-10
3.1855e-10
2.50182e-10
5.58604e-10
1.02917e-09
-1.74777e-09
1.43644e-10
2.55751e-09
2.70871e-10
-6.83777e-10
-7.51743e-10
-9.7268e-10
-8.54365e-10
-6.34787e-10
-4.60115e-10
-3.60867e-10
-3.02152e-10
-2.68002e-10
-2.33339e-10
-2.13569e-10
-1.84672e-10
-1.79853e-10
-1.70414e-10
-1.8283e-10
-1.75555e-10
-1.6633e-10
-1.46792e-10
-1.26204e-10
-1.3885e-10
-1.33883e-10
-1.75619e-10
-1.66213e-10
-2.03108e-10
-1.8148e-10
-2.00312e-10
-1.68878e-10
-1.76196e-10
-1.3228e-10
-1.46941e-10
-8.99081e-11
-1.2151e-10
-5.79387e-11
-9.09539e-11
-2.75856e-11
-6.04042e-11
4.85191e-12
-3.9117e-11
3.87769e-11
-1.13622e-11
7.65519e-11
2.17464e-11
9.95762e-11
3.91263e-11
1.22036e-10
5.88812e-11
1.55694e-10
9.18026e-11
1.86311e-10
1.3786e-10
2.39804e-10
1.90088e-10
3.30102e-10
2.25546e-10
5.9744e-10
9.5288e-10
-1.83146e-09
4.87446e-10
2.56232e-09
-1.49741e-10
-7.4907e-10
-5.79472e-10
-8.92016e-10
-8.36829e-10
-6.266e-10
-4.5146e-10
-3.55047e-10
-2.99717e-10
-2.6777e-10
-2.33844e-10
-2.14564e-10
-1.85804e-10
-1.81119e-10
-1.7106e-10
-1.82954e-10
-1.75676e-10
-1.66896e-10
-1.48079e-10
-1.27461e-10
-1.4041e-10
-1.34589e-10
-1.76049e-10
-1.65776e-10
-2.0257e-10
-1.80797e-10
-1.9967e-10
-1.68582e-10
-1.76031e-10
-1.32326e-10
-1.47066e-10
-9.01858e-11
-1.21619e-10
-5.88397e-11
-9.09161e-11
-2.86796e-11
-6.01872e-11
3.65555e-12
-3.8887e-11
3.71497e-11
-1.07283e-11
7.49034e-11
2.31627e-11
9.74771e-11
4.04355e-11
1.19496e-10
6.0276e-11
1.53258e-10
9.29695e-11
1.84383e-10
1.37139e-10
2.4104e-10
1.84127e-10
3.39982e-10
2.06055e-10
6.24715e-10
8.81222e-10
-1.88781e-09
7.98965e-10
2.54328e-09
-5.16843e-10
-8.11196e-10
-4.17838e-10
-8.08255e-10
-8.19577e-10
-6.20403e-10
-4.43839e-10
-3.49571e-10
-2.97608e-10
-2.67828e-10
-2.3464e-10
-2.15778e-10
-1.87176e-10
-1.82513e-10
-1.71788e-10
-1.82998e-10
-1.75754e-10
-1.67338e-10
-1.49433e-10
-1.2878e-10
-1.42098e-10
-1.35266e-10
-1.76408e-10
-1.65097e-10
-2.01784e-10
-1.79787e-10
-1.98727e-10
-1.68012e-10
-1.75572e-10
-1.32254e-10
-1.4691e-10
-9.04701e-11
-1.21468e-10
-5.97683e-11
-9.06835e-11
-2.98286e-11
-5.9752e-11
2.28595e-12
-3.83353e-11
3.53014e-11
-9.79391e-12
7.29041e-11
2.47796e-11
9.50842e-11
4.20273e-11
1.16663e-10
6.19371e-11
1.50473e-10
9.43426e-11
1.82141e-10
1.368e-10
2.41458e-10
1.79681e-10
3.46358e-10
1.94647e-10
6.36263e-10
8.19027e-10
-1.90265e-09
1.047e-09
2.49182e-09
-8.01408e-10
-8.66458e-10
-2.79809e-10
-7.24877e-10
-8.01709e-10
-6.15964e-10
-4.37507e-10
-3.44683e-10
-2.95842e-10
-2.68184e-10
-2.3574e-10
-2.17212e-10
-1.88802e-10
-1.84027e-10
-1.72675e-10
-1.83021e-10
-1.75871e-10
-1.67697e-10
-1.50897e-10
-1.30132e-10
-1.43941e-10
-1.35914e-10
-1.76719e-10
-1.6425e-10
-2.00796e-10
-1.78555e-10
-1.97488e-10
-1.67245e-10
-1.74802e-10
-1.32093e-10
-1.46477e-10
-9.07556e-11
-1.2108e-10
-6.06996e-11
-9.02404e-11
-3.10302e-11
-5.90756e-11
7.79803e-13
-3.74486e-11
3.32832e-11
-8.60087e-12
7.06417e-11
2.65252e-11
9.24555e-11
4.3899e-11
1.13581e-10
6.3834e-11
1.47331e-10
9.59688e-11
1.79458e-10
1.37117e-10
2.40507e-10
1.7759e-10
3.48042e-10
1.9255e-10
6.31218e-10
7.67092e-10
-1.86487e-09
1.21428e-09
2.40257e-09
-9.94646e-10
-9.0817e-10
-1.72547e-10
-6.45324e-10
-7.8242e-10
-6.12803e-10
-4.32618e-10
-3.40438e-10
-2.94395e-10
-2.68788e-10
-2.37118e-10
-2.18837e-10
-1.90662e-10
-1.85679e-10
-1.73736e-10
-1.83052e-10
-1.76098e-10
-1.67994e-10
-1.52485e-10
-1.31503e-10
-1.45929e-10
-1.36549e-10
-1.76989e-10
-1.6332e-10
-1.99623e-10
-1.77212e-10
-1.95976e-10
-1.66364e-10
-1.73753e-10
-1.31875e-10
-1.45802e-10
-9.10235e-11
-1.20474e-10
-6.16506e-11
-8.96059e-11
-3.23121e-11
-5.81702e-11
-8.31956e-13
-3.62774e-11
3.11739e-11
-7.19408e-12
6.81698e-11
2.84106e-11
8.96804e-11
4.60082e-11
1.10301e-10
6.59817e-11
1.43969e-10
9.78863e-11
1.76231e-10
1.38293e-10
2.37948e-10
1.78342e-10
3.44672e-10
1.99433e-10
6.11805e-10
7.23653e-10
-1.77535e-09
1.29738e-09
2.27573e-09
-1.09719e-09
-9.31791e-10
-9.85059e-11
-5.72555e-10
-7.61236e-10
-6.1026e-10
-4.29223e-10
-3.36957e-10
-2.93224e-10
-2.69574e-10
-2.38723e-10
-2.20609e-10
-1.92738e-10
-1.87427e-10
-1.74999e-10
-1.83109e-10
-1.76472e-10
-1.68242e-10
-1.54185e-10
-1.32884e-10
-1.48025e-10
-1.372e-10
-1.77208e-10
-1.6239e-10
-1.98279e-10
-1.75853e-10
-1.9423e-10
-1.65436e-10
-1.72474e-10
-1.31628e-10
-1.44922e-10
-9.12906e-11
-1.19675e-10
-6.26207e-11
-8.87915e-11
-3.36695e-11
-5.70545e-11
-2.54399e-12
-3.48697e-11
2.90217e-11
-5.62061e-12
6.55514e-11
3.03971e-11
8.6783e-11
4.83019e-11
1.06889e-10
6.83244e-11
1.40331e-10
1.00169e-10
1.72417e-10
1.40432e-10
2.33699e-10
1.81907e-10
3.3666e-10
2.13894e-10
5.81529e-10
6.85022e-10
-1.63895e-09
1.30413e-09
2.11447e-09
-1.1202e-09
-9.3588e-10
-5.60941e-11
-5.08637e-10
-7.37939e-10
-6.07698e-10
-4.27234e-10
-3.3425e-10
-2.92296e-10
-2.70476e-10
-2.40498e-10
-2.22485e-10
-1.94959e-10
-1.89228e-10
-1.76431e-10
-1.83208e-10
-1.77005e-10
-1.68455e-10
-1.55972e-10
-1.34274e-10
-1.50176e-10
-1.37897e-10
-1.77357e-10
-1.61526e-10
-1.96783e-10
-1.74546e-10
-1.92294e-10
-1.64509e-10
-1.71012e-10
-1.31373e-10
-1.43876e-10
-9.157e-11
-1.18713e-10
-6.36085e-11
-8.78144e-11