/*--------------------------------*- C++ -*----------------------------------*\
| =========                 |                                                 |
| \\      /  F ield         | OpenFOAM: The Open Source CFD Toolbox           |
|  \\    /   O peration     | Version:  2312                                  |
|   \\  /    A nd           | Website:  www.openfoam.com                      |
|    \\/     M anipulation  |                                                 |
\*---------------------------------------------------------------------------*/
FoamFile
{
    version     2.0;
    format      ascii;
    arch        "LSB;label=32;scalar=64";
    class       volScalarField;
    location    "280";
    object      pPrime2Mean;
}
// * * * * * * * * * * * * * * * * * * * * * * * * * * * * * * * * * * * * * //

dimensions      [0 4 -4 0 0 0 0];

internalField   nonuniform List<scalar> 
144000
(
8.41959e-18
1.0955e-17
1.00374e-17
7.90083e-18
5.73136e-18
4.1847e-18
3.17411e-18
2.3625e-18
1.75635e-18
1.44225e-18
1.34251e-18
1.21343e-18
1.03134e-18
8.26022e-19
6.87344e-19
5.78894e-19
5.29104e-19
4.54893e-19
4.21286e-19
3.75677e-19
3.37051e-19
2.79722e-19
2.81839e-19
2.13243e-19
2.24153e-19
1.77129e-19
1.77982e-19
1.45299e-19
1.4269e-19
1.12932e-19
1.17936e-19
8.68709e-20
9.83785e-20
7.1856e-20
7.55029e-20
7.54163e-20
4.06483e-20
8.42212e-20
2.88849e-20
5.44431e-20
6.89699e-20
7.88548e-21
1.06379e-19
2.59254e-20
7.75997e-20
1.17393e-19
4.60815e-20
1.60794e-19
1.25568e-19
1.34202e-19
2.42769e-19
2.13152e-19
3.11354e-19
4.49432e-19
5.60305e-19
8.29238e-19
1.33188e-18
2.28918e-18
4.96439e-18
5.99783e-18
8.82577e-18
1.12011e-17
1.03031e-17
8.09746e-18
5.82458e-18
4.23945e-18
3.20994e-18
2.38543e-18
1.76911e-18
1.44992e-18
1.34893e-18
1.21911e-18
1.03547e-18
8.28737e-19
6.89203e-19
5.80346e-19
5.30471e-19
4.56006e-19
4.22067e-19
3.76682e-19
3.3787e-19
2.8005e-19
2.82522e-19
2.13791e-19
2.24414e-19
1.77706e-19
1.78249e-19
1.45734e-19
1.43008e-19
1.13201e-19
1.1834e-19
8.70609e-20
9.8769e-20
7.22273e-20
7.56118e-20
7.63835e-20
4.03723e-20
8.5358e-20
2.94054e-20
5.44345e-20
7.10974e-20
7.29655e-21
1.0851e-19
2.73936e-20
7.79819e-20
1.21581e-19
4.6955e-20
1.64687e-19
1.30772e-19
1.37756e-19
2.51303e-19
2.22164e-19
3.22676e-19
4.68296e-19
5.84406e-19
8.64956e-19
1.39106e-18
2.36957e-18
5.19897e-18
6.13731e-18
9.08407e-18
1.14044e-17
1.03882e-17
8.15958e-18
5.8459e-18
4.25626e-18
3.22745e-18
2.39954e-18
1.77772e-18
1.45538e-18
1.35473e-18
1.22463e-18
1.03964e-18
8.31274e-19
6.91027e-19
5.81732e-19
5.32171e-19
4.57177e-19
4.22982e-19
3.77891e-19
3.38933e-19
2.80257e-19
2.83638e-19
2.14232e-19
2.25029e-19
1.783e-19
1.78786e-19
1.46237e-19
1.43607e-19
1.13493e-19
1.19108e-19
8.72561e-20
9.95219e-20
7.27571e-20
7.59143e-20
7.79148e-20
4.00136e-20
8.73147e-20
3.01675e-20
5.47573e-20
7.43942e-20
6.62291e-21
1.1211e-19
2.96399e-20
7.91929e-20
1.27971e-19
4.88264e-20
1.71062e-19
1.38926e-19
1.43825e-19
2.64509e-19
2.36053e-19
3.39695e-19
4.95089e-19
6.17024e-19
9.08631e-19
1.45585e-18
2.45107e-18
5.40092e-18
6.28381e-18
8.95438e-18
1.1292e-17
1.0165e-17
7.96776e-18
5.74043e-18
4.19682e-18
3.19917e-18
2.38638e-18
1.76992e-18
1.45061e-18
1.35339e-18
1.22497e-18
1.04e-18
8.31254e-19
6.91002e-19
5.81769e-19
5.32924e-19
4.5755e-19
4.23155e-19
3.78637e-19
3.39663e-19
2.80076e-19
2.84536e-19
2.14509e-19
2.25495e-19
1.78855e-19
1.79289e-19
1.46742e-19
1.44201e-19
1.13798e-19
1.19947e-19
8.74478e-20
1.00396e-19
7.33597e-20
7.62497e-20
7.97346e-20
3.95858e-20
8.96664e-20
3.11058e-20
5.51785e-20
7.83212e-20
5.9367e-21
1.16315e-19
3.24574e-20
8.06133e-20
1.35455e-19
5.12083e-20
1.78326e-19
1.48503e-19
1.50737e-19
2.79139e-19
2.51585e-19
3.57327e-19
5.22586e-19
6.47886e-19
9.45242e-19
1.50015e-18
2.46424e-18
5.47574e-18
6.25372e-18
8.47734e-18
1.09988e-17
9.68183e-18
7.54258e-18
5.51898e-18
4.05886e-18
3.11954e-18
2.33992e-18
1.74045e-18
1.43063e-18
1.34001e-18
1.21574e-18
1.03349e-18
8.26604e-19
6.87652e-19
5.79291e-19
5.31611e-19
4.56268e-19
4.21859e-19
3.78155e-19
3.39463e-19
2.79186e-19
2.84692e-19
2.14358e-19
2.2556e-19
1.79108e-19
1.79563e-19
1.47075e-19
1.44615e-19
1.1399e-19
1.2069e-19
8.75607e-20
1.01215e-19
7.39229e-20
7.64983e-20
8.15714e-20
3.91097e-20
9.19848e-20
3.21139e-20
5.55399e-20
8.22781e-20
5.32779e-21
1.20313e-19
3.54875e-20
8.18456e-20
1.42792e-19
5.37058e-20
1.84952e-19
1.57893e-19
1.57113e-19
2.92348e-19
2.65921e-19
3.71791e-19
5.4487e-19
6.70855e-19
9.66914e-19
1.52072e-18
2.41351e-18
5.46998e-18
6.12496e-18
7.90648e-18
1.08566e-17
9.09172e-18
7.00011e-18
5.23181e-18
3.87058e-18
2.99891e-18
2.2644e-18
1.69118e-18
1.39574e-18
1.31381e-18
1.19585e-18
1.01901e-18
8.16387e-19
6.80303e-19
5.73733e-19
5.27695e-19
4.52882e-19
4.18703e-19
3.75982e-19
3.37921e-19
2.77347e-19
2.83789e-19
2.13522e-19
2.25051e-19
1.78866e-19
1.79468e-19
1.47107e-19
1.44722e-19
1.1398e-19
1.21197e-19
8.75158e-20
1.01833e-19
7.43528e-20
7.65641e-20
8.32151e-20
3.85877e-20
9.40355e-20
3.30722e-20
5.57849e-20
8.58354e-20
4.83815e-21
1.23659e-19
3.83606e-20
8.27527e-20
1.49036e-19
5.60251e-20
1.90246e-19
1.65872e-19
1.62414e-19
3.02586e-19
2.77615e-19
3.82122e-19
5.60652e-19
6.85045e-19
9.76242e-19
1.5222e-18
2.32501e-18
5.47896e-18
6.04953e-18
7.34595e-18
1.10187e-17
8.4795e-18
6.41861e-18
4.9033e-18
3.64602e-18
2.84602e-18
2.16549e-18
1.6255e-18
1.34826e-18
1.27624e-18
1.16605e-18
9.96886e-19
8.00774e-19
6.69048e-19
5.65175e-19
5.21164e-19
4.47344e-19
4.13689e-19
3.72019e-19
3.34938e-19
2.74475e-19
2.81694e-19
2.11844e-19
2.23853e-19
1.78048e-19
1.78871e-19
1.46784e-19
1.44437e-19
1.13716e-19
1.2138e-19
8.72808e-20
1.02158e-19
7.46004e-20
7.63995e-20
8.45465e-20
3.80232e-20
9.56609e-20
3.38959e-20
5.59271e-20
8.879e-20
4.46234e-21
1.26259e-19
4.08282e-20
8.33869e-20
1.5393e-19
5.79502e-20
1.9421e-19
1.71983e-19
1.66622e-19
3.09857e-19
2.86268e-19
3.887e-19
5.70233e-19
6.91082e-19
9.76202e-19
1.50736e-18
2.21388e-18
5.53417e-18
6.10956e-18
6.82585e-18
1.14724e-17
7.87769e-18
5.84155e-18
4.54198e-18
3.39321e-18
2.66741e-18
2.0477e-18
1.54684e-18
1.29081e-18
1.22944e-18
1.12812e-18
9.68351e-19
7.80456e-19
6.54338e-19
5.53925e-19
5.12287e-19
4.39909e-19
4.07057e-19
3.66456e-19
3.3065e-19
2.70632e-19
2.78479e-19
2.09343e-19
2.21925e-19
1.76672e-19
1.77731e-19
1.46109e-19
1.43743e-19
1.13197e-19
1.21213e-19
8.68648e-20
1.02153e-19
7.46707e-20
7.59933e-20
8.55407e-20
3.74293e-20
9.68708e-20
3.45818e-20
5.59693e-20
9.12094e-20
4.15553e-21
1.28215e-19
4.28771e-20
8.38134e-20
1.57664e-19
5.9395e-20
1.97283e-19
1.7637e-19
1.69878e-19
3.14854e-19
2.92204e-19
3.92177e-19
5.74794e-19
6.89717e-19
9.6908e-19
1.47749e-18
2.08917e-18
5.62996e-18
6.28318e-18
6.35183e-18
1.20638e-17
7.30069e-18
5.29789e-18
4.15742e-18
3.12129e-18
2.47048e-18
1.9165e-18
1.45934e-18
1.22633e-18
1.17607e-18
1.08416e-18
9.3498e-19
7.56498e-19
6.36851e-19
5.40458e-19
5.01454e-19
4.30914e-19
3.99135e-19
3.59621e-19
3.2533e-19
2.65986e-19
2.74337e-19
2.06148e-19
2.19278e-19
1.7481e-19
1.76054e-19
1.45115e-19
1.42661e-19
1.12464e-19
1.20721e-19
8.63062e-20
1.01836e-19
7.46076e-20
7.53542e-20
8.62543e-20
3.6821e-20
9.77013e-20
3.52092e-20
5.58745e-20
9.32924e-20
3.84571e-21
1.29719e-19
4.46564e-20
8.39361e-20
1.60691e-19
6.02436e-20
1.99624e-19
1.79403e-19
1.71991e-19
3.18011e-19
2.95399e-19
3.92401e-19
5.74763e-19
6.80956e-19
9.54478e-19
1.43241e-18
1.9569e-18
5.73127e-18
6.46702e-18
5.91714e-18
1.25809e-17
6.76078e-18
4.79538e-18
3.76462e-18
2.84027e-18
2.26387e-18
1.77779e-18
1.367e-18
1.15791e-18
1.11858e-18
1.03626e-18
8.98446e-19
7.30074e-19
6.17424e-19
5.25382e-19
4.89142e-19
4.20711e-19
3.9024e-19
3.51851e-19
3.19326e-19
2.60755e-19
2.69525e-19
2.02478e-19
2.1598e-19
1.72593e-19
1.73887e-19
1.4385e-19
1.41232e-19
1.11573e-19
1.19947e-19
8.56496e-20
1.01234e-19
7.44709e-20
7.44833e-20
8.67402e-20
3.62124e-20
9.81409e-20
3.58985e-20
5.55176e-20
9.5245e-20
3.46437e-21
1.30726e-19
4.63754e-20
8.34446e-20
1.63239e-19
6.03452e-20
2.00923e-19
1.81241e-19
1.72301e-19
3.18956e-19
2.95527e-19
3.8838e-19
5.69309e-19
6.63285e-19
9.29934e-19
1.36717e-18
1.81629e-18
5.78994e-18
6.50835e-18
5.49811e-18
1.27776e-17
6.26407e-18
4.32287e-18
3.38007e-18
2.561e-18
2.05629e-18
1.63727e-18
1.27381e-18
1.0884e-18
1.05934e-18
9.86417e-19
8.60258e-19
7.02316e-19
5.96909e-19
5.09351e-19
4.75847e-19
4.09714e-19
3.80628e-19
3.43426e-19
3.12947e-19
2.55159e-19
2.64265e-19
1.98579e-19
2.12144e-19
1.70125e-19
1.7131e-19
1.42341e-19
1.39511e-19
1.10571e-19
1.18922e-19
8.49363e-20
1.00366e-19
7.4301e-20
7.33795e-20
8.70314e-20
3.56153e-20
9.81224e-20
3.67515e-20
5.47434e-20
9.71416e-20
2.97035e-21
1.31018e-19
4.81486e-20
8.19972e-20
1.65155e-19
5.95428e-20
2.0056e-19
1.81708e-19
1.70135e-19
3.17008e-19
2.91904e-19
3.78812e-19
5.57279e-19
6.35831e-19
8.93319e-19
1.28172e-18
1.6661e-18
5.74553e-18
6.30255e-18
5.07392e-18
1.25296e-17
5.80858e-18
3.87045e-18
3.01685e-18
2.29261e-18
1.85508e-18
1.49959e-18
1.18285e-18
1.02014e-18
1.0003e-18
9.36256e-19
8.21656e-19
6.74167e-19
5.76008e-19
4.92919e-19
4.62034e-19
3.98268e-19
3.70559e-19
3.34579e-19
3.06396e-19
2.49397e-19
2.58728e-19
1.94671e-19
2.07911e-19
1.67516e-19
1.68414e-19
1.40617e-19
1.37541e-19
1.09489e-19
1.17662e-19
8.41986e-20
9.92614e-20
7.41178e-20
7.20363e-20
8.71153e-20
3.50471e-20
9.75443e-20
3.77865e-20
5.34344e-20
9.89246e-20
2.36767e-21
1.30376e-19
4.99552e-20
7.9321e-20
1.66184e-19
5.77806e-20
1.98094e-19
1.8064e-19
1.65194e-19
3.11718e-19
2.84349e-19
3.63567e-19
5.38503e-19
5.99241e-19
8.44627e-19
1.1801e-18
1.50839e-18
5.56829e-18
5.82525e-18
4.62776e-18
1.18246e-17
5.38082e-18
3.43084e-18
2.6829e-18
2.04175e-18
1.66609e-18
1.36815e-18
1.09621e-18
9.54839e-19
9.42983e-19
8.87071e-19
7.83665e-19
6.46307e-19
5.55261e-19
4.76552e-19
4.48113e-19
3.86705e-19
3.60297e-19
3.25514e-19
2.99807e-19
2.43631e-19
2.53041e-19
1.9091e-19
2.03447e-19
1.64857e-19
1.6532e-19
1.38715e-19
1.35372e-19
1.0834e-19
1.16174e-19
8.34622e-20
9.79325e-20
7.3918e-20
7.04827e-20
8.6956e-20
3.45263e-20
9.63458e-20
3.89665e-20
5.1621e-20
1.006e-19
1.70071e-21
1.28739e-19
5.17207e-20
7.54783e-20
1.66146e-19
5.51581e-20
1.9344e-19
1.78046e-19
1.57585e-19
3.03234e-19
2.73324e-19
3.43347e-19
5.14002e-19
5.55817e-19
7.86467e-19
1.06912e-18
1.34731e-18
5.25703e-18
5.12804e-18
4.15927e-18
1.07533e-17
4.96747e-18
3.005e-18
2.38173e-18
1.81251e-18
1.49272e-18
1.24522e-18
1.01519e-18
8.93609e-19
8.88437e-19
8.39834e-19
7.46978e-19
6.19319e-19
5.35084e-19
4.60618e-19
4.344e-19
3.75327e-19
3.50085e-19
3.16414e-19
2.93257e-19
2.37986e-19
2.47291e-19
1.87384e-19
1.98885e-19
1.62221e-19
1.62132e-19
1.36685e-19
1.33057e-19
1.07143e-19
1.14478e-19
8.27464e-20
9.64078e-20
7.36931e-20
6.87731e-20
8.65385e-20
3.4073e-20
9.45607e-20
4.02304e-20
4.93897e-20
1.02295e-19
1.04201e-21
1.26336e-19
5.34061e-20
7.06849e-20
1.65031e-19
5.19191e-20
1.86872e-19
1.74233e-19
1.47899e-19
2.92196e-19
2.59787e-19
3.1964e-19
4.85521e-19
5.0871e-19
7.22673e-19
9.57215e-19
1.18884e-18
4.84264e-18
4.31627e-18
3.67923e-18
9.46298e-18
4.55839e-18
2.60086e-18
2.11322e-18
1.60682e-18
1.33655e-18
1.13209e-18
9.40362e-19
8.37004e-19
8.37342e-19
7.95129e-19
7.12044e-19
5.93557e-19
5.15699e-19
4.45343e-19
4.21127e-19
3.64328e-19
3.40107e-19
3.07446e-19
2.86804e-19
2.32553e-19
2.41548e-19
1.84123e-19
1.94332e-19
1.5966e-19
1.58933e-19
1.34589e-19
1.30655e-19
1.05921e-19
1.12607e-19
8.20677e-20
9.47313e-20
7.34385e-20
6.69823e-20
8.58786e-20
3.3714e-20
9.22768e-20
4.15454e-20
4.6817e-20
1.04429e-19
4.90809e-22
1.23775e-19
5.50373e-20
6.52308e-20
1.62994e-19
4.83791e-20
1.78782e-19
1.69625e-19
1.36876e-19
2.79422e-19
2.44864e-19
2.9407e-19
4.54993e-19
4.61047e-19
6.57109e-19
8.50901e-19
1.03837e-18
4.36556e-18
3.49909e-18
3.20758e-18
8.10851e-18
4.15064e-18
2.22927e-18
1.87511e-18
1.42492e-18
1.19784e-18
1.02928e-18
8.71791e-19
7.85149e-19
7.89951e-19
7.53276e-19
6.79134e-19
5.69179e-19
4.97233e-19
4.30858e-19
4.08434e-19
3.53826e-19
3.30496e-19
2.98752e-19
2.80492e-19
2.27395e-19
2.3587e-19
1.81125e-19
1.89864e-19
1.57206e-19
1.55791e-19
1.32492e-19
1.2822e-19
1.04702e-19
1.10612e-19
8.14329e-20
9.29602e-20
7.31545e-20
6.51881e-20
8.50121e-20
3.34748e-20
8.96194e-20
4.28784e-20
4.39869e-20
1.07678e-19
1.35055e-22
1.22081e-19
5.66732e-20
5.94182e-20
1.6026e-19
4.4838e-20
1.69691e-19
1.64654e-19
1.25227e-19
2.65714e-19
2.29565e-19
2.68075e-19
4.24047e-19
4.15301e-19
5.9289e-19
7.54138e-19
8.99449e-19
3.87111e-18
2.76875e-18
2.76548e-18
6.80949e-18
3.7443e-18
1.89821e-18
1.66397e-18
1.26576e-18
1.07583e-18
9.36658e-19
8.09189e-19
7.37859e-19
7.46281e-19
7.14384e-19
6.48327e-19
5.46251e-19
4.79739e-19
4.17228e-19
3.96393e-19
3.43885e-19
3.21329e-19
2.90433e-19
2.74352e-19
2.22551e-19
2.30303e-19
1.7837e-19
1.85525e-19
1.54877e-19
1.52755e-19
1.30444e-19
1.258e-19
1.03514e-19
1.08546e-19
8.08472e-20
9.11481e-20
7.28522e-20
6.34408e-20
8.40037e-20
3.33299e-20
8.67797e-20
4.40724e-20
4.12193e-20
1.09332e-19
1.54867e-27
1.19406e-19
5.80494e-20
5.35475e-20
1.57026e-19
4.15312e-20
1.60039e-19
1.5966e-19
1.1353e-19
2.51729e-19
2.14656e-19
2.42713e-19
3.93962e-19
3.7293e-19
5.3195e-19
6.68687e-19
7.74111e-19
3.39296e-18
2.17104e-18
2.37247e-18
5.64508e-18
3.34438e-18
1.61165e-18
1.47636e-18
1.12753e-18
9.6923e-19
8.5376e-19
7.52123e-19
6.94798e-19
7.06195e-19
6.78423e-19
6.19611e-19
5.24762e-19
4.6322e-19
4.04457e-19
3.85027e-19
3.34527e-19
3.1264e-19
2.82559e-19
2.68407e-19
2.1804e-19
2.24904e-19
1.75835e-19
1.81358e-19
1.52679e-19
1.49853e-19
1.2848e-19
1.23434e-19
1.02378e-19
1.06462e-19
8.03129e-20
8.93409e-20
7.25472e-20
6.17714e-20
8.29225e-20
3.32436e-20
8.39249e-20
4.49867e-20
3.87754e-20
1.05579e-19
1.20865e-22
1.12412e-19
5.8934e-20
4.78493e-20
1.53477e-19
3.86219e-20
1.50165e-19
1.54873e-19
1.02208e-19
2.37902e-19
2.00638e-19
2.18669e-19
3.65463e-19
3.34772e-19
4.75342e-19
5.94449e-19
6.63524e-19
2.95413e-18
1.71943e-18
2.04036e-18
4.65073e-18
2.95788e-18
1.36945e-18
1.30918e-18
1.00799e-18
8.76546e-19
7.79981e-19
7.00115e-19
6.55553e-19
6.69456e-19
6.45265e-19
5.92909e-19
5.04678e-19
4.47635e-19
3.92515e-19
3.74326e-19
3.25738e-19
3.04433e-19
2.75163e-19
2.62669e-19
2.13861e-19
2.19699e-19
1.73495e-19
1.77374e-19
1.5061e-19
1.471e-19
1.26626e-19
1.2115e-19
1.01309e-19
1.04404e-19
7.98278e-20
8.75802e-20
7.22472e-20
6.02141e-20
8.18039e-20
3.32447e-20
8.10923e-20
4.57542e-20
3.65223e-20
1.00663e-19
4.92977e-22
1.04742e-19
5.97141e-20
4.24317e-20
1.49752e-19
3.62022e-20
1.40326e-19
1.50425e-19
9.1539e-20
2.24535e-19
1.87785e-19
1.96328e-19
3.38916e-19
3.0104e-19
4.2345e-19
5.30517e-19
5.67943e-19
2.5648e-18
1.40234e-18
1.77348e-18
3.82792e-18
2.59224e-18
1.16715e-18
1.15983e-18
9.04841e-19
7.96208e-19
7.14604e-19
6.52694e-19
6.19689e-19
6.35779e-19
6.14734e-19
5.68101e-19
4.85904e-19
4.32925e-19
3.81357e-19
3.6427e-19
3.1749e-19
2.96691e-19
2.68251e-19
2.57146e-19
2.10003e-19
2.1471e-19
1.71329e-19
1.73579e-19
1.48666e-19
1.44501e-19
1.24891e-19
1.1897e-19
1.00315e-19
1.02405e-19
7.93893e-20
8.58956e-20
7.19585e-20
5.87892e-20
8.06768e-20
3.33557e-20
7.83061e-20
4.65137e-20
3.43531e-20
9.7181e-20
1.2107e-21
9.86788e-20
6.06321e-20
3.73725e-20
1.45935e-19
3.43236e-20
1.30695e-19
1.46379e-19
8.16878e-20
2.11745e-19
1.76213e-19
1.75838e-19
3.14432e-19
2.71565e-19
3.76158e-19
4.75552e-19
4.86879e-19
2.22601e-18
1.19322e-18
1.56806e-18
3.15533e-18
2.25256e-18
9.98243e-19
1.02616e-18
8.15717e-19
7.26712e-19
6.56855e-19
6.09419e-19
5.86785e-19
6.04855e-19
5.86629e-19
5.4505e-19
4.68334e-19
4.19024e-19
3.7093e-19
3.54827e-19
3.09747e-19
2.89385e-19
2.61813e-19
2.51838e-19
2.06442e-19
2.09952e-19
1.69317e-19
1.69972e-19
1.46843e-19
1.42056e-19
1.23282e-19
1.16907e-19
9.93986e-20
1.00487e-19
7.89959e-20
8.43055e-20
7.16901e-20
5.74965e-20
7.95732e-20
3.35545e-20
7.56307e-20
4.72569e-20
3.23491e-20
9.4581e-20
2.1712e-21
9.34527e-20
6.16417e-20
3.2758e-20
1.42088e-19
3.29797e-20
1.21395e-19
1.42736e-19
7.27354e-20
1.99616e-19
1.65938e-19
1.57206e-19
2.91986e-19
2.45944e-19
3.33314e-19
4.28169e-19
4.19333e-19
1.93163e-18
1.06124e-18
1.41693e-18
2.60533e-18
1.94182e-18
8.55548e-19
9.06334e-19
7.38528e-19
6.66656e-19
6.0599e-19
5.69909e-19
5.56462e-19
5.76387e-19
5.60748e-19
5.23617e-19
4.51865e-19
4.05865e-19
3.61175e-19
3.45953e-19
3.02469e-19
2.82484e-19
2.55828e-19
2.46743e-19
2.03156e-19
2.05429e-19
1.67441e-19
1.66549e-19
1.45132e-19
1.39761e-19
1.21796e-19
1.14967e-19
9.85587e-20
9.86616e-20
7.86447e-20
8.28219e-20
7.14447e-20
5.63369e-20
7.85086e-20
3.38305e-20
7.30954e-20
4.79656e-20
3.05809e-20
9.24234e-20
3.28376e-21
8.86879e-20
6.26994e-20
2.86216e-20
1.38254e-19
3.21416e-20
1.12503e-19
1.39472e-19
6.47124e-20
1.88168e-19
1.56892e-19
1.40363e-19
2.71485e-19
2.23758e-19
2.94579e-19
3.87248e-19
3.63879e-19
1.67374e-18
9.77656e-19
1.31123e-18
2.14878e-18
1.66249e-18
7.32761e-19
7.98881e-19
6.71393e-19
6.14787e-19
5.61299e-19
5.33843e-19
5.28401e-19
5.50101e-19
5.36893e-19
5.03671e-19
4.36397e-19
3.93383e-19
3.52038e-19
3.37611e-19
2.9562e-19
2.75958e-19
2.50266e-19
2.41855e-19
2.00118e-19
2.01141e-19
1.65685e-19
1.63305e-19
1.43524e-19
1.3761e-19
1.20429e-19
1.13154e-19
9.77921e-20
9.6937e-20
7.83318e-20
8.14514e-20
7.1222e-20
5.5311e-20
7.74888e-20
3.41828e-20
7.07011e-20
4.86478e-20
2.9059e-20
9.04845e-20
4.51189e-21
8.42613e-20
6.38078e-20
2.49585e-20
1.34458e-19
3.17688e-20
1.04067e-19
1.3654e-19
5.76126e-20
1.77381e-19
1.48989e-19
1.25198e-19
2.52811e-19
2.04598e-19
2.59684e-19
3.51732e-19
3.18893e-19
1.4444e-18
9.19616e-19
1.24304e-18
1.76309e-18
1.41636e-18
6.25083e-19
7.02695e-19
6.12806e-19
5.70052e-19
5.22143e-19
5.00949e-19
5.02333e-19
5.25751e-19
5.14879e-19
4.85085e-19
4.21833e-19
3.81516e-19
3.43461e-19
3.29759e-19
2.8916e-19
2.69775e-19
2.45095e-19
2.37167e-19
1.97302e-19
1.97087e-19
1.64036e-19
1.60231e-19
1.42009e-19
1.35597e-19
1.19175e-19
1.11471e-19
9.70945e-20
9.53148e-20
7.80533e-20
8.01961e-20
7.10207e-20
5.44168e-20
7.65186e-20
3.46059e-20
6.84514e-20
4.93139e-20
2.77697e-20
8.86395e-20
5.84359e-21
8.01233e-20
6.4958e-20
2.17588e-20
1.30719e-19
3.18104e-20
9.61266e-20
1.33891e-19
5.14106e-20
1.6723e-19
1.42126e-19
1.11599e-19
2.3582e-19
1.8809e-19
2.28349e-19
3.20843e-19
2.82988e-19
1.2377e-18
8.70276e-19
1.20595e-18
1.43019e-18
1.20422e-18
5.2946e-19
6.16812e-19
5.61508e-19
5.31559e-19
4.87958e-19
4.70993e-19
4.78037e-19
5.03117e-19
4.94537e-19
4.67746e-19
4.08084e-19
3.70207e-19
3.35393e-19
3.22359e-19
2.83057e-19
2.63906e-19
2.40283e-19
2.32668e-19
1.94687e-19
1.93257e-19
1.62481e-19
1.57316e-19
1.40581e-19
1.33713e-19
1.1803e-19
1.09917e-19
9.64624e-20
9.37941e-20
7.7807e-20
7.90564e-20
7.08405e-20
5.36506e-20
7.56023e-20
3.50914e-20
6.63534e-20
4.99652e-20
2.66992e-20
8.68678e-20
7.26715e-21
7.6254e-20
6.61313e-20
1.90086e-20
1.27063e-19
3.22138e-20
8.87132e-20
1.31489e-19
4.60685e-20
1.57712e-19
1.36208e-19
9.94735e-20
2.20409e-19
1.73942e-19
2.00353e-19
2.93961e-19
2.54856e-19
1.04942e-18
8.18415e-19
8.43476e-18
1.09922e-17
1.00796e-17
7.92652e-18
5.74743e-18
4.1937e-18
3.18092e-18
2.36809e-18
1.76051e-18
1.44491e-18
1.34397e-18
1.21421e-18
1.03166e-18
8.26088e-19
6.87237e-19
5.78766e-19
5.28975e-19
4.54878e-19
4.21329e-19
3.75726e-19
3.37126e-19
2.79787e-19
2.81944e-19
2.13275e-19
2.24238e-19
1.77141e-19
1.78056e-19
1.45317e-19
1.42775e-19
1.12914e-19
1.18e-19
8.68343e-20
9.84027e-20
7.18206e-20
7.55139e-20
7.53965e-20
4.06688e-20
8.42138e-20
2.89212e-20
5.44391e-20
6.90359e-20
7.87374e-21
1.06399e-19
2.58816e-20
7.76804e-20
1.17511e-19
4.60752e-20
1.60951e-19
1.25608e-19
1.34361e-19
2.42888e-19
2.13338e-19
3.11253e-19
4.49599e-19
5.59887e-19
8.28859e-19
1.33086e-18
2.28663e-18
4.99138e-18
6.01494e-18
8.84024e-18
1.12402e-17
1.03456e-17
8.12451e-18
5.8406e-18
4.24846e-18
3.21679e-18
2.391e-18
1.77328e-18
1.45257e-18
1.35038e-18
1.21987e-18
1.03578e-18
8.2879e-19
6.89085e-19
5.80205e-19
5.30337e-19
4.55985e-19
4.22109e-19
3.76728e-19
3.37944e-19
2.80113e-19
2.82626e-19
2.13821e-19
2.24499e-19
1.77717e-19
1.78324e-19
1.45753e-19
1.43093e-19
1.13184e-19
1.18404e-19
8.70254e-20
9.87921e-20
7.21942e-20
7.56212e-20
7.63659e-20
4.0391e-20
8.53519e-20
2.94405e-20
5.44308e-20
7.11667e-20
7.28456e-21
1.08534e-19
2.73479e-20
7.80647e-20
1.21706e-19
4.695e-20
1.64849e-19
1.30817e-19
1.37915e-19
2.51427e-19
2.22349e-19
3.22556e-19
4.6844e-19
5.83953e-19
8.64535e-19
1.38975e-18
2.36694e-18
5.22636e-18
6.15427e-18
9.10297e-18
1.14447e-17
1.04302e-17
8.18662e-18
5.86141e-18
4.26465e-18
3.23395e-18
2.40505e-18
1.78182e-18
1.45802e-18
1.35617e-18
1.22537e-18
1.03993e-18
8.3131e-19
6.90891e-19
5.81574e-19
5.32025e-19
4.5715e-19
4.23023e-19
3.77932e-19
3.39006e-19
2.8032e-19
2.83742e-19
2.14259e-19
2.25112e-19
1.78309e-19
1.78862e-19
1.46258e-19
1.43696e-19
1.13478e-19
1.19173e-19
8.72223e-20
9.95441e-20
7.2727e-20
7.59231e-20
7.79004e-20
4.00311e-20
8.73127e-20
3.02028e-20
5.47531e-20
7.44689e-20
6.6105e-21
1.12144e-19
2.95883e-20
7.92828e-20
1.28108e-19
4.88259e-20
1.71231e-19
1.38981e-19
1.43992e-19
2.64652e-19
2.36257e-19
3.39598e-19
4.95304e-19
6.16608e-19
9.08253e-19
1.45449e-18
2.44979e-18
5.42747e-18
6.30251e-18
8.97409e-18
1.13344e-17
1.02037e-17
7.99283e-18
5.75478e-18
4.20398e-18
3.20532e-18
2.39164e-18
1.77395e-18
1.45317e-18
1.35478e-18
1.22566e-18
1.04025e-18
8.31263e-19
6.90843e-19
5.81587e-19
5.3276e-19
4.57512e-19
4.23191e-19
3.78672e-19
3.39733e-19
2.80138e-19
2.8464e-19
2.14534e-19
2.25575e-19
1.78863e-19
1.79364e-19
1.46768e-19
1.44291e-19
1.13786e-19
1.20013e-19
8.74168e-20
1.00416e-19
7.33335e-20
7.6255e-20
7.97249e-20
3.96008e-20
8.96643e-20
3.11414e-20
5.51737e-20
7.84133e-20
5.92488e-21
1.1636e-19
3.23908e-20
8.0716e-20
1.35607e-19
5.12142e-20
1.78512e-19
1.48576e-19
1.5092e-19
2.79324e-19
2.51835e-19
3.57279e-19
5.22886e-19
6.47643e-19
9.45127e-19
1.49925e-18
2.46508e-18
5.50454e-18
6.27386e-18
8.49126e-18
1.10381e-17
9.71494e-18
7.56394e-18
5.53129e-18
4.06571e-18
3.12496e-18
2.34483e-18
1.74429e-18
1.43312e-18
1.34132e-18
1.2164e-18
1.03369e-18
8.2657e-19
6.87466e-19
5.79076e-19
5.31421e-19
4.56213e-19
4.21884e-19
3.78183e-19
3.39524e-19
2.79247e-19
2.84794e-19
2.14383e-19
2.25636e-19
1.79115e-19
1.79631e-19
1.47105e-19
1.44706e-19
1.13984e-19
1.20753e-19
8.75351e-20
1.0123e-19
7.39027e-20
7.65002e-20
8.15667e-20
3.91188e-20
9.19881e-20
3.21491e-20
5.55323e-20
8.23827e-20
5.31806e-21
1.20372e-19
3.53927e-20
8.19648e-20
1.42965e-19
5.37222e-20
1.85154e-19
1.57986e-19
1.57328e-19
2.9259e-19
2.66234e-19
3.71855e-19
5.45316e-19
6.70849e-19
9.67181e-19
1.52056e-18
2.41433e-18
5.50154e-18
6.14461e-18
7.92263e-18
1.08888e-17
9.11967e-18
7.01759e-18
5.24173e-18
3.8765e-18
3.00378e-18
2.26898e-18
1.69498e-18
1.3982e-18
1.31506e-18
1.19644e-18
1.01917e-18
8.16318e-19
6.80089e-19
5.73487e-19
5.27475e-19
4.52809e-19
4.18714e-19
3.76001e-19
3.3797e-19
2.77407e-19
2.83887e-19
2.13548e-19
2.2512e-19
1.78873e-19
1.79527e-19
1.47145e-19
1.44812e-19
1.13983e-19
1.21257e-19
8.74971e-20
1.01839e-19
7.43409e-20
7.65572e-20
8.32195e-20
3.85908e-20
9.40431e-20
3.31055e-20
5.57739e-20
8.59586e-20
4.83265e-21
1.23736e-19
3.82216e-20
8.28896e-20
1.49228e-19
5.60547e-20
1.90463e-19
1.65989e-19
1.62663e-19
3.02871e-19
2.77991e-19
3.82277e-19
5.61238e-19
6.85235e-19
9.76862e-19
1.52261e-18
2.32658e-18
5.51173e-18
6.06647e-18
7.36192e-18
1.10427e-17
8.5027e-18
6.43267e-18
4.91167e-18
3.65107e-18
2.85046e-18
2.16993e-18
1.62923e-18
1.35067e-18
1.27742e-18
1.16656e-18
9.96998e-19
8.00673e-19
6.68806e-19
5.64902e-19
5.20914e-19
4.4725e-19
4.13686e-19
3.72027e-19
3.34971e-19
2.74533e-19
2.81787e-19
2.11873e-19
2.23913e-19
1.78057e-19
1.78918e-19
1.46829e-19
1.44522e-19
1.13729e-19
1.21433e-19
8.72717e-20
1.02152e-19
7.45992e-20
7.63807e-20
8.45631e-20
3.80161e-20
9.5672e-20
3.39234e-20
5.59063e-20
8.89316e-20
4.46334e-21
1.26355e-19
4.06266e-20
8.35423e-20
1.5414e-19
5.79935e-20
1.94435e-19
1.72121e-19
1.66899e-19
3.10182e-19
2.867e-19
3.88929e-19
5.70948e-19
6.91402e-19
9.77101e-19
1.50815e-18
2.2158e-18
5.5667e-18
6.12342e-18
6.84127e-18
1.14895e-17
7.89653e-18
5.8528e-18
4.549e-18
3.39744e-18
2.67144e-18
2.05203e-18
1.55052e-18
1.29316e-18
1.23058e-18
1.12857e-18
9.68424e-19
7.80327e-19
6.54074e-19
5.5363e-19
5.12007e-19
4.39796e-19
4.07041e-19
3.66456e-19
3.30666e-19
2.7069e-19
2.78564e-19
2.09378e-19
2.21972e-19
1.76684e-19
1.77762e-19
1.46162e-19
1.43818e-19
1.13224e-19
1.21254e-19
8.68684e-20
1.02132e-19
7.46833e-20
7.59588e-20
8.55694e-20
3.74053e-20
9.68908e-20
3.45967e-20
5.59357e-20
9.13591e-20
4.16486e-21
1.28365e-19
4.25883e-20
8.39826e-20
1.57881e-19
5.94501e-20
1.97515e-19
1.76525e-19
1.70178e-19
3.15207e-19
2.92685e-19
3.92462e-19
5.7559e-19
6.90125e-19
9.70163e-19
1.47838e-18
2.09113e-18
5.6609e-18
6.29434e-18
6.36666e-18
1.20763e-17
7.31577e-18
5.30673e-18
4.1632e-18
3.12479e-18
2.47415e-18
1.92069e-18
1.46293e-18
1.22862e-18
1.17717e-18
1.08456e-18
9.35021e-19
7.56346e-19
6.36562e-19
5.40147e-19
5.01148e-19
4.30785e-19
3.99104e-19
3.59614e-19
3.25327e-19
2.66045e-19
2.74411e-19
2.06191e-19
2.19312e-19
1.74827e-19
1.76067e-19
1.45178e-19
1.42725e-19
1.12507e-19
1.20749e-19
8.63248e-20
1.01795e-19
7.46379e-20
7.52983e-20
8.62955e-20
3.67736e-20
9.77357e-20
3.51944e-20
5.58235e-20
9.34339e-20
3.86287e-21
1.29913e-19
4.42502e-20
8.41111e-20
1.60928e-19
6.03092e-20
1.99858e-19
1.79571e-19
1.72305e-19
3.18377e-19
2.9591e-19
3.92723e-19
5.75605e-19
6.81391e-19
9.55641e-19
1.43343e-18
1.95883e-18
5.75974e-18
6.47649e-18
5.93132e-18
1.25913e-17
6.77256e-18
4.80241e-18
3.76927e-18
2.84313e-18
2.26719e-18
1.78181e-18
1.3705e-18
1.16015e-18
1.11965e-18
1.03663e-18
8.9846e-19
7.29906e-19
6.17124e-19
5.2506e-19
4.88814e-19
4.20568e-19
3.90194e-19
3.5184e-19
3.19306e-19
2.60815e-19
2.69586e-19
2.0253e-19
2.16001e-19
1.72616e-19
1.73882e-19
1.43923e-19
1.41284e-19
1.11632e-19
1.19958e-19
8.56851e-20
1.01169e-19
7.45207e-20
7.4403e-20
8.68018e-20
3.61334e-20
9.81973e-20
3.58414e-20
5.54668e-20
9.53339e-20
3.4871e-21
1.31013e-19
4.58159e-20
8.36169e-20
1.63489e-19
6.04189e-20
2.01152e-19
1.81417e-19
1.7262e-19
3.19328e-19
2.96045e-19
3.88699e-19
5.70156e-19
6.63727e-19
9.31106e-19
1.36816e-18
1.81815e-18
5.8155e-18
6.51736e-18
5.51157e-18
1.27875e-17
6.27345e-18
4.32844e-18
3.38374e-18
2.56333e-18
2.05928e-18
1.64111e-18
1.27723e-18
1.0906e-18
1.06038e-18
9.86767e-19
8.6025e-19
7.02134e-19
5.96599e-19
5.09021e-19
4.75502e-19
4.09559e-19
3.80566e-19
3.43414e-19
3.1291e-19
2.55223e-19
2.64312e-19
1.9864e-19
2.12151e-19
1.70155e-19
1.71285e-19
1.42425e-19
1.39547e-19
1.10648e-19
1.18914e-19
8.49911e-20
1.00278e-19
7.43728e-20
7.32673e-20
8.71207e-20
3.54976e-20
9.82033e-20
3.66174e-20
5.46785e-20
9.71029e-20
2.99459e-21
1.3138e-19
4.7402e-20
8.21549e-20
1.65415e-19
5.96215e-20
2.00777e-19
1.81885e-19
1.70446e-19
3.17374e-19
2.9241e-19
3.79131e-19
5.58086e-19
6.36251e-19
8.94369e-19
1.28266e-18
1.66777e-18
5.76765e-18
6.31186e-18
5.08679e-18
1.25397e-17
5.81611e-18
3.87486e-18
3.01966e-18
2.29441e-18
1.85775e-18
1.50325e-18
1.18617e-18
1.0223e-18
1.00132e-18
9.36589e-19
8.21644e-19
6.73975e-19
5.7569e-19
4.92581e-19
4.61674e-19
3.98104e-19
3.70481e-19
3.34565e-19
3.06343e-19
2.49465e-19
2.58763e-19
1.94742e-19
2.07905e-19
1.67553e-19
1.68372e-19
1.4071e-19
1.37559e-19
1.09583e-19
1.17634e-19
8.42728e-20
9.91473e-20
7.42121e-20
7.1893e-20
8.72325e-20
3.48813e-20
9.7664e-20
3.75482e-20
5.33598e-20
9.8649e-20
2.39168e-21
1.30759e-19
4.89925e-20
7.94651e-20
1.66446e-19
5.78606e-20
1.98293e-19
1.80813e-19
1.65488e-19
3.12068e-19
2.8482e-19
3.63869e-19
5.39234e-19
5.99632e-19
8.45482e-19
1.18096e-18
1.50985e-18
5.58687e-18
5.8351e-18
4.63995e-18
1.1835e-17
5.38706e-18
3.43425e-18
2.68498e-18
2.04317e-18
1.66845e-18
1.37162e-18
1.09943e-18
9.56943e-19
9.4398e-19
8.87396e-19
7.83636e-19
6.46118e-19
5.54943e-19
4.7621e-19
4.47742e-19
3.86538e-19
3.60204e-19
3.255e-19
2.99738e-19
2.43702e-19
2.53064e-19
1.90991e-19
2.03428e-19
1.649e-19
1.65261e-19
1.38816e-19
1.35374e-19
1.0845e-19
1.16128e-19
8.35551e-20
9.77923e-20
7.40351e-20
7.03059e-20
8.71014e-20
3.43088e-20
9.65138e-20
3.86042e-20
5.1509e-20
9.98245e-20
1.73132e-21
1.29009e-19
5.0526e-20
7.55948e-20
1.664e-19
5.52385e-20
1.93619e-19
1.78211e-19
1.57851e-19
3.03558e-19
2.7375e-19
3.43629e-19
5.14625e-19
5.56171e-19
7.87077e-19
1.06989e-18
1.34853e-18
5.2721e-18
5.13789e-18
4.17055e-18
1.07635e-17
4.97288e-18
3.00751e-18
2.38318e-18
1.81361e-18
1.4948e-18
1.24849e-18
1.0183e-18
8.95656e-19
8.89396e-19
8.40145e-19
7.46936e-19
6.19134e-19
5.34758e-19
4.60272e-19
4.34022e-19
3.75156e-19
3.49977e-19
3.16401e-19
2.93175e-19
2.3806e-19
2.47303e-19
1.87473e-19
1.98855e-19
1.62269e-19
1.62056e-19
1.36794e-19
1.33042e-19
1.07267e-19
1.14415e-19
8.28572e-20
9.62454e-20
7.38308e-20
6.85675e-20
8.671e-20
3.38086e-20
9.47738e-20
3.97325e-20
4.9223e-20
1.00532e-19
1.09433e-21
1.26206e-19
5.19623e-20
7.07621e-20
1.65274e-19
5.19984e-20
1.87026e-19
1.74384e-19
1.48133e-19
2.92492e-19
2.60159e-19
3.19894e-19
4.86021e-19
5.0902e-19
7.23016e-19
9.57884e-19
1.18981e-18
4.85433e-18
4.3256e-18
3.68934e-18
9.47221e-18
4.56324e-18
2.60254e-18
2.11413e-18
1.60766e-18
1.33837e-18
1.13516e-18
9.43356e-19
8.38991e-19
8.38278e-19
7.95426e-19
7.11996e-19
5.93369e-19
5.15371e-19
4.44997e-19
4.20741e-19
3.64154e-19
3.39988e-19
3.07434e-19
2.8671e-19
2.32629e-19
2.4155e-19
1.84219e-19
1.94292e-19
1.59712e-19
1.58843e-19
1.34703e-19
1.30626e-19
1.06056e-19
1.1253e-19
8.21932e-20
9.45508e-20
7.35926e-20
6.67539e-20
8.60693e-20
3.34054e-20
9.2541e-20
4.08804e-20
4.66469e-20
1.00744e-19
5.65297e-22
1.2251e-19
5.33051e-20
6.52808e-20
1.63221e-19
4.84532e-20
1.78913e-19
1.69762e-19
1.37077e-19
2.79686e-19
2.45177e-19
2.94298e-19
4.55368e-19
4.61323e-19
6.57192e-19
8.51456e-19
1.0391e-18
4.37411e-18
3.50765e-18
3.21635e-18
8.11628e-18
4.15505e-18
2.2302e-18
1.87556e-18
1.42557e-18
1.19944e-18
1.03214e-18
8.7466e-19
7.87073e-19
7.90861e-19
7.53557e-19
6.79073e-19
5.68987e-19
4.96906e-19
4.30514e-19
4.08045e-19
3.53652e-19
3.30367e-19
2.98741e-19
2.80388e-19
2.27472e-19
2.35864e-19
1.81226e-19
1.89816e-19
1.57262e-19
1.5569e-19
1.32608e-19
1.28179e-19
1.04846e-19
1.10523e-19
8.15703e-20
9.27662e-20
7.33221e-20
6.49393e-20
8.52239e-20
3.31156e-20
8.9952e-20
4.20099e-20
4.39393e-20
1.00479e-19
2.14771e-22
1.18185e-19
5.45831e-20
5.94692e-20