/*--------------------------------*- C++ -*----------------------------------*\
| =========                 |                                                 |
| \\      /  F ield         | OpenFOAM: The Open Source CFD Toolbox           |
|  \\    /   O peration     | Version:  2312                                  |
|   \\  /    A nd           | Website:  www.openfoam.com                      |
|    \\/     M anipulation  |                                                 |
\*---------------------------------------------------------------------------*/
FoamFile
{
    version     2.0;
    format      ascii;
    arch        "LSB;label=32;scalar=64";
    class       volScalarField;
    location    "500";
    object      k;
}
// * * * * * * * * * * * * * * * * * * * * * * * * * * * * * * * * * * * * * //

dimensions      [0 2 -2 0 0 0 0];

internalField   nonuniform List<scalar> 
144000
(
1.06846e-05
1.06827e-05
1.06873e-05
1.06821e-05
1.07256e-05
1.06835e-05
1.07283e-05
1.07226e-05
1.07272e-05
1.06877e-05
1.06856e-05
1.06845e-05
1.0688e-05
1.06851e-05
1.07248e-05
1.0724e-05
1.06852e-05
1.06871e-05
1.06861e-05
1.07247e-05
1.07229e-05
1.06881e-05
1.06862e-05
1.07279e-05
1.06877e-05
1.06842e-05
1.07247e-05
1.06865e-05
1.0684e-05
1.07221e-05
1.06793e-05
1.07283e-05
1.06873e-05
1.07288e-05
1.07238e-05
1.073e-05
1.06907e-05
1.07301e-05
1.06897e-05
1.06878e-05
1.07282e-05
1.06821e-05
1.06887e-05
1.06856e-05
1.07279e-05
1.07248e-05
1.06859e-05
1.06908e-05
1.06852e-05
1.06877e-05
1.06818e-05
1.07219e-05
1.06832e-05
1.06904e-05
1.07235e-05
1.07263e-05
1.06849e-05
1.06879e-05
1.06833e-05
1.06821e-05
2.20415e-05
2.2039e-05
2.20449e-05
2.20425e-05
2.20152e-05
2.20325e-05
2.20184e-05
2.20036e-05
2.20026e-05
2.20298e-05
2.20403e-05
2.20398e-05
2.20442e-05
2.20436e-05
2.20195e-05
2.2005e-05
2.20275e-05
2.20399e-05
2.20451e-05
2.20196e-05
2.19994e-05
2.20267e-05
2.20417e-05
2.20169e-05
2.20352e-05
2.20428e-05
2.20156e-05
2.20345e-05
2.2042e-05
2.20139e-05
2.20274e-05
2.20116e-05
2.20343e-05
2.20187e-05
2.20045e-05
2.20049e-05
2.20352e-05
2.20177e-05
2.20349e-05
2.20441e-05
2.20203e-05
2.20304e-05
2.20426e-05
2.2043e-05
2.20214e-05
2.20063e-05
2.2027e-05
2.20449e-05
2.20435e-05
2.2047e-05
2.20441e-05
2.20128e-05
2.20269e-05
2.20463e-05
2.20184e-05
2.20063e-05
2.20279e-05
2.20397e-05
2.20414e-05
2.20394e-05
2.68212e-05
2.68183e-05
2.68216e-05
2.68236e-05
2.67888e-05
2.68067e-05
2.67885e-05
2.67726e-05
2.6764e-05
2.67942e-05
2.68142e-05
2.6816e-05
2.68197e-05
2.6822e-05
2.67952e-05
2.6773e-05
2.67962e-05
2.68115e-05
2.68221e-05
2.67962e-05
2.67667e-05
2.6791e-05
2.68149e-05
2.67861e-05
2.68047e-05
2.68206e-05
2.67884e-05
2.6806e-05
2.68202e-05
2.67891e-05
2.68045e-05
2.67787e-05
2.68039e-05
2.67874e-05
2.67723e-05
2.67646e-05
2.67995e-05
2.67827e-05
2.6802e-05
2.68179e-05
2.67913e-05
2.6805e-05
2.68159e-05
2.68203e-05
2.67945e-05
2.67742e-05
2.67944e-05
2.68153e-05
2.68203e-05
2.68239e-05
2.68266e-05
2.67899e-05
2.67998e-05
2.68189e-05
2.67937e-05
2.67725e-05
2.67968e-05
2.6811e-05
2.68195e-05
2.68189e-05
2.87886e-05
2.8786e-05
2.87862e-05
2.87905e-05
2.87635e-05
2.87733e-05
2.87597e-05
2.87477e-05
2.8734e-05
2.87531e-05
2.87751e-05
2.87801e-05
2.87825e-05
2.87871e-05
2.87696e-05
2.87467e-05
2.87603e-05
2.87723e-05
2.8785e-05
2.87702e-05
2.87422e-05
2.87532e-05
2.87758e-05
2.8756e-05
2.87661e-05
2.87843e-05
2.87614e-05
2.87698e-05
2.87849e-05
2.87635e-05
2.87739e-05
2.87509e-05
2.87666e-05
2.87564e-05
2.87457e-05
2.8733e-05
2.87578e-05
2.87488e-05
2.87616e-05
2.8779e-05
2.87613e-05
2.8771e-05
2.8778e-05
2.8785e-05
2.87669e-05
2.87473e-05
2.8758e-05
2.8774e-05
2.87835e-05
2.87864e-05
2.87934e-05
2.87672e-05
2.87688e-05
2.87798e-05
2.87669e-05
2.8745e-05
2.87605e-05
2.87717e-05
2.87836e-05
2.87845e-05
2.94216e-05
2.94204e-05
2.94181e-05
2.94226e-05
2.94052e-05
2.9409e-05
2.93993e-05
2.93923e-05
2.93779e-05
2.93863e-05
2.94034e-05
2.9411e-05
2.94126e-05
2.94178e-05
2.9409e-05
2.93907e-05
2.93963e-05
2.94029e-05
2.94141e-05
2.94078e-05
2.93891e-05
2.93908e-05
2.94046e-05
2.93943e-05
2.93987e-05
2.94133e-05
2.94011e-05
2.94039e-05
2.94151e-05
2.94037e-05
2.94109e-05
2.93937e-05
2.94006e-05
2.93943e-05
2.93887e-05
2.93757e-05
2.93894e-05
2.93852e-05
2.93925e-05
2.94073e-05
2.93984e-05
2.94051e-05
2.94085e-05
2.94159e-05
2.94058e-05
2.93904e-05
2.93943e-05
2.94027e-05
2.9413e-05
2.94154e-05
2.94237e-05
2.94096e-05
2.94068e-05
2.94106e-05
2.94053e-05
2.93889e-05
2.93961e-05
2.94024e-05
2.94134e-05
2.94155e-05
2.93955e-05
2.93955e-05
2.93928e-05
2.93962e-05
2.9386e-05
2.93869e-05
2.93799e-05
2.93761e-05
2.9365e-05
2.93668e-05
2.93755e-05
2.9384e-05
2.93853e-05
2.93901e-05
2.93864e-05
2.93752e-05
2.93763e-05
2.93786e-05
2.93858e-05
2.93841e-05
2.93753e-05
2.93719e-05
2.93788e-05
2.93741e-05
2.93755e-05
2.9385e-05
2.93802e-05
2.93808e-05
2.93879e-05
2.93827e-05
2.93883e-05
2.93772e-05
2.93788e-05
2.93741e-05
2.93717e-05
2.93618e-05
2.93675e-05
2.93649e-05
2.93687e-05
2.9379e-05
2.93756e-05
2.93809e-05
2.93824e-05
2.93886e-05
2.93839e-05
2.93739e-05
2.93747e-05
2.93772e-05
2.93849e-05
2.93869e-05
2.93945e-05
2.93891e-05
2.93863e-05
2.93857e-05
2.93836e-05
2.93733e-05
2.93758e-05
2.93782e-05
2.93855e-05
2.9388e-05
2.90309e-05
2.90321e-05
2.90296e-05
2.90317e-05
2.90261e-05
2.9026e-05
2.90208e-05
2.90189e-05
2.9012e-05
2.90103e-05
2.90133e-05
2.90199e-05
2.90209e-05
2.90248e-05
2.90237e-05
2.90184e-05
2.90178e-05
2.9018e-05
2.90212e-05
2.90212e-05
2.90188e-05
2.90147e-05
2.90172e-05
2.9015e-05
2.90153e-05
2.90202e-05
2.90193e-05
2.90195e-05
2.90236e-05
2.90216e-05
2.90262e-05
2.902e-05
2.90195e-05
2.90152e-05
2.90144e-05
2.90081e-05
2.90096e-05
2.90071e-05
2.90089e-05
2.90149e-05
2.9014e-05
2.90185e-05
2.90192e-05
2.90236e-05
2.90218e-05
2.90167e-05
2.90168e-05
2.90164e-05
2.90205e-05
2.90219e-05
2.90276e-05
2.90265e-05
2.9026e-05
2.90236e-05
2.90227e-05
2.90169e-05
2.90174e-05
2.90177e-05
2.90213e-05
2.90234e-05
2.84832e-05
2.84849e-05
2.84831e-05
2.84842e-05
2.84811e-05
2.84809e-05
2.84771e-05
2.84761e-05
2.84726e-05
2.84696e-05
2.84702e-05
2.84736e-05
2.84743e-05
2.8477e-05
2.84769e-05
2.84752e-05
2.84748e-05
2.84738e-05
2.84749e-05
2.8475e-05
2.8475e-05
2.84729e-05
2.84731e-05
2.84718e-05
2.84715e-05
2.84735e-05
2.84741e-05
2.84742e-05
2.84766e-05
2.8476e-05
2.84797e-05
2.84767e-05
2.8476e-05
2.84722e-05
2.84721e-05
2.84686e-05
2.84682e-05
2.84656e-05
2.84663e-05
2.84691e-05
2.84689e-05
2.84726e-05
2.84729e-05
2.8476e-05
2.84755e-05
2.84736e-05
2.84738e-05
2.84725e-05
2.84745e-05
2.8475e-05
2.84785e-05
2.84789e-05
2.84805e-05
2.84781e-05
2.84776e-05
2.84746e-05
2.84746e-05
2.84741e-05
2.84754e-05
2.84766e-05
2.78288e-05
2.78302e-05
2.7829e-05
2.78294e-05
2.78276e-05
2.78276e-05
2.78249e-05
2.78244e-05
2.78227e-05
2.78203e-05
2.78194e-05
2.7821e-05
2.78212e-05
2.78227e-05
2.78228e-05
2.78227e-05
2.78227e-05
2.78221e-05
2.78218e-05
2.78215e-05
2.78226e-05
2.78219e-05
2.78213e-05
2.782e-05
2.78201e-05
2.78204e-05
2.78211e-05
2.78213e-05
2.78225e-05
2.78225e-05
2.78253e-05
2.78241e-05
2.78238e-05
2.7821e-05
2.78212e-05
2.78194e-05
2.78186e-05
2.78159e-05
2.78161e-05
2.7817e-05
2.78167e-05
2.78195e-05
2.78196e-05
2.78216e-05
2.78216e-05
2.78213e-05
2.7822e-05
2.78207e-05
2.78216e-05
2.78216e-05
2.78233e-05
2.78239e-05
2.78263e-05
2.78245e-05
2.78243e-05
2.7823e-05
2.7823e-05
2.78224e-05
2.78226e-05
2.78232e-05
2.71056e-05
2.71063e-05
2.71054e-05
2.71054e-05
2.71042e-05
2.71044e-05
2.71025e-05
2.71022e-05
2.71014e-05
2.71e-05
2.70986e-05
2.70994e-05
2.70992e-05
2.70997e-05
2.70997e-05
2.71e-05
2.71005e-05
2.71001e-05
2.70995e-05
2.70989e-05
2.71e-05
2.70999e-05
2.70995e-05
2.70985e-05
2.70986e-05
2.70984e-05
2.70987e-05
2.70989e-05
2.70994e-05
2.70995e-05
2.71016e-05
2.71012e-05
2.71013e-05
2.70996e-05
2.70998e-05
2.70989e-05
2.70982e-05
2.7096e-05
2.70958e-05
2.70959e-05
2.70953e-05
2.70972e-05
2.70972e-05
2.70983e-05
2.70984e-05
2.70986e-05
2.70998e-05
2.70989e-05
2.70993e-05
2.70992e-05
2.70999e-05
2.71002e-05
2.71024e-05
2.71012e-05
2.71011e-05
2.71007e-05
2.7101e-05
2.71006e-05
2.71003e-05
2.71006e-05
2.63329e-05
2.6333e-05
2.63323e-05
2.63321e-05
2.63311e-05
2.63313e-05
2.633e-05
2.63298e-05
2.63293e-05
2.63287e-05
2.63275e-05
2.63279e-05
2.63276e-05
2.63275e-05
2.63273e-05
2.63276e-05
2.63282e-05
2.6328e-05
2.63275e-05
2.63267e-05
2.63276e-05
2.63277e-05
2.63276e-05
2.63269e-05
2.63271e-05
2.63268e-05
2.63267e-05
2.63269e-05
2.63269e-05
2.6327e-05
2.63285e-05
2.63284e-05
2.63287e-05
2.63277e-05
2.6328e-05
2.63276e-05
2.63271e-05
2.63255e-05
2.63253e-05
2.6325e-05
2.6324e-05
2.63253e-05
2.63253e-05
2.63259e-05
2.63259e-05
2.63262e-05
2.63275e-05
2.63269e-05
2.63273e-05
2.6327e-05
2.63273e-05
2.63273e-05
2.6329e-05
2.63282e-05
2.63282e-05
2.63283e-05
2.63286e-05
2.63284e-05
2.63281e-05
2.63284e-05
2.55216e-05
2.55215e-05
2.55208e-05
2.55204e-05
2.55194e-05
2.55196e-05
2.55186e-05
2.55185e-05
2.55182e-05
2.55179e-05
2.55173e-05
2.55176e-05
2.55172e-05
2.55169e-05
2.55164e-05
2.55166e-05
2.55172e-05
2.5517e-05
2.55167e-05
2.55159e-05
2.55165e-05
2.55168e-05
2.55167e-05
2.55163e-05
2.55166e-05
2.55163e-05
2.5516e-05
2.55162e-05
2.55161e-05
2.5516e-05
2.5517e-05
2.5517e-05
2.55174e-05
2.55167e-05
2.55171e-05
2.55169e-05
2.55167e-05
2.55157e-05
2.55154e-05
2.55151e-05
2.55141e-05
2.5515e-05
2.5515e-05
2.55152e-05
2.55152e-05
2.55154e-05
2.55164e-05
2.55161e-05
2.55164e-05
2.55162e-05
2.55161e-05
2.5516e-05
2.55173e-05
2.55168e-05
2.55167e-05
2.55169e-05
2.55173e-05
2.55173e-05
2.55172e-05
2.55173e-05
2.46784e-05
2.46783e-05
2.46775e-05
2.46771e-05
2.46761e-05
2.46761e-05
2.46754e-05
2.46753e-05
2.46751e-05
2.46751e-05
2.46749e-05
2.46751e-05
2.46748e-05
2.46744e-05
2.46738e-05
2.46738e-05
2.46743e-05
2.46742e-05
2.4674e-05
2.46733e-05
2.46738e-05
2.4674e-05
2.4674e-05
2.46737e-05
2.4674e-05
2.46738e-05
2.46735e-05
2.46736e-05
2.46735e-05
2.46732e-05
2.46739e-05
2.46739e-05
2.46743e-05
2.46738e-05
2.46742e-05
2.46741e-05
2.46742e-05
2.46735e-05
2.46733e-05
2.4673e-05
2.46722e-05
2.46728e-05
2.46728e-05
2.46728e-05
2.46728e-05
2.46729e-05
2.46736e-05
2.46735e-05
2.46737e-05
2.46735e-05
2.46733e-05
2.46731e-05
2.46741e-05
2.46737e-05
2.46736e-05
2.46737e-05
2.46741e-05
2.46741e-05
2.46742e-05
2.46742e-05
2.38082e-05
2.3808e-05
2.38074e-05
2.38069e-05
2.38059e-05
2.38059e-05
2.38053e-05
2.38052e-05
2.38053e-05
2.38053e-05
2.38052e-05
2.38054e-05
2.38052e-05
2.38048e-05
2.38042e-05
2.38042e-05
2.38046e-05
2.38045e-05
2.38043e-05
2.38037e-05
2.38041e-05
2.38042e-05
2.38042e-05
2.38041e-05
2.38044e-05
2.38042e-05
2.38039e-05
2.38041e-05
2.38039e-05
2.38036e-05
2.38041e-05
2.38041e-05
2.38043e-05
2.3804e-05
2.38043e-05
2.38043e-05
2.38044e-05
2.3804e-05
2.38039e-05
2.38037e-05
2.38031e-05
2.38036e-05
2.38035e-05
2.38035e-05
2.38035e-05
2.38033e-05
2.3804e-05
2.38038e-05
2.3804e-05
2.38039e-05
2.38036e-05
2.38034e-05
2.38041e-05
2.38039e-05
2.38037e-05
2.38038e-05
2.38041e-05
2.38041e-05
2.38042e-05
2.38043e-05
2.2915e-05
2.29149e-05
2.29144e-05
2.29139e-05
2.2913e-05
2.29129e-05
2.29124e-05
2.29123e-05
2.29124e-05
2.29124e-05
2.29124e-05
2.29126e-05
2.29125e-05
2.29122e-05
2.29117e-05
2.29116e-05
2.29119e-05
2.29119e-05
2.29117e-05
2.29112e-05
2.29115e-05
2.29116e-05
2.29116e-05
2.29115e-05
2.29117e-05
2.29116e-05
2.29114e-05
2.29115e-05
2.29114e-05
2.2911e-05
2.29114e-05
2.29114e-05
2.29116e-05
2.29113e-05
2.29115e-05
2.29115e-05
2.29117e-05
2.29114e-05
2.29115e-05
2.29114e-05
2.2911e-05
2.29113e-05
2.29113e-05
2.29112e-05
2.29109e-05
2.29108e-05
2.29113e-05
2.29113e-05
2.29114e-05
2.29113e-05
2.29111e-05
2.29108e-05
2.29114e-05
2.29113e-05
2.2911e-05
2.29111e-05
2.29113e-05
2.29113e-05
2.29114e-05
2.29114e-05
2.20026e-05
2.20025e-05
2.20021e-05
2.20017e-05
2.20009e-05
2.20008e-05
2.20002e-05
2.20001e-05
2.20003e-05
2.20003e-05
2.20002e-05
2.20005e-05
2.20004e-05
2.20002e-05
2.19998e-05
2.19996e-05
2.19999e-05
2.19999e-05
2.19997e-05
2.19993e-05
2.19996e-05
2.19996e-05
2.19996e-05
2.19995e-05
2.19997e-05
2.19997e-05
2.19995e-05
2.19996e-05
2.19995e-05
2.19992e-05
2.19995e-05
2.19994e-05
2.19995e-05
2.19993e-05
2.19995e-05
2.19995e-05
2.19996e-05
2.19995e-05
2.19996e-05
2.19996e-05
2.19993e-05
2.19995e-05
2.19995e-05
2.19993e-05
2.1999e-05
2.1999e-05
2.19994e-05
2.19994e-05
2.19995e-05
2.19994e-05
2.19992e-05
2.1999e-05
2.19994e-05
2.19993e-05
2.19991e-05
2.19992e-05
2.19993e-05
2.19993e-05
2.19993e-05
2.19994e-05
2.10745e-05
2.10744e-05
2.1074e-05
2.10737e-05
2.1073e-05
2.10728e-05
2.10724e-05
2.10723e-05
2.10724e-05
2.10723e-05
2.10724e-05
2.10725e-05
2.10725e-05
2.10723e-05
2.1072e-05
2.10719e-05
2.10721e-05
2.10721e-05
2.1072e-05
2.10717e-05
2.10719e-05
2.10719e-05
2.10719e-05
2.10718e-05
2.1072e-05
2.10719e-05
2.10718e-05
2.10719e-05
2.10717e-05
2.10714e-05
2.10717e-05
2.10716e-05
2.10717e-05
2.10716e-05
2.10717e-05
2.10717e-05
2.10718e-05
2.10717e-05
2.10718e-05
2.10718e-05
2.10716e-05
2.10718e-05
2.10718e-05
2.10717e-05
2.10714e-05
2.10714e-05
2.10717e-05
2.10717e-05
2.10718e-05
2.10717e-05
2.10716e-05
2.10713e-05
2.10717e-05
2.10716e-05
2.10714e-05
2.10715e-05
2.10715e-05
2.10715e-05
2.10716e-05
2.10716e-05
2.01341e-05
2.01341e-05
2.01337e-05
2.01334e-05
2.01328e-05
2.01327e-05
2.01323e-05
2.01322e-05
2.01323e-05
2.01322e-05
2.01323e-05
2.01324e-05
2.01324e-05
2.01323e-05
2.0132e-05
2.01319e-05
2.01321e-05
2.01321e-05
2.0132e-05
2.01317e-05
2.01319e-05
2.01319e-05
2.01319e-05
2.01318e-05
2.0132e-05
2.0132e-05
2.01319e-05
2.01318e-05
2.01316e-05
2.01314e-05
2.01316e-05
2.01316e-05
2.01317e-05
2.01316e-05
2.01316e-05
2.01316e-05
2.01317e-05
2.01317e-05
2.01316e-05
2.01317e-05
2.01316e-05
2.01318e-05
2.01318e-05
2.01317e-05
2.01315e-05
2.01315e-05
2.01318e-05
2.01318e-05
2.01318e-05
2.01318e-05
2.01316e-05
2.01314e-05
2.01317e-05
2.01317e-05
2.01315e-05
2.01314e-05
2.01316e-05
2.01316e-05
2.01316e-05
2.01316e-05
1.91852e-05
1.91851e-05
1.91849e-05
1.91846e-05
1.91841e-05
1.9184e-05
1.91836e-05
1.91835e-05
1.91836e-05
1.91836e-05
1.91836e-05
1.91837e-05
1.91837e-05
1.91836e-05
1.91834e-05
1.91833e-05
1.91834e-05
1.91834e-05
1.91834e-05
1.91832e-05
1.91833e-05
1.91833e-05
1.91833e-05
1.91833e-05
1.91834e-05
1.91834e-05
1.91833e-05
1.91832e-05
1.9183e-05
1.91828e-05
1.91829e-05
1.91829e-05
1.9183e-05
1.91829e-05
1.91829e-05
1.9183e-05
1.9183e-05
1.9183e-05
1.91831e-05
1.91831e-05
1.9183e-05
1.91832e-05
1.91832e-05
1.91831e-05
1.9183e-05
1.9183e-05
1.91832e-05
1.91832e-05
1.91832e-05
1.91832e-05
1.91831e-05
1.91829e-05
1.91831e-05
1.91831e-05
1.91829e-05
1.9183e-05
1.9183e-05
1.9183e-05
1.9183e-05
1.9183e-05
1.82315e-05
1.82315e-05
1.82313e-05
1.8231e-05
1.82306e-05
1.82305e-05
1.82302e-05
1.82301e-05
1.82302e-05
1.82302e-05
1.82301e-05
1.82302e-05
1.82302e-05
1.82302e-05
1.82301e-05
1.82299e-05
1.82301e-05
1.82301e-05
1.823e-05
1.82299e-05
1.82299e-05
1.823e-05
1.823e-05
1.82299e-05
1.823e-05
1.823e-05
1.82299e-05
1.82298e-05
1.82296e-05
1.82294e-05
1.82296e-05
1.82296e-05
1.82296e-05
1.82296e-05
1.82296e-05
1.82296e-05
1.82297e-05
1.82297e-05
1.82297e-05
1.82298e-05
1.82297e-05
1.82298e-05
1.82298e-05
1.82298e-05
1.82297e-05
1.82298e-05
1.82299e-05
1.82299e-05
1.82299e-05
1.82298e-05
1.82297e-05
1.82296e-05
1.82298e-05
1.82298e-05
1.82297e-05
1.82296e-05
1.82297e-05
1.82297e-05
1.82297e-05
1.82297e-05
1.72773e-05
1.72772e-05
1.72771e-05
1.72769e-05
1.72766e-05
1.72765e-05
1.72763e-05
1.72761e-05
1.72762e-05
1.72762e-05
1.72762e-05
1.72763e-05
1.72763e-05
1.72762e-05
1.72761e-05
1.7276e-05
1.72761e-05
1.72761e-05
1.72761e-05
1.7276e-05
1.7276e-05
1.7276e-05
1.7276e-05
1.7276e-05
1.72761e-05
1.72761e-05
1.7276e-05
1.7276e-05
1.72758e-05
1.72756e-05
1.72757e-05
1.72757e-05
1.72757e-05
1.72757e-05
1.72757e-05
1.72757e-05
1.72758e-05
1.72758e-05
1.72758e-05
1.72759e-05
1.72758e-05
1.72759e-05
1.72759e-05
1.72759e-05
1.72759e-05
1.72759e-05
1.7276e-05
1.7276e-05
1.7276e-05
1.72759e-05
1.72759e-05
1.72758e-05
1.72759e-05
1.72759e-05
1.72758e-05
1.72758e-05
1.72759e-05
1.72759e-05
1.72759e-05
1.72759e-05
1.63273e-05
1.63273e-05
1.63272e-05
1.6327e-05
1.63268e-05
1.63267e-05
1.63265e-05
1.63264e-05
1.63265e-05
1.63265e-05
1.63265e-05
1.63265e-05
1.63265e-05
1.63265e-05
1.63264e-05
1.63264e-05
1.63264e-05
1.63264e-05
1.63264e-05
1.63263e-05
1.63263e-05
1.63264e-05
1.63264e-05
1.63264e-05
1.63264e-05
1.63264e-05
1.63264e-05
1.63263e-05
1.63262e-05
1.6326e-05
1.63261e-05
1.63261e-05
1.63261e-05
1.63261e-05
1.6326e-05
1.63261e-05
1.63261e-05
1.63261e-05
1.63261e-05
1.63262e-05
1.63262e-05
1.63262e-05
1.63262e-05
1.63262e-05
1.63262e-05
1.63262e-05
1.63264e-05
1.63263e-05
1.63263e-05
1.63263e-05
1.63263e-05
1.63262e-05
1.63263e-05
1.63263e-05
1.63262e-05
1.63262e-05
1.63262e-05
1.63262e-05
1.63263e-05
1.63263e-05
1.53874e-05
1.53874e-05
1.53873e-05
1.53872e-05
1.5387e-05
1.5387e-05
1.53869e-05
1.53868e-05
1.53868e-05
1.53869e-05
1.53869e-05
1.53869e-05
1.53869e-05
1.53869e-05
1.53868e-05
1.53868e-05
1.53869e-05
1.53869e-05
1.53868e-05
1.53867e-05
1.53868e-05
1.53868e-05
1.53868e-05
1.53868e-05
1.53868e-05
1.53868e-05
1.53868e-05
1.53868e-05
1.53867e-05
1.53865e-05
1.53866e-05
1.53866e-05
1.53866e-05
1.53865e-05
1.53866e-05
1.53866e-05
1.53866e-05
1.53866e-05
1.53866e-05
1.53867e-05
1.53866e-05
1.53867e-05
1.53867e-05
1.53867e-05
1.53867e-05
1.53867e-05
1.53868e-05
1.53868e-05
1.53868e-05
1.53867e-05
1.53867e-05
1.53866e-05
1.53867e-05
1.53867e-05
1.53867e-05
1.53867e-05
1.53867e-05
1.53867e-05
1.53867e-05
1.53867e-05
1.44654e-05
1.44654e-05
1.44654e-05
1.44653e-05
1.44652e-05
1.44652e-05
1.44651e-05
1.44651e-05
1.44651e-05
1.44651e-05
1.44651e-05
1.44652e-05
1.44652e-05
1.44652e-05
1.44652e-05
1.44652e-05
1.44652e-05
1.44652e-05
1.44651e-05
1.44651e-05
1.44651e-05
1.44651e-05
1.44652e-05
1.44652e-05
1.44652e-05
1.44652e-05
1.44651e-05
1.44651e-05
1.44651e-05
1.44649e-05
1.4465e-05
1.44649e-05
1.4465e-05
1.44649e-05
1.44649e-05
1.44649e-05
1.44649e-05
1.44649e-05
1.44649e-05
1.4465e-05
1.4465e-05
1.4465e-05
1.4465e-05
1.4465e-05
1.4465e-05
1.4465e-05
1.44651e-05
1.44651e-05
1.44651e-05
1.44651e-05
1.44651e-05
1.4465e-05
1.44651e-05
1.44651e-05
1.44651e-05
1.44651e-05
1.44651e-05
1.44651e-05
1.44651e-05
1.44651e-05
1.35726e-05
1.35726e-05
1.35726e-05
1.35726e-05
1.35726e-05
1.35726e-05
1.35725e-05
1.35725e-05
1.35725e-05
1.35726e-05
1.35726e-05
1.35726e-05
1.35727e-05
1.35727e-05
1.35727e-05
1.35727e-05
1.35727e-05
1.35727e-05
1.35727e-05
1.35726e-05
1.35726e-05
1.35727e-05
1.35727e-05
1.35727e-05
1.35727e-05
1.35727e-05
1.35727e-05
1.35726e-05
1.35726e-05
1.35725e-05
1.35725e-05
1.35725e-05
1.35725e-05
1.35725e-05
1.35725e-05
1.35725e-05
1.35725e-05
1.35725e-05
1.35725e-05
1.35725e-05
1.35725e-05
1.35725e-05
1.35725e-05
1.35725e-05
1.35726e-05
1.35726e-05
1.35726e-05
1.35727e-05
1.35727e-05
1.35727e-05
1.35726e-05
1.35726e-05
1.35726e-05
1.35726e-05
1.35726e-05
1.35726e-05
1.35726e-05
1.35726e-05
1.35726e-05
1.35727e-05
1.07268e-05
1.06854e-05
1.06892e-05
1.06821e-05
1.0684e-05
1.06823e-05
1.07244e-05
1.07236e-05
1.06921e-05
1.06862e-05
1.0728e-05
1.06859e-05
1.07286e-05
1.07256e-05
1.06908e-05
1.06879e-05
1.07273e-05
1.06889e-05
1.06869e-05
1.07267e-05
1.07225e-05
1.07307e-05
1.06884e-05
1.06886e-05
1.06858e-05
1.06812e-05
1.06849e-05
1.0681e-05
1.07264e-05
1.06809e-05
1.07248e-05
1.06859e-05
1.06859e-05
1.07247e-05
1.07272e-05
1.06889e-05
1.06929e-05
1.06825e-05
1.07284e-05
1.06807e-05
1.07319e-05
1.06834e-05
1.07306e-05
1.0682e-05
1.06845e-05
1.06835e-05
1.06819e-05
1.06822e-05
1.06852e-05
1.06869e-05
1.07217e-05
1.07267e-05
1.06851e-05
1.07297e-05
1.06866e-05
1.06902e-05
1.07265e-05
1.07304e-05
1.06891e-05
1.07286e-05
2.20082e-05
2.20282e-05
2.20454e-05
2.2043e-05
2.20413e-05
2.20414e-05
2.20186e-05
2.19985e-05
2.20309e-05
2.20437e-05
2.20179e-05
2.20356e-05
2.20202e-05
2.20042e-05
2.20318e-05
2.20451e-05
2.20173e-05
2.20364e-05
2.20462e-05
2.20221e-05
2.20021e-05
2.20041e-05
2.20313e-05
2.20428e-05
2.20453e-05
2.20413e-05
2.20421e-05
2.20402e-05
2.20165e-05
2.20306e-05
2.20105e-05
2.20293e-05
2.20426e-05
2.20168e-05
2.20035e-05
2.20274e-05
2.20492e-05
2.20435e-05
2.20187e-05
2.20307e-05
2.20168e-05
2.20319e-05
2.20181e-05
2.20308e-05
2.20384e-05
2.20397e-05
2.2039e-05
2.20393e-05
2.20408e-05
2.20474e-05
2.20175e-05
2.20032e-05
2.20296e-05
2.20159e-05
2.20308e-05
2.20465e-05
2.20201e-05
2.20093e-05
2.20359e-05
2.20186e-05
2.67749e-05
2.67963e-05
2.68174e-05
2.68239e-05
2.68213e-05
2.6822e-05
2.67963e-05
2.67648e-05
2.67924e-05
2.68178e-05
2.67879e-05
2.68079e-05
2.67909e-05
2.67698e-05
2.67951e-05
2.68192e-05
2.67879e-05
2.68059e-05
2.68225e-05
2.67976e-05
2.67725e-05
2.67632e-05
2.67951e-05
2.68138e-05
2.68224e-05
2.6823e-05
2.68216e-05
2.68213e-05
2.67896e-05
2.6807e-05
2.67808e-05
2.67983e-05
2.68178e-05
2.67912e-05
2.67677e-05
2.67903e-05
2.68181e-05
2.68231e-05
2.6791e-05
2.6807e-05
2.67831e-05
2.68041e-05
2.67845e-05
2.68042e-05
2.68138e-05
2.68178e-05
2.68184e-05
2.68192e-05
2.68182e-05
2.68252e-05
2.67968e-05
2.67687e-05
2.67983e-05
2.67815e-05
2.67989e-05
2.68193e-05
2.67937e-05
2.67727e-05
2.68035e-05
2.67865e-05
2.87466e-05
2.87595e-05
2.87764e-05
2.87893e-05
2.87884e-05
2.87893e-05
2.8773e-05
2.8741e-05
2.87526e-05
2.87779e-05
2.8758e-05
2.87715e-05
2.87614e-05
2.8742e-05
2.87546e-05
2.87797e-05
2.87586e-05
2.87678e-05
2.87846e-05
2.87701e-05
2.875e-05
2.87324e-05
2.87537e-05
2.87726e-05
2.87839e-05
2.879e-05
2.87886e-05
2.87895e-05
2.87637e-05
2.8775e-05
2.87546e-05
2.87626e-05
2.87803e-05
2.87647e-05
2.87405e-05
2.87513e-05
2.8773e-05
2.87874e-05
2.8763e-05
2.87743e-05
2.87533e-05
2.87684e-05
2.87529e-05
2.87684e-05
2.87775e-05
2.87832e-05
2.87848e-05
2.87868e-05
2.87843e-05
2.87891e-05
2.87733e-05
2.87429e-05
2.87618e-05
2.87498e-05
2.87606e-05
2.87793e-05
2.87654e-05
2.87429e-05
2.87641e-05
2.87541e-05
2.93884e-05
2.93948e-05
2.94045e-05
2.94186e-05
2.94203e-05
2.9422e-05
2.94133e-05
2.93899e-05
2.93899e-05
2.94053e-05
2.93958e-05
2.9404e-05
2.93989e-05
2.93858e-05
2.93894e-05
2.94069e-05
2.93967e-05
2.94006e-05
2.94128e-05
2.9407e-05
2.93961e-05
2.93767e-05
2.93868e-05
2.94007e-05
2.94111e-05
2.9421e-05
2.94208e-05
2.94229e-05
2.94052e-05
2.94111e-05
2.93975e-05
2.93993e-05
2.94101e-05
2.94035e-05
2.93857e-05
2.93881e-05
2.9398e-05
2.9416e-05
2.94014e-05
2.94092e-05
2.93936e-05
2.94026e-05
2.93914e-05
2.94014e-05
2.94086e-05
2.94148e-05
2.94169e-05
2.94201e-05
2.94176e-05
2.94196e-05
2.94126e-05
2.93895e-05
2.93975e-05
2.93891e-05
2.93943e-05
2.94072e-05
2.94021e-05
2.93854e-05
2.93963e-05
2.93908e-05
2.93716e-05
2.93745e-05
2.93783e-05
2.93887e-05
2.93926e-05
2.93953e-05
2.93915e-05
2.93789e-05
2.93711e-05
2.93791e-05
2.93748e-05
2.93797e-05
2.93772e-05
2.93704e-05
2.93691e-05
2.93788e-05
2.93753e-05
2.93769e-05
2.93844e-05
2.93828e-05
2.9379e-05
2.93647e-05
2.93671e-05
2.93741e-05
2.93815e-05
2.9392e-05
2.93932e-05
2.93968e-05
2.9386e-05
2.93887e-05
2.93807e-05
2.9379e-05
2.93841e-05
2.93819e-05
2.93719e-05
2.93699e-05
2.93721e-05
2.93857e-05
2.93791e-05
2.93853e-05
2.9375e-05
2.93801e-05
2.9372e-05
2.93778e-05
2.93824e-05
2.93881e-05
2.93903e-05
2.93942e-05
2.93928e-05
2.93926e-05
2.93902e-05
2.93759e-05
2.93774e-05
2.93708e-05
2.93728e-05
2.93794e-05
2.93786e-05
2.9369e-05
2.93733e-05
2.93704e-05
2.90144e-05
2.90158e-05
2.90166e-05
2.90222e-05
2.90266e-05
2.903e-05
2.90287e-05
2.90241e-05
2.9015e-05
2.90177e-05
2.90153e-05
2.90181e-05
2.90165e-05
2.90142e-05
2.90111e-05
2.90156e-05
2.9015e-05
2.90157e-05
2.90197e-05
2.90194e-05
2.90195e-05
2.9012e-05
2.90106e-05
2.90127e-05
2.90167e-05
2.90251e-05
2.9027e-05
2.90316e-05
2.90258e-05
2.90272e-05
2.9023e-05
2.90203e-05
2.90218e-05
2.90211e-05
2.90165e-05
2.90139e-05
2.90115e-05
2.90199e-05
2.90174e-05
2.90226e-05
2.90164e-05
2.90196e-05
2.90138e-05
2.9017e-05
2.90194e-05
2.90238e-05
2.90259e-05
2.90295e-05
2.90294e-05
2.90284e-05
2.90276e-05
2.90203e-05
2.90193e-05
2.90135e-05
2.90142e-05
2.9016e-05
2.90169e-05
2.90121e-05
2.90132e-05
2.90112e-05
2.84721e-05
2.84728e-05
2.84723e-05
2.84748e-05
2.84779e-05
2.84814e-05
2.84811e-05
2.84803e-05
2.84747e-05
2.84742e-05
2.84719e-05
2.84735e-05
2.84719e-05
2.84718e-05
2.84696e-05
2.84707e-05
2.84707e-05
2.84711e-05
2.84729e-05
2.84729e-05
2.84747e-05
2.84715e-05
2.84693e-05
2.84695e-05
2.84711e-05
2.8476e-05
2.8478e-05
2.84826e-05
2.84801e-05
2.84812e-05
2.84792e-05
2.84772e-05
2.84766e-05
2.84763e-05
2.84744e-05
2.84729e-05
2.84688e-05
2.84733e-05
2.84722e-05
2.84764e-05
2.84729e-05
2.84752e-05
2.84713e-05
2.8473e-05
2.8474e-05
2.84766e-05
2.84785e-05
2.84812e-05
2.84822e-05
2.8481e-05
2.84809e-05
2.84779e-05
2.84766e-05
2.84716e-05
2.84719e-05
2.84712e-05
2.84719e-05
2.84697e-05
2.84697e-05
2.8468e-05
2.78211e-05
2.78215e-05
2.78206e-05
2.78214e-05
2.78229e-05
2.78258e-05
2.78258e-05
2.78268e-05
2.78242e-05
2.7823e-05
2.78203e-05
2.78213e-05
2.78198e-05
2.78205e-05
2.78195e-05
2.78186e-05
2.78188e-05
2.78189e-05
2.78195e-05
2.78194e-05
2.78214e-05
2.78204e-05
2.7819e-05
2.78184e-05
2.78189e-05
2.78213e-05
2.78228e-05
2.78264e-05
2.78257e-05
2.7827e-05
2.7826e-05
2.78254e-05
2.78239e-05
2.78237e-05
2.78229e-05
2.78224e-05
2.78188e-05
2.78207e-05
2.78198e-05
2.78228e-05
2.78209e-05
2.78227e-05
2.78202e-05
2.78212e-05
2.78215e-05
2.78227e-05
2.78243e-05
2.78258e-05
2.78274e-05
2.78265e-05
2.78265e-05
2.78256e-05
2.78247e-05
2.78211e-05
2.78213e-05
2.78198e-05
2.78197e-05
2.78186e-05
2.78183e-05
2.78167e-05
2.71e-05
2.71001e-05
2.70991e-05
2.70993e-05
2.70997e-05
2.71014e-05
2.71014e-05
2.7103e-05
2.71021e-05
2.71011e-05
2.70989e-05
2.70995e-05
2.70982e-05
2.70989e-05
2.70985e-05
2.70973e-05
2.70971e-05
2.7097e-05
2.70971e-05
2.70968e-05
2.70984e-05
2.70983e-05
2.70978e-05
2.70972e-05
2.70974e-05
2.70983e-05
2.70992e-05
2.71015e-05
2.71015e-05
2.71029e-05
2.71026e-05
2.71027e-05
2.71017e-05
2.71014e-05
2.71008e-05
2.7101e-05
2.70985e-05
2.70991e-05
2.70982e-05
2.71001e-05
2.70989e-05
2.71003e-05
2.70988e-05
2.70995e-05
2.70995e-05
2.71e-05
2.71011e-05
2.71017e-05
2.71033e-05
2.71027e-05
2.71026e-05
2.71025e-05
2.71023e-05
2.71e-05
2.71002e-05
2.70987e-05
2.70982e-05
2.70971e-05
2.70968e-05
2.70955e-05
2.63287e-05
2.63287e-05
2.63278e-05
2.63274e-05
2.63274e-05
2.63282e-05
2.63282e-05
2.63296e-05
2.63293e-05
2.63287e-05
2.63273e-05
2.63276e-05
2.63267e-05
2.63271e-05
2.6327e-05
2.6326e-05
2.63257e-05
2.63254e-05
2.63252e-05
2.63246e-05
2.63258e-05
2.63259e-05
2.63259e-05
2.63258e-05
2.63259e-05
2.63261e-05
2.63265e-05
2.63278e-05
2.63279e-05
2.63293e-05
2.63293e-05
2.63298e-05
2.63292e-05
2.63289e-05
2.63287e-05
2.63291e-05
2.63274e-05
2.63275e-05
2.63267e-05
2.63278e-05
2.63271e-05
2.63281e-05
2.63271e-05
2.63277e-05
2.63277e-05
2.63278e-05
2.63285e-05
2.63288e-05
2.63298e-05
2.63295e-05
2.63293e-05
2.63296e-05
2.63297e-05
2.63283e-05
2.63286e-05
2.63275e-05
2.63267e-05
2.63257e-05
2.63255e-05
2.63244e-05
2.55185e-05
2.55185e-05
2.55176e-05
2.5517e-05
2.55166e-05
2.55169e-05
2.55167e-05
2.55178e-05
2.55177e-05
2.55174e-05
2.55166e-05
2.55168e-05
2.55161e-05
2.55164e-05
2.55164e-05
2.55157e-05
2.55153e-05
2.55149e-05
2.55146e-05
2.55139e-05
2.55147e-05
2.55148e-05
2.55151e-05
2.55151e-05
2.55152e-05
2.55153e-05
2.55155e-05
2.55162e-05
2.55162e-05
2.55174e-05
2.55174e-05
2.55181e-05
2.55177e-05
2.55176e-05
2.55177e-05
2.55181e-05
2.5517e-05
2.55169e-05
2.55162e-05
2.55169e-05
2.55164e-05
2.55172e-05
2.55166e-05
2.55169e-05
2.55169e-05
2.5517e-05
2.55174e-05
2.55175e-05
2.55181e-05
2.55179e-05
2.55177e-05
2.55179e-05
2.55183e-05
2.55174e-05
2.55178e-05
2.55171e-05
2.55163e-05
2.55154e-05
2.55152e-05
2.55143e-05
2.46761e-05
2.46761e-05
2.46754e-05
2.46747e-05
2.46741e-05
2.4674e-05
2.46737e-05
2.46745e-05
2.46745e-05
2.46743e-05
2.46737e-05
2.4674e-05
2.46735e-05
2.46737e-05
2.46737e-05
2.46733e-05
2.4673e-05
2.46725e-05
2.46721e-05
2.46714e-05
2.4672e-05
2.46721e-05
2.46724e-05
2.46724e-05
2.46726e-05
2.46726e-05
2.46727e-05
2.46731e-05
2.46731e-05
2.46739e-05
2.46739e-05
2.46746e-05
2.46744e-05
2.46745e-05
2.46745e-05
2.4675e-05
2.46743e-05
2.46741e-05
2.46736e-05
2.46741e-05
2.46738e-05
2.46744e-05
2.4674e-05
2.46742e-05
2.46742e-05
2.46743e-05
2.46745e-05
2.46746e-05
2.46749e-05
2.46748e-05
2.46745e-05
2.46747e-05
2.46751e-05
2.46745e-05
2.46749e-05
2.46745e-05
2.46738e-05
2.46731e-05
2.46729e-05
2.46722e-05
2.38066e-05
2.38066e-05
2.3806e-05
2.38054e-05
2.38046e-05
2.38044e-05
2.3804e-05
2.38045e-05
2.38045e-05
2.38043e-05
2.38039e-05
2.38042e-05
2.38039e-05
2.38039e-05
2.38041e-05
2.38037e-05
2.38035e-05
2.3803e-05
2.38027e-05
2.3802e-05
2.38025e-05
2.38025e-05
2.38027e-05
2.38027e-05
2.38029e-05
2.38029e-05
2.3803e-05
2.38033e-05
2.38033e-05
2.38039e-05
2.38039e-05
2.38044e-05
2.38043e-05
2.38043e-05
2.38045e-05
2.38048e-05
2.38044e-05
2.38043e-05
2.38039e-05
2.38043e-05
2.38041e-05
2.38046e-05
2.38043e-05
2.38046e-05
2.38046e-05
2.38046e-05
2.38048e-05
2.38048e-05
2.3805e-05
2.38049e-05
2.38045e-05
2.38047e-05
2.3805e-05
2.38046e-05
2.3805e-05
2.38048e-05
2.38042e-05
2.38037e-05
2.38035e-05
2.38029e-05
2.2914e-05
2.2914e-05
2.29135e-05
2.29129e-05
2.29122e-05
2.2912e-05
2.29114e-05
2.29117e-05
2.29117e-05
2.29116e-05
2.29112e-05
2.29114e-05
2.29112e-05
2.29112e-05
2.29114e-05
2.29111e-05
2.29109e-05
2.29105e-05
2.29103e-05
2.29097e-05
2.291e-05
2.29101e-05
2.29102e-05
2.29102e-05
2.29103e-05
2.29103e-05
2.29103e-05
2.29106e-05
2.29106e-05
2.29111e-05
2.29111e-05
2.29115e-05
2.29114e-05
2.29113e-05
2.29115e-05
2.29118e-05
2.29115e-05
2.29114e-05
2.29111e-05
2.29115e-05
2.29114e-05
2.29118e-05
2.29117e-05
2.29118e-05
2.29118e-05
2.29119e-05
2.2912e-05
2.2912e-05
2.29121e-05
2.2912e-05
2.29117e-05
2.29119e-05
2.29122e-05
2.29119e-05
2.29122e-05
2.2912e-05
2.29116e-05
2.29112e-05
2.2911e-05
2.29106e-05
2.20019e-05
2.20019e-05
2.20015e-05
2.2001e-05
2.20004e-05
2.20001e-05
2.19996e-05
2.19998e-05
2.19998e-05
2.19996e-05
2.19993e-05
2.19994e-05
2.19993e-05
2.19992e-05
2.19994e-05
2.19992e-05
2.1999e-05
2.19987e-05
2.19984e-05
2.19979e-05
2.19982e-05
2.19983e-05
2.19983e-05
2.19983e-05
2.19984e-05
2.19984e-05
2.19984e-05
2.19987e-05
2.19986e-05
2.1999e-05
2.1999e-05
2.19993e-05
2.19993e-05
2.19992e-05
2.19993e-05
2.19996e-05
2.19994e-05
2.19993e-05
2.1999e-05
2.19994e-05
2.19993e-05
2.19997e-05
2.19996e-05
2.19998e-05
2.19998e-05
2.19998e-05
2.19999e-05