/*--------------------------------*- C++ -*----------------------------------*\
| =========                 |                                                 |
| \\      /  F ield         | OpenFOAM: The Open Source CFD Toolbox           |
|  \\    /   O peration     | Version:  2312                                  |
|   \\  /    A nd           | Website:  www.openfoam.com                      |
|    \\/     M anipulation  |                                                 |
\*---------------------------------------------------------------------------*/
FoamFile
{
    version     2.0;
    format      ascii;
    arch        "LSB;label=32;scalar=64";
    class       volScalarField;
    location    "500";
    object      k_0;
}
// * * * * * * * * * * * * * * * * * * * * * * * * * * * * * * * * * * * * * //

dimensions      [0 2 -2 0 0 0 0];

internalField   nonuniform List<scalar> 
144000
(
1.06879e-05
1.0686e-05
1.06906e-05
1.06854e-05
1.07288e-05
1.06868e-05
1.07316e-05
1.07259e-05
1.07304e-05
1.0691e-05
1.06889e-05
1.06877e-05
1.06913e-05
1.06884e-05
1.07281e-05
1.07272e-05
1.06884e-05
1.06904e-05
1.06894e-05
1.0728e-05
1.07262e-05
1.06913e-05
1.06895e-05
1.07311e-05
1.06909e-05
1.06875e-05
1.0728e-05
1.06898e-05
1.06872e-05
1.07253e-05
1.06826e-05
1.07315e-05
1.06906e-05
1.07321e-05
1.07271e-05
1.07333e-05
1.0694e-05
1.07334e-05
1.0693e-05
1.06911e-05
1.07315e-05
1.06854e-05
1.06919e-05
1.06889e-05
1.07312e-05
1.0728e-05
1.06892e-05
1.06941e-05
1.06884e-05
1.06909e-05
1.06851e-05
1.07252e-05
1.06865e-05
1.06937e-05
1.07268e-05
1.07296e-05
1.06882e-05
1.06911e-05
1.06866e-05
1.06853e-05
2.20477e-05
2.20452e-05
2.20511e-05
2.20487e-05
2.20214e-05
2.20387e-05
2.20246e-05
2.20098e-05
2.20088e-05
2.20361e-05
2.20465e-05
2.2046e-05
2.20504e-05
2.20498e-05
2.20257e-05
2.20112e-05
2.20337e-05
2.20461e-05
2.20513e-05
2.20258e-05
2.20056e-05
2.20329e-05
2.20479e-05
2.20232e-05
2.20415e-05
2.2049e-05
2.20218e-05
2.20407e-05
2.20483e-05
2.20201e-05
2.20336e-05
2.20178e-05
2.20406e-05
2.2025e-05
2.20107e-05
2.20112e-05
2.20415e-05
2.20239e-05
2.20411e-05
2.20503e-05
2.20265e-05
2.20366e-05
2.20488e-05
2.20492e-05
2.20277e-05
2.20126e-05
2.20332e-05
2.20512e-05
2.20497e-05
2.20532e-05
2.20504e-05
2.2019e-05
2.20331e-05
2.20525e-05
2.20246e-05
2.20125e-05
2.20341e-05
2.2046e-05
2.20476e-05
2.20456e-05
2.68284e-05
2.68255e-05
2.68288e-05
2.68308e-05
2.6796e-05
2.68139e-05
2.67957e-05
2.67798e-05
2.67712e-05
2.68014e-05
2.68214e-05
2.68232e-05
2.68269e-05
2.68292e-05
2.68024e-05
2.67802e-05
2.68034e-05
2.68187e-05
2.68293e-05
2.68034e-05
2.67739e-05
2.67982e-05
2.68221e-05
2.67933e-05
2.68119e-05
2.68278e-05
2.67956e-05
2.68132e-05
2.68274e-05
2.67963e-05
2.68117e-05
2.67859e-05
2.68111e-05
2.67945e-05
2.67794e-05
2.67718e-05
2.68067e-05
2.67899e-05
2.68092e-05
2.68251e-05
2.67985e-05
2.68122e-05
2.68231e-05
2.68275e-05
2.68017e-05
2.67814e-05
2.68016e-05
2.68225e-05
2.68276e-05
2.68312e-05
2.68338e-05
2.67971e-05
2.6807e-05
2.68261e-05
2.68009e-05
2.67797e-05
2.6804e-05
2.68182e-05
2.68267e-05
2.68261e-05
2.8796e-05
2.87935e-05
2.87937e-05
2.8798e-05
2.8771e-05
2.87808e-05
2.87672e-05
2.87551e-05
2.87414e-05
2.87606e-05
2.87825e-05
2.87876e-05
2.879e-05
2.87945e-05
2.8777e-05
2.87542e-05
2.87677e-05
2.87798e-05
2.87925e-05
2.87777e-05
2.87497e-05
2.87607e-05
2.87833e-05
2.87635e-05
2.87736e-05
2.87918e-05
2.87688e-05
2.87772e-05
2.87923e-05
2.8771e-05
2.87814e-05
2.87583e-05
2.87741e-05
2.87639e-05
2.87531e-05
2.87405e-05
2.87652e-05
2.87563e-05
2.87691e-05
2.87864e-05
2.87688e-05
2.87784e-05
2.87855e-05
2.87924e-05
2.87744e-05
2.87548e-05
2.87654e-05
2.87815e-05
2.8791e-05
2.87939e-05
2.88009e-05
2.87746e-05
2.87762e-05
2.87873e-05
2.87743e-05
2.87524e-05
2.8768e-05
2.87792e-05
2.8791e-05
2.8792e-05
2.9429e-05
2.94279e-05
2.94255e-05
2.943e-05
2.94126e-05
2.94164e-05
2.94068e-05
2.93997e-05
2.93853e-05
2.93937e-05
2.94108e-05
2.94184e-05
2.942e-05
2.94252e-05
2.94164e-05
2.93981e-05
2.94037e-05
2.94103e-05
2.94215e-05
2.94152e-05
2.93965e-05
2.93982e-05
2.9412e-05
2.94018e-05
2.94061e-05
2.94207e-05
2.94085e-05
2.94113e-05
2.94225e-05
2.94111e-05
2.94183e-05
2.94011e-05
2.9408e-05
2.94017e-05
2.93961e-05
2.93832e-05
2.93969e-05
2.93926e-05
2.93999e-05
2.94148e-05
2.94058e-05
2.94125e-05
2.94159e-05
2.94234e-05
2.94133e-05
2.93978e-05
2.94017e-05
2.94101e-05
2.94204e-05
2.94228e-05
2.94311e-05
2.94171e-05
2.94142e-05
2.9418e-05
2.94127e-05
2.93963e-05
2.94035e-05
2.94098e-05
2.94208e-05
2.94229e-05
2.94028e-05
2.94027e-05
2.94e-05
2.94034e-05
2.93932e-05
2.93941e-05
2.93871e-05
2.93833e-05
2.93722e-05
2.93741e-05
2.93827e-05
2.93912e-05
2.93925e-05
2.93973e-05
2.93937e-05
2.93825e-05
2.93835e-05
2.93858e-05
2.9393e-05
2.93914e-05
2.93826e-05
2.93791e-05
2.9386e-05
2.93813e-05
2.93828e-05
2.93922e-05
2.93874e-05
2.93881e-05
2.93951e-05
2.93899e-05
2.93956e-05
2.93844e-05
2.9386e-05
2.93813e-05
2.93789e-05
2.9369e-05
2.93747e-05
2.93721e-05
2.9376e-05
2.93863e-05
2.93829e-05
2.93882e-05
2.93897e-05
2.93958e-05
2.93912e-05
2.93811e-05
2.9382e-05
2.93844e-05
2.93922e-05
2.93941e-05
2.94018e-05
2.93963e-05
2.93935e-05
2.93929e-05
2.93908e-05
2.93805e-05
2.9383e-05
2.93854e-05
2.93928e-05
2.93952e-05
2.90379e-05
2.9039e-05
2.90366e-05
2.90387e-05
2.90331e-05
2.9033e-05
2.90278e-05
2.90259e-05
2.9019e-05
2.90173e-05
2.90203e-05
2.90269e-05
2.90279e-05
2.90318e-05
2.90307e-05
2.90254e-05
2.90248e-05
2.9025e-05
2.90282e-05
2.90282e-05
2.90258e-05
2.90216e-05
2.90242e-05
2.9022e-05
2.90223e-05
2.90272e-05
2.90263e-05
2.90265e-05
2.90305e-05
2.90286e-05
2.90332e-05
2.9027e-05
2.90265e-05
2.90221e-05
2.90214e-05
2.90151e-05
2.90165e-05
2.9014e-05
2.90159e-05
2.90218e-05
2.9021e-05
2.90255e-05
2.90261e-05
2.90306e-05
2.90288e-05
2.90237e-05
2.90237e-05
2.90234e-05
2.90275e-05
2.90289e-05
2.90346e-05
2.90335e-05
2.9033e-05
2.90306e-05
2.90297e-05
2.90239e-05
2.90244e-05
2.90247e-05
2.90283e-05
2.90304e-05
2.84899e-05
2.84916e-05
2.84898e-05
2.84909e-05
2.84878e-05
2.84876e-05
2.84838e-05
2.84828e-05
2.84792e-05
2.84763e-05
2.84768e-05
2.84803e-05
2.8481e-05
2.84837e-05
2.84836e-05
2.84819e-05
2.84814e-05
2.84805e-05
2.84815e-05
2.84817e-05
2.84817e-05
2.84796e-05
2.84798e-05
2.84785e-05
2.84782e-05
2.84802e-05
2.84808e-05
2.84809e-05
2.84832e-05
2.84827e-05
2.84864e-05
2.84834e-05
2.84827e-05
2.84789e-05
2.84788e-05
2.84753e-05
2.84749e-05
2.84723e-05
2.84729e-05
2.84758e-05
2.84756e-05
2.84793e-05
2.84796e-05
2.84827e-05
2.84822e-05
2.84803e-05
2.84805e-05
2.84792e-05
2.84812e-05
2.84817e-05
2.84852e-05
2.84856e-05
2.84872e-05
2.84847e-05
2.84843e-05
2.84813e-05
2.84813e-05
2.84808e-05
2.84821e-05
2.84833e-05
2.78352e-05
2.78366e-05
2.78353e-05
2.78357e-05
2.7834e-05
2.78339e-05
2.78313e-05
2.78307e-05
2.78291e-05
2.78266e-05
2.78257e-05
2.78274e-05
2.78275e-05
2.7829e-05
2.78292e-05
2.78291e-05
2.78291e-05
2.78284e-05
2.78282e-05
2.78279e-05
2.78289e-05
2.78282e-05
2.78277e-05
2.78264e-05
2.78264e-05
2.78268e-05
2.78275e-05
2.78276e-05
2.78289e-05
2.78289e-05
2.78317e-05
2.78305e-05
2.78302e-05
2.78274e-05
2.78276e-05
2.78257e-05
2.7825e-05
2.78223e-05
2.78224e-05
2.78234e-05
2.78231e-05
2.78259e-05
2.7826e-05
2.78279e-05
2.78279e-05
2.78277e-05
2.78284e-05
2.78271e-05
2.7828e-05
2.7828e-05
2.78297e-05
2.78303e-05
2.78327e-05
2.78309e-05
2.78307e-05
2.78293e-05
2.78294e-05
2.78288e-05
2.7829e-05
2.78296e-05
2.71116e-05
2.71123e-05
2.71115e-05
2.71114e-05
2.71102e-05
2.71104e-05
2.71085e-05
2.71082e-05
2.71074e-05
2.7106e-05
2.71046e-05
2.71054e-05
2.71052e-05
2.71058e-05
2.71058e-05
2.71061e-05
2.71065e-05
2.71061e-05
2.71056e-05
2.71049e-05
2.71061e-05
2.7106e-05
2.71055e-05
2.71045e-05
2.71047e-05
2.71045e-05
2.71048e-05
2.71049e-05
2.71054e-05
2.71055e-05
2.71076e-05
2.71072e-05
2.71074e-05
2.71056e-05
2.71059e-05
2.71049e-05
2.71043e-05
2.71021e-05
2.71018e-05
2.71019e-05
2.71013e-05
2.71032e-05
2.71032e-05
2.71043e-05
2.71044e-05
2.71046e-05
2.71058e-05
2.71049e-05
2.71053e-05
2.71052e-05
2.71059e-05
2.71062e-05
2.71084e-05
2.71072e-05
2.71072e-05
2.71068e-05
2.7107e-05
2.71066e-05
2.71063e-05
2.71067e-05
2.63386e-05
2.63387e-05
2.6338e-05
2.63377e-05
2.63367e-05
2.6337e-05
2.63356e-05
2.63354e-05
2.6335e-05
2.63344e-05
2.63332e-05
2.63336e-05
2.63333e-05
2.63332e-05
2.6333e-05
2.63332e-05
2.63339e-05
2.63336e-05
2.63332e-05
2.63324e-05
2.63333e-05
2.63334e-05
2.63332e-05
2.63326e-05
2.63328e-05
2.63325e-05
2.63324e-05
2.63326e-05
2.63326e-05
2.63327e-05
2.63341e-05
2.63341e-05
2.63344e-05
2.63333e-05
2.63337e-05
2.63332e-05
2.63328e-05
2.63312e-05
2.63309e-05
2.63306e-05
2.63297e-05
2.6331e-05
2.6331e-05
2.63315e-05
2.63316e-05
2.63318e-05
2.63331e-05
2.63326e-05
2.63329e-05
2.63327e-05
2.63329e-05
2.6333e-05
2.63346e-05
2.63339e-05
2.63338e-05
2.63339e-05
2.63343e-05
2.63341e-05
2.63338e-05
2.6334e-05
2.55269e-05
2.55268e-05
2.55261e-05
2.55257e-05
2.55247e-05
2.55248e-05
2.55239e-05
2.55238e-05
2.55235e-05
2.55232e-05
2.55226e-05
2.55229e-05
2.55225e-05
2.55222e-05
2.55217e-05
2.55219e-05
2.55224e-05
2.55223e-05
2.5522e-05
2.55212e-05
2.55218e-05
2.55221e-05
2.5522e-05
2.55216e-05
2.55219e-05
2.55216e-05
2.55213e-05
2.55215e-05
2.55214e-05
2.55212e-05
2.55223e-05
2.55223e-05
2.55227e-05
2.5522e-05
2.55224e-05
2.55222e-05
2.5522e-05
2.55209e-05
2.55207e-05
2.55204e-05
2.55194e-05
2.55203e-05
2.55203e-05
2.55205e-05
2.55205e-05
2.55206e-05
2.55217e-05
2.55214e-05
2.55217e-05
2.55215e-05
2.55214e-05
2.55213e-05
2.55226e-05
2.55221e-05
2.5522e-05
2.55222e-05
2.55226e-05
2.55225e-05
2.55224e-05
2.55226e-05
2.46833e-05
2.46831e-05
2.46824e-05
2.4682e-05
2.4681e-05
2.4681e-05
2.46803e-05
2.46802e-05
2.468e-05
2.468e-05
2.46798e-05
2.468e-05
2.46796e-05
2.46793e-05
2.46787e-05
2.46787e-05
2.46792e-05
2.46791e-05
2.46789e-05
2.46782e-05
2.46786e-05
2.46789e-05
2.46788e-05
2.46786e-05
2.46789e-05
2.46787e-05
2.46784e-05
2.46785e-05
2.46784e-05
2.46781e-05
2.46788e-05
2.46788e-05
2.46791e-05
2.46787e-05
2.46791e-05
2.4679e-05
2.4679e-05
2.46784e-05
2.46782e-05
2.46779e-05
2.4677e-05
2.46777e-05
2.46777e-05
2.46777e-05
2.46777e-05
2.46778e-05
2.46785e-05
2.46784e-05
2.46786e-05
2.46784e-05
2.46782e-05
2.4678e-05
2.4679e-05
2.46786e-05
2.46785e-05
2.46786e-05
2.4679e-05
2.4679e-05
2.46791e-05
2.46791e-05
2.38126e-05
2.38125e-05
2.38119e-05
2.38114e-05
2.38104e-05
2.38104e-05
2.38098e-05
2.38096e-05
2.38098e-05
2.38098e-05
2.38097e-05
2.38099e-05
2.38096e-05
2.38093e-05
2.38087e-05
2.38087e-05
2.38091e-05
2.3809e-05
2.38088e-05
2.38082e-05
2.38086e-05
2.38087e-05
2.38087e-05
2.38086e-05
2.38088e-05
2.38087e-05
2.38084e-05
2.38085e-05
2.38084e-05
2.38081e-05
2.38086e-05
2.38086e-05
2.38088e-05
2.38085e-05
2.38088e-05
2.38088e-05
2.38089e-05
2.38085e-05
2.38084e-05
2.38082e-05
2.38076e-05
2.38081e-05
2.3808e-05
2.3808e-05
2.3808e-05
2.38078e-05
2.38084e-05
2.38083e-05
2.38085e-05
2.38083e-05
2.38081e-05
2.38079e-05
2.38086e-05
2.38084e-05
2.38082e-05
2.38083e-05
2.38086e-05
2.38086e-05
2.38086e-05
2.38087e-05
2.29191e-05
2.2919e-05
2.29185e-05
2.2918e-05
2.29171e-05
2.2917e-05
2.29164e-05
2.29164e-05
2.29165e-05
2.29165e-05
2.29165e-05
2.29167e-05
2.29165e-05
2.29163e-05
2.29157e-05
2.29156e-05
2.2916e-05
2.29159e-05
2.29157e-05
2.29153e-05
2.29156e-05
2.29156e-05
2.29156e-05
2.29155e-05
2.29158e-05
2.29157e-05
2.29155e-05
2.29156e-05
2.29154e-05
2.29151e-05
2.29155e-05
2.29155e-05
2.29156e-05
2.29154e-05
2.29156e-05
2.29156e-05
2.29158e-05
2.29155e-05
2.29155e-05
2.29155e-05
2.2915e-05
2.29154e-05
2.29153e-05
2.29152e-05
2.2915e-05
2.29149e-05
2.29154e-05
2.29154e-05
2.29155e-05
2.29154e-05
2.29151e-05
2.29149e-05
2.29155e-05
2.29153e-05
2.29151e-05
2.29152e-05
2.29153e-05
2.29154e-05
2.29155e-05
2.29155e-05
2.20063e-05
2.20062e-05
2.20057e-05
2.20053e-05
2.20045e-05
2.20044e-05
2.20039e-05
2.20038e-05
2.20039e-05
2.20039e-05
2.20039e-05
2.20041e-05
2.2004e-05
2.20038e-05
2.20034e-05
2.20033e-05
2.20036e-05
2.20035e-05
2.20034e-05
2.2003e-05
2.20032e-05
2.20032e-05
2.20033e-05
2.20032e-05
2.20034e-05
2.20033e-05
2.20032e-05
2.20032e-05
2.20031e-05
2.20028e-05
2.20031e-05
2.20031e-05
2.20032e-05
2.2003e-05
2.20031e-05
2.20032e-05
2.20033e-05
2.20031e-05
2.20032e-05
2.20032e-05
2.20029e-05
2.20032e-05
2.20031e-05
2.2003e-05
2.20027e-05
2.20026e-05
2.20031e-05
2.20031e-05
2.20031e-05
2.20031e-05
2.20029e-05
2.20026e-05
2.20031e-05
2.2003e-05
2.20027e-05
2.20028e-05
2.20029e-05
2.20029e-05
2.20029e-05
2.2003e-05
2.10777e-05
2.10776e-05
2.10772e-05
2.10769e-05
2.10762e-05
2.10761e-05
2.10756e-05
2.10755e-05
2.10756e-05
2.10756e-05
2.10756e-05
2.10758e-05
2.10757e-05
2.10756e-05
2.10752e-05
2.10751e-05
2.10754e-05
2.10753e-05
2.10752e-05
2.10749e-05
2.10751e-05
2.10751e-05
2.10751e-05
2.10751e-05
2.10752e-05
2.10752e-05
2.1075e-05
2.10751e-05
2.1075e-05
2.10747e-05
2.10749e-05
2.10749e-05
2.1075e-05
2.10748e-05
2.10749e-05
2.10749e-05
2.1075e-05
2.10749e-05
2.1075e-05
2.1075e-05
2.10748e-05
2.1075e-05
2.1075e-05
2.10749e-05
2.10746e-05
2.10746e-05
2.10749e-05
2.10749e-05
2.1075e-05
2.10749e-05
2.10748e-05
2.10745e-05
2.10749e-05
2.10748e-05
2.10746e-05
2.10747e-05
2.10747e-05
2.10747e-05
2.10748e-05
2.10748e-05
2.01369e-05
2.01368e-05
2.01365e-05
2.01362e-05
2.01356e-05
2.01355e-05
2.01351e-05
2.01349e-05
2.0135e-05
2.0135e-05
2.0135e-05
2.01352e-05
2.01352e-05
2.0135e-05
2.01348e-05
2.01347e-05
2.01349e-05
2.01349e-05
2.01348e-05
2.01345e-05
2.01347e-05
2.01347e-05
2.01347e-05
2.01346e-05
2.01348e-05
2.01347e-05
2.01346e-05
2.01346e-05
2.01344e-05
2.01342e-05
2.01344e-05
2.01344e-05
2.01345e-05
2.01343e-05
2.01344e-05
2.01344e-05
2.01345e-05
2.01345e-05
2.01344e-05
2.01345e-05
2.01344e-05
2.01346e-05
2.01346e-05
2.01345e-05
2.01343e-05
2.01343e-05
2.01346e-05
2.01346e-05
2.01346e-05
2.01345e-05
2.01344e-05
2.01342e-05
2.01345e-05
2.01344e-05
2.01343e-05
2.01342e-05
2.01344e-05
2.01344e-05
2.01344e-05
2.01344e-05
1.91875e-05
1.91875e-05
1.91872e-05
1.9187e-05
1.91864e-05
1.91863e-05
1.9186e-05
1.91858e-05
1.91859e-05
1.91859e-05
1.91859e-05
1.9186e-05
1.9186e-05
1.91859e-05
1.91858e-05
1.91856e-05
1.91858e-05
1.91858e-05
1.91857e-05
1.91855e-05
1.91856e-05
1.91856e-05
1.91856e-05
1.91856e-05
1.91857e-05
1.91857e-05
1.91856e-05
1.91855e-05
1.91853e-05
1.91851e-05
1.91853e-05
1.91853e-05
1.91854e-05
1.91853e-05
1.91853e-05
1.91854e-05
1.91854e-05
1.91854e-05
1.91854e-05
1.91854e-05
1.91854e-05
1.91855e-05
1.91855e-05
1.91855e-05
1.91854e-05
1.91853e-05
1.91856e-05
1.91856e-05
1.91856e-05
1.91855e-05
1.91854e-05
1.91852e-05
1.91855e-05
1.91854e-05
1.91853e-05
1.91853e-05
1.91854e-05
1.91854e-05
1.91854e-05
1.91854e-05
1.82334e-05
1.82334e-05
1.82332e-05
1.8233e-05
1.82325e-05
1.82324e-05
1.82322e-05
1.8232e-05
1.82321e-05
1.82321e-05
1.82321e-05
1.82322e-05
1.82322e-05
1.82321e-05
1.8232e-05
1.82318e-05
1.8232e-05
1.8232e-05
1.82319e-05
1.82318e-05
1.82319e-05
1.82319e-05
1.82319e-05
1.82319e-05
1.82319e-05
1.82319e-05
1.82319e-05
1.82318e-05
1.82316e-05
1.82314e-05
1.82315e-05
1.82315e-05
1.82316e-05
1.82315e-05
1.82316e-05
1.82315e-05
1.82316e-05
1.82316e-05
1.82316e-05
1.82317e-05
1.82316e-05
1.82317e-05
1.82317e-05
1.82317e-05
1.82317e-05
1.82317e-05
1.82319e-05
1.82319e-05
1.82318e-05
1.82317e-05
1.82317e-05
1.82315e-05
1.82317e-05
1.82317e-05
1.82316e-05
1.82315e-05
1.82316e-05
1.82316e-05
1.82316e-05
1.82317e-05
1.72788e-05
1.72787e-05
1.72786e-05
1.72784e-05
1.72781e-05
1.7278e-05
1.72778e-05
1.72777e-05
1.72777e-05
1.72777e-05
1.72777e-05
1.72778e-05
1.72778e-05
1.72777e-05
1.72776e-05
1.72775e-05
1.72776e-05
1.72776e-05
1.72776e-05
1.72775e-05
1.72775e-05
1.72775e-05
1.72776e-05
1.72776e-05
1.72776e-05
1.72776e-05
1.72775e-05
1.72775e-05
1.72773e-05
1.72771e-05
1.72772e-05
1.72772e-05
1.72773e-05
1.72772e-05
1.72772e-05
1.72772e-05
1.72773e-05
1.72773e-05
1.72773e-05
1.72774e-05
1.72773e-05
1.72774e-05
1.72774e-05
1.72774e-05
1.72774e-05
1.72774e-05
1.72775e-05
1.72775e-05
1.72775e-05
1.72775e-05
1.72774e-05
1.72773e-05
1.72774e-05
1.72774e-05
1.72773e-05
1.72773e-05
1.72774e-05
1.72774e-05
1.72774e-05
1.72774e-05
1.63284e-05
1.63284e-05
1.63283e-05
1.63281e-05
1.63279e-05
1.63278e-05
1.63276e-05
1.63275e-05
1.63276e-05
1.63276e-05
1.63276e-05
1.63276e-05
1.63276e-05
1.63276e-05
1.63275e-05
1.63275e-05
1.63275e-05
1.63275e-05
1.63275e-05
1.63274e-05
1.63274e-05
1.63275e-05
1.63275e-05
1.63275e-05
1.63275e-05
1.63275e-05
1.63275e-05
1.63274e-05
1.63273e-05
1.63271e-05
1.63272e-05
1.63272e-05
1.63272e-05
1.63272e-05
1.63271e-05
1.63272e-05
1.63272e-05
1.63272e-05
1.63272e-05
1.63273e-05
1.63273e-05
1.63273e-05
1.63273e-05
1.63273e-05
1.63273e-05
1.63273e-05
1.63275e-05
1.63275e-05
1.63274e-05
1.63274e-05
1.63274e-05
1.63273e-05
1.63274e-05
1.63274e-05
1.63273e-05
1.63273e-05
1.63273e-05
1.63273e-05
1.63274e-05
1.63274e-05
1.53881e-05
1.53881e-05
1.5388e-05
1.5388e-05
1.53877e-05
1.53877e-05
1.53876e-05
1.53875e-05
1.53876e-05
1.53876e-05
1.53876e-05
1.53876e-05
1.53876e-05
1.53876e-05
1.53876e-05
1.53875e-05
1.53876e-05
1.53876e-05
1.53875e-05
1.53874e-05
1.53875e-05
1.53875e-05
1.53875e-05
1.53875e-05
1.53876e-05
1.53876e-05
1.53875e-05
1.53875e-05
1.53874e-05
1.53872e-05
1.53873e-05
1.53873e-05
1.53873e-05
1.53873e-05
1.53873e-05
1.53873e-05
1.53873e-05
1.53873e-05
1.53873e-05
1.53874e-05
1.53873e-05
1.53874e-05
1.53874e-05
1.53874e-05
1.53874e-05
1.53874e-05
1.53875e-05
1.53875e-05
1.53875e-05
1.53875e-05
1.53874e-05
1.53874e-05
1.53874e-05
1.53874e-05
1.53874e-05
1.53874e-05
1.53874e-05
1.53874e-05
1.53874e-05
1.53874e-05
1.44657e-05
1.44657e-05
1.44657e-05
1.44657e-05
1.44655e-05
1.44655e-05
1.44655e-05
1.44654e-05
1.44654e-05
1.44655e-05
1.44655e-05
1.44655e-05
1.44655e-05
1.44655e-05
1.44655e-05
1.44655e-05
1.44655e-05
1.44655e-05
1.44655e-05
1.44654e-05
1.44654e-05
1.44655e-05
1.44655e-05
1.44655e-05
1.44655e-05
1.44655e-05
1.44655e-05
1.44654e-05
1.44654e-05
1.44653e-05
1.44653e-05
1.44653e-05
1.44653e-05
1.44653e-05
1.44652e-05
1.44653e-05
1.44653e-05
1.44653e-05
1.44653e-05
1.44653e-05
1.44653e-05
1.44653e-05
1.44653e-05
1.44653e-05
1.44653e-05
1.44653e-05
1.44654e-05
1.44654e-05
1.44654e-05
1.44654e-05
1.44654e-05
1.44654e-05
1.44654e-05
1.44654e-05
1.44654e-05
1.44654e-05
1.44654e-05
1.44654e-05
1.44654e-05
1.44654e-05
1.35726e-05
1.35726e-05
1.35726e-05
1.35726e-05
1.35725e-05
1.35725e-05
1.35725e-05
1.35725e-05
1.35725e-05
1.35726e-05
1.35726e-05
1.35726e-05
1.35726e-05
1.35726e-05
1.35726e-05
1.35726e-05
1.35726e-05
1.35726e-05
1.35726e-05
1.35726e-05
1.35726e-05
1.35726e-05
1.35727e-05
1.35727e-05
1.35727e-05
1.35727e-05
1.35726e-05
1.35726e-05
1.35726e-05
1.35725e-05
1.35725e-05
1.35725e-05
1.35725e-05
1.35724e-05
1.35724e-05
1.35724e-05
1.35725e-05
1.35725e-05
1.35724e-05
1.35725e-05
1.35724e-05
1.35725e-05
1.35725e-05
1.35725e-05
1.35725e-05
1.35725e-05
1.35726e-05
1.35726e-05
1.35726e-05
1.35726e-05
1.35726e-05
1.35726e-05
1.35726e-05
1.35726e-05
1.35726e-05
1.35726e-05
1.35726e-05
1.35726e-05
1.35726e-05
1.35726e-05
1.07301e-05
1.06886e-05
1.06925e-05
1.06854e-05
1.06873e-05
1.06856e-05
1.07277e-05
1.07269e-05
1.06954e-05
1.06895e-05
1.07313e-05
1.06892e-05
1.07319e-05
1.07289e-05
1.06941e-05
1.06911e-05
1.07305e-05
1.06922e-05
1.06902e-05
1.073e-05
1.07258e-05
1.0734e-05
1.06917e-05
1.06918e-05
1.06891e-05
1.06845e-05
1.06881e-05
1.06842e-05
1.07296e-05
1.06842e-05
1.0728e-05
1.06892e-05
1.06891e-05
1.0728e-05
1.07305e-05
1.06922e-05
1.06962e-05
1.06857e-05
1.07316e-05
1.06839e-05
1.07351e-05
1.06867e-05
1.07339e-05
1.06852e-05
1.06878e-05
1.06867e-05
1.06852e-05
1.06854e-05
1.06885e-05
1.06902e-05
1.07249e-05
1.073e-05
1.06884e-05
1.0733e-05
1.06898e-05
1.06935e-05
1.07298e-05
1.07336e-05
1.06924e-05
1.07318e-05
2.20144e-05
2.20344e-05
2.20516e-05
2.20492e-05
2.20475e-05
2.20476e-05
2.20248e-05
2.20047e-05
2.20372e-05
2.205e-05
2.20241e-05
2.20418e-05
2.20264e-05
2.20105e-05
2.20381e-05
2.20514e-05
2.20235e-05
2.20426e-05
2.20524e-05
2.20283e-05
2.20083e-05
2.20103e-05
2.20375e-05
2.2049e-05
2.20515e-05
2.20475e-05
2.20483e-05
2.20464e-05
2.20228e-05
2.20368e-05
2.20167e-05
2.20355e-05
2.20488e-05
2.2023e-05
2.20097e-05
2.20336e-05
2.20555e-05
2.20498e-05
2.2025e-05
2.20369e-05
2.2023e-05
2.20381e-05
2.20244e-05
2.2037e-05
2.20446e-05
2.20459e-05
2.20453e-05
2.20455e-05
2.2047e-05
2.20537e-05
2.20238e-05
2.20094e-05
2.20358e-05
2.20221e-05
2.2037e-05
2.20528e-05
2.20264e-05
2.20155e-05
2.20421e-05
2.20249e-05
2.67821e-05
2.68035e-05
2.68246e-05
2.68311e-05
2.68285e-05
2.68292e-05
2.68035e-05
2.6772e-05
2.67996e-05
2.6825e-05
2.67951e-05
2.68151e-05
2.67981e-05
2.67769e-05
2.68023e-05
2.68264e-05
2.67951e-05
2.68131e-05
2.68297e-05
2.68048e-05
2.67797e-05
2.67704e-05
2.68023e-05
2.6821e-05
2.68296e-05
2.68302e-05
2.68288e-05
2.68285e-05
2.67968e-05
2.68142e-05
2.6788e-05
2.68055e-05
2.6825e-05
2.67984e-05
2.67749e-05
2.67975e-05
2.68253e-05
2.68303e-05
2.67982e-05
2.68142e-05
2.67903e-05
2.68113e-05
2.67917e-05
2.68114e-05
2.6821e-05
2.6825e-05
2.68256e-05
2.68264e-05
2.68254e-05
2.68324e-05
2.6804e-05
2.67759e-05
2.68055e-05
2.67887e-05
2.68061e-05
2.68265e-05
2.68009e-05
2.67799e-05
2.68107e-05
2.67937e-05
2.8754e-05
2.8767e-05
2.87839e-05
2.87967e-05
2.87958e-05
2.87968e-05
2.87804e-05
2.87484e-05
2.876e-05
2.87853e-05
2.87655e-05
2.87789e-05
2.87688e-05
2.87495e-05
2.8762e-05
2.87872e-05
2.87661e-05
2.87753e-05
2.87921e-05
2.87776e-05
2.87575e-05
2.87398e-05
2.87612e-05
2.87801e-05
2.87914e-05
2.87975e-05
2.87961e-05
2.8797e-05
2.87712e-05
2.87825e-05
2.87621e-05
2.87701e-05
2.87877e-05
2.87721e-05
2.87479e-05
2.87588e-05
2.87805e-05
2.87949e-05
2.87704e-05
2.87818e-05
2.87607e-05
2.87759e-05
2.87604e-05
2.87758e-05
2.8785e-05
2.87906e-05
2.87922e-05
2.87943e-05
2.87917e-05
2.87966e-05
2.87808e-05
2.87504e-05
2.87693e-05
2.87573e-05
2.87681e-05
2.87868e-05
2.87729e-05
2.87504e-05
2.87716e-05
2.87616e-05
2.93958e-05
2.94022e-05
2.94119e-05
2.9426e-05
2.94277e-05
2.94294e-05
2.94207e-05
2.93973e-05
2.93973e-05
2.94127e-05
2.94032e-05
2.94114e-05
2.94063e-05
2.93933e-05
2.93968e-05
2.94143e-05
2.94041e-05
2.9408e-05
2.94202e-05
2.94144e-05
2.94035e-05
2.93841e-05
2.93942e-05
2.94081e-05
2.94185e-05
2.94284e-05
2.94282e-05
2.94304e-05
2.94126e-05
2.94185e-05
2.94049e-05
2.94067e-05
2.94175e-05
2.94109e-05
2.93931e-05
2.93955e-05
2.94054e-05
2.94234e-05
2.94088e-05
2.94166e-05
2.94011e-05
2.941e-05
2.93988e-05
2.94088e-05
2.9416e-05
2.94222e-05
2.94243e-05
2.94275e-05
2.94251e-05
2.94271e-05
2.942e-05
2.93969e-05
2.94049e-05
2.93965e-05
2.94017e-05
2.94146e-05
2.94095e-05
2.93928e-05
2.94038e-05
2.93982e-05
2.93789e-05
2.93817e-05
2.93855e-05
2.93959e-05
2.93999e-05
2.94026e-05
2.93987e-05
2.93861e-05
2.93783e-05
2.93863e-05
2.9382e-05
2.93869e-05
2.93844e-05
2.93777e-05
2.93763e-05
2.9386e-05
2.93825e-05
2.93842e-05
2.93916e-05
2.939e-05
2.93862e-05
2.93719e-05
2.93744e-05
2.93813e-05
2.93888e-05
2.93993e-05
2.94004e-05
2.94041e-05
2.93932e-05
2.93959e-05
2.9388e-05
2.93862e-05
2.93913e-05
2.93891e-05
2.93791e-05
2.93771e-05
2.93793e-05
2.93929e-05
2.93863e-05
2.93925e-05
2.93822e-05
2.93873e-05
2.93792e-05
2.9385e-05
2.93896e-05
2.93954e-05
2.93976e-05
2.94014e-05
2.94e-05
2.93999e-05
2.93974e-05
2.93832e-05
2.93846e-05
2.9378e-05
2.938e-05
2.93866e-05
2.93859e-05
2.93763e-05
2.93805e-05
2.93776e-05
2.90214e-05
2.90228e-05
2.90236e-05
2.90292e-05
2.90336e-05
2.9037e-05
2.90357e-05
2.90311e-05
2.9022e-05
2.90247e-05
2.90223e-05
2.90251e-05
2.90235e-05
2.90212e-05
2.90181e-05
2.90226e-05
2.9022e-05
2.90227e-05
2.90266e-05
2.90264e-05
2.90265e-05
2.9019e-05
2.90176e-05
2.90197e-05
2.90237e-05
2.90321e-05
2.9034e-05
2.90386e-05
2.90328e-05
2.90342e-05
2.903e-05
2.90273e-05
2.90287e-05
2.90281e-05
2.90234e-05
2.90209e-05
2.90185e-05
2.90269e-05
2.90244e-05
2.90296e-05
2.90234e-05
2.90266e-05
2.90208e-05
2.9024e-05
2.90263e-05
2.90308e-05
2.90328e-05
2.90365e-05
2.90364e-05
2.90353e-05
2.90346e-05
2.90273e-05
2.90263e-05
2.90205e-05
2.90212e-05
2.9023e-05
2.90238e-05
2.9019e-05
2.90202e-05
2.90182e-05
2.84788e-05
2.84795e-05
2.8479e-05
2.84815e-05
2.84846e-05
2.84881e-05
2.84878e-05
2.84869e-05
2.84814e-05
2.84809e-05
2.84786e-05
2.84802e-05
2.84786e-05
2.84785e-05
2.84763e-05
2.84774e-05
2.84774e-05
2.84778e-05
2.84796e-05
2.84796e-05
2.84814e-05
2.84781e-05
2.8476e-05
2.84762e-05
2.84777e-05
2.84827e-05
2.84847e-05
2.84893e-05
2.84868e-05
2.84879e-05
2.84859e-05
2.84839e-05
2.84833e-05
2.8483e-05
2.84811e-05
2.84796e-05
2.84755e-05
2.848e-05
2.84789e-05
2.84831e-05
2.84796e-05
2.84819e-05
2.8478e-05
2.84797e-05
2.84807e-05
2.84833e-05
2.84852e-05
2.84879e-05
2.84889e-05
2.84877e-05
2.84876e-05
2.84846e-05
2.84833e-05
2.84783e-05
2.84786e-05
2.84779e-05
2.84786e-05
2.84764e-05
2.84764e-05
2.84747e-05
2.78275e-05
2.78279e-05
2.78269e-05
2.78278e-05
2.78293e-05
2.78322e-05
2.78322e-05
2.78332e-05
2.78306e-05
2.78293e-05
2.78267e-05
2.78277e-05
2.78262e-05
2.78269e-05
2.78258e-05
2.7825e-05
2.78252e-05
2.78252e-05
2.78259e-05
2.78258e-05
2.78278e-05
2.78268e-05
2.78254e-05
2.78248e-05
2.78253e-05
2.78277e-05
2.78292e-05
2.78328e-05
2.78321e-05
2.78333e-05
2.78324e-05
2.78317e-05
2.78303e-05
2.78301e-05
2.78293e-05
2.78287e-05
2.78251e-05
2.78271e-05
2.78262e-05
2.78292e-05
2.78273e-05
2.78291e-05
2.78265e-05
2.78276e-05
2.78279e-05
2.7829e-05
2.78307e-05
2.78322e-05
2.78338e-05
2.78329e-05
2.78328e-05
2.78319e-05
2.78311e-05
2.78275e-05
2.78276e-05
2.78261e-05
2.78261e-05
2.7825e-05
2.78246e-05
2.78231e-05
2.7106e-05
2.71061e-05
2.71051e-05
2.71053e-05
2.71058e-05
2.71074e-05
2.71075e-05
2.7109e-05
2.71081e-05
2.71071e-05
2.71049e-05
2.71055e-05
2.71043e-05
2.71049e-05
2.71045e-05
2.71033e-05
2.71031e-05
2.7103e-05
2.71032e-05
2.71028e-05
2.71044e-05
2.71043e-05
2.71039e-05
2.71032e-05
2.71034e-05
2.71044e-05
2.71052e-05
2.71076e-05
2.71076e-05
2.7109e-05
2.71086e-05
2.71087e-05
2.71077e-05
2.71075e-05
2.71068e-05
2.7107e-05
2.71045e-05
2.71051e-05
2.71042e-05
2.71061e-05
2.7105e-05
2.71064e-05
2.71048e-05
2.71055e-05
2.71055e-05
2.7106e-05
2.71071e-05
2.71078e-05
2.71093e-05
2.71087e-05
2.71087e-05
2.71085e-05
2.71083e-05
2.7106e-05
2.71062e-05
2.71047e-05
2.71042e-05
2.71031e-05
2.71029e-05
2.71016e-05
2.63344e-05
2.63344e-05
2.63335e-05
2.63331e-05
2.63331e-05
2.63338e-05
2.63338e-05
2.63352e-05
2.6335e-05
2.63344e-05
2.63329e-05
2.63333e-05
2.63323e-05
2.63328e-05
2.63327e-05
2.63317e-05
2.63313e-05
2.6331e-05
2.63308e-05
2.63302e-05
2.63315e-05
2.63316e-05
2.63316e-05
2.63314e-05
2.63315e-05
2.63318e-05
2.63322e-05
2.63335e-05
2.63336e-05
2.6335e-05
2.63349e-05
2.63355e-05
2.63349e-05
2.63346e-05
2.63344e-05
2.63348e-05
2.63331e-05
2.63332e-05
2.63324e-05
2.63335e-05
2.63328e-05
2.63338e-05
2.63328e-05
2.63333e-05
2.63333e-05
2.63335e-05
2.63342e-05
2.63344e-05
2.63355e-05
2.63352e-05
2.63349e-05
2.63352e-05
2.63354e-05
2.6334e-05
2.63343e-05
2.63332e-05
2.63324e-05
2.63314e-05
2.63311e-05
2.63301e-05
2.55238e-05
2.55237e-05
2.55229e-05
2.55223e-05
2.55219e-05
2.55222e-05
2.5522e-05
2.5523e-05
2.5523e-05
2.55227e-05
2.55218e-05
2.55221e-05
2.55214e-05
2.55217e-05
2.55217e-05
2.5521e-05
2.55206e-05
2.55202e-05
2.55199e-05
2.55191e-05
2.552e-05
2.55201e-05
2.55204e-05
2.55204e-05
2.55205e-05
2.55205e-05
2.55208e-05
2.55215e-05
2.55215e-05
2.55226e-05
2.55226e-05
2.55234e-05
2.5523e-05
2.55228e-05
2.55229e-05
2.55234e-05
2.55223e-05
2.55222e-05
2.55214e-05
2.55222e-05
2.55217e-05
2.55225e-05
2.55218e-05
2.55222e-05
2.55222e-05
2.55222e-05
2.55227e-05
2.55228e-05
2.55234e-05
2.55232e-05
2.55229e-05
2.55232e-05
2.55236e-05
2.55227e-05
2.55231e-05
2.55224e-05
2.55216e-05
2.55207e-05
2.55205e-05
2.55196e-05
2.4681e-05
2.4681e-05
2.46803e-05
2.46796e-05
2.46789e-05
2.46789e-05
2.46786e-05
2.46794e-05
2.46794e-05
2.46792e-05
2.46786e-05
2.46789e-05
2.46784e-05
2.46786e-05
2.46786e-05
2.46781e-05
2.46778e-05
2.46774e-05
2.4677e-05
2.46763e-05
2.46769e-05
2.4677e-05
2.46773e-05
2.46773e-05
2.46775e-05
2.46775e-05
2.46776e-05
2.4678e-05
2.4678e-05
2.46788e-05
2.46788e-05
2.46795e-05
2.46793e-05
2.46794e-05
2.46794e-05
2.46799e-05
2.46791e-05
2.4679e-05
2.46785e-05
2.4679e-05
2.46787e-05
2.46793e-05
2.46789e-05
2.46791e-05
2.46791e-05
2.46792e-05
2.46794e-05
2.46795e-05
2.46798e-05
2.46797e-05
2.46794e-05
2.46796e-05
2.468e-05
2.46794e-05
2.46798e-05
2.46794e-05
2.46787e-05
2.4678e-05
2.46778e-05
2.46771e-05
2.38111e-05
2.38111e-05
2.38105e-05
2.38098e-05
2.38091e-05
2.38089e-05
2.38085e-05
2.3809e-05
2.3809e-05
2.38088e-05
2.38084e-05
2.38087e-05
2.38084e-05
2.38084e-05
2.38086e-05
2.38082e-05
2.38079e-05
2.38075e-05
2.38072e-05
2.38065e-05
2.3807e-05
2.3807e-05
2.38072e-05
2.38072e-05
2.38074e-05
2.38074e-05
2.38075e-05
2.38078e-05
2.38077e-05
2.38084e-05
2.38084e-05
2.38089e-05
2.38088e-05
2.38088e-05
2.38089e-05
2.38093e-05
2.38089e-05
2.38087e-05
2.38083e-05
2.38088e-05
2.38086e-05
2.38091e-05
2.38088e-05
2.3809e-05
2.3809e-05
2.38091e-05
2.38092e-05
2.38092e-05
2.38095e-05
2.38093e-05
2.3809e-05
2.38092e-05
2.38095e-05
2.38091e-05
2.38095e-05
2.38092e-05
2.38087e-05
2.38082e-05
2.3808e-05
2.38074e-05
2.29181e-05
2.2918e-05
2.29176e-05
2.2917e-05
2.29162e-05
2.2916e-05
2.29155e-05
2.29158e-05
2.29158e-05
2.29156e-05
2.29153e-05
2.29155e-05
2.29153e-05
2.29152e-05
2.29155e-05
2.29152e-05
2.2915e-05
2.29146e-05
2.29143e-05
2.29137e-05
2.29141e-05
2.29141e-05
2.29142e-05
2.29142e-05
2.29144e-05
2.29144e-05
2.29144e-05
2.29147e-05
2.29146e-05
2.29151e-05
2.29151e-05
2.29155e-05
2.29155e-05
2.29154e-05
2.29155e-05
2.29159e-05
2.29156e-05
2.29155e-05
2.29152e-05
2.29156e-05
2.29155e-05
2.29159e-05
2.29157e-05
2.29159e-05
2.29159e-05
2.29159e-05
2.2916e-05
2.2916e-05
2.29162e-05
2.29161e-05
2.29158e-05
2.29159e-05
2.29162e-05
2.29159e-05
2.29162e-05
2.29161e-05
2.29157e-05
2.29152e-05
2.29151e-05
2.29147e-05
2.20056e-05
2.20055e-05
2.20052e-05
2.20047e-05
2.2004e-05
2.20038e-05
2.20032e-05
2.20034e-05
2.20035e-05
2.20033e-05
2.20029e-05
2.20031e-05
2.20029e-05
2.20028e-05
2.20031e-05
2.20029e-05
2.20027e-05
2.20023e-05
2.20021e-05
2.20016e-05
2.20019e-05
2.20019e-05
2.20019e-05
2.2002e-05
2.2002e-05
2.2002e-05
2.20021e-05
2.20023e-05
2.20023e-05
2.20027e-05
2.20027e-05
2.2003e-05
2.20029e-05
2.20028e-05
2.20029e-05
2.20032e-05
2.2003e-05
2.20029e-05
2.20026e-05
2.2003e-05
2.2003e-05
2.20033e-05
2.20033e-05
2.20034e-05
2.20034e-05
2.20034e-05