/*--------------------------------*- C++ -*----------------------------------*\
| =========                 |                                                 |
| \\      /  F ield         | OpenFOAM: The Open Source CFD Toolbox           |
|  \\    /   O peration     | Version:  2312                                  |
|   \\  /    A nd           | Website:  www.openfoam.com                      |
|    \\/     M anipulation  |                                                 |
\*---------------------------------------------------------------------------*/
FoamFile
{
    version     2.0;
    format      ascii;
    arch        "LSB;label=32;scalar=64";
    class       volScalarField;
    location    "500";
    object      nut;
}
// * * * * * * * * * * * * * * * * * * * * * * * * * * * * * * * * * * * * * //

dimensions      [0 2 -1 0 0 0 0];

internalField   nonuniform List<scalar> 
144000
(
9.17973e-06
9.17892e-06
9.1809e-06
9.17865e-06
9.19731e-06
9.17927e-06
9.1985e-06
9.19606e-06
9.198e-06
9.18108e-06
9.18018e-06
9.17968e-06
9.18119e-06
9.17996e-06
9.19699e-06
9.19662e-06
9.17998e-06
9.18081e-06
9.18038e-06
9.19694e-06
9.19617e-06
9.18123e-06
9.18042e-06
9.1983e-06
9.18104e-06
9.17957e-06
9.19696e-06
9.18057e-06
9.17946e-06
9.19581e-06
9.17747e-06
9.19847e-06
9.18089e-06
9.19871e-06
9.19655e-06
9.19921e-06
9.18236e-06
9.19927e-06
9.18194e-06
9.18112e-06
9.19846e-06
9.17867e-06
9.18147e-06
9.18017e-06
9.19832e-06
9.19696e-06
9.18031e-06
9.18241e-06
9.17997e-06
9.18106e-06
9.17855e-06
9.19574e-06
9.17914e-06
9.18224e-06
9.19644e-06
9.19762e-06
9.17986e-06
9.18113e-06
9.17917e-06
9.17865e-06
1.31847e-05
1.3184e-05
1.31857e-05
1.3185e-05
1.31769e-05
1.3182e-05
1.31778e-05
1.31734e-05
1.31731e-05
1.31812e-05
1.31844e-05
1.31842e-05
1.31855e-05
1.31854e-05
1.31781e-05
1.31738e-05
1.31805e-05
1.31843e-05
1.31858e-05
1.31782e-05
1.31721e-05
1.31803e-05
1.31848e-05
1.31774e-05
1.31829e-05
1.31851e-05
1.3177e-05
1.31826e-05
1.31849e-05
1.31765e-05
1.31805e-05
1.31758e-05
1.31826e-05
1.31779e-05
1.31737e-05
1.31738e-05
1.31829e-05
1.31776e-05
1.31827e-05
1.31855e-05
1.31784e-05
1.31814e-05
1.31851e-05
1.31852e-05
1.31787e-05
1.31742e-05
1.31804e-05
1.31858e-05
1.31853e-05
1.31864e-05
1.31855e-05
1.31762e-05
1.31804e-05
1.31862e-05
1.31778e-05
1.31742e-05
1.31807e-05
1.31842e-05
1.31847e-05
1.31841e-05
1.45442e-05
1.45434e-05
1.45443e-05
1.45448e-05
1.45354e-05
1.45403e-05
1.45353e-05
1.4531e-05
1.45287e-05
1.45369e-05
1.45423e-05
1.45428e-05
1.45438e-05
1.45444e-05
1.45372e-05
1.45311e-05
1.45374e-05
1.45416e-05
1.45445e-05
1.45374e-05
1.45294e-05
1.4536e-05
1.45425e-05
1.45347e-05
1.45397e-05
1.4544e-05
1.45353e-05
1.45401e-05
1.45439e-05
1.45355e-05
1.45397e-05
1.45327e-05
1.45395e-05
1.4535e-05
1.45309e-05
1.45289e-05
1.45383e-05
1.45338e-05
1.4539e-05
1.45433e-05
1.45361e-05
1.45398e-05
1.45428e-05
1.4544e-05
1.4537e-05
1.45315e-05
1.45369e-05
1.45426e-05
1.4544e-05
1.45449e-05
1.45457e-05
1.45357e-05
1.45384e-05
1.45436e-05
1.45367e-05
1.4531e-05
1.45376e-05
1.45414e-05
1.45438e-05
1.45436e-05
1.50682e-05
1.50675e-05
1.50676e-05
1.50687e-05
1.50616e-05
1.50642e-05
1.50606e-05
1.50575e-05
1.50539e-05
1.50589e-05
1.50646e-05
1.5066e-05
1.50666e-05
1.50678e-05
1.50632e-05
1.50572e-05
1.50608e-05
1.50639e-05
1.50673e-05
1.50634e-05
1.5056e-05
1.50589e-05
1.50648e-05
1.50597e-05
1.50623e-05
1.50671e-05
1.50611e-05
1.50633e-05
1.50672e-05
1.50616e-05
1.50644e-05
1.50583e-05
1.50624e-05
1.50598e-05
1.5057e-05
1.50536e-05
1.50601e-05
1.50578e-05
1.50611e-05
1.50657e-05
1.50611e-05
1.50636e-05
1.50654e-05
1.50672e-05
1.50625e-05
1.50574e-05
1.50602e-05
1.50644e-05
1.50669e-05
1.50676e-05
1.50695e-05
1.50626e-05
1.5063e-05
1.50659e-05
1.50625e-05
1.50568e-05
1.50608e-05
1.50638e-05
1.50669e-05
1.50671e-05
1.5233e-05
1.52326e-05
1.5232e-05
1.52332e-05
1.52287e-05
1.52297e-05
1.52272e-05
1.52254e-05
1.52216e-05
1.52238e-05
1.52282e-05
1.52302e-05
1.52306e-05
1.5232e-05
1.52297e-05
1.5225e-05
1.52264e-05
1.52281e-05
1.5231e-05
1.52294e-05
1.52245e-05
1.5225e-05
1.52286e-05
1.52259e-05
1.5227e-05
1.52308e-05
1.52276e-05
1.52284e-05
1.52313e-05
1.52283e-05
1.52302e-05
1.52257e-05
1.52275e-05
1.52259e-05
1.52244e-05
1.52211e-05
1.52246e-05
1.52235e-05
1.52254e-05
1.52293e-05
1.52269e-05
1.52287e-05
1.52296e-05
1.52315e-05
1.52289e-05
1.52249e-05
1.52259e-05
1.5228e-05
1.52307e-05
1.52313e-05
1.52335e-05
1.52299e-05
1.52291e-05
1.52301e-05
1.52287e-05
1.52245e-05
1.52264e-05
1.5228e-05
1.52308e-05
1.52314e-05
1.52262e-05
1.52262e-05
1.52255e-05
1.52264e-05
1.52237e-05
1.5224e-05
1.52221e-05
1.52212e-05
1.52183e-05
1.52188e-05
1.5221e-05
1.52232e-05
1.52235e-05
1.52248e-05
1.52238e-05
1.52209e-05
1.52212e-05
1.52218e-05
1.52237e-05
1.52232e-05
1.5221e-05
1.52201e-05
1.52219e-05
1.52206e-05
1.5221e-05
1.52235e-05
1.52222e-05
1.52224e-05
1.52242e-05
1.52229e-05
1.52243e-05
1.52214e-05
1.52219e-05
1.52206e-05
1.522e-05
1.52175e-05
1.52189e-05
1.52183e-05
1.52193e-05
1.52219e-05
1.5221e-05
1.52224e-05
1.52228e-05
1.52244e-05
1.52232e-05
1.52206e-05
1.52208e-05
1.52215e-05
1.52234e-05
1.5224e-05
1.52259e-05
1.52245e-05
1.52238e-05
1.52236e-05
1.52231e-05
1.52204e-05
1.52211e-05
1.52217e-05
1.52236e-05
1.52242e-05
1.51315e-05
1.51318e-05
1.51311e-05
1.51317e-05
1.51302e-05
1.51302e-05
1.51288e-05
1.51283e-05
1.51265e-05
1.51261e-05
1.51269e-05
1.51286e-05
1.51289e-05
1.51299e-05
1.51296e-05
1.51282e-05
1.51281e-05
1.51281e-05
1.51289e-05
1.51289e-05
1.51283e-05
1.51272e-05
1.51279e-05
1.51273e-05
1.51274e-05
1.51287e-05
1.51285e-05
1.51285e-05
1.51296e-05
1.5129e-05
1.51303e-05
1.51286e-05
1.51285e-05
1.51274e-05
1.51272e-05
1.51255e-05
1.51259e-05
1.51253e-05
1.51257e-05
1.51273e-05
1.51271e-05
1.51282e-05
1.51284e-05
1.51296e-05
1.51291e-05
1.51278e-05
1.51278e-05
1.51277e-05
1.51288e-05
1.51291e-05
1.51306e-05
1.51303e-05
1.51302e-05
1.51296e-05
1.51293e-05
1.51278e-05
1.5128e-05
1.5128e-05
1.5129e-05
1.51295e-05
1.4988e-05
1.49885e-05
1.4988e-05
1.49883e-05
1.49875e-05
1.49875e-05
1.49864e-05
1.49862e-05
1.49852e-05
1.49845e-05
1.49846e-05
1.49855e-05
1.49857e-05
1.49864e-05
1.49864e-05
1.4986e-05
1.49858e-05
1.49856e-05
1.49859e-05
1.49859e-05
1.49859e-05
1.49854e-05
1.49854e-05
1.49851e-05
1.4985e-05
1.49855e-05
1.49857e-05
1.49857e-05
1.49863e-05
1.49862e-05
1.49871e-05
1.49863e-05
1.49862e-05
1.49851e-05
1.49851e-05
1.49842e-05
1.49841e-05
1.49834e-05
1.49836e-05
1.49843e-05
1.49843e-05
1.49853e-05
1.49853e-05
1.49862e-05
1.4986e-05
1.49855e-05
1.49856e-05
1.49852e-05
1.49858e-05
1.49859e-05
1.49868e-05
1.49869e-05
1.49873e-05
1.49867e-05
1.49866e-05
1.49858e-05
1.49858e-05
1.49856e-05
1.4986e-05
1.49863e-05
1.48149e-05
1.48152e-05
1.48149e-05
1.4815e-05
1.48146e-05
1.48145e-05
1.48138e-05
1.48137e-05
1.48132e-05
1.48126e-05
1.48124e-05
1.48128e-05
1.48128e-05
1.48132e-05
1.48133e-05
1.48132e-05
1.48133e-05
1.48131e-05
1.4813e-05
1.48129e-05
1.48132e-05
1.4813e-05
1.48129e-05
1.48125e-05
1.48125e-05
1.48126e-05
1.48128e-05
1.48129e-05
1.48132e-05
1.48132e-05
1.4814e-05
1.48136e-05
1.48135e-05
1.48128e-05
1.48129e-05
1.48124e-05
1.48122e-05
1.48114e-05
1.48115e-05
1.48117e-05
1.48117e-05
1.48124e-05
1.48124e-05
1.48129e-05
1.48129e-05
1.48129e-05
1.48131e-05
1.48127e-05
1.4813e-05
1.4813e-05
1.48134e-05
1.48136e-05
1.48142e-05
1.48137e-05
1.48137e-05
1.48133e-05
1.48133e-05
1.48132e-05
1.48132e-05
1.48134e-05
1.46211e-05
1.46213e-05
1.46211e-05
1.4621e-05
1.46207e-05
1.46208e-05
1.46203e-05
1.46202e-05
1.462e-05
1.46196e-05
1.46192e-05
1.46194e-05
1.46194e-05
1.46195e-05
1.46195e-05
1.46196e-05
1.46197e-05
1.46196e-05
1.46195e-05
1.46193e-05
1.46196e-05
1.46196e-05
1.46195e-05
1.46192e-05
1.46192e-05
1.46192e-05
1.46193e-05
1.46193e-05
1.46194e-05
1.46195e-05
1.462e-05
1.46199e-05
1.462e-05
1.46195e-05
1.46196e-05
1.46193e-05
1.46191e-05
1.46185e-05
1.46185e-05
1.46185e-05
1.46183e-05
1.46188e-05
1.46188e-05
1.46191e-05
1.46192e-05
1.46192e-05
1.46195e-05
1.46193e-05
1.46194e-05
1.46194e-05
1.46196e-05
1.46196e-05
1.46202e-05
1.46199e-05
1.46199e-05
1.46198e-05
1.46199e-05
1.46198e-05
1.46197e-05
1.46198e-05
1.44112e-05
1.44112e-05
1.4411e-05
1.4411e-05
1.44107e-05
1.44108e-05
1.44104e-05
1.44103e-05
1.44102e-05
1.44101e-05
1.44097e-05
1.44098e-05
1.44097e-05
1.44097e-05
1.44097e-05
1.44097e-05
1.44099e-05
1.44099e-05
1.44097e-05
1.44095e-05
1.44098e-05
1.44098e-05
1.44097e-05
1.44096e-05
1.44096e-05
1.44095e-05
1.44095e-05
1.44096e-05
1.44096e-05
1.44096e-05
1.441e-05
1.441e-05
1.44101e-05
1.44098e-05
1.44099e-05
1.44097e-05
1.44096e-05
1.44092e-05
1.44091e-05
1.4409e-05
1.44088e-05
1.44091e-05
1.44091e-05
1.44093e-05
1.44093e-05
1.44094e-05
1.44097e-05
1.44096e-05
1.44097e-05
1.44096e-05
1.44097e-05
1.44097e-05
1.44101e-05
1.44099e-05
1.44099e-05
1.44099e-05
1.441e-05
1.441e-05
1.44099e-05
1.441e-05
1.41875e-05
1.41874e-05
1.41872e-05
1.41871e-05
1.41868e-05
1.41869e-05
1.41866e-05
1.41866e-05
1.41865e-05
1.41864e-05
1.41863e-05
1.41863e-05
1.41862e-05
1.41862e-05
1.4186e-05
1.41861e-05
1.41862e-05
1.41862e-05
1.41861e-05
1.41859e-05
1.41861e-05
1.41861e-05
1.41861e-05
1.4186e-05
1.41861e-05
1.4186e-05
1.41859e-05
1.4186e-05
1.41859e-05
1.41859e-05
1.41862e-05
1.41862e-05
1.41863e-05
1.41861e-05
1.41862e-05
1.41862e-05
1.41861e-05
1.41858e-05
1.41857e-05
1.41856e-05
1.41854e-05
1.41856e-05
1.41856e-05
1.41857e-05
1.41857e-05
1.41857e-05
1.4186e-05
1.41859e-05
1.4186e-05
1.4186e-05
1.41859e-05
1.41859e-05
1.41863e-05
1.41861e-05
1.41861e-05
1.41861e-05
1.41863e-05
1.41863e-05
1.41862e-05
1.41863e-05
1.39511e-05
1.39511e-05
1.39509e-05
1.39507e-05
1.39505e-05
1.39505e-05
1.39503e-05
1.39502e-05
1.39502e-05
1.39502e-05
1.39501e-05
1.39502e-05
1.39501e-05
1.395e-05
1.39498e-05
1.39498e-05
1.395e-05
1.39499e-05
1.39499e-05
1.39497e-05
1.39498e-05
1.39499e-05
1.39499e-05
1.39498e-05
1.39499e-05
1.39498e-05
1.39497e-05
1.39498e-05
1.39497e-05
1.39497e-05
1.39499e-05
1.39499e-05
1.395e-05
1.39498e-05
1.39499e-05
1.39499e-05
1.39499e-05
1.39498e-05
1.39497e-05
1.39496e-05
1.39494e-05
1.39495e-05
1.39495e-05
1.39496e-05
1.39495e-05
1.39496e-05
1.39498e-05
1.39497e-05
1.39498e-05
1.39497e-05
1.39497e-05
1.39496e-05
1.39499e-05
1.39498e-05
1.39498e-05
1.39498e-05
1.39499e-05
1.39499e-05
1.39499e-05
1.395e-05
1.37029e-05
1.37029e-05
1.37027e-05
1.37026e-05
1.37023e-05
1.37023e-05
1.37021e-05
1.37021e-05
1.37021e-05
1.37021e-05
1.37021e-05
1.37021e-05
1.37021e-05
1.3702e-05
1.37018e-05
1.37018e-05
1.37019e-05
1.37019e-05
1.37018e-05
1.37017e-05
1.37018e-05
1.37018e-05
1.37018e-05
1.37018e-05
1.37018e-05
1.37018e-05
1.37017e-05
1.37018e-05
1.37017e-05
1.37016e-05
1.37018e-05
1.37018e-05
1.37018e-05
1.37017e-05
1.37018e-05
1.37018e-05
1.37019e-05
1.37018e-05
1.37017e-05
1.37017e-05
1.37015e-05
1.37016e-05
1.37016e-05
1.37016e-05
1.37016e-05
1.37015e-05
1.37017e-05
1.37017e-05
1.37017e-05
1.37017e-05
1.37016e-05
1.37016e-05
1.37018e-05
1.37017e-05
1.37016e-05
1.37017e-05
1.37018e-05
1.37018e-05
1.37018e-05
1.37018e-05
1.34435e-05
1.34434e-05
1.34433e-05
1.34431e-05
1.34429e-05
1.34428e-05
1.34427e-05
1.34427e-05
1.34427e-05
1.34427e-05
1.34427e-05
1.34427e-05
1.34427e-05
1.34426e-05
1.34425e-05
1.34424e-05
1.34425e-05
1.34425e-05
1.34425e-05
1.34423e-05
1.34424e-05
1.34424e-05
1.34424e-05
1.34424e-05
1.34425e-05
1.34425e-05
1.34424e-05
1.34424e-05
1.34424e-05
1.34423e-05
1.34424e-05
1.34424e-05
1.34424e-05
1.34424e-05
1.34424e-05
1.34424e-05
1.34425e-05
1.34424e-05
1.34424e-05
1.34424e-05
1.34423e-05
1.34424e-05
1.34424e-05
1.34423e-05
1.34422e-05
1.34422e-05
1.34424e-05
1.34424e-05
1.34424e-05
1.34424e-05
1.34423e-05
1.34422e-05
1.34424e-05
1.34424e-05
1.34423e-05
1.34423e-05
1.34424e-05
1.34424e-05
1.34424e-05
1.34424e-05
1.31731e-05
1.31731e-05
1.31729e-05
1.31728e-05
1.31726e-05
1.31725e-05
1.31724e-05
1.31724e-05
1.31724e-05
1.31724e-05
1.31724e-05
1.31725e-05
1.31724e-05
1.31724e-05
1.31722e-05
1.31722e-05
1.31723e-05
1.31723e-05
1.31722e-05
1.31721e-05
1.31722e-05
1.31722e-05
1.31722e-05
1.31722e-05
1.31722e-05
1.31722e-05
1.31722e-05
1.31722e-05
1.31722e-05
1.31721e-05
1.31722e-05
1.31721e-05
1.31722e-05
1.31721e-05
1.31722e-05
1.31722e-05
1.31722e-05
1.31722e-05
1.31722e-05
1.31722e-05
1.31721e-05
1.31722e-05
1.31722e-05
1.31721e-05
1.3172e-05
1.3172e-05
1.31721e-05
1.31721e-05
1.31722e-05
1.31721e-05
1.31721e-05
1.3172e-05
1.31721e-05
1.31721e-05
1.3172e-05
1.31721e-05
1.31721e-05
1.31721e-05
1.31721e-05
1.31721e-05
1.28923e-05
1.28922e-05
1.28921e-05
1.2892e-05
1.28918e-05
1.28918e-05
1.28916e-05
1.28916e-05
1.28916e-05
1.28916e-05
1.28916e-05
1.28917e-05
1.28917e-05
1.28916e-05
1.28915e-05
1.28915e-05
1.28916e-05
1.28915e-05
1.28915e-05
1.28914e-05
1.28915e-05
1.28915e-05
1.28915e-05
1.28914e-05
1.28915e-05
1.28915e-05
1.28914e-05
1.28915e-05
1.28914e-05
1.28913e-05
1.28914e-05
1.28914e-05
1.28914e-05
1.28914e-05
1.28914e-05
1.28914e-05
1.28914e-05
1.28914e-05
1.28914e-05
1.28914e-05
1.28914e-05
1.28915e-05
1.28914e-05
1.28914e-05
1.28913e-05
1.28913e-05
1.28914e-05
1.28914e-05
1.28914e-05
1.28914e-05
1.28914e-05
1.28913e-05
1.28914e-05
1.28914e-05
1.28913e-05
1.28913e-05
1.28914e-05
1.28914e-05
1.28914e-05
1.28914e-05
1.26014e-05
1.26013e-05
1.26012e-05
1.26011e-05
1.26009e-05
1.26009e-05
1.26008e-05
1.26007e-05
1.26008e-05
1.26008e-05
1.26008e-05
1.26008e-05
1.26008e-05
1.26008e-05
1.26007e-05
1.26007e-05
1.26007e-05
1.26007e-05
1.26007e-05
1.26006e-05
1.26006e-05
1.26007e-05
1.26006e-05
1.26006e-05
1.26007e-05
1.26007e-05
1.26006e-05
1.26006e-05
1.26006e-05
1.26005e-05
1.26006e-05
1.26006e-05
1.26006e-05
1.26005e-05
1.26006e-05
1.26006e-05
1.26006e-05
1.26006e-05
1.26006e-05
1.26006e-05
1.26006e-05
1.26006e-05
1.26006e-05
1.26006e-05
1.26005e-05
1.26005e-05
1.26006e-05
1.26006e-05
1.26006e-05
1.26006e-05
1.26006e-05
1.26005e-05
1.26006e-05
1.26006e-05
1.26005e-05
1.26005e-05
1.26006e-05
1.26006e-05
1.26006e-05
1.26006e-05
1.23008e-05
1.23008e-05
1.23007e-05
1.23006e-05
1.23005e-05
1.23004e-05
1.23003e-05
1.23003e-05
1.23003e-05
1.23003e-05
1.23003e-05
1.23003e-05
1.23003e-05
1.23003e-05
1.23002e-05
1.23002e-05
1.23003e-05
1.23003e-05
1.23002e-05
1.23002e-05
1.23002e-05
1.23002e-05
1.23002e-05
1.23002e-05
1.23002e-05
1.23002e-05
1.23002e-05
1.23002e-05
1.23001e-05
1.23e-05
1.23001e-05
1.23001e-05
1.23001e-05
1.23001e-05
1.23001e-05
1.23001e-05
1.23001e-05
1.23001e-05
1.23001e-05
1.23001e-05
1.23001e-05
1.23002e-05
1.23002e-05
1.23002e-05
1.23001e-05
1.23001e-05
1.23002e-05
1.23002e-05
1.23002e-05
1.23002e-05
1.23001e-05
1.23001e-05
1.23002e-05
1.23001e-05
1.23001e-05
1.23001e-05
1.23001e-05
1.23001e-05
1.23001e-05
1.23001e-05
1.19912e-05
1.19912e-05
1.19911e-05
1.1991e-05
1.19909e-05
1.19909e-05
1.19908e-05
1.19907e-05
1.19907e-05
1.19907e-05
1.19907e-05
1.19908e-05
1.19908e-05
1.19908e-05
1.19907e-05
1.19907e-05
1.19907e-05
1.19907e-05
1.19907e-05
1.19906e-05
1.19907e-05
1.19907e-05
1.19907e-05
1.19907e-05
1.19907e-05
1.19907e-05
1.19907e-05
1.19906e-05
1.19906e-05
1.19905e-05
1.19905e-05
1.19905e-05
1.19906e-05
1.19905e-05
1.19906e-05
1.19906e-05
1.19906e-05
1.19906e-05
1.19906e-05
1.19906e-05
1.19906e-05
1.19906e-05
1.19906e-05
1.19906e-05
1.19906e-05
1.19906e-05
1.19907e-05
1.19907e-05
1.19907e-05
1.19906e-05
1.19906e-05
1.19906e-05
1.19906e-05
1.19906e-05
1.19906e-05
1.19906e-05
1.19906e-05
1.19906e-05
1.19906e-05
1.19906e-05
1.16732e-05
1.16731e-05
1.16731e-05
1.1673e-05
1.16729e-05
1.16729e-05
1.16728e-05
1.16728e-05
1.16728e-05
1.16728e-05
1.16728e-05
1.16728e-05
1.16728e-05
1.16728e-05
1.16728e-05
1.16727e-05
1.16728e-05
1.16728e-05
1.16728e-05
1.16727e-05
1.16727e-05
1.16727e-05
1.16727e-05
1.16727e-05
1.16728e-05
1.16728e-05
1.16727e-05
1.16727e-05
1.16727e-05
1.16726e-05
1.16726e-05
1.16726e-05
1.16726e-05
1.16726e-05
1.16726e-05
1.16726e-05
1.16727e-05
1.16727e-05
1.16727e-05
1.16727e-05
1.16727e-05
1.16727e-05
1.16727e-05
1.16727e-05
1.16727e-05
1.16727e-05
1.16727e-05
1.16727e-05
1.16727e-05
1.16727e-05
1.16727e-05
1.16726e-05
1.16727e-05
1.16727e-05
1.16727e-05
1.16727e-05
1.16727e-05
1.16727e-05
1.16727e-05
1.16727e-05
1.13477e-05
1.13477e-05
1.13477e-05
1.13476e-05
1.13475e-05
1.13475e-05
1.13474e-05
1.13474e-05
1.13474e-05
1.13474e-05
1.13474e-05
1.13474e-05
1.13474e-05
1.13474e-05
1.13474e-05
1.13474e-05
1.13474e-05
1.13474e-05
1.13474e-05
1.13474e-05
1.13474e-05
1.13474e-05
1.13474e-05
1.13474e-05
1.13474e-05
1.13474e-05
1.13474e-05
1.13474e-05
1.13473e-05
1.13473e-05
1.13473e-05
1.13473e-05
1.13473e-05
1.13473e-05
1.13473e-05
1.13473e-05
1.13473e-05
1.13473e-05
1.13473e-05
1.13473e-05
1.13473e-05
1.13473e-05
1.13473e-05
1.13473e-05
1.13473e-05
1.13473e-05
1.13474e-05
1.13474e-05
1.13474e-05
1.13474e-05
1.13473e-05
1.13473e-05
1.13473e-05
1.13473e-05
1.13473e-05
1.13473e-05
1.13473e-05
1.13473e-05
1.13473e-05
1.13473e-05
1.10162e-05
1.10162e-05
1.10162e-05
1.10162e-05
1.10161e-05
1.10161e-05
1.10161e-05
1.1016e-05
1.1016e-05
1.1016e-05
1.10161e-05
1.10161e-05
1.10161e-05
1.10161e-05
1.1016e-05
1.1016e-05
1.1016e-05
1.1016e-05
1.1016e-05
1.1016e-05
1.1016e-05
1.1016e-05
1.1016e-05
1.1016e-05
1.1016e-05
1.1016e-05
1.1016e-05
1.1016e-05
1.1016e-05
1.10159e-05
1.10159e-05
1.10159e-05
1.10159e-05
1.10159e-05
1.10159e-05
1.10159e-05
1.10159e-05
1.10159e-05
1.10159e-05
1.1016e-05
1.1016e-05
1.1016e-05
1.1016e-05
1.1016e-05
1.1016e-05
1.1016e-05
1.1016e-05
1.1016e-05
1.1016e-05
1.1016e-05
1.1016e-05
1.1016e-05
1.1016e-05
1.1016e-05
1.1016e-05
1.1016e-05
1.1016e-05
1.1016e-05
1.1016e-05
1.1016e-05
1.06811e-05
1.06811e-05
1.06811e-05
1.06811e-05
1.0681e-05
1.0681e-05
1.0681e-05
1.0681e-05
1.0681e-05
1.0681e-05
1.0681e-05
1.0681e-05
1.0681e-05
1.0681e-05
1.0681e-05
1.0681e-05
1.0681e-05
1.0681e-05
1.0681e-05
1.0681e-05
1.0681e-05
1.0681e-05
1.0681e-05
1.0681e-05
1.0681e-05
1.0681e-05
1.0681e-05
1.0681e-05
1.0681e-05
1.06809e-05
1.06809e-05
1.06809e-05
1.06809e-05
1.06809e-05
1.06809e-05
1.06809e-05
1.06809e-05
1.06809e-05
1.06809e-05
1.06809e-05
1.06809e-05
1.06809e-05
1.06809e-05
1.0681e-05
1.0681e-05
1.0681e-05
1.0681e-05
1.0681e-05
1.0681e-05
1.0681e-05
1.0681e-05
1.0681e-05
1.0681e-05
1.0681e-05
1.0681e-05
1.0681e-05
1.0681e-05
1.0681e-05
1.0681e-05
1.0681e-05
1.03462e-05
1.03463e-05
1.03462e-05
1.03462e-05
1.03462e-05
1.03462e-05
1.03462e-05
1.03462e-05
1.03462e-05
1.03462e-05
1.03462e-05
1.03462e-05
1.03463e-05
1.03463e-05
1.03463e-05
1.03463e-05
1.03463e-05
1.03463e-05
1.03463e-05
1.03462e-05
1.03462e-05
1.03463e-05
1.03463e-05
1.03463e-05
1.03463e-05
1.03463e-05
1.03463e-05
1.03463e-05
1.03462e-05
1.03462e-05
1.03462e-05
1.03462e-05
1.03462e-05
1.03462e-05
1.03462e-05
1.03462e-05
1.03462e-05
1.03462e-05
1.03462e-05
1.03462e-05
1.03462e-05
1.03462e-05
1.03462e-05
1.03462e-05
1.03462e-05
1.03462e-05
1.03462e-05
1.03463e-05
1.03463e-05
1.03463e-05
1.03463e-05
1.03462e-05
1.03463e-05
1.03463e-05
1.03462e-05
1.03462e-05
1.03462e-05
1.03463e-05
1.03462e-05
1.03463e-05
9.19784e-06
9.18007e-06
9.18171e-06
9.17868e-06
9.17949e-06
9.17875e-06
9.19682e-06
9.19646e-06
9.18297e-06
9.18043e-06
9.19837e-06
9.1803e-06
9.19863e-06
9.19734e-06
9.1824e-06
9.18114e-06
9.19803e-06
9.18158e-06
9.18073e-06
9.19782e-06
9.19599e-06
9.19952e-06
9.18138e-06
9.18144e-06
9.18026e-06
9.17829e-06
9.17984e-06
9.17818e-06
9.19765e-06
9.17816e-06
9.19697e-06
9.1803e-06
9.18027e-06
9.19696e-06
9.19801e-06
9.18159e-06
9.1833e-06
9.17881e-06
9.19851e-06
9.17804e-06
9.20002e-06
9.17923e-06
9.19949e-06
9.17859e-06
9.1797e-06
9.17925e-06
9.17857e-06
9.1787e-06
9.17999e-06
9.18073e-06
9.19564e-06
9.19781e-06
9.17997e-06
9.1991e-06
9.18058e-06
9.18214e-06
9.19772e-06
9.19937e-06
9.18166e-06
9.1986e-06
1.31748e-05
1.31807e-05
1.31859e-05
1.31852e-05
1.31847e-05
1.31847e-05
1.31779e-05
1.31719e-05
1.31816e-05
1.31854e-05
1.31777e-05
1.3183e-05
1.31784e-05
1.31736e-05
1.31818e-05
1.31858e-05
1.31775e-05
1.31832e-05
1.31861e-05
1.31789e-05
1.31729e-05
1.31735e-05
1.31817e-05
1.31851e-05
1.31859e-05
1.31847e-05
1.31849e-05
1.31843e-05
1.31773e-05
1.31815e-05
1.31755e-05
1.31811e-05
1.31851e-05
1.31773e-05
1.31734e-05
1.31805e-05
1.3187e-05
1.31853e-05
1.31779e-05
1.31815e-05
1.31773e-05
1.31819e-05
1.31777e-05
1.31815e-05
1.31838e-05
1.31842e-05
1.3184e-05
1.31841e-05
1.31845e-05
1.31865e-05
1.31776e-05
1.31733e-05
1.31812e-05
1.31771e-05
1.31815e-05
1.31862e-05
1.31783e-05
1.31751e-05
1.3183e-05
1.31779e-05
1.45317e-05
1.45375e-05
1.45432e-05
1.45449e-05
1.45442e-05
1.45444e-05
1.45375e-05
1.45289e-05
1.45364e-05
1.45433e-05
1.45352e-05
1.45406e-05
1.4536e-05
1.45302e-05
1.45371e-05
1.45437e-05
1.45352e-05
1.454e-05
1.45446e-05
1.45378e-05
1.4531e-05
1.45285e-05
1.45371e-05
1.45422e-05
1.45445e-05
1.45447e-05
1.45443e-05
1.45442e-05
1.45356e-05
1.45403e-05
1.45333e-05
1.4538e-05
1.45433e-05
1.45361e-05
1.45297e-05
1.45358e-05
1.45434e-05
1.45447e-05
1.4536e-05
1.45403e-05
1.45339e-05
1.45396e-05
1.45343e-05
1.45396e-05
1.45422e-05
1.45433e-05
1.45434e-05
1.45437e-05
1.45434e-05
1.45453e-05
1.45376e-05
1.453e-05
1.4538e-05
1.45334e-05
1.45382e-05
1.45437e-05
1.45367e-05
1.45311e-05
1.45394e-05
1.45348e-05
1.50572e-05
1.50606e-05
1.5065e-05
1.50684e-05
1.50681e-05
1.50684e-05
1.50641e-05
1.50557e-05
1.50588e-05
1.50654e-05
1.50602e-05
1.50637e-05
1.50611e-05
1.5056e-05
1.50593e-05
1.50659e-05
1.50603e-05
1.50627e-05
1.50671e-05
1.50634e-05
1.50581e-05
1.50535e-05
1.50591e-05
1.5064e-05
1.5067e-05
1.50686e-05
1.50682e-05
1.50684e-05
1.50617e-05
1.50646e-05
1.50593e-05
1.50614e-05
1.5066e-05
1.50619e-05
1.50556e-05
1.50584e-05
1.50641e-05
1.50679e-05
1.50615e-05
1.50644e-05
1.50589e-05
1.50629e-05
1.50588e-05
1.50629e-05
1.50653e-05
1.50668e-05
1.50672e-05
1.50677e-05
1.50671e-05
1.50683e-05
1.50642e-05
1.50562e-05
1.50612e-05
1.5058e-05
1.50609e-05
1.50658e-05
1.50621e-05
1.50562e-05
1.50618e-05
1.50592e-05
1.52244e-05
1.5226e-05
1.52285e-05
1.52322e-05
1.52326e-05
1.5233e-05
1.52308e-05
1.52247e-05
1.52247e-05
1.52287e-05
1.52263e-05
1.52284e-05
1.52271e-05
1.52237e-05
1.52246e-05
1.52291e-05
1.52265e-05
1.52275e-05
1.52307e-05
1.52292e-05
1.52263e-05
1.52213e-05
1.52239e-05
1.52275e-05
1.52302e-05
1.52328e-05
1.52327e-05
1.52333e-05
1.52287e-05
1.52302e-05
1.52267e-05
1.52272e-05
1.523e-05
1.52283e-05
1.52237e-05
1.52243e-05
1.52268e-05
1.52315e-05
1.52277e-05
1.52297e-05
1.52257e-05
1.5228e-05
1.52251e-05
1.52277e-05
1.52296e-05
1.52312e-05
1.52317e-05
1.52326e-05
1.52319e-05
1.52324e-05
1.52306e-05
1.52246e-05
1.52267e-05
1.52245e-05
1.52259e-05
1.52292e-05
1.52279e-05
1.52236e-05
1.52264e-05
1.5225e-05
1.522e-05
1.52207e-05
1.52217e-05
1.52244e-05
1.52254e-05
1.52261e-05
1.52251e-05
1.52219e-05
1.52199e-05
1.52219e-05
1.52208e-05
1.52221e-05
1.52215e-05
1.52197e-05
1.52193e-05
1.52219e-05
1.5221e-05
1.52214e-05
1.52233e-05
1.52229e-05
1.52219e-05
1.52182e-05
1.52188e-05
1.52206e-05
1.52226e-05
1.52253e-05
1.52256e-05
1.52265e-05
1.52237e-05
1.52244e-05
1.52224e-05
1.52219e-05
1.52232e-05
1.52227e-05
1.52201e-05
1.52195e-05
1.52201e-05
1.52236e-05
1.52219e-05
1.52235e-05
1.52209e-05
1.52222e-05
1.52201e-05
1.52216e-05
1.52228e-05
1.52243e-05
1.52248e-05
1.52258e-05
1.52255e-05
1.52254e-05
1.52248e-05
1.52211e-05
1.52215e-05
1.52198e-05
1.52203e-05
1.5222e-05
1.52218e-05
1.52193e-05
1.52204e-05
1.52197e-05
1.51272e-05
1.51275e-05
1.51277e-05
1.51292e-05
1.51303e-05
1.51312e-05
1.51309e-05
1.51297e-05
1.51273e-05
1.5128e-05
1.51274e-05
1.51281e-05
1.51277e-05
1.51271e-05
1.51263e-05
1.51275e-05
1.51273e-05
1.51275e-05
1.51285e-05
1.51285e-05
1.51285e-05
1.51265e-05
1.51262e-05
1.51267e-05
1.51278e-05
1.513e-05
1.51305e-05
1.51316e-05
1.51301e-05
1.51305e-05
1.51294e-05
1.51287e-05
1.51291e-05
1.51289e-05
1.51277e-05
1.5127e-05
1.51264e-05
1.51286e-05
1.51279e-05
1.51293e-05
1.51277e-05
1.51285e-05
1.5127e-05
1.51279e-05
1.51285e-05
1.51296e-05
1.51302e-05
1.51311e-05
1.51311e-05
1.51308e-05
1.51306e-05
1.51287e-05
1.51285e-05
1.51269e-05
1.51271e-05
1.51276e-05
1.51278e-05
1.51266e-05
1.51269e-05
1.51263e-05
1.49851e-05
1.49853e-05
1.49852e-05
1.49858e-05
1.49867e-05
1.49876e-05
1.49875e-05
1.49873e-05
1.49858e-05
1.49857e-05
1.49851e-05
1.49855e-05
1.49851e-05
1.4985e-05
1.49845e-05
1.49848e-05
1.49848e-05
1.49849e-05
1.49854e-05
1.49853e-05
1.49858e-05
1.4985e-05
1.49844e-05
1.49845e-05
1.49849e-05
1.49862e-05
1.49867e-05
1.49879e-05
1.49872e-05
1.49875e-05
1.4987e-05
1.49865e-05
1.49863e-05
1.49862e-05
1.49857e-05
1.49853e-05
1.49843e-05
1.49854e-05
1.49852e-05
1.49863e-05
1.49853e-05
1.49859e-05
1.49849e-05
1.49854e-05
1.49856e-05
1.49863e-05
1.49868e-05
1.49875e-05
1.49878e-05
1.49875e-05
1.49874e-05
1.49866e-05
1.49863e-05
1.4985e-05
1.49851e-05
1.49849e-05
1.49851e-05
1.49845e-05
1.49845e-05
1.49841e-05
1.48128e-05
1.48129e-05
1.48127e-05
1.48129e-05
1.48133e-05
1.48141e-05
1.48141e-05
1.48143e-05
1.48136e-05
1.48133e-05
1.48126e-05
1.48129e-05
1.48125e-05
1.48127e-05
1.48124e-05
1.48122e-05
1.48122e-05
1.48122e-05
1.48124e-05
1.48124e-05
1.48129e-05
1.48126e-05
1.48123e-05
1.48121e-05
1.48123e-05
1.48129e-05
1.48133e-05
1.48142e-05
1.48141e-05
1.48144e-05
1.48141e-05
1.4814e-05
1.48136e-05
1.48135e-05
1.48133e-05
1.48132e-05
1.48122e-05
1.48127e-05
1.48125e-05
1.48133e-05
1.48128e-05
1.48132e-05
1.48126e-05
1.48129e-05
1.48129e-05
1.48132e-05
1.48137e-05
1.48141e-05
1.48145e-05
1.48143e-05
1.48143e-05
1.4814e-05
1.48138e-05
1.48128e-05
1.48129e-05
1.48125e-05
1.48125e-05
1.48122e-05
1.48121e-05
1.48116e-05
1.46196e-05
1.46196e-05
1.46194e-05
1.46194e-05
1.46195e-05
1.462e-05
1.462e-05
1.46204e-05
1.46202e-05
1.46199e-05
1.46193e-05
1.46195e-05
1.46191e-05
1.46193e-05
1.46192e-05
1.46189e-05
1.46188e-05
1.46188e-05
1.46188e-05
1.46187e-05
1.46192e-05
1.46191e-05
1.4619e-05
1.46188e-05
1.46189e-05
1.46191e-05
1.46194e-05
1.462e-05
1.462e-05
1.46204e-05
1.46203e-05
1.46203e-05
1.46201e-05
1.462e-05
1.46198e-05
1.46199e-05
1.46192e-05
1.46194e-05
1.46191e-05
1.46196e-05
1.46193e-05
1.46197e-05
1.46193e-05
1.46195e-05
1.46195e-05
1.46196e-05
1.46199e-05
1.46201e-05
1.46205e-05
1.46203e-05
1.46203e-05
1.46203e-05
1.46202e-05
1.46196e-05
1.46196e-05
1.46192e-05
1.46191e-05
1.46188e-05
1.46187e-05
1.46184e-05
1.44101e-05
1.44101e-05
1.44098e-05
1.44097e-05
1.44097e-05
1.44099e-05
1.44099e-05
1.44103e-05
1.44102e-05
1.44101e-05
1.44097e-05
1.44098e-05
1.44095e-05
1.44096e-05
1.44096e-05
1.44093e-05
1.44092e-05
1.44091e-05
1.44091e-05
1.44089e-05
1.44093e-05
1.44093e-05
1.44093e-05
1.44093e-05
1.44093e-05
1.44093e-05
1.44095e-05
1.44098e-05
1.44098e-05
1.44102e-05
1.44102e-05
1.44104e-05
1.44102e-05
1.44101e-05
1.44101e-05
1.44102e-05
1.44097e-05
1.44097e-05
1.44095e-05
1.44098e-05
1.44096e-05
1.44099e-05
1.44096e-05
1.44098e-05
1.44098e-05
1.44098e-05
1.441e-05
1.44101e-05
1.44104e-05
1.44103e-05
1.44102e-05
1.44103e-05
1.44103e-05
1.44099e-05
1.441e-05
1.44097e-05
1.44095e-05
1.44092e-05
1.44092e-05
1.44089e-05
1.41866e-05
1.41866e-05
1.41864e-05
1.41862e-05
1.41861e-05
1.41862e-05
1.41861e-05
1.41864e-05
1.41864e-05
1.41863e-05
1.41861e-05
1.41861e-05
1.41859e-05
1.4186e-05
1.4186e-05
1.41858e-05
1.41857e-05
1.41856e-05
1.41855e-05
1.41853e-05
1.41855e-05
1.41856e-05
1.41857e-05
1.41857e-05
1.41857e-05
1.41857e-05
1.41858e-05
1.4186e-05
1.4186e-05
1.41863e-05
1.41863e-05
1.41865e-05
1.41864e-05
1.41863e-05
1.41864e-05
1.41865e-05
1.41862e-05
1.41862e-05
1.41859e-05
1.41862e-05
1.4186e-05
1.41862e-05
1.41861e-05
1.41862e-05
1.41862e-05
1.41862e-05
1.41863e-05
1.41863e-05
1.41865e-05
1.41864e-05
1.41864e-05
1.41864e-05
1.41865e-05
1.41863e-05
1.41864e-05
1.41862e-05
1.4186e-05
1.41858e-05
1.41857e-05
1.41854e-05
1.39505e-05
1.39505e-05
1.39503e-05
1.39501e-05
1.39499e-05
1.39499e-05
1.39498e-05
1.395e-05
1.395e-05
1.395e-05
1.39498e-05
1.39499e-05
1.39498e-05
1.39498e-05
1.39498e-05
1.39497e-05
1.39496e-05
1.39495e-05
1.39494e-05
1.39491e-05
1.39493e-05
1.39493e-05
1.39494e-05
1.39494e-05
1.39495e-05
1.39495e-05
1.39495e-05
1.39496e-05
1.39496e-05
1.39499e-05
1.39499e-05
1.39501e-05
1.395e-05
1.395e-05
1.395e-05
1.39502e-05
1.395e-05
1.39499e-05
1.39498e-05
1.39499e-05
1.39498e-05
1.395e-05
1.39499e-05
1.395e-05
1.395e-05
1.395e-05
1.395e-05
1.395e-05
1.39501e-05
1.39501e-05
1.395e-05
1.39501e-05
1.39502e-05
1.395e-05
1.39501e-05
1.395e-05
1.39498e-05
1.39496e-05
1.39496e-05
1.39494e-05
1.37025e-05
1.37025e-05
1.37023e-05
1.37021e-05
1.37019e-05
1.37019e-05
1.37017e-05
1.37019e-05
1.37019e-05
1.37018e-05
1.37017e-05
1.37018e-05
1.37017e-05
1.37017e-05
1.37018e-05
1.37017e-05
1.37016e-05
1.37015e-05
1.37014e-05
1.37012e-05
1.37013e-05
1.37013e-05
1.37014e-05
1.37014e-05
1.37014e-05
1.37014e-05
1.37015e-05
1.37015e-05
1.37015e-05
1.37017e-05
1.37017e-05
1.37019e-05
1.37018e-05
1.37018e-05
1.37019e-05
1.3702e-05
1.37019e-05
1.37018e-05
1.37017e-05
1.37018e-05
1.37018e-05
1.37019e-05
1.37018e-05
1.37019e-05
1.37019e-05
1.37019e-05
1.3702e-05
1.3702e-05
1.3702e-05
1.3702e-05
1.37019e-05
1.37019e-05
1.3702e-05
1.37019e-05
1.3702e-05
1.3702e-05
1.37018e-05
1.37016e-05
1.37016e-05
1.37014e-05
1.34432e-05
1.34431e-05
1.3443e-05
1.34428e-05
1.34426e-05
1.34426e-05
1.34424e-05
1.34425e-05
1.34425e-05
1.34424e-05
1.34423e-05
1.34424e-05
1.34423e-05
1.34423e-05
1.34424e-05
1.34423e-05
1.34422e-05
1.34421e-05
1.34421e-05
1.34419e-05
1.3442e-05
1.3442e-05
1.3442e-05
1.3442e-05
1.34421e-05
1.34421e-05
1.34421e-05
1.34422e-05
1.34422e-05
1.34423e-05
1.34423e-05
1.34424e-05
1.34424e-05
1.34424e-05
1.34424e-05
1.34425e-05
1.34424e-05
1.34424e-05
1.34423e-05
1.34424e-05
1.34424e-05
1.34425e-05
1.34425e-05
1.34425e-05
1.34425e-05
1.34425e-05
1.34426e-05
1.34426e-05
1.34426e-05
1.34426e-05
1.34425e-05
1.34425e-05
1.34426e-05
1.34425e-05
1.34426e-05
1.34426e-05
1.34425e-05
1.34423e-05
1.34423e-05
1.34422e-05
1.31729e-05
1.31729e-05
1.31728e-05
1.31726e-05
1.31724e-05
1.31724e-05
1.31722e-05
1.31723e-05
1.31723e-05
1.31722e-05
1.31721e-05
1.31721e-05
1.31721e-05
1.31721e-05
1.31721e-05
1.31721e-05
1.3172e-05
1.31719e-05
1.31718e-05
1.31717e-05
1.31718e-05
1.31718e-05
1.31718e-05
1.31718e-05
1.31718e-05
1.31718e-05
1.31718e-05
1.31719e-05
1.31719e-05
1.3172e-05
1.3172e-05
1.31721e-05
1.31721e-05
1.31721e-05
1.31721e-05
1.31722e-05
1.31721e-05
1.31721e-05
1.3172e-05
1.31721e-05
1.31721e-05
1.31722e-05
1.31722e-05
1.31722e-05
1.31722e-05
1.31723e-05
1.31723e-05
1.31723e-05
1.31723e-05