/*--------------------------------*- C++ -*----------------------------------*\
| =========                 |                                                 |
| \\      /  F ield         | OpenFOAM: The Open Source CFD Toolbox           |
|  \\    /   O peration     | Version:  2312                                  |
|   \\  /    A nd           | Website:  www.openfoam.com                      |
|    \\/     M anipulation  |                                                 |
\*---------------------------------------------------------------------------*/
FoamFile
{
    version     2.0;
    format      ascii;
    arch        "LSB;label=32;scalar=64";
    class       volScalarField;
    location    "500";
    object      p;
}
// * * * * * * * * * * * * * * * * * * * * * * * * * * * * * * * * * * * * * //

dimensions      [0 2 -2 0 0 0 0];

internalField   nonuniform List<scalar> 
144000
(
4.80523e-09
-1.49485e-08
-1.14738e-07
-1.50699e-07
4.89883e-08
-1.44326e-08
-4.69194e-08
1.58113e-07
1.88477e-07
4.91036e-08
-5.55967e-09
-4.75461e-10
-7.08949e-08
-1.14148e-07
-2.14843e-08
1.49965e-07
6.4623e-08
-7.98574e-08
-1.56082e-07
1.19489e-08
2.71539e-07
1.31157e-07
-8.63438e-08
5.39882e-08
4.85867e-08
-1.36651e-07
4.89881e-08
-7.97679e-09
-1.41266e-07
8.32828e-08
9.2545e-08
9.34222e-08
1.69404e-08
1.29545e-08
2.09954e-07
2.26866e-07
1.85636e-08
4.15758e-08
1.3267e-07
-8.67287e-08
9.99355e-08
1.56432e-07
1.87465e-09
-4.32441e-08
1.1156e-08
2.21662e-07
1.17137e-07
-6.88114e-08
-6.55376e-08
-1.11991e-07
-1.45555e-07
1.15927e-07
8.31466e-08
-1.84153e-07
-3.46645e-08
1.5593e-07
6.53589e-08
-2.92315e-08
-3.07485e-08
-1.9556e-08
4.88736e-09
-1.44681e-08
-1.13403e-07
-1.37789e-07
4.7402e-08
-1.36149e-08
-3.4414e-08
1.56055e-07
1.73989e-07
3.67717e-08
-4.06968e-09
9.58801e-11
-6.99766e-08
-9.95352e-08
-1.04645e-08
1.33994e-07
5.19926e-08
-7.74362e-08
-1.41515e-07
2.21858e-08
2.54944e-07
1.20302e-07
-7.06069e-08
5.22374e-08
3.64662e-08
-1.21587e-07
4.71613e-08
-2.04143e-08
-1.27138e-07
8.20964e-08
9.23624e-08
9.32939e-08
1.76823e-08
2.57954e-08
2.07787e-07
2.13626e-07
2.03555e-08
4.01869e-08
1.20632e-07
-7.18531e-08
9.80199e-08
1.43201e-07
3.75499e-09
-2.80456e-08
2.20742e-08
2.05699e-07
1.05053e-07
-6.7347e-08
-6.50165e-08
-1.10613e-07
-1.32541e-07
1.13476e-07
7.09699e-08
-1.6832e-07
-2.36964e-08
1.39666e-07
5.27676e-08
-2.80178e-08
-3.02116e-08
-1.96463e-08
4.66891e-09
-1.39835e-08
-1.10955e-07
-1.33391e-07
4.49036e-08
-1.20376e-08
-3.03761e-08
1.52248e-07
1.67491e-07
3.3609e-08
-1.72839e-09
8.95155e-10
-6.8387e-08
-9.26656e-08
-8.86774e-09
1.25134e-07
4.82389e-08
-7.30347e-08
-1.34346e-07
2.26777e-08
2.45154e-07
1.187e-07
-6.31668e-08
4.89114e-08
3.36088e-08
-1.1491e-07
4.40559e-08
-2.35227e-08
-1.21128e-07
8.03047e-08
9.17819e-08
9.3166e-08
1.92025e-08
3.01145e-08
2.03809e-07
2.0864e-07
2.31475e-08
3.8162e-08
1.17716e-07
-6.50764e-08
9.45504e-08
1.38362e-07
7.23882e-09
-2.05953e-08
2.35209e-08
1.96725e-07
1.01779e-07
-6.49163e-08
-6.42803e-08
-1.0787e-07
-1.28244e-07
1.09142e-07
6.78321e-08
-1.60011e-07
-2.19399e-08
1.3104e-07
4.899e-08
-2.60446e-08
-2.92318e-08
-1.97154e-08
4.27446e-09
-1.38069e-08
-1.07625e-07
-1.29936e-07
4.16322e-08
-9.8484e-09
-2.76686e-08
1.46566e-07
1.61746e-07
3.26514e-08
9.6261e-10
1.84344e-09
-6.60894e-08
-8.68839e-08
-9.59736e-09
1.16176e-07
4.61822e-08
-6.75806e-08
-1.27193e-07
2.09991e-08
2.3481e-07
1.18994e-07
-5.61982e-08
4.47195e-08
3.2586e-08
-1.08841e-07
3.9809e-08
-2.42783e-08
-1.15695e-07
7.78745e-08
9.10163e-08
9.29761e-08
2.18959e-08
3.30823e-08
1.98167e-07
2.04401e-07
2.64466e-08
3.60167e-08
1.16299e-07
-5.84829e-08
8.99093e-08
1.3469e-07
1.16349e-08
-1.38924e-08
2.29278e-08
1.87338e-07
1.00137e-07
-6.16838e-08
-6.36333e-08
-1.04111e-07
-1.24792e-07
1.03034e-07
6.62175e-08
-1.51523e-07
-2.25648e-08
1.22617e-07
4.69822e-08
-2.36873e-08
-2.80982e-08
-1.9578e-08
3.7977e-09
-1.38916e-08
-1.03464e-07
-1.2587e-07
3.79725e-08
-7.24332e-09
-2.48388e-08
1.39626e-07
1.55374e-07
3.20521e-08
3.81514e-09
3.06016e-09
-6.31211e-08
-8.05755e-08
-1.08553e-08
1.06021e-07
4.40974e-08
-6.14041e-08
-1.18706e-07
1.90606e-08
2.22934e-07
1.19265e-07
-4.84793e-08
3.98941e-08
3.16861e-08
-1.02081e-07
3.47266e-08
-2.42834e-08
-1.09571e-07
7.49247e-08
9.01163e-08
9.27108e-08
2.56017e-08
3.61139e-08
1.91112e-07
1.99327e-07
3.05596e-08
3.38057e-08
1.14757e-07
-5.08069e-08
8.43935e-08
1.30558e-07
1.6534e-08
-6.52642e-09
2.21633e-08
1.76418e-07
9.8397e-08
-5.77715e-08
-6.30228e-08
-9.94451e-08
-1.20612e-07
9.52616e-08
6.45415e-08
-1.41352e-07
-2.3824e-08
1.12851e-07
4.4995e-08
-2.11264e-08
-2.68324e-08
-1.9201e-08
3.2845e-09
-1.41271e-08
-9.86105e-08
-1.21286e-07
3.37928e-08
-4.4191e-09
-2.19719e-08
1.31864e-07
1.48584e-07
3.15716e-08
6.57961e-09
4.596e-09
-5.9605e-08
-7.3599e-08
-1.2353e-08
9.54187e-08
4.19073e-08
-5.48271e-08
-1.09279e-07
1.71609e-08
2.10048e-07
1.19354e-07
-4.03251e-08
3.47327e-08
3.07768e-08
-9.48763e-08
2.92326e-08
-2.36533e-08
-1.02989e-07
7.16128e-08
8.91001e-08
9.23947e-08
2.96237e-08
3.91195e-08
1.83226e-07
1.93473e-07
3.54329e-08
3.15975e-08
1.13018e-07
-4.23043e-08
7.83716e-08
1.26034e-07
2.15096e-08
1.28856e-09
2.15109e-08
1.64418e-07
9.64411e-08
-5.33771e-08
-6.23915e-08
-9.40789e-08
-1.15796e-07
8.64948e-08
6.27926e-08
-1.30333e-07
-2.54393e-08
1.02353e-07
4.2875e-08
-1.85342e-08
-2.54256e-08
-1.8625e-08
2.75239e-09
-1.44188e-08
-9.32811e-08
-1.16404e-07
2.92389e-08
-1.52064e-09
-1.91997e-08
1.23596e-07
1.41651e-07
3.12001e-08
9.01246e-09
6.3893e-09
-5.572e-08
-6.67337e-08
-1.39772e-08
8.46043e-08
3.96102e-08
-4.81697e-08
-9.94193e-08
1.54308e-08
1.96764e-07
1.19005e-07
-3.21148e-08
2.95504e-08
2.9842e-08
-8.75437e-08
2.36752e-08
-2.24223e-08
-9.61821e-08
6.8054e-08
8.79592e-08
9.20478e-08
3.38623e-08
4.19898e-08
1.74931e-07
1.87024e-07
4.07976e-08
2.95413e-08
1.11094e-07
-3.32159e-08
7.21823e-08
1.21363e-07
2.63838e-08
9.18759e-09
2.11052e-08
1.51921e-07
9.42953e-08
-4.8669e-08
-6.17182e-08
-8.83169e-08
-1.10558e-07
7.72217e-08
6.10009e-08
-1.19111e-07
-2.72213e-08
9.19256e-08
4.06496e-08
-1.60398e-08
-2.39345e-08
-1.79422e-08
2.19839e-09
-1.47018e-08
-8.76876e-08
-1.11333e-07
2.4537e-08
1.30902e-09
-1.6518e-08
1.15056e-07
1.34655e-07
3.09406e-08
1.09851e-08
8.3284e-09
-5.16349e-08
-6.02374e-08
-1.55207e-08
7.40006e-08
3.72127e-08
-4.16556e-08
-8.94628e-08
1.39711e-08
1.83439e-07
1.1815e-07
-2.40518e-08
2.45894e-08
2.88136e-08
-8.02287e-08
1.82845e-08
-2.07108e-08
-8.92255e-08
6.43332e-08
8.66637e-08
9.16663e-08
3.82532e-08
4.47712e-08
1.665e-07
1.80106e-07
4.63778e-08
2.77791e-08
1.08926e-07
-2.37725e-08
6.59552e-08
1.16619e-07
3.0959e-08
1.67954e-08
2.10769e-08
1.39361e-07
9.19226e-08
-4.37425e-08
-6.09643e-08
-8.24454e-08
-1.05027e-07
6.77403e-08
5.9098e-08
-1.0801e-07
-2.90076e-08
8.18569e-08
3.83216e-08
-1.37045e-08
-2.24189e-08
-1.72509e-08
1.61037e-09
-1.49369e-08
-8.19948e-08
-1.06143e-07
1.98506e-08
3.98803e-09
-1.38917e-08
1.06412e-07
1.27628e-07
3.08031e-08
1.2475e-08
1.03184e-08
-4.74587e-08
-5.41696e-08
-1.6828e-08
6.38911e-08
3.48469e-08
-3.54326e-08
-7.96218e-08
1.28216e-08
1.70371e-07
1.16789e-07
-1.63114e-08
2.00031e-08
2.76483e-08
-7.2972e-08
1.31981e-08
-1.86573e-08
-8.21774e-08
6.05329e-08
8.5187e-08
9.12185e-08
4.27169e-08
4.75315e-08
1.57919e-07
1.72854e-07
5.19425e-08
2.6355e-08
1.06438e-07
-1.42879e-08
6.03513e-08
1.1184e-07
3.50842e-08
2.38108e-08
2.14921e-08
1.27054e-07
8.92883e-08
-3.86582e-08
-6.00665e-08
-7.66709e-08
-9.93053e-08
5.83226e-08
5.70065e-08
-9.7225e-08
-3.05656e-08
7.22488e-08
3.5916e-08
-1.15461e-08
-2.09088e-08
-1.66068e-08
9.82969e-10
-1.51022e-08
-7.6324e-08
-1.00897e-07
1.52835e-08
6.45081e-09
-1.13029e-08
9.78121e-08
1.20649e-07
3.07897e-08
1.35221e-08
1.22892e-08
-4.32499e-08
-4.8557e-08
-1.78179e-08
5.44467e-08
3.25269e-08
-2.95933e-08
-7.00414e-08
1.19888e-08
1.57763e-07
1.14932e-07
-8.9659e-09
1.58866e-08
2.63748e-08
-6.58508e-08
8.50404e-09
-1.63975e-08
-7.5134e-08
5.67479e-08
8.35232e-08
9.06629e-08
4.71476e-08
5.01811e-08
1.49543e-07
1.65411e-07
5.73094e-08
2.53652e-08
1.03616e-07
-4.48985e-09
5.51689e-08
1.07083e-07
3.86837e-08
3.00926e-08
2.23521e-08
1.15256e-07
8.638e-08
-3.34808e-08
-5.89596e-08
-7.1126e-08
-9.3482e-08
4.91672e-08
5.46669e-08
-8.68974e-08
-3.1835e-08
6.31233e-08
3.34906e-08
-9.56676e-09
-1.94151e-08
-1.60189e-08
3.21518e-10
-1.51838e-08
-7.07647e-08
-9.56453e-08
1.09055e-08
8.63738e-09
-8.75145e-09
8.94045e-08
1.13803e-07
3.08851e-08
1.41874e-08
1.41766e-08
-3.90408e-08
-4.34098e-08
-1.84573e-08
4.5758e-08
3.02312e-08
-2.41989e-08
-6.08727e-08
1.1469e-08
1.45751e-07
1.126e-07
-2.0783e-09
1.23171e-08
2.50293e-08
-5.89316e-08
4.26981e-09
-1.40546e-08
-6.81759e-08
5.30745e-08
8.16916e-08
8.99655e-08
5.14234e-08
5.26695e-08
1.41585e-07
1.57896e-07
6.23379e-08
2.4923e-08
1.00478e-07
4.80347e-09
5.06038e-08
1.02406e-07
4.17421e-08
3.55635e-08
2.36167e-08
1.04161e-07
8.31932e-08
-2.8289e-08
-5.75878e-08
-6.58997e-08
-8.76379e-08
4.04418e-08
5.20437e-08
-7.71342e-08
-3.28025e-08
5.40545e-08
3.10861e-08
-7.75763e-09
-1.79417e-08
-1.54776e-08
-3.60083e-10
-1.51719e-08
-6.53814e-08
-9.04271e-08
6.76678e-09
1.04972e-08
-6.24606e-09
8.13192e-08
1.07165e-07
3.10577e-08
1.45227e-08
1.59179e-08
-3.48546e-08
-3.87193e-08
-1.87435e-08
3.78694e-08
2.79481e-08
-1.92972e-08
-5.22076e-08
1.12531e-08
1.34422e-07
1.09829e-07
4.30416e-09
9.34742e-09
2.3616e-08
-5.22802e-08
5.71886e-10
-1.1726e-08
-6.13522e-08
4.95713e-08
7.97319e-08
8.91069e-08
5.5442e-08
5.50011e-08
1.34154e-07
1.50401e-07
6.6921e-08
2.50556e-08
9.70549e-08
1.365e-08
4.67717e-08
9.78649e-08
4.42764e-08
4.01933e-08
2.52223e-08
9.38906e-08
7.97301e-08
-2.31708e-08
-5.59094e-08
-6.10525e-08
-8.18455e-08
3.22838e-08
4.91294e-08
-6.80144e-08
-3.34426e-08
4.57668e-08
2.87078e-08
-6.1337e-09
-1.64931e-08
-1.4979e-08
-1.04531e-09
-1.50633e-08
-6.02173e-08
-8.5269e-08
2.90797e-09
1.19959e-08
-3.80055e-09
7.36467e-08
1.00424e-07
3.12782e-08
1.45833e-08
1.74535e-08
-3.07147e-08
-3.44592e-08
-1.86932e-08
3.07987e-08
2.56796e-08
-1.48958e-08
-4.41033e-08
1.13202e-08
1.23836e-07
1.06673e-07
1.01502e-08
6.99567e-09
2.21349e-08
-4.59359e-08
-2.53632e-09
-9.47877e-09
-5.46992e-08
4.62681e-08
7.76943e-08
8.80823e-08
5.91317e-08
5.71773e-08
1.27292e-07
1.43008e-07
7.09773e-08
2.57446e-08
9.33935e-08
2.18972e-08
4.37311e-08
9.35007e-08
4.63173e-08
4.39892e-08
2.70875e-08
8.45227e-08
7.60085e-08
-1.82146e-08
-5.39005e-08
-5.66144e-08
-7.61683e-08
2.47917e-08
4.59425e-08
-5.95925e-08
-3.37419e-08
3.79306e-08
2.63348e-08
-4.72618e-09
-1.50808e-08
-1.45431e-08
-1.72088e-09
-1.48648e-08
-5.53013e-08
-8.01873e-08
-6.35514e-10
1.31207e-08
-1.4342e-09
6.64527e-08
9.38222e-08
3.15245e-08
1.44365e-08
1.87315e-08
-2.66489e-08
-3.05898e-08
-1.83298e-08
2.45436e-08
2.34335e-08
-1.09992e-08
-3.65929e-08
1.16348e-08
1.14016e-07
1.03194e-07
1.54415e-08
5.25348e-09
2.05989e-08
-3.99294e-08
-5.05715e-09
-7.35168e-09
-4.82469e-08
4.3212e-08
7.56261e-08
8.68977e-08
6.24457e-08
5.91923e-08
1.21012e-07
1.35791e-07
7.41217e-08
2.68248e-08
8.95633e-08
2.94851e-08
4.14883e-08
8.93391e-08
4.79347e-08
4.6992e-08
2.91162e-08
7.61013e-08
7.20662e-08
-1.35021e-08
-5.15604e-08
-5.25924e-08
-7.0657e-08
1.80271e-08
4.25224e-08
-5.19044e-08
-3.37021e-08
3.11012e-08
2.39643e-08
-3.56182e-09
-1.3726e-08
-1.39405e-08
-2.38041e-09
-1.4597e-08
-5.06589e-08
-7.51905e-08
-3.83222e-09
1.3883e-08
8.28028e-10
5.978e-08
8.7343e-08
3.17733e-08
1.41395e-08
1.97175e-08
-2.26915e-08
-2.70639e-08
-1.76662e-08
1.90845e-08
2.12197e-08
-7.60647e-09
-2.96809e-08
1.2152e-08
1.04969e-07
9.94659e-08
2.01696e-08
4.09305e-09
1.90338e-08
-3.42929e-08
-7.0111e-09
-5.36342e-09
-4.20192e-08
4.04435e-08
7.35654e-08
8.5566e-08
6.53587e-08
6.10482e-08
1.15302e-07
1.28824e-07
7.68291e-08
2.84497e-08
8.56497e-08
3.63472e-08
4.00056e-08
8.53884e-08
4.92122e-08
4.92772e-08
3.12085e-08
6.86401e-08
6.79565e-08
-9.10577e-09
-4.89124e-08
-4.89755e-08
-6.53503e-08
1.20221e-08
3.8927e-08
-4.49707e-08
-3.33384e-08
2.47937e-08
2.16188e-08
-2.63046e-09
-1.24626e-08
-1.33915e-08
-3.01767e-09
-1.42934e-08
-4.63162e-08
-7.02832e-08
-6.65843e-09
1.43068e-08
2.95813e-09
5.36572e-08
8.10155e-08
3.19955e-08
1.37482e-08
2.04021e-08
-1.88805e-08
-2.38236e-08
-1.67344e-08
1.43919e-08
1.90545e-08
-4.6812e-09
-2.33711e-08
1.28254e-08
9.66909e-08
9.55578e-08
2.43351e-08
3.47283e-09
1.74741e-08
-2.90494e-08
-8.42069e-09
-3.52327e-09
-3.60371e-08
3.79893e-08
7.15427e-08
8.41046e-08
6.78603e-08
6.27564e-08
1.10136e-07
1.22169e-07
7.88544e-08
3.0427e-08
8.17355e-08
4.24312e-08
3.92201e-08
8.16745e-08
5.02134e-08
5.09159e-08
3.32744e-08
6.21832e-08
6.3745e-08
-5.08639e-09
-4.59999e-08
-4.57266e-08
-6.02761e-08
6.7832e-09
3.52305e-08
-3.87983e-08
-3.26788e-08
1.91348e-08
1.93137e-08
-1.90962e-09
-1.13194e-08
-1.28637e-08
-3.61173e-09
-1.39898e-08
-4.22865e-08
-6.54729e-08
-9.10248e-09
1.44215e-08
4.92959e-09
4.8105e-08
7.4863e-08
3.21554e-08
1.33158e-08
2.07801e-08
-1.52547e-08
-2.08342e-08
-1.55844e-08
1.04323e-08
1.69609e-08
-2.19339e-09
-1.76649e-08
1.36114e-08
8.91628e-08
9.15376e-08
2.79476e-08
3.34173e-09
1.59576e-08
-2.42124e-08
-9.31833e-09
-1.83849e-09
-3.03188e-08
3.58656e-08
6.95832e-08
8.25348e-08
6.9948e-08
6.43041e-08
1.05478e-07
1.15882e-07
8.02281e-08
3.26766e-08
7.78954e-08
4.77068e-08
3.90524e-08
7.8216e-08
5.09902e-08
5.1992e-08
3.52373e-08
5.65713e-08
5.95079e-08
-1.47976e-09
-4.28789e-08
-4.28024e-08
-5.54558e-08
2.29486e-09
3.15175e-08
-3.33213e-08
-3.17694e-08
1.41008e-08
1.70562e-08
-1.39859e-09
-1.03091e-08
-1.23199e-08
-4.16671e-09
-1.37124e-08
-3.85674e-08
-6.07728e-08
-1.11654e-08
1.42549e-08
6.72022e-09
4.31336e-08
6.89221e-08
3.22158e-08
1.28886e-08
2.0861e-08
-1.18498e-08
-1.80659e-08
-1.41735e-08
7.16938e-09
1.49649e-08
-1.0077e-10
-1.25566e-08
1.44697e-08
8.23533e-08
8.74678e-08
3.1025e-08
3.64198e-09
1.45199e-08
-1.97857e-08
-9.74691e-09
-3.17842e-10
-2.48799e-08
3.40798e-08
6.77073e-08
8.08806e-08
7.16252e-08
6.56913e-08
1.01276e-07
1.10013e-07
8.09955e-08
3.51095e-08
7.41948e-08
5.21669e-08
3.94096e-08
7.50096e-08
5.15954e-08
5.2596e-08
3.70369e-08
5.18516e-08
5.53248e-08
1.69761e-09
-3.96083e-08
-4.01433e-08
-5.09064e-08
-1.47712e-09
2.7865e-08
-2.85169e-08
-3.0663e-08
9.65254e-09
1.48549e-08
-1.09145e-09
-9.43212e-09
-1.17576e-08
-4.68531e-09
-1.34765e-08
-3.51543e-08
-5.61999e-08
-1.28577e-08
1.38378e-08
8.31187e-09
3.87349e-08
6.32415e-08
3.21399e-08
1.25051e-08
2.06707e-08
-8.69774e-09
-1.54981e-08
-1.26577e-08
4.56294e-09
1.30918e-08
1.6347e-09
-8.03198e-09
1.53623e-08
7.62216e-08
8.3405e-08
3.35931e-08
4.31229e-09
1.32254e-08
-1.57646e-08
-9.75346e-09
1.04867e-09
-1.97336e-08
3.26295e-08
6.59301e-08
7.91677e-08
7.2901e-08
6.67906e-08
9.74938e-08
1.04596e-07
8.12102e-08
3.76465e-08
7.06905e-08
5.58231e-08
4.0194e-08
7.20613e-08
5.20713e-08
5.28161e-08
3.86246e-08
4.79073e-08
5.12698e-08
4.42982e-09
-3.62454e-08
-3.76893e-08
-4.664e-08
-4.58316e-09
2.43326e-08
-2.43495e-08
-2.94045e-08
5.74589e-09
1.27197e-08
-9.67302e-10
-8.68295e-09
-1.11557e-08
-5.15782e-09
-1.3289e-08
-3.20425e-08
-5.1773e-08
-1.41943e-08
1.32098e-08
9.69047e-09
3.48877e-08
5.78526e-08
3.19046e-08
1.21905e-08
2.0239e-08
-5.82312e-09
-1.31148e-08
-1.10439e-08
2.56795e-09
1.13645e-08
3.05202e-09
-4.06677e-09
1.62542e-08
7.07186e-08
7.93986e-08
3.56843e-08
5.29198e-09
1.20731e-08
-1.21371e-08
-9.38497e-09
2.27621e-09
-1.48917e-08
3.15014e-08
6.4262e-08
7.74248e-08
7.37933e-08
6.77316e-08
9.40912e-08
9.96463e-08
8.0936e-08
4.02057e-08
6.74286e-08
5.87038e-08
4.13109e-08
6.93802e-08
5.24474e-08
5.27355e-08
3.99727e-08
4.46735e-08
4.74069e-08
6.71739e-09
-3.2847e-08
-3.53882e-08
-4.2662e-08
-7.08683e-09
2.09553e-08
-2.07646e-08
-2.80273e-08
2.32996e-09
1.06585e-08
-9.99504e-10
-8.05589e-09
-1.0513e-08
-5.57745e-09
-1.31482e-08
-2.92256e-08
-4.75101e-08
-1.51929e-08
1.24126e-08
1.08476e-08
3.15642e-08
5.26858e-08
3.1502e-08
1.19559e-08
1.96015e-08
-3.2424e-09
-1.0904e-08
-9.36594e-09
1.1354e-09
9.8046e-09
4.19081e-09
-6.25575e-10
1.71168e-08
6.5787e-08
7.54903e-08
3.73343e-08
6.51362e-09
1.10915e-08
-8.88508e-09
-8.68858e-09
3.4204e-09
-1.03628e-08
3.0671e-08
6.27079e-08
7.56849e-08
7.43276e-08
6.84981e-08
9.1027e-08
9.51667e-08
8.02418e-08
4.27097e-08
6.44437e-08
6.08517e-08
4.26699e-08
6.6967e-08
5.27431e-08
5.24333e-08
4.10683e-08
4.20619e-08
4.37896e-08
8.58976e-09
-2.9467e-08
-3.31974e-08
-3.8973e-08
-9.05854e-09
1.77574e-08
-1.76991e-08
-2.65648e-08
-6.3864e-10
8.67284e-09
-1.1602e-09
-7.54958e-09
-9.8414e-09
-5.93365e-09
-1.30456e-08
-2.66941e-08
-4.34282e-08
-1.58741e-08
1.14885e-08
1.17812e-08
2.87321e-08
4.78958e-08
3.09291e-08
1.18022e-08
1.87997e-08
-9.61644e-10
-8.85769e-09
-7.66399e-09
2.09512e-10
8.43653e-09
5.09193e-09
2.3372e-09
1.79374e-08
6.13635e-08
7.17116e-08
3.8583e-08
7.91669e-09
1.03005e-08
-5.98617e-09
-7.71294e-09
4.46486e-09
-6.15046e-09
3.01031e-08
6.12598e-08
7.39846e-08
7.45391e-08
6.90894e-08
8.82592e-08
9.11482e-08
7.91999e-08
4.50993e-08
6.17596e-08
6.23217e-08
4.41843e-08
6.48129e-08
5.29657e-08
5.19824e-08
4.19104e-08
3.99859e-08
4.04588e-08
1.00763e-08
-2.61524e-08
-3.10844e-08
-3.55688e-08
-1.05681e-08
1.47693e-08
-1.50918e-08
-2.50276e-08
-3.19484e-09
6.77156e-09
-1.42384e-09
-7.1661e-09
-9.1642e-09
-6.21497e-09
-1.29681e-08
-2.44352e-08
-3.95418e-08
-1.62641e-08
1.0493e-08
1.24968e-08
2.63498e-08
4.3475e-08
3.01901e-08
1.17228e-08
1.78789e-08
1.02119e-09
-6.97034e-09
-5.98348e-09
-2.90121e-10
7.28755e-09
5.79687e-09
4.87214e-09
1.87073e-08
5.73845e-08
6.80849e-08
3.94748e-08
9.44738e-09
9.70577e-09
-3.41339e-09
-6.5059e-09
5.43343e-09
-2.25331e-09
2.9757e-08
5.98965e-08
7.23584e-08
7.44713e-08
6.95099e-08
8.57467e-08
8.75656e-08
7.78847e-08
4.73243e-08
5.93903e-08
6.31823e-08
4.57694e-08
6.29019e-08
5.3114e-08
5.14452e-08
4.25105e-08
3.8358e-08
3.74396e-08
1.12112e-08
-2.29422e-08
-2.90264e-08
-3.24379e-08
-1.16818e-08
1.20001e-08
-1.28842e-08
-2.34725e-08
-5.36924e-09
4.96585e-09
-1.7647e-09
-6.90683e-09
-8.50991e-09
-6.41495e-09
-1.29021e-08
-2.24339e-08
-3.5862e-08
-1.63937e-08
9.34762e-09
1.30064e-08
2.437e-08
3.94294e-08
2.92991e-08
1.1708e-08
1.68826e-08
2.71824e-09
-5.23968e-09
-4.36434e-09
-4.42418e-10
6.37954e-09
6.34437e-09
7.02674e-09
1.94111e-08
5.37918e-08
6.46208e-08
4.00562e-08
1.10562e-08
9.30697e-09
-1.13646e-09
-5.11366e-09
6.35066e-09
1.33472e-09
2.95949e-08
5.86097e-08
7.08288e-08
7.41734e-08
6.97679e-08
8.34501e-08
8.43894e-08
7.63675e-08
4.93482e-08
5.73414e-08
6.35186e-08
4.73468e-08
6.12142e-08
5.31952e-08
5.08704e-08
4.28896e-08
3.70979e-08
3.47423e-08
1.20367e-08
-1.98667e-08
-2.70095e-08
-2.95648e-08
-1.24602e-08
9.45791e-09
-1.10197e-08
-2.19211e-08
-7.19282e-09
3.26047e-09
-2.15336e-09
-6.76026e-09
-7.91058e-09
-6.53359e-09
-1.28348e-08
-2.06753e-08
-3.23946e-08
-1.62916e-08
8.27845e-09
1.33263e-08
2.27451e-08
3.57587e-08
2.82766e-08
1.17487e-08
1.58468e-08
4.14593e-09
-3.6644e-09
-2.84662e-09
-3.01728e-10
5.72054e-09
6.78237e-09
8.84195e-09
2.00375e-08
5.05342e-08
6.13486e-08
4.03738e-08
1.27028e-08
9.09781e-09
8.7609e-10
-3.58066e-09
7.23195e-09
4.6267e-09
2.95854e-08
5.73917e-08
6.94031e-08
7.36916e-08
6.98769e-08
8.13315e-08
8.1586e-08
7.47142e-08
5.11476e-08
5.56106e-08
6.3405e-08
4.88551e-08
5.97307e-08
5.32147e-08
5.0291e-08
4.30753e-08
3.61342e-08
3.23647e-08
1.25991e-08
-1.69477e-08
-2.50288e-08
-2.69315e-08
-1.29544e-08
7.14422e-09
-9.44515e-09
-2.03875e-08
-8.69802e-09
1.65629e-09
-2.56087e-09
-6.69595e-09
-7.39428e-09
1.802e-07
7.24007e-08
-1.15824e-07
-8.46607e-08
-3.9145e-08
-1.31674e-07
-2.60705e-09
2.49808e-07
3.75545e-08
-1.60508e-07
4.79231e-08
-2.03793e-08
-5.79325e-08
1.89211e-07
2.75552e-08
-1.49849e-07
4.74121e-08
1.13721e-08
-1.81372e-07
1.03438e-08
2.28207e-07
2.30069e-07
6.67e-08
-3.06972e-08
-3.92556e-08
-4.10882e-08
-1.28321e-08
-1.05601e-07
3.92733e-08
6.65928e-08
1.04894e-07
1.35249e-07
-8.49693e-08
8.71668e-08
2.76533e-07
1.16857e-07
-8.25507e-08
-6.27497e-08
1.22021e-07
7.5687e-08
1.12052e-07
7.20845e-08
4.83895e-08
1.41198e-07
2.64676e-08
3.33883e-08
1.52756e-08
-1.82698e-08
-7.20903e-08
-2.06844e-07
-5.12824e-08
2.06692e-07
-2.12155e-08
1.98072e-09
4.96902e-08
-1.70014e-07
-4.00006e-08
1.32535e-07
-5.61709e-08
-7.33269e-08
1.64528e-07
6.0754e-08
-1.14104e-07
-8.46184e-08
-3.80342e-08
-1.1714e-07
7.45556e-09
2.33395e-07
2.67832e-08
-1.45581e-07
4.70203e-08
-1.91463e-08
-4.62288e-08
1.73219e-07
1.63822e-08
-1.34805e-07
4.55768e-08
-7.39021e-10
-1.65969e-07
2.15421e-08
2.25666e-07
2.15777e-07
5.50358e-08
-2.91866e-08
-3.84016e-08
-4.11446e-08
-1.16323e-08
-9.21492e-08
3.77169e-08
6.64077e-08
1.03273e-07
1.22923e-07
-6.89563e-08
9.76405e-08
2.60738e-07
1.04855e-07
-8.00725e-08
-4.94023e-08
1.21141e-07
7.55218e-08
1.11766e-07
7.27264e-08
4.72203e-08
1.28133e-07
2.757e-08
3.3809e-08
1.57493e-08
-1.79455e-08
-7.08131e-08
-1.92346e-07
-4.16374e-08
1.91467e-07
-2.01028e-08
7.67213e-10
3.74809e-08
-1.54144e-07
-2.92702e-08
1.17421e-07
-5.38935e-08
-6.14687e-08
1.55849e-07
5.80363e-08
-1.11225e-07
-8.44356e-08
-3.59709e-08
-1.10093e-07
7.84907e-09
2.24154e-07
2.54966e-08
-1.3904e-07
4.55256e-08
-1.70093e-08
-4.35398e-08
1.65013e-07
1.49482e-08
-1.28155e-07
4.23079e-08
-3.61706e-09
-1.57405e-07
2.40915e-08
2.21144e-07
2.08841e-07
5.22444e-08
-2.6518e-08
-3.71764e-08
-4.15709e-08
-9.4143e-09
-8.70961e-08
3.55609e-08
6.606e-08
1.00529e-07
1.19861e-07
-6.03895e-08
9.87499e-08
2.51768e-07
1.01759e-07
-7.56482e-08
-4.46311e-08
1.1964e-07
7.4776e-08
1.11375e-07
7.35631e-08
4.51138e-08
1.23467e-07
2.93713e-08
3.42584e-08
1.62096e-08
-1.77397e-08
-6.83491e-08
-1.85348e-07
-4.17598e-08
1.84377e-07
-1.83399e-08
-1.11429e-09
3.46261e-08
-1.45577e-07
-2.81211e-08
1.10237e-07
-4.99828e-08
-5.84803e-08
1.46765e-07
5.69538e-08
-1.07349e-07
-8.41012e-08
-3.37031e-08
-1.03357e-07
6.02281e-09
2.14314e-07
2.66655e-08
-1.32975e-07
4.31482e-08
-1.41486e-08
-4.25117e-08
1.56607e-07
1.6016e-08
-1.21835e-07
3.78773e-08
-4.55909e-09
-1.48607e-07
2.48348e-08
2.151e-07
2.02286e-07
5.13264e-08
-2.34649e-08
-3.56557e-08
-4.1567e-08
-6.82638e-09
-8.30092e-08
3.30339e-08
6.58136e-08
9.72394e-08
1.18331e-07
-5.17431e-08
9.74041e-08
2.4262e-07
1.00476e-07
-6.95799e-08
-4.10806e-08
1.17507e-07
7.39732e-08
1.10472e-07
7.44412e-08
4.2883e-08
1.19758e-07
3.17322e-08
3.4627e-08
1.66032e-08
-1.77153e-08
-6.53981e-08
-1.78407e-07
-4.43313e-08
1.77325e-07
-1.57943e-08
-3.54632e-09
3.33952e-08
-1.36812e-07
-2.90225e-08
1.03274e-07
-4.50757e-08
-5.69394e-08
1.36133e-07
5.57701e-08
-1.02556e-07
-8.3556e-08
-3.12683e-08
-9.54914e-08
3.86656e-09
2.02788e-07
2.83921e-08
-1.26166e-07
4.00411e-08
-1.06414e-08
-4.15276e-08
1.4661e-07
1.77655e-08
-1.14555e-07
3.25831e-08
-5.14879e-09
-1.38466e-07
2.54388e-08
2.07721e-07
1.94676e-07
5.05015e-08
-2.02481e-08
-3.36999e-08
-4.12363e-08
-3.9973e-09
-7.82905e-08
3.01668e-08
6.56514e-08
9.35208e-08
1.16609e-07
-4.20549e-08
9.54436e-08
2.32327e-07
9.91947e-08
-6.23784e-08
-3.71856e-08
1.14851e-07
7.31511e-08
1.08985e-07
7.55321e-08
4.06105e-08
1.15574e-07
3.45077e-08
3.49743e-08
1.70361e-08
-1.7724e-08
-6.21047e-08
-1.70122e-07
-4.74244e-08
1.69016e-07
-1.25987e-08
-7.06478e-09
3.21685e-08
-1.26287e-07
-3.03535e-08
9.52292e-08
-3.94387e-08
-5.52224e-08
1.24426e-07
5.43768e-08
-9.70532e-08
-8.28052e-08
-2.87601e-08
-8.67489e-08
1.69353e-09
1.90016e-07
3.04024e-08
-1.18875e-07
3.63553e-08
-6.67812e-09
-4.05285e-08
1.35181e-07
1.99531e-08
-1.06577e-07
2.68134e-08
-5.45798e-09
-1.27442e-07
2.59231e-08
1.99387e-07
1.86194e-07
4.96241e-08
-1.70812e-08
-3.12994e-08
-4.0617e-08
-1.06165e-09
-7.29351e-08
2.70808e-08
6.55372e-08
8.95632e-08
1.14617e-07
-3.16872e-08
9.31187e-08
2.21267e-07
9.78384e-08
-5.44912e-08
-3.30537e-08
1.11831e-07
7.23375e-08
1.06937e-07
7.68754e-08
3.83899e-08
1.10975e-07
3.7475e-08
3.53324e-08
1.75646e-08
-1.76575e-08
-5.85875e-08
-1.60749e-07
-5.07555e-08
1.59645e-07
-8.9355e-09
-1.0925e-08
3.08454e-08
-1.14724e-07
-3.18283e-08
8.6415e-08
-3.34585e-08
-5.3287e-08
1.12207e-07
5.27915e-08
-9.10751e-08
-8.18802e-08
-2.63779e-08
-7.7689e-08
-3.26204e-10
1.76667e-07
3.26458e-08
-1.11372e-07
3.22035e-08
-2.52875e-09
-3.94987e-08
1.23451e-07
2.24503e-08
-9.82541e-08
2.09288e-08
-5.49401e-09
-1.1613e-07
2.61638e-08
1.90515e-07
1.77555e-07
4.87981e-08
-1.41743e-08
-2.85636e-08
-3.9779e-08
1.74452e-09
-6.70868e-08
2.39383e-08
6.54565e-08
8.5641e-08
1.12428e-07
-2.1222e-08
9.04817e-08
2.10016e-07
9.66062e-08
-4.63098e-08
-2.89959e-08
1.08544e-07
7.15173e-08
1.04392e-07
7.83679e-08
3.64194e-08
1.06117e-07
4.0409e-08
3.56926e-08
1.81815e-08
-1.74635e-08
-5.50062e-08
-1.50688e-07
-5.41309e-08
1.4957e-07
-4.91616e-09
-1.47376e-08
2.93419e-08
-1.03039e-07
-3.32214e-08
7.72627e-08
-2.74742e-08
-5.11787e-08
9.98797e-08
5.09576e-08
-8.47995e-08
-8.07802e-08
-2.43045e-08
-6.85288e-08
-2.05691e-09
1.63255e-07
3.50598e-08
-1.03775e-07
2.77029e-08
1.55412e-09
-3.83359e-08
1.11822e-07
2.51072e-08
-8.98398e-08
1.52121e-08
-5.35522e-09
-1.0497e-07
2.61598e-08
1.81405e-07
1.69106e-07
4.80345e-08
-1.16369e-08
-2.56128e-08
-3.87895e-08
4.18715e-09
-6.08615e-08
2.08628e-08
6.53905e-08
8.19974e-08
1.10072e-07
-1.10531e-08
8.75763e-08
1.98959e-07
9.56843e-08
-3.8076e-08
-2.50708e-08
1.05021e-07
7.07811e-08
1.01388e-07
7.99216e-08
3.48857e-08
1.01091e-07
4.31471e-08
3.60381e-08
1.88471e-08
-1.71289e-08
-5.15189e-08
-1.40229e-07
-5.72963e-08
1.39032e-07
-6.363e-10
-1.82932e-08
2.75318e-08
-9.16428e-08
-3.43059e-08
6.80504e-08
-2.17877e-08
-4.88688e-08
8.77417e-08
4.88176e-08
-7.83587e-08
-7.9468e-08
-2.26446e-08
-5.95199e-08
-3.4489e-09
1.49952e-07
3.75584e-08
-9.61179e-08
2.29836e-08
5.38084e-09
-3.6966e-08
1.00445e-07
2.767e-08
-8.15115e-08
9.86853e-09
-5.12869e-09
-9.42451e-08
2.59503e-08
1.72222e-07
1.60986e-07
4.73512e-08
-9.48624e-09
-2.25252e-08
-3.76642e-08
6.22653e-09
-5.43945e-08
1.79388e-08
6.53001e-08
7.87822e-08
1.07593e-07
-1.40638e-09
8.44412e-08
1.8829e-07
9.4921e-08
-2.98816e-08
-2.11481e-08
1.01311e-07
7.01553e-08
9.79938e-08
8.1434e-08
3.39077e-08
9.599e-08
4.56e-08
3.63713e-08
1.95127e-08
-1.66546e-08
-4.82408e-08
-1.29607e-07
-6.00436e-08
1.28174e-07
3.79165e-09
-2.14141e-08
2.5366e-08
-8.07591e-08
-3.49587e-08
5.89874e-08
-1.66067e-08
-4.63339e-08
7.60318e-08
4.6345e-08
-7.18691e-08
-7.78982e-08
-2.14318e-08
-5.09054e-08
-4.49277e-09
1.37067e-07
3.99979e-08
-8.84034e-08
1.81879e-08
8.81664e-09
-3.53564e-08
8.94229e-08
2.99709e-08
-7.33642e-08
5.03617e-09
-4.85935e-09
-8.40043e-08
2.55563e-08
1.63059e-07
1.53233e-07
4.67846e-08
-7.69743e-09
-1.93966e-08
-3.63709e-08
7.8131e-09
-4.78243e-08
1.52514e-08
6.51302e-08
7.60567e-08
1.05047e-07
7.61385e-09
8.12562e-08
1.78067e-07
9.42443e-08
-2.17688e-08
-1.72809e-08
9.74513e-08
6.96441e-08
9.42993e-08
8.27834e-08
3.35665e-08
9.09158e-08
4.77248e-08
3.66759e-08
2.01405e-08
-1.60368e-08
-4.52381e-08
-1.19029e-07
-6.22298e-08
1.17144e-07
8.23444e-09
-2.39556e-08
2.28715e-08
-7.06128e-08
-3.51492e-08
5.0235e-08
-1.20555e-08
-4.35799e-08
6.49427e-08
4.35379e-08
-6.54438e-08
-7.602e-08
-2.06503e-08
-4.28583e-08
-5.16666e-09
1.24715e-07
4.22543e-08
-8.06322e-08
1.34568e-08
1.17647e-08
-3.34999e-08
7.88489e-08
3.19073e-08
-6.54457e-08
8.00849e-10
-4.56076e-09
-7.42722e-08
2.49836e-08
1.53988e-07
1.45875e-07
4.63624e-08
-6.25155e-09
-1.63242e-08
-3.48633e-08
8.94236e-09
-4.12665e-08
1.28671e-08
6.48137e-08
7.38243e-08
1.02475e-07
1.59652e-08
7.81558e-08
1.68305e-07
9.36298e-08
-1.38023e-08
-1.35165e-08
9.34876e-08
6.92351e-08
9.03878e-08
8.38483e-08
3.3798e-08
8.59719e-08
4.95e-08
3.69295e-08
2.07118e-08
-1.52649e-08
-4.25432e-08
-1.08681e-07
-6.37592e-08
1.06041e-07
1.25489e-08
-2.5823e-08
2.01141e-08
-6.0702e-08
-3.48869e-08
4.18993e-08
-8.20025e-09
-4.06339e-08
5.46134e-08
4.04124e-08
-5.91914e-08
-7.38202e-08
-2.02534e-08
-3.54821e-08
-5.46108e-09
1.12978e-07
4.41491e-08
-7.28266e-08
8.91718e-09
1.41621e-08
-3.14046e-08
6.88118e-08
3.34082e-08
-5.77925e-08
-2.78723e-09
-4.22273e-09
-6.51099e-08
2.42605e-08
1.45074e-07
1.38891e-07
4.60761e-08
-4.95239e-09
-1.33727e-08
-3.31106e-08
9.63265e-09
-3.48163e-08
1.08293e-08
6.43172e-08
7.20522e-08
9.99029e-08
2.36241e-08
7.52134e-08
1.59012e-07
9.30467e-08
-6.0545e-09
-9.83117e-09
8.94877e-08
6.89243e-08
8.63481e-08
8.45305e-08
3.45338e-08
8.12495e-08
5.09163e-08
3.71312e-08
2.12214e-08
-1.43315e-08
-4.01724e-08
-9.8711e-08
-6.45764e-08
9.49622e-08
1.65966e-08
-2.6973e-08
1.71634e-08
-5.18197e-08
-3.41963e-08
3.40927e-08
-5.06708e-09
-3.75385e-08
4.51537e-08
3.7003e-08
-5.32095e-08
-7.12991e-08
-2.01789e-08
-2.88382e-08
-5.38481e-09
1.01915e-07
4.59087e-08
-6.50356e-08
4.67217e-09
1.59802e-08
-2.90917e-08
5.9388e-08
3.44368e-08
-5.04448e-08
-5.70738e-09
-3.85546e-09
-5.65519e-08
2.34418e-08
1.36375e-07
1.32244e-07
4.58965e-08
-3.8973e-09
-1.05931e-08
-3.11077e-08
9.92865e-09
-2.85604e-08
9.16865e-09
6.36178e-08
7.06871e-08
9.73483e-08
3.05762e-08
7.24875e-08
1.50195e-07
9.2461e-08
1.5387e-09
-6.19886e-09
8.55096e-08
6.86974e-08
8.22751e-08
8.47656e-08
3.57057e-08
7.68176e-08
5.19774e-08
3.72867e-08
2.16685e-08
-1.32383e-08
-3.81079e-08
-8.92285e-08
-6.46629e-08
8.40154e-08
2.02529e-08
-2.74162e-08
1.40994e-08
-4.3668e-08
-3.31075e-08
2.69162e-08
-2.64809e-09
-3.43482e-08
3.66091e-08
3.33652e-08
-4.75759e-08
-6.84756e-08
-2.03588e-08
-2.29619e-08
-4.96817e-09
9.15782e-08
4.72346e-08
-5.73263e-08
8.01063e-10
1.72203e-08
-2.65957e-08
5.06463e-08
3.49794e-08
-4.34421e-08
-7.96275e-09
-3.46392e-09
-4.86067e-08
2.25907e-08
1.27942e-07
1.25895e-07
4.58076e-08
-3.0078e-09
-8.029e-09
-2.88689e-08
9.91312e-09
-2.25801e-08
7.90544e-09
6.2703e-08
6.96667e-08
9.48315e-08
3.68273e-08
7.00259e-08
1.4186e-07
9.18375e-08
8.75671e-09
-2.43656e-09
8.15982e-08
6.85286e-08
7.8266e-08
8.45303e-08
3.72046e-08
7.272e-08
5.26992e-08
3.74022e-08
2.2054e-08
-1.19948e-08
-3.63123e-08
-8.03471e-08
-6.40277e-08
7.32807e-08
2.34084e-08
-2.71874e-08
1.10072e-08
-3.68248e-08
-3.16651e-08
2.04413e-08
-9.06353e-10
-3.11267e-08
2.90013e-08
2.95689e-08
-4.23489e-08
-6.53852e-08
-2.07303e-08
-1.78735e-08
-4.2537e-09
8.20061e-08
4.80955e-08
-4.97697e-08
-2.61549e-09
1.7907e-08
-2.39625e-08
4.26188e-08
3.50129e-08
-3.68179e-08
-9.57485e-09
-3.05241e-09
-4.12776e-08
2.1759e-08
1.19815e-07
1.19808e-07
4.57964e-08
-2.19677e-09
-5.70852e-09
-2.64247e-08
9.65665e-09