/*--------------------------------*- C++ -*----------------------------------*\
| =========                 |                                                 |
| \\      /  F ield         | OpenFOAM: The Open Source CFD Toolbox           |
|  \\    /   O peration     | Version:  2312                                  |
|   \\  /    A nd           | Website:  www.openfoam.com                      |
|    \\/     M anipulation  |                                                 |
\*---------------------------------------------------------------------------*/
FoamFile
{
    version     2.0;
    format      ascii;
    arch        "LSB;label=32;scalar=64";
    class       volScalarField;
    location    "500";
    object      pMean;
}
// * * * * * * * * * * * * * * * * * * * * * * * * * * * * * * * * * * * * * //

dimensions      [0 2 -2 0 0 0 0];

internalField   nonuniform List<scalar> 
144000
(
1.82183e-08
-1.86544e-08
-1.8131e-07
-2.32691e-07
8.23928e-08
-1.56569e-08
-7.19647e-08
2.43366e-07
2.90638e-07
7.27956e-08
-2.04011e-08
-5.74282e-09
-1.10971e-07
-1.90327e-07
-4.10835e-08
2.29688e-07
9.51558e-08
-1.38437e-07
-2.55552e-07
1.84796e-08
4.29566e-07
1.99427e-07
-1.56335e-07
6.91929e-08
6.35441e-08
-2.32047e-07
6.05473e-08
-1.99489e-08
-2.35122e-07
1.10241e-07
1.31694e-07
1.3014e-07
8.6235e-09
-3.71599e-09
2.99398e-07
3.23819e-07
-3.91626e-09
3.77054e-08
1.8101e-07
-1.52475e-07
1.30461e-07
2.19078e-07
-2.12708e-08
-9.5393e-08
2.31848e-09
3.27234e-07
1.68975e-07
-1.18537e-07
-1.21906e-07
-1.90005e-07
-2.30492e-07
1.78688e-07
1.32847e-07
-2.90687e-07
-6.28987e-08
2.46674e-07
1.09758e-07
-4.20562e-08
-5.33312e-08
-2.9316e-08
1.84101e-08
-1.81478e-08
-1.78975e-07
-2.12887e-07
7.96258e-08
-1.41177e-08
-5.26899e-08
2.39706e-07
2.68282e-07
5.40985e-08
-1.80473e-08
-4.82242e-09
-1.09367e-07
-1.67764e-07
-2.44254e-08
2.04879e-07
7.58354e-08
-1.34318e-07
-2.32788e-07
3.39162e-08
4.03588e-07
1.8302e-07
-1.31984e-07
6.61107e-08
4.50872e-08
-2.08831e-07
5.73434e-08
-3.87125e-08
-2.1345e-07
1.08144e-07
1.31482e-07
1.30001e-07
1.00418e-08
1.60129e-08
2.95577e-07
3.03496e-07
-6.81502e-10
3.53974e-08
1.62667e-07
-1.29523e-07
1.27005e-07
1.98706e-07
-1.801e-08
-7.17256e-08
1.88775e-08
3.02293e-07
1.50682e-07
-1.1612e-07
-1.21251e-07
-1.87564e-07
-2.10513e-07
1.74295e-07
1.1442e-07
-2.66006e-07
-4.63378e-08
2.21485e-07
9.06142e-08
-4.00735e-08
-5.26683e-08
-2.9299e-08
1.80938e-08
-1.77874e-08
-1.74215e-07
-2.05853e-07
7.45503e-08
-1.0963e-08
-4.62372e-08
2.31911e-07
2.57215e-07
5.00825e-08
-1.35487e-08
-3.4118e-09
-1.06224e-07
-1.56248e-07
-2.31876e-08
1.89279e-07
7.02603e-08
-1.25817e-07
-2.20011e-07
3.33307e-08
3.85726e-07
1.81569e-07
-1.18885e-07
5.95164e-08
4.10933e-08
-1.97259e-07
5.09529e-08
-4.27786e-08
-2.0317e-07
1.0457e-07
1.30371e-07
1.29635e-07
1.3348e-08
2.28762e-08
2.87503e-07
2.95341e-07
4.84863e-09
3.16504e-08
1.58494e-07
-1.17737e-07
1.20154e-07
1.90758e-07
-1.12679e-08
-5.89636e-08
1.99751e-08
2.86195e-07
1.4603e-07
-1.11258e-07
-1.2002e-07
-1.82242e-07
-2.03453e-07
1.65408e-07
1.0981e-07
-2.51009e-07
-4.47567e-08
2.06228e-07
8.51631e-08
-3.61357e-08
-5.07736e-08
-2.91214e-08
1.746e-08
-1.78738e-08
-1.67845e-07
-2.00216e-07
6.80099e-08
-6.81433e-09
-4.18714e-08
2.20964e-07
2.47034e-07
4.95821e-08
-8.29934e-09
-1.63198e-09
-1.01763e-07
-1.46174e-07
-2.57109e-08
1.73246e-07
6.72172e-08
-1.15323e-07
-2.06861e-07
2.91702e-08
3.66503e-07
1.83098e-07
-1.06143e-07
5.13396e-08
3.99964e-08
-1.86329e-07
4.25247e-08
-4.30201e-08
-1.93509e-07
9.98287e-08
1.2877e-07
1.29073e-07
1.88e-08
2.76072e-08
2.76269e-07
2.88098e-07
1.16276e-08
2.76959e-08
1.56612e-07
-1.05869e-07
1.11396e-07
1.84481e-07
-3.00156e-09
-4.71651e-08
1.78517e-08
2.69061e-07
1.43744e-07
-1.04772e-07
-1.1868e-07
-1.75094e-07
-1.97572e-07
1.53195e-07
1.07489e-07
-2.35266e-07
-4.70089e-08
1.90725e-07
8.23581e-08
-3.13635e-08
-4.83983e-08
-2.85806e-08
1.66476e-08
-1.82479e-08
-1.60066e-07
-1.93405e-07
6.07367e-08
-2.11996e-09
-3.71815e-08
2.08065e-07
2.35657e-07
4.9337e-08
-2.95545e-09
6.59567e-10
-9.61584e-08
-1.34827e-07
-2.86655e-08
1.5538e-07
6.37926e-08
-1.03818e-07
-1.915e-07
2.49148e-08
3.44783e-07
1.84228e-07
-9.20315e-08
4.23339e-08
3.88281e-08
-1.741e-07
3.29788e-08
-4.22036e-08
-1.82528e-07
9.42461e-08
1.26809e-07
1.28354e-07
2.54413e-08
3.25457e-08
2.63065e-07
2.79195e-07
1.97846e-08
2.37546e-08
1.54164e-07
-9.20416e-08
1.01586e-07
1.77263e-07
5.77497e-09
-3.42638e-08
1.59039e-08
2.49417e-07
1.40866e-07
-9.71809e-08
-1.17194e-07
-1.66498e-07
-1.90282e-07
1.38472e-07
1.04691e-07
-2.16889e-07
-4.99389e-08
1.72873e-07
7.92161e-08
-2.63676e-08
-4.56826e-08
-2.76605e-08
1.57019e-08
-1.87065e-08
-1.51139e-07
-1.85583e-07
5.26679e-08
2.77366e-09
-3.22738e-08
1.9394e-07
2.2345e-07
4.89742e-08
1.97439e-09
3.46808e-09
-8.96662e-08
-1.22575e-07
-3.15708e-08
1.36476e-07
5.99107e-08
-9.19338e-08
-1.74644e-07
2.1074e-08
3.21242e-07
1.84433e-07
-7.71255e-08
3.30881e-08
3.73318e-08
-1.61023e-07
2.30883e-08
-4.05592e-08
-1.70589e-07
8.80934e-08
1.24523e-07
1.27523e-07
3.25519e-08
3.75909e-08
2.48807e-07
2.68728e-07
2.90391e-08
2.0002e-08
1.50984e-07
-7.67162e-08
9.13244e-08
1.69274e-07
1.4454e-08
-2.0704e-08
1.46161e-08
2.28145e-07
1.37217e-07
-8.88743e-08
-1.1549e-07
-1.56899e-07
-1.81755e-07
1.22524e-07
1.0138e-07
-1.97232e-07
-5.30216e-08
1.54071e-07
7.55243e-08
-2.15057e-08
-4.26584e-08
-2.64578e-08
1.46258e-08
-1.91202e-08
-1.41455e-07
-1.77165e-07
4.41088e-08
7.60511e-09
-2.73801e-08
1.79145e-07
2.10869e-07
4.86004e-08
6.13066e-09
6.59632e-09
-8.26234e-08
-1.10538e-07
-3.42814e-08
1.17578e-07
5.56547e-08
-8.01689e-08
-1.5723e-07
1.7763e-08
2.97268e-07
1.83557e-07
-6.21166e-08
2.41337e-08
3.55132e-08
-1.47654e-07
1.34173e-08
-3.81384e-08
-1.58112e-07
8.15878e-08
1.21895e-07
1.26591e-07
3.99085e-08
4.25513e-08
2.3413e-07
2.57103e-07
3.8863e-08
1.67364e-08
1.47139e-07
-6.04163e-08
8.11487e-08
1.60966e-07
2.27358e-08
-7.19551e-09
1.41058e-08
2.06374e-07
1.32922e-07
-8.01259e-08
-1.13516e-07
-1.46855e-07
-1.72441e-07
1.05989e-07
9.76772e-08
-1.77376e-07
-5.59814e-08
1.35495e-07
7.14213e-08
-1.69758e-08
-3.94625e-08
-2.51304e-08
1.33974e-08
-1.94314e-08
-1.31398e-07
-1.68378e-07
3.54485e-08
1.21342e-08
-2.25296e-08
1.64119e-07
1.98117e-07
4.83094e-08
9.39192e-09
9.81321e-09
-7.53328e-08
-9.91325e-08
-3.65262e-08
9.94526e-08
5.1253e-08
-6.88853e-08
-1.39883e-07
1.5072e-08
2.7346e-07
1.81567e-07
-4.74412e-08
1.58855e-08
3.33245e-08
-1.34273e-07
4.34295e-09
-3.51535e-08
-1.45332e-07
7.49374e-08
1.18902e-07
1.25525e-07
4.73567e-08
4.74483e-08
2.19494e-07
2.44664e-07
4.87401e-08
1.42178e-08
1.42604e-07
-4.3859e-08
7.15806e-08
1.52532e-07
3.02849e-08
5.48927e-09
1.44779e-08
1.84941e-07
1.28e-07
-7.11279e-08
-1.11177e-07
-1.36842e-07
-1.62658e-07
8.94503e-08
9.35216e-08
-1.57933e-07
-5.84765e-08
1.1758e-07
6.69906e-08
-1.28672e-08
-3.62051e-08
-2.37908e-08
1.19982e-08
-1.96113e-08
-1.21263e-07
-1.59347e-07
2.6978e-08
1.61846e-08
-1.77075e-08
1.49222e-07
1.85359e-07
4.8136e-08
1.18048e-08
1.29497e-08
-6.79868e-08
-8.85029e-08
-3.811e-08
8.25702e-08
4.68698e-08
-5.8324e-08
-1.22998e-07
1.30366e-08
2.5036e-07
1.78477e-07
-3.34447e-08
8.61709e-09
3.07786e-08
-1.21082e-07
-3.88403e-09
-3.1867e-08
-1.32477e-07
6.83528e-08
1.15559e-07
1.24261e-07
5.47118e-08
5.22495e-08
2.05236e-07
2.31747e-07
5.82371e-08
1.25751e-08
1.37342e-07
-2.75761e-08
6.30232e-08
1.44094e-07
3.68852e-08
1.69059e-08
1.57374e-08
1.64441e-07
1.22449e-07
-6.2053e-08
-1.0835e-07
-1.27176e-07
-1.52642e-07
7.34169e-08
8.8829e-08
-1.39296e-07
-6.02624e-08
1.0051e-07
6.23317e-08
-9.2094e-09
-3.29547e-08
-2.2494e-08
1.04332e-08
-1.96541e-08
-1.11264e-07
-1.50168e-07
1.8898e-08
1.96398e-08
-1.29299e-08
1.34774e-07
1.72773e-07
4.80648e-08
1.34854e-08
1.58794e-08
-6.06904e-08
-7.8706e-08
-3.89548e-08
6.71711e-08
4.25215e-08
-4.86288e-08
-1.06839e-07
1.16504e-08
2.28341e-07
1.74333e-07
-2.02945e-08
2.49233e-09
2.79649e-08
-1.08287e-07
-1.10924e-08
-2.85139e-08
-1.19778e-07
6.20242e-08
1.11926e-07
1.2274e-07
6.1762e-08
5.6818e-08
1.91685e-07
2.18662e-07
6.70163e-08
1.19645e-08
1.3142e-07
-1.19189e-08
5.57133e-08
1.35782e-07
4.24614e-08
2.68461e-08
1.77834e-08
1.45302e-07
1.16302e-07
-5.30844e-08
-1.04949e-07
-1.18043e-07
-1.42582e-07
5.82715e-08
8.35638e-08
-1.21756e-07
-6.12884e-08
8.44035e-08
5.75526e-08
-6.00831e-09
-2.97554e-08
-2.12519e-08
8.73701e-09
-1.9576e-08
-1.01566e-07
-1.40927e-07
1.13502e-08
2.24093e-08
-8.23922e-09
1.21045e-07
1.60466e-07
4.80571e-08
1.45564e-08
1.84892e-08
-5.35158e-08
-6.97566e-08
-3.90703e-08
5.33691e-08
3.82141e-08
-3.98732e-08
-9.16515e-08
1.08757e-08
2.07637e-07
1.69233e-07
-8.13699e-09
-2.38588e-09
2.4971e-08
-9.60316e-08
-1.71713e-08
-2.52689e-08
-1.07403e-07
5.61034e-08
1.08096e-07
1.20926e-07
6.82991e-08
6.10693e-08
1.79112e-07
2.05659e-07
7.48318e-08
1.24392e-08
1.24993e-07
2.79302e-09
4.98099e-08
1.2773e-07
4.70355e-08
3.52312e-08
2.04538e-08
1.27792e-07
1.0963e-07
-4.44136e-08
-1.00946e-07
-1.09549e-07
-1.32638e-07
4.42984e-08
7.77518e-08
-1.05525e-07
-6.15585e-08
6.94964e-08
5.27192e-08
-3.28472e-09
-2.66456e-08
-2.00398e-08
6.95834e-09
-1.94059e-08
-9.22909e-08
-1.31696e-07
4.43795e-09
2.4442e-08
-3.69237e-09
1.08236e-07
1.48485e-07
4.80652e-08
1.51377e-08
2.06828e-08
-4.6531e-08
-6.1631e-08
-3.85095e-08
4.12088e-08
3.39781e-08
-3.21042e-08
-7.75787e-08
1.06534e-08
1.88399e-07
1.63311e-07
2.9172e-09
-5.98988e-09
2.186e-08
-8.44569e-08
-2.20342e-08
-2.22376e-08
-9.54615e-08
5.0695e-08
1.04169e-07
1.18815e-07
7.41737e-08
6.49821e-08
1.67648e-07
1.92945e-07
8.15143e-08
1.39352e-08
1.18215e-07
1.62885e-08
4.53796e-08
1.20049e-07
5.06847e-08
4.20835e-08
2.35592e-08
1.12068e-07
1.02531e-07
-3.62169e-08
-9.63578e-08
-1.01746e-07
-1.22941e-07
3.16864e-08
7.14723e-08
-9.0736e-08
-6.10994e-08
5.58905e-08
4.78587e-08
-1.07305e-09
-2.36725e-08
-1.88384e-08
5.1491e-09
-1.91833e-08
-8.35285e-08
-1.22534e-07
-1.76172e-09
2.57318e-08
6.46412e-10
9.64688e-08
1.36854e-07
4.80452e-08
1.53483e-08
2.23924e-08
-3.98063e-08
-5.42743e-08
-3.73449e-08
3.06792e-08
2.98556e-08
-2.53081e-08
-6.46947e-08
1.09058e-08
1.70707e-07
1.56729e-07
1.27978e-08
-8.35849e-09
1.87002e-08
-7.36623e-08
-2.56898e-08
-1.9466e-08
-8.40348e-08
4.58766e-08
1.00238e-07
1.1643e-07
7.92967e-08
6.85437e-08
1.57319e-07
1.80693e-07
8.69666e-08
1.63185e-08
1.11256e-07
2.83861e-08
4.2389e-08
1.12816e-07
5.35167e-08
4.74942e-08
2.69019e-08
9.81961e-08
9.51376e-08
-2.86366e-08
-9.12463e-08
-9.4635e-08
-1.13596e-07
2.05347e-08
6.48498e-08
-7.74659e-08
-5.99655e-08
4.36319e-08
4.29927e-08
6.21995e-10
-2.08964e-08
-1.76462e-08
3.35607e-09
-1.89547e-08
-7.53469e-08
-1.13491e-07
-7.19326e-09
2.63202e-08
4.70855e-09
8.58077e-08
1.25615e-07
4.79539e-08
1.52968e-08
2.35878e-08
-3.3411e-08
-4.76144e-08
-3.56505e-08
2.17247e-08
2.58855e-08
-1.94542e-08
-5.30228e-08
1.1543e-08
1.54583e-07
1.49658e-07
2.14733e-08
-9.5793e-09
1.55769e-08
-6.37195e-08
-2.82059e-08
-1.69603e-08
-7.31845e-08
4.17009e-08
9.63827e-08
1.13808e-07
8.36323e-08
7.17432e-08
1.48085e-07
1.69049e-07
9.11618e-08
1.94267e-08
1.04292e-07
3.89821e-08
4.07215e-08
1.06072e-07
5.5678e-08
5.16075e-08
3.02949e-08
8.61652e-08
8.76057e-08
-2.17778e-08
-8.57097e-08
-8.81862e-08
-1.0468e-07
1.08697e-08
5.80356e-08
-6.57329e-08
-5.82358e-08
3.2726e-08
3.81802e-08
1.8292e-09
-1.838e-08
-1.64682e-08
1.61973e-09
-1.87653e-08
-6.77939e-08
-1.04619e-07
-1.18234e-08
2.62863e-08
8.42564e-09
7.62741e-08
1.1483e-07
4.77461e-08
1.50825e-08
2.42742e-08
-2.74116e-08
-4.15657e-08
-3.34895e-08
1.42601e-08
2.21023e-08
-1.45004e-08
-4.25504e-08
1.24727e-08
1.40011e-07
1.42268e-07
2.89456e-08
-9.77585e-09
1.25833e-08
-5.46668e-08
-2.9677e-08
-1.4705e-08
-6.29582e-08
3.81887e-08
9.26619e-08
1.10996e-07
8.71812e-08
7.45855e-08
1.39873e-07
1.5813e-07
9.41356e-08
2.30892e-08
9.74948e-08
4.80282e-08
4.02077e-08
9.9855e-08
5.73039e-08
5.45848e-08
3.35767e-08
7.5904e-08
8.00955e-08
-1.57088e-08
-7.98694e-08
-8.2332e-08
-9.62496e-08
2.6598e-09
5.11929e-08
-5.54973e-08
-5.6011e-08
2.3148e-08
3.34769e-08
2.60121e-09
-1.61704e-08
-1.52974e-08
-2.3389e-11
-1.86475e-08
-6.08969e-08
-9.59738e-08
-1.5645e-08
2.57187e-08
1.17375e-08
6.78571e-08
1.0457e-07
4.73811e-08
1.47919e-08
2.44809e-08
-2.18676e-08
-3.60623e-08
-3.09692e-08
8.18386e-09
1.85444e-08
-1.03619e-08
-3.32465e-08
1.36081e-08
1.26937e-07
1.34715e-07
3.52458e-08
-9.08994e-09
9.81059e-09
-4.65144e-08
-3.02109e-08
-1.2678e-08
-5.33899e-08
3.53335e-08
8.91206e-08
1.08046e-07
8.99663e-08
7.70688e-08
1.32592e-07
1.48021e-07
9.59716e-08
2.712e-08
9.1012e-08
5.55294e-08
4.06501e-08
9.41914e-08
5.85008e-08
5.65955e-08
3.66179e-08
6.72968e-08
7.27622e-08
-1.04613e-08
-7.38532e-08
-7.69859e-08
-8.83401e-08
-4.17132e-09
4.44791e-08
-4.66759e-08
-5.34068e-08
1.48407e-08
2.89216e-08
2.98243e-09
-1.42878e-08
-1.41186e-08
-1.54428e-09
-1.86134e-08
-5.46569e-08
-8.76132e-08
-1.86787e-08
2.47074e-08
1.46011e-08
6.05205e-08
9.49008e-08
4.68223e-08
1.44916e-08
2.42548e-08
-1.68258e-08
-3.10521e-08
-2.81873e-08
3.38403e-09
1.52549e-08
-6.95493e-09
-2.50635e-08
1.48703e-08
1.15277e-07
1.2714e-07
4.04286e-08
-7.66835e-09
7.33871e-09
-3.9245e-08
-2.99278e-08
-1.08511e-08
-4.44993e-08
3.31069e-08
8.57902e-08
1.05017e-07
9.2026e-08
7.91898e-08
1.26144e-07
1.38774e-07
9.67854e-08
3.13365e-08
8.49644e-08
6.15377e-08
4.18426e-08
8.90856e-08
5.93624e-08
5.78106e-08
3.93256e-08
6.01923e-08
6.57457e-08
-6.03081e-09
-6.77825e-08
-7.20541e-08
-8.09732e-08
-9.73267e-09
3.80254e-08
-3.91586e-08
-5.05393e-08
7.7188e-09
2.45421e-08
3.01345e-09
-1.27286e-08
-1.29411e-08
-2.92236e-09
-1.86555e-08
-4.90612e-08
-7.95949e-08
-2.09687e-08
2.33353e-08
1.6994e-08
5.42068e-08
8.58847e-08
4.60428e-08
1.42297e-08
2.36585e-08
-1.23171e-08
-2.64941e-08
-2.52275e-08
-2.60005e-10
1.22763e-08
-4.18702e-09
-1.79395e-08
1.61888e-08
1.04923e-07
1.19661e-07
4.45682e-08
-5.67462e-09
5.23039e-09
-3.28181e-08
-2.89533e-08
-9.19227e-09
-3.62948e-08
3.14631e-08
8.26881e-08
1.01964e-07
9.3412e-08
8.09596e-08
1.20433e-07
1.30407e-07
9.67147e-08
3.55816e-08
7.94396e-08
6.61426e-08
4.35806e-08
8.45297e-08
5.99671e-08
5.83931e-08
4.16384e-08
5.4419e-08
5.9163e-08
-2.38759e-09
-6.17653e-08
-6.74494e-08
-7.41572e-08
-1.41548e-08
3.19244e-08
-3.28343e-08
-4.75095e-08
1.68298e-09
2.03601e-08
2.74427e-09
-1.14721e-08
-1.17787e-08
-4.1405e-09
-1.87518e-08
-4.40883e-08
-7.19715e-08
-2.25737e-08
2.16891e-08
1.89128e-08
4.88396e-08
7.75541e-08
4.5026e-08
1.4039e-08
2.27658e-08
-8.35459e-09
-2.23591e-08
-2.21807e-08
-2.8739e-09
9.6472e-09
-1.96305e-09
-1.18005e-08
1.75042e-08
9.5759e-08
1.12378e-07
4.77539e-08
-3.24849e-09
3.52174e-09
-2.71772e-08
-2.74113e-08
-7.65991e-09
-2.87728e-08
3.03414e-08
7.98188e-08
9.89437e-08
9.41864e-08
8.23868e-08
1.1537e-07
1.22911e-07
9.59075e-08
3.97163e-08
7.44953e-08
6.94601e-08
4.56717e-08
8.05162e-08
6.03745e-08
5.84927e-08
4.35255e-08
4.9799e-08
5.31019e-08
5.22824e-10
-5.58952e-08
-6.31011e-08
-6.78885e-08
-1.75771e-08
2.62375e-08
-2.75753e-08
-4.43998e-08
-3.37196e-09
1.63944e-08
2.23424e-09
-1.049e-08
-1.06505e-08
-5.18897e-09
-1.88717e-08
-3.97073e-08
-6.47876e-08
-2.35595e-08
1.98563e-08
2.03679e-08
4.4328e-08
6.99236e-08
4.37726e-08
1.39383e-08
2.16551e-08
-4.93353e-09
-1.8625e-08
-1.91308e-08
-4.58753e-09
7.40076e-09
-1.92224e-10
-6.5614e-09
1.87703e-08
8.76595e-08
1.05366e-07
5.00835e-08
-5.26951e-10
2.23601e-09
-2.22546e-08
-2.54187e-08
-6.2162e-09
-2.19191e-08
2.96702e-08
7.71737e-08
9.60079e-08
9.44196e-08
8.34809e-08
1.10869e-07
1.16253e-07
9.45149e-08
4.36215e-08
7.01629e-08
7.16279e-08
4.79511e-08
7.70242e-08
6.06254e-08
5.8243e-08
4.49878e-08
4.61556e-08
4.76214e-08
2.77572e-09
-5.02509e-08
-5.89577e-08
-6.21528e-08
-2.01387e-08
2.09992e-08
-2.32456e-08
-4.1277e-08
-7.54923e-09
1.26581e-08
1.54307e-09
-9.75275e-09
-9.59169e-09
-6.0645e-09
-1.89813e-08
-3.58792e-08
-5.8077e-08
-2.39953e-08
1.79176e-08
2.13822e-08
4.05698e-08
6.30028e-08
4.23073e-08
1.39258e-08
2.04028e-08
-2.03359e-09
-1.52716e-08
-1.61521e-08
-5.53477e-09
5.56073e-09
1.20859e-09
-2.13108e-09
1.99553e-08
8.05017e-08
9.86805e-08
5.16587e-08
2.35972e-09
1.38127e-09
-1.79756e-08
-2.30841e-08
-4.82639e-09
-1.57106e-08
2.93728e-08
7.47341e-08
9.32016e-08
9.41896e-08
8.42598e-08
1.06849e-07
1.10383e-07
9.26839e-08
4.72148e-08
6.64485e-08
7.27968e-08
5.02675e-08
7.40156e-08
6.07446e-08
5.77605e-08
4.60463e-08
4.33179e-08
4.2752e-08
4.45794e-09
-4.48935e-08
-5.49848e-08
-5.69254e-08
-2.1972e-08
1.62308e-08
-1.97137e-08
-3.82018e-08
-1.09416e-08
9.16415e-09
7.25537e-10
-9.23199e-09
-8.64205e-09
-6.77096e-09
-1.9049e-08
-3.25598e-08
-5.18632e-08
-2.39531e-08
1.59443e-08
2.19885e-08
3.74587e-08
5.67886e-08
4.0663e-08
1.39879e-08
1.90804e-08
3.7854e-10
-1.22779e-08
-1.33089e-08
-5.852e-09
4.1382e-09
2.31874e-09
1.58286e-09
2.1037e-08
7.41693e-08
9.23571e-08
5.25843e-08
5.31454e-09
9.45127e-10
-1.42629e-08
-2.05057e-08
-3.45926e-09
-1.01162e-08
2.93746e-08
7.24754e-08
9.05571e-08
9.358e-08
8.47467e-08
1.03236e-07
1.05232e-07
9.05512e-08
5.04367e-08
6.334e-08
7.3125e-08
5.24959e-08
7.14411e-08
6.07445e-08
5.71415e-08
4.67381e-08
4.1132e-08
3.84977e-08
5.65852e-09
-3.98654e-08
-5.1162e-08
-5.21748e-08
-2.3198e-08
1.19354e-08
-1.68613e-08
-3.52224e-08
-1.36312e-08
5.92713e-09
-1.69644e-10
-8.89615e-09
-7.83784e-09
-7.32068e-09
-1.90486e-08
-2.96998e-08
-4.61579e-08
-2.35078e-08
1.39955e-08
2.22275e-08
3.48908e-08
5.12601e-08
3.88808e-08
1.41086e-08
1.7745e-08
2.34573e-09
-9.62157e-09
-1.06527e-08
-5.66797e-09
3.13266e-09
3.21353e-09
4.66952e-09
2.19969e-08
6.85577e-08
8.64153e-08
5.29639e-08
8.25258e-09
8.99619e-10
-1.1039e-08
-1.77702e-08
-2.09165e-09
-5.09788e-09
2.96088e-08
7.03761e-08
8.80902e-08
9.26735e-08
8.49694e-08
9.99604e-08
1.00727e-07
8.8238e-08
5.32521e-08
6.08066e-08
7.2772e-08
5.4534e-08
6.92474e-08
6.064e-08
5.64587e-08
4.71102e-08
3.94602e-08
3.48411e-08
6.46818e-09
-3.51923e-08
-4.74803e-08
-4.78644e-08
-2.39243e-08
8.10234e-09
-1.45792e-08
-3.23731e-08
-1.56968e-08
2.9534e-09
-1.09974e-09
-8.70764e-09
-7.20582e-09
-7.7318e-09
-1.89615e-08
-2.72505e-08
-4.09609e-08
-2.27341e-08
1.21138e-08
2.21476e-08
3.27661e-08
4.63828e-08
3.70076e-08
1.42701e-08
1.64419e-08
3.91918e-09
-7.27705e-09
-8.22161e-09
-5.09378e-09
2.52323e-09
3.96017e-09
7.21234e-09
2.2825e-08
6.35742e-08
8.08601e-08
5.28962e-08
1.11076e-08
1.20659e-09
-8.22812e-09
-1.49533e-08
-7.07561e-10
-6.10905e-10
3.00189e-08
6.84184e-08
8.58002e-08
9.1546e-08
8.49599e-08
9.69653e-08
9.67884e-08
8.58468e-08
5.56507e-08
5.88021e-08
7.18868e-08
5.63086e-08
6.73818e-08
6.0447e-08
5.57608e-08
4.7215e-08
3.81854e-08
3.17489e-08
6.97457e-09
-3.08851e-08
-4.39387e-08
-4.39559e-08
-2.42436e-08
4.71155e-09
-1.27702e-08
-2.96726e-08
-1.72162e-08
2.42338e-10
-2.02906e-09
-8.62505e-09
-6.76042e-09
-8.02487e-09
-1.87749e-08
-2.51649e-08
-3.62615e-08
-2.17023e-08
1.03293e-08
2.17999e-08
3.09945e-08
4.21114e-08
3.50895e-08
1.44611e-08
1.52033e-08
5.14889e-09
-5.21371e-09
-6.03503e-09
-4.22812e-09
2.26928e-09
4.61202e-09
9.28937e-09
2.35217e-08
5.91382e-08
7.56826e-08
5.24705e-08
1.38337e-08
1.82177e-09
-5.76217e-09
-1.21182e-08
6.9924e-10
3.39473e-09
3.05587e-08
6.6584e-08
8.36759e-08
9.02623e-08
8.47552e-08
9.42015e-08
9.33371e-08
8.34596e-08
5.76419e-08
5.72689e-08
7.06007e-08
5.77748e-08
6.57925e-08
6.01763e-08
5.50751e-08
4.71062e-08
3.72119e-08
2.91779e-08
7.25703e-09
-2.69418e-08
-4.05413e-08
-4.04092e-08
-2.42334e-08
1.73235e-09
-1.13494e-08
-2.71275e-08
-1.82625e-08
-2.2114e-09
-2.93157e-09
-8.61373e-09
-6.50506e-09
2.88395e-07
1.19558e-07
-1.82805e-07
-1.39042e-07
-6.58214e-08
-2.06415e-07
3.00398e-09
4.08253e-07
7.10311e-08
-2.63411e-07
5.97106e-08
-3.53633e-08
-9.37175e-08
2.94759e-07
4.66103e-08
-2.40906e-07
6.68708e-08
9.91837e-09
-3.02563e-07
6.50339e-09
3.6287e-07
3.62814e-07
8.71825e-08
-7.28943e-08
-8.19386e-08
-8.16508e-08
-3.96978e-08
-1.7905e-07
4.70385e-08
9.36054e-08
1.54276e-07
1.90004e-07
-1.64882e-07
1.08443e-07
4.24186e-07
1.70135e-07
-1.6266e-07
-1.34437e-07
1.62658e-07
9.46326e-08
1.50191e-07
8.98821e-08
5.64643e-08
1.92718e-07
2.20018e-08
3.58584e-08
5.04726e-09
-4.85362e-08
-1.30342e-07
-3.37102e-07
-8.42437e-08
3.30169e-07
-2.48938e-08
-2.6546e-09
7.45414e-08
-2.64272e-07
-5.99979e-08
2.13802e-07
-8.99698e-08
-1.11563e-07
2.63932e-07
1.01687e-07
-1.80003e-07
-1.39138e-07
-6.39998e-08
-1.83722e-07
1.82291e-08
3.82725e-07
5.4927e-08
-2.40497e-07
5.80334e-08
-3.31365e-08
-7.58622e-08
2.6989e-07
2.99197e-08
-2.17735e-07
6.35941e-08
-8.55434e-09
-2.78521e-07
2.36234e-08
3.58537e-07
3.40691e-07
6.94117e-08
-7.04607e-08
-8.06403e-08
-8.19413e-08
-3.7621e-08
-1.58336e-07
4.44911e-08
9.33854e-08
1.51536e-07
1.71228e-07
-1.39954e-07
1.24325e-07
3.99575e-07
1.51864e-07
-1.58421e-07
-1.14079e-07
1.61067e-07
9.44281e-08
1.49713e-07
9.10115e-08
5.44668e-08
1.72547e-07
2.3817e-08
3.64414e-08
5.71607e-09
-4.81012e-08
-1.28094e-07
-3.14444e-07
-6.98e-08
3.06595e-07
-2.28784e-08
-4.71663e-09
5.59477e-08
-2.39514e-07
-4.37611e-08
1.90345e-07
-8.60254e-08
-9.33287e-08
2.48522e-07
9.7727e-08
-1.74354e-07
-1.38764e-07
-6.03419e-08
-1.71498e-07
1.7492e-08
3.65796e-07
5.43391e-08
-2.28999e-07
5.47513e-08
-2.89115e-08
-7.20708e-08
2.55022e-07
2.89801e-08
-2.06016e-07
5.69332e-08
-1.25219e-08
-2.63245e-07
2.6998e-08
3.49495e-07
3.28775e-07
6.59076e-08
-6.53991e-08
-7.83418e-08
-8.25678e-08
-3.34804e-08
-1.50137e-07
4.02997e-08
9.28169e-08
1.4629e-07
1.66826e-07
-1.2456e-07
1.24799e-07
3.83544e-07
1.47469e-07
-1.49428e-07
-1.06407e-07
1.57834e-07
9.31712e-08
1.48769e-07
9.25388e-08
5.06489e-08
1.64961e-07
2.73799e-08
3.71931e-08
6.47547e-09
-4.78853e-08
-1.23565e-07
-3.02057e-07
-7.16507e-08
2.93903e-07
-1.91394e-08
-8.33032e-09
5.18546e-08
-2.2418e-07
-4.31325e-08
1.77691e-07
-7.84231e-08
-8.86752e-08
2.3208e-07
9.62617e-08
-1.66677e-07
-1.37959e-07
-5.63419e-08
-1.59491e-07
1.30407e-08
3.47193e-07
5.77566e-08
-2.1775e-07
4.98944e-08
-2.34541e-08
-7.08361e-08
2.3935e-07
3.20268e-08
-1.944e-07
4.82493e-08
-1.32762e-08
-2.47184e-07
2.73233e-08
3.3736e-07
3.17088e-07
6.55232e-08
-5.94986e-08
-7.52787e-08
-8.24499e-08
-2.87342e-08
-1.43259e-07
3.53087e-08
9.2255e-08
1.40002e-07
1.64829e-07
-1.08684e-07
1.21149e-07
3.66701e-07
1.45927e-07
-1.37402e-07
-1.00454e-07
1.53389e-07
9.17713e-08
1.46791e-07
9.41599e-08
4.66584e-08
1.58883e-07
3.19168e-08
3.78909e-08
7.25121e-09
-4.78522e-08
-1.18197e-07
-2.89343e-07
-7.75057e-08
2.80683e-07
-1.39269e-08
-1.29797e-08
5.02307e-08
-2.07988e-07
-4.6023e-08
1.64998e-07
-6.89775e-08
-8.61742e-08
2.13083e-07
9.43118e-08
-1.57414e-07
-1.36662e-07
-5.21993e-08
-1.45545e-07
8.37322e-09
3.25535e-07
6.1762e-08
-2.04959e-07
4.38407e-08
-1.70896e-08
-6.93435e-08
2.20637e-07
3.57973e-08
-1.81014e-07
3.84073e-08
-1.35612e-08
-2.28819e-07
2.74427e-08
3.22944e-07
3.03505e-07
6.51291e-08
-5.34661e-08
-7.13743e-08
-8.16379e-08
-2.3732e-08
-1.35028e-07
2.98087e-08
9.1676e-08
1.33122e-07
1.62268e-07
-9.09618e-08
1.16677e-07
3.4773e-07
1.44192e-07
-1.23529e-07
-9.36922e-08
1.48109e-07
9.04381e-08
1.43702e-07
9.6099e-08
4.27946e-08
1.51861e-07
3.6937e-08
3.85723e-08
8.19824e-09
-4.77223e-08
-1.12344e-07
-2.74209e-07
-8.38687e-08
2.65002e-07
-7.68297e-09
-1.89877e-08
4.82311e-08
-1.88888e-07
-4.91045e-08
1.50423e-07
-5.85298e-08
-8.31018e-08
1.92349e-07
9.16731e-08
-1.46987e-07
-1.34892e-07
-4.81521e-08
-1.30195e-07
4.08716e-09
3.01791e-07
6.58855e-08
-1.91095e-07
3.68737e-08
-1.02441e-08
-6.74504e-08
1.99958e-07
3.98433e-08
-1.66341e-07
2.81112e-08
-1.35416e-08
-2.09052e-07
2.73984e-08
3.07012e-07
2.88729e-07
6.45822e-08
-4.77363e-08
-6.67271e-08
-8.02269e-08
-1.876e-08
-1.25464e-07
2.407e-08
9.10353e-08
1.26059e-07
1.59022e-07
-7.22458e-08
1.11819e-07
3.27461e-07
1.42191e-07
-1.08632e-07
-8.64656e-08
1.42267e-07
8.92426e-08
1.39634e-07
9.83467e-08
3.92784e-08
1.44002e-07
4.2016e-08
3.92634e-08
9.3698e-09
-4.73181e-08
-1.06236e-07
-2.57155e-07
-9.01532e-08
2.47131e-07
-7.52919e-10
-2.51421e-08
4.56271e-08
-1.68508e-07
-5.18547e-08
1.34566e-07
-4.78076e-08
-7.93921e-08
1.70961e-07
8.84038e-08
-1.35828e-07
-1.32678e-07
-4.45327e-08
-1.14421e-07
3.93949e-10
2.77157e-07
7.00865e-08
-1.76637e-07
2.92496e-08
-3.43818e-09
-6.51777e-08
1.7897e-07
4.39563e-08
-1.51083e-07
1.79553e-08
-1.32255e-08
-1.88925e-07
2.69839e-08
2.90254e-07
2.73814e-07
6.40658e-08
-4.25859e-08
-6.15816e-08
-7.83613e-08
-1.42433e-08
-1.14937e-07
1.83946e-08
9.03096e-08
1.19288e-07
1.55295e-07
-5.35677e-08
1.06624e-07
3.0691e-07
1.40302e-07
-9.33241e-08
-7.92405e-08
1.3598e-07
8.81484e-08
1.3474e-07
1.00696e-07
3.64409e-08
1.35671e-07
4.67943e-08
3.99316e-08
1.07004e-08
-4.65761e-08
-1.00145e-07
-2.38963e-07
-9.60092e-08
2.27941e-07
6.62202e-09
-3.08107e-08
4.23554e-08
-1.48289e-07
-5.39891e-08
1.18252e-07
-3.74363e-08
-7.5162e-08
1.49709e-07
8.44481e-08
-1.24293e-07
-1.29984e-07
-4.16049e-08
-9.87846e-08
-2.55951e-09
2.52663e-07
7.42187e-08
-1.61835e-07
2.12747e-08
2.87811e-09
-6.24335e-08
1.58352e-07
4.78384e-08
-1.35771e-07
8.42469e-09
-1.27577e-08
-1.69166e-07
2.62244e-08
2.73133e-07
2.59239e-07
6.3657e-08
-3.80935e-08
-5.61643e-08
-7.61416e-08
-1.0475e-08
-1.03787e-07
1.30275e-08
8.9454e-08
1.1318e-07
1.51214e-07
-3.56108e-08
1.01193e-07
2.8673e-07
1.3869e-07
-7.79868e-08
-7.206e-08
1.29295e-07
8.72212e-08
1.29131e-07
1.02938e-07
3.45468e-08
1.27133e-07
5.10359e-08
4.05404e-08
1.20835e-08
-4.54845e-08
-9.43346e-08
-2.20256e-07
-1.01018e-07
2.07877e-07
1.41787e-08
-3.55962e-08
3.83569e-08
-1.28931e-07
-5.52548e-08
1.02029e-07
-2.79057e-08
-7.0413e-08
1.29162e-07
7.97653e-08
-1.12663e-07
-1.26723e-07
-3.94622e-08
-8.37942e-08
-4.72645e-09
2.28792e-07
7.80505e-08
-1.46815e-07
1.3282e-08
8.39446e-09
-5.91639e-08
1.38451e-07
5.10996e-08
-1.20759e-07
-1.25993e-10
-1.2266e-08
-1.5019e-07
2.52225e-08
2.55922e-07
2.45151e-07
6.34108e-08
-3.42083e-08
-5.06621e-08
-7.35693e-08
-7.51838e-09
-9.23359e-08
8.1602e-09
8.83941e-08
1.07919e-07
1.46889e-07
-1.87569e-08
9.57483e-08
2.67246e-07
1.3712e-07
-6.28172e-08
-6.47666e-08
1.22327e-07
8.64516e-08
1.22962e-07
1.04854e-07
3.37211e-08
1.18623e-07
5.46248e-08
4.10751e-08
1.34328e-08
-4.40357e-08
-8.89707e-08
-2.01553e-07
-1.04853e-07
1.87327e-07
2.16112e-08
-3.92126e-08
3.3702e-08
-1.10805e-07
-5.55482e-08
8.63425e-08
-1.95478e-08
-6.51841e-08
1.09722e-07
7.43773e-08
-1.01186e-07
-1.22817e-07
-3.80643e-08
-6.98544e-08
-6.10325e-09
2.05889e-07
8.13269e-08
-1.31672e-07
5.58908e-09
1.29275e-08
-5.53918e-08
1.19528e-07
5.35019e-08
-1.06245e-07
-7.47238e-09
-1.18065e-08
-1.32167e-07
2.40628e-08
2.38826e-07
2.316e-07
6.33585e-08
-3.08279e-08
-4.52645e-08
-7.05882e-08
-5.38286e-09
-8.08776e-08
3.94313e-09
8.70345e-08
1.0353e-07
1.42429e-07
-3.19268e-09
9.05746e-08
2.4859e-07
1.35476e-07
-4.79826e-08
-5.74337e-08
1.15213e-07
8.58123e-08
1.16453e-07
1.0623e-07
3.39503e-08
1.10353e-07
5.75179e-08
4.15009e-08
1.4697e-08
-4.22238e-08
-8.41095e-08
-1.83292e-07
-1.07312e-07
1.66654e-07
2.85878e-08
-4.15074e-08
2.85602e-08
-9.41744e-08
-5.48842e-08
7.14811e-08
-1.25502e-08
-5.95877e-08
9.17256e-08
6.83519e-08
-9.00915e-08
-1.18242e-07
-3.73054e-08
-5.72209e-08
-6.70374e-09
1.84199e-07
8.38336e-08
-1.16535e-07
-1.53365e-09
1.63843e-08
-5.11936e-08
1.01791e-07
5.49448e-08
-9.23601e-08
-1.34965e-08
-1.13891e-08
-1.15216e-07
2.28141e-08
2.22031e-07
2.18594e-07
6.34822e-08
-2.78565e-08
-4.01243e-08
-6.71609e-08
-3.99768e-09
-6.96533e-08
4.77147e-10
8.5309e-08
9.99499e-08
1.37913e-07
1.09834e-08
8.58763e-08
2.3085e-07
1.33702e-07
-3.36765e-08
-5.00916e-08
1.08082e-07
8.52767e-08
1.09798e-07
1.06898e-07
3.50684e-08
1.02505e-07
5.97117e-08
4.18121e-08
1.58483e-08
-4.00583e-08
-7.97535e-08
-1.65816e-07
-1.08309e-07
1.46147e-07
3.48047e-08
-4.24442e-08
2.31385e-08
-7.92348e-08
-5.3337e-08
5.76916e-08
-6.9817e-09
-5.37593e-08
7.53679e-08
6.18002e-08
-7.95848e-08
-1.13031e-07
-3.70384e-08
-4.60273e-08
-6.57986e-09
1.63904e-07
8.54434e-08
-1.01578e-07
-7.87377e-09
1.87474e-08
-4.66672e-08
8.54329e-08
5.54045e-08
-7.92233e-08
-1.81606e-08
-1.09814e-08
-9.94597e-08
2.15659e-08
2.05707e-07
2.06114e-07
6.3726e-08
-2.5196e-08
-3.53353e-08
-6.33002e-08
-3.26669e-09
-5.88601e-08
-2.18264e-09
8.32011e-08
9.70652e-08
1.33395e-07
2.37278e-08
8.17651e-08
2.14098e-07
1.31752e-07
-2.00845e-08
-4.27284e-08
1.01073e-07
8.48096e-08
1.03185e-07
1.06767e-07
3.68903e-08
9.52166e-08
6.12315e-08
4.20191e-08
1.68727e-08
-3.75705e-08
-7.58588e-08
-1.4938e-07
-1.07857e-07
1.26103e-07
4.00237e-08
-4.20833e-08
1.76415e-08
-6.61037e-08
-5.10182e-08
4.51826e-08
-2.82006e-09
-4.78463e-08
6.0764e-08
5.48702e-08
-6.98302e-08
-1.07257e-07
-3.71062e-08
-3.63271e-08
-5.82456e-09
1.45137e-07
8.6108e-08
-8.70045e-08
-1.32779e-08
2.00737e-08
-4.19221e-08
7.058e-08
5.49082e-08
-6.69384e-08
-2.14929e-08
-1.05718e-08
-8.49698e-08
2.04126e-08
1.90002e-07
1.94124e-07
6.40331e-08
-2.27259e-08
-3.09574e-08
-5.90596e-08
-3.03999e-09
-4.86649e-08
-4.01356e-09
8.07311e-08
9.47397e-08
1.28929e-07
3.50418e-08
7.82962e-08
1.98391e-07
1.29598e-07
-7.35311e-09
-3.53301e-08
9.43058e-08
8.4361e-08
9.67917e-08
1.05828e-07
3.92234e-08
8.85738e-08
6.21266e-08
4.21338e-08
1.77616e-08
-3.48118e-08
-7.23423e-08
-1.34184e-07
-1.06045e-07
1.06813e-07
4.40763e-08
-4.05574e-08
1.22589e-08
-5.4816e-08
-4.80705e-08
3.40846e-08
3.07876e-11
-4.2002e-08
4.7943e-08
4.77281e-08
-6.09466e-08
-1.01027e-07
-3.73603e-08
-2.81162e-08
-4.55107e-09
1.27989e-07
8.58251e-08
-7.30082e-08
-1.76424e-08
2.04666e-08
-3.70762e-08
5.72884e-08
5.351e-08
-5.55872e-08
-2.35718e-08
-1.0144e-08
-7.17691e-08
1.94237e-08
1.75032e-07
1.82594e-07
6.43532e-08
-2.03372e-08
-2.70229e-08
-5.45217e-08
-3.16689e-09
-3.92024e-08
-5.02303e-09
7.79459e-08
9.28352e-08
1.24568e-07
4.49619e-08
7.54854e-08
1.83768e-07
1.27222e-07
4.41503e-09
-2.79001e-08
8.78791e-08
8.38704e-08
9.07736e-08
1.04139e-07
4.18429e-08
8.26202e-08
6.24619e-08
4.21658e-08
1.85086e-08
-3.18474e-08
-6.90933e-08
-1.20347e-07
-1.03023e-07
8.85623e-08
4.68661e-08
-3.80413e-08
7.16105e-09
-4.53233e-08
-4.4662e-08
2.44487e-08
1.72772e-09
-3.63726e-08
3.68726e-08
4.05431e-08
-5.30135e-08
-9.447e-08
-3.76684e-08
-2.13491e-08
-2.88294e-09
1.12503e-07
8.46347e-08
-5.97612e-08
-2.09141e-08
2.00639e-08
-3.22449e-08
4.5567e-08
5.12804e-08
-4.5228e-08
-2.45106e-08
-9.67127e-09
-5.98397e-08
1.86413e-08
1.60871e-07
1.71506e-07