/*--------------------------------*- C++ -*----------------------------------*\
| =========                 |                                                 |
| \\      /  F ield         | OpenFOAM: The Open Source CFD Toolbox           |
|  \\    /   O peration     | Version:  2312                                  |
|   \\  /    A nd           | Website:  www.openfoam.com                      |
|    \\/     M anipulation  |                                                 |
\*---------------------------------------------------------------------------*/
FoamFile
{
    version     2.0;
    format      ascii;
    arch        "LSB;label=32;scalar=64";
    class       volScalarField;
    location    "500";
    object      pPrime2Mean;
}
// * * * * * * * * * * * * * * * * * * * * * * * * * * * * * * * * * * * * * //

dimensions      [0 4 -4 0 0 0 0];

internalField   nonuniform List<scalar> 
144000
(
9.61874e-16
7.93158e-16
9.95408e-15
2.40607e-14
8.82802e-15
9.21233e-16
1.03088e-14
1.45603e-14
2.50692e-14
1.06295e-14
5.56427e-15
1.21714e-15
3.12544e-15
1.79947e-14
1.18449e-14
2.08888e-14
6.89783e-15
9.47578e-15
3.38776e-14
2.70315e-14
6.53482e-14
2.50779e-14
2.14631e-14
4.70938e-16
9.26821e-15
2.36231e-14
3.71569e-15
2.46876e-15
2.50411e-14
6.40954e-15
5.99513e-15
3.38543e-15
7.82461e-16
7.11605e-15
1.21894e-14
2.27493e-14
7.99555e-15
3.64834e-16
1.27657e-14
1.2813e-14
1.53409e-15
1.52857e-14
7.08597e-15
1.34884e-14
3.90008e-15
2.97377e-14
2.47242e-14
1.61374e-14
1.04878e-14
1.1801e-14
1.83779e-14
1.49501e-14
1.38763e-14
2.49737e-14
1.15044e-14
2.71862e-14
1.39846e-14
3.04248e-15
2.6841e-15
3.43482e-16
9.33931e-16
7.51856e-16
9.46052e-15
1.84463e-14
7.99455e-15
9.87548e-16
7.13015e-15
1.35874e-14
1.89667e-14
7.20526e-15
5.14368e-15
1.21793e-15
2.95101e-15
1.28264e-14
8.28454e-15
1.54441e-14
3.77358e-15
8.73999e-15
2.62775e-14
2.27883e-14
5.44941e-14
1.88662e-14
1.62534e-14
3.6849e-16
6.3915e-15
1.78298e-14
3.09952e-15
1.35722e-15
1.93333e-14
5.88035e-15
5.82398e-15
3.27938e-15
7.15556e-16
4.15627e-15
1.13207e-14
1.72708e-14
7.15998e-15
4.03867e-16
9.0616e-15
9.11702e-15
1.38943e-15
1.09796e-14
6.42168e-15
9.33705e-15
2.01492e-15
2.265e-14
1.86859e-14
1.50297e-14
1.03603e-14
1.12681e-14
1.35854e-14
1.35156e-14
9.49363e-15
1.86949e-14
7.65723e-15
2.07708e-14
9.38801e-15
2.68986e-15
2.57089e-15
3.22649e-16
8.68914e-16
6.92152e-16
8.2145e-15
1.49992e-14
6.33683e-15
1.10649e-15
5.03045e-15
1.11285e-14
1.49692e-14
4.80613e-15
3.8329e-15
1.09795e-15
2.52728e-15
9.58497e-15
5.59116e-15
1.06927e-14
2.3211e-15
6.5879e-15
2.07063e-14
1.74118e-14
4.34682e-14
1.50009e-14
1.2264e-14
3.08105e-16
4.33623e-15
1.40386e-14
2.09913e-15
9.68016e-16
1.56654e-14
5.06098e-15
5.33546e-15
3.00886e-15
5.43925e-16
2.56015e-15
9.17086e-15
1.41069e-14
5.57257e-15
5.2398e-16
6.64859e-15
6.89979e-15
1.12546e-15
8.43775e-15
4.96956e-15
6.63985e-15
9.09461e-16
1.69359e-14
1.45918e-14
1.25405e-14
9.73204e-15
9.81781e-15
1.08453e-14
1.01741e-14
7.34712e-15
1.37671e-14
5.18922e-15
1.5223e-14
7.12949e-15
1.89214e-15
2.08504e-15
2.96083e-16
7.75801e-16
5.90254e-16
6.94266e-15
1.2494e-14
4.80234e-15
1.21258e-15
3.59732e-15
8.73793e-15
1.20801e-14
3.20458e-15
2.61972e-15
9.16679e-16
2.08203e-15
7.36093e-15
3.78034e-15
7.23272e-15
1.57001e-15
4.71907e-15
1.64526e-14
1.2845e-14
3.45408e-14
1.24494e-14
9.09215e-15
5.06095e-16
2.89809e-15
1.12198e-14
1.40228e-15
8.75255e-16
1.29748e-14
4.24594e-15
4.7857e-15
2.75485e-15
4.18413e-16
1.62402e-15
7.19089e-15
1.18326e-14
4.09593e-15
7.03498e-16
4.97891e-15
5.22271e-15
1.004e-15
6.73027e-15
3.71469e-15
4.82964e-15
4.59408e-16
1.27008e-14
1.16084e-14
1.00054e-14
8.90382e-15
8.37156e-15
8.92385e-15
7.11912e-15
6.03018e-15
1.01022e-14
3.66124e-15
1.09955e-14
5.77038e-15
1.19878e-15
1.54221e-15
2.65993e-16
6.72552e-16
4.74019e-16
5.74233e-15
1.04417e-14
3.64339e-15
1.26894e-15
2.61181e-15
6.75769e-15
9.74779e-15
2.19315e-15
1.77614e-15
7.44432e-16
1.67384e-15
5.60546e-15
2.70455e-15
4.73392e-15
1.11142e-15
3.3951e-15
1.29158e-14
9.59668e-15
2.72194e-14
1.06589e-14
6.60675e-15
7.8453e-16
1.96235e-15
8.90574e-15
1.07662e-15
8.84891e-16
1.07315e-14
3.5584e-15
4.24491e-15
2.53788e-15
3.37723e-16
1.03349e-15
5.65249e-15
9.88813e-15
2.98523e-15
8.78015e-16
3.82267e-15
3.84786e-15
9.55167e-16
5.43392e-15
2.87081e-15
3.58026e-15
4.11939e-16
9.4371e-15
9.32897e-15
7.95555e-15
8.03851e-15
7.0781e-15
7.34314e-15
4.79776e-15
5.01504e-15
7.30186e-15
2.75057e-15
7.76482e-15
4.73335e-15
7.7637e-16
1.10308e-15
2.36084e-16
5.72708e-16
3.64682e-16
4.62401e-15
8.70813e-15
2.7819e-15
1.27886e-15
1.93878e-15
5.12833e-15
7.80172e-15
1.55915e-15
1.21343e-15
5.91118e-16
1.30751e-15
4.20437e-15
2.07427e-15
2.95098e-15
8.09431e-16
2.46688e-15
9.99322e-15
7.30382e-15
2.10481e-14
9.28089e-15
4.62701e-15
1.03602e-15
1.3601e-15
6.95776e-15
9.83437e-16
8.99807e-16
8.81708e-15
2.99718e-15
3.72443e-15
2.33645e-15
2.95188e-16
6.59996e-16
4.44018e-15
8.17393e-15
2.18203e-15
1.01144e-15
2.99835e-15
2.71016e-15
9.30456e-16
4.43114e-15
2.31622e-15
2.68358e-15
5.22128e-16
6.93535e-15
7.57075e-15
6.3421e-15
7.17852e-15
5.93006e-15
6.00265e-15
3.09064e-15
4.16386e-15
5.12857e-15
2.19175e-15
5.29766e-15
3.87999e-15
5.53509e-16
7.59989e-16
2.0708e-16
4.83469e-16
2.70698e-16
3.62804e-15
7.22931e-15
2.14633e-15
1.25923e-15
1.47401e-15
3.79986e-15
6.17282e-15
1.15233e-15
8.35742e-16
4.64042e-16
9.89894e-16
3.11351e-15
1.68127e-15
1.74351e-15
6.03506e-16
1.81488e-15
7.6433e-15
5.63158e-15
1.6017e-14
8.1318e-15
3.12212e-15
1.22592e-15
9.63932e-16
5.33917e-15
1.00948e-15
8.91661e-16
7.19107e-15
2.54162e-15
3.23327e-15
2.14363e-15
2.88247e-16
4.24722e-16
3.4721e-15
6.6681e-15
1.62128e-15
1.09287e-15
2.38051e-15
1.83348e-15
9.19202e-16
3.64577e-15
1.94374e-15
2.06416e-15
6.68387e-16
5.09895e-15
6.19033e-15
5.06651e-15
6.34811e-15
4.93894e-15
4.86419e-15
1.86118e-15
3.42276e-15
3.5023e-15
1.82155e-15
3.48077e-15
3.16072e-15
4.48064e-16
5.0648e-16
1.80057e-16
4.05626e-16
1.95953e-16
2.785e-15
5.96641e-15
1.6931e-15
1.21745e-15
1.14952e-15
2.75033e-15
4.82201e-15
8.86314e-16
5.82989e-16
3.64699e-16
7.2732e-16
2.28431e-15
1.41131e-15
9.86066e-16
4.6209e-16
1.36172e-15
5.79829e-15
4.3926e-15
1.20225e-14
7.11117e-15
2.04316e-15
1.33889e-15
7.05178e-16
4.0212e-15
1.08422e-15
8.63871e-16
5.82381e-15
2.17798e-15
2.78158e-15
1.9567e-15
3.11536e-16
2.81268e-16
2.70932e-15
5.3715e-15
1.25596e-15
1.11637e-15
1.9011e-15
1.21335e-15
9.14192e-16
3.02324e-15
1.69318e-15
1.6738e-15
8.00077e-16
3.81234e-15
5.09131e-15
4.07009e-15
5.55995e-15
4.10996e-15
3.90575e-15
1.02501e-15
2.76748e-15
2.3349e-15
1.54798e-15
2.18825e-15
2.54638e-15
4.05918e-16
3.30352e-16
1.56934e-16
3.37195e-16
1.38961e-16
2.09579e-15
4.88697e-15
1.38228e-15
1.15632e-15
9.22727e-16
1.95325e-15
3.71991e-15
7.09156e-16
4.13719e-16
2.89884e-16
5.19369e-16
1.66709e-15
1.20385e-15
5.47816e-16
3.63981e-16
1.0507e-15
4.38022e-15
3.46312e-15
8.91917e-15
6.16601e-15
1.31026e-15
1.37021e-15
5.42687e-16
2.98072e-15
1.16091e-15
8.26289e-16
4.69e-15
1.89136e-15
2.37749e-15
1.77325e-15
3.55303e-16
1.99856e-16
2.12073e-15
4.28424e-15
1.03792e-15
1.08208e-15
1.52518e-15
8.19213e-16
9.0467e-16
2.52779e-15
1.52178e-15
1.43464e-15
9.01173e-16
2.95137e-15
4.20942e-15
3.30353e-15
4.81939e-15
3.43113e-15
3.1094e-15
5.01844e-16
2.18752e-15
1.52925e-15
1.32413e-15
1.30717e-15
2.02087e-15
3.92832e-16
2.16114e-16
1.36313e-16
2.76177e-16
9.73922e-17
1.54837e-15
3.9651e-15
1.17419e-15
1.08036e-15
7.6559e-16
1.37149e-15
2.83237e-15
5.876e-16
2.99269e-16
2.34619e-16
3.60262e-16
1.21278e-15
1.02893e-15
3.20198e-16
2.96451e-16
8.38748e-16
3.3114e-15
2.7569e-15
6.55635e-15
5.2783e-15
8.43693e-16
1.32627e-15
4.4844e-16
2.17931e-15
1.21014e-15
7.85962e-16
3.76251e-15
1.66455e-15
2.02416e-15
1.59322e-15
4.07998e-16
1.59504e-16
1.67472e-15
3.39564e-15
9.19202e-16
1.00192e-15
1.23411e-15
5.97326e-16
8.81683e-16
2.13361e-15
1.39983e-15
1.29586e-15
9.72419e-16
2.39356e-15
3.50131e-15
2.72186e-15
4.13222e-15
2.88031e-15
2.45728e-15
2.09862e-16
1.68138e-15
9.97026e-16
1.1265e-15
7.37305e-16
1.57515e-15
3.87397e-16
1.47968e-16
1.16575e-16
2.2215e-16
6.9547e-17
1.12752e-15
3.18356e-15
1.0342e-15
9.92588e-16
6.58637e-16
9.60668e-16
2.12509e-15
5.00519e-16
2.20897e-16
1.9381e-16
2.42955e-16
8.80932e-16
8.73662e-16
2.20764e-16
2.5186e-16
6.93576e-16
2.51825e-15
2.21445e-15
4.78883e-15
4.45179e-15
5.69895e-16
1.22183e-15
4.01588e-16
1.57476e-15
1.21805e-15
7.46429e-16
3.01378e-15
1.4811e-15
1.72108e-15
1.41841e-15
4.58835e-16
1.45631e-16
1.33898e-15
2.68582e-15
8.58556e-16
8.94489e-16
1.0153e-15
4.95558e-16
8.43475e-16
1.82183e-15
1.3081e-15
1.21737e-15
1.02006e-15
2.03989e-15
2.93716e-15
2.28405e-15
3.5068e-15
2.43528e-15
1.93135e-15
7.36091e-17
1.25157e-15
6.60165e-16
9.45339e-16
3.8927e-16
1.20272e-15
3.77474e-16
1.1214e-16
9.86323e-17
1.75394e-16
5.32228e-17
8.14044e-16
2.52847e-15
9.35963e-16
8.97263e-16
5.87309e-16
6.77671e-16
1.56894e-15
4.34542e-16
1.66495e-16
1.63093e-16
1.60322e-16
6.39612e-16
7.33689e-16
1.92378e-16
2.24759e-16
5.9268e-16
1.93649e-15
1.79392e-15
3.48652e-15
3.69765e-15
4.25763e-16
1.07667e-15
3.85641e-16
1.131e-15
1.18412e-15
7.09389e-16
2.41677e-15
1.32726e-15
1.46432e-15
1.2516e-15
4.99734e-16
1.47927e-16
1.0871e-15
2.13051e-15
8.24637e-16
7.78539e-16
8.57027e-16
4.67421e-16
7.93821e-16
1.57614e-15
1.2342e-15
1.16806e-15
1.05063e-15
1.81575e-15
2.49434e-15
1.95489e-15
2.95127e-15
2.07597e-15
1.51332e-15
3.17508e-17
9.00047e-16
4.54951e-16
7.78896e-16
1.92626e-16
8.9794e-16
3.58575e-16
9.74786e-17
8.35465e-17
1.35966e-16
4.5656e-17
5.8687e-16
1.98659e-15
8.60738e-16
7.99464e-16
5.39925e-16
4.86439e-16
1.13965e-15
3.81028e-16
1.28001e-16
1.39342e-16
1.05303e-16
4.6466e-16
6.08156e-16
1.96991e-16
2.10569e-16
5.20555e-16
1.51275e-15
1.46529e-15
2.53957e-15
3.02596e-15
3.61143e-16
9.10305e-16
3.87225e-16
8.13451e-16
1.11517e-15
6.74784e-16
1.9458e-15
1.19289e-15
1.24839e-15
1.09563e-15
5.25849e-16
1.58935e-16
8.97448e-16
1.70333e-15
7.97374e-16
6.69336e-16
7.46921e-16
4.76134e-16
7.39156e-16
1.38194e-15
1.1713e-15
1.13277e-15
1.06862e-15
1.66803e-15
2.15295e-15
1.70551e-15
2.47063e-15
1.78381e-15
1.18563e-15
3.95375e-17
6.25221e-16
3.33963e-16
6.29051e-16
9.34355e-17
6.54961e-16
3.30928e-16
9.52214e-17
7.15417e-17
1.03572e-16
4.39944e-17
4.26155e-16
1.54531e-15
7.95827e-16
7.04229e-16
5.07012e-16
3.59189e-16
8.16687e-16
3.34534e-16
1.00263e-16
1.20643e-16
7.11274e-17
3.38391e-16
4.97478e-16
2.11679e-16
2.0528e-16
4.66701e-16
1.20444e-15
1.20676e-15
1.85843e-15
2.44229e-15
3.39195e-16
7.3985e-16
3.95489e-16
5.91879e-16
1.02086e-15
6.42441e-16
1.5777e-15
1.07159e-15
1.06768e-15
9.52774e-16
5.35528e-16
1.7369e-16
7.5342e-16
1.37859e-15
7.66501e-16
5.76479e-16
6.72666e-16
4.96392e-16
6.86282e-16
1.22774e-15
1.11541e-15
1.10282e-15
1.07663e-15
1.5623e-15
1.89395e-15
1.51411e-15
2.06475e-15
1.5432e-15
9.32161e-16
6.76711e-17
4.2035e-16
2.62859e-16
4.98485e-16
5.30113e-17
4.66237e-16
2.96656e-16
9.88112e-17
6.25646e-17
7.76541e-17
4.58538e-17
3.14778e-16
1.1926e-15
7.33905e-16
6.15626e-16
4.81277e-16
2.7562e-16
5.79933e-16
2.91998e-16
7.99891e-17
1.05787e-16
5.1691e-17
2.47991e-16
4.02534e-16
2.24223e-16
2.05373e-16
4.24506e-16
9.78838e-16
1.00221e-15
1.37207e-15
1.94694e-15
3.35063e-16
5.79337e-16
4.02296e-16
4.41046e-16
9.11638e-16
6.11635e-16
1.29183e-15
9.60062e-16
9.16778e-16
8.24514e-16
5.29458e-16
1.887e-16
6.42339e-16
1.13323e-15
7.29515e-16
5.04478e-16
6.22813e-16
5.13269e-16
6.40517e-16
1.1042e-15
1.06412e-15
1.0736e-15
1.07616e-15
1.47814e-15
1.69885e-15
1.36468e-15
1.72935e-15
1.34158e-15
7.38592e-16
9.91542e-17
2.75261e-16
2.19036e-16
3.88847e-16
4.44878e-17
3.23227e-16
2.58349e-16
1.0374e-16
5.63046e-17
5.7657e-17
4.94696e-17
2.38981e-16
9.16511e-16
6.71623e-16
5.36182e-16
4.57543e-16
2.2141e-16
4.1028e-16
2.52161e-16
6.50323e-17
9.39966e-17
4.19452e-17
1.84032e-16
3.23492e-16
2.29465e-16
2.08005e-16
3.89951e-16
8.11467e-16
8.39536e-16
1.02591e-15
1.53562e-15
3.33735e-16
4.37838e-16
4.02314e-16
3.40789e-16
7.97451e-16
5.81699e-16
1.0703e-15
8.57098e-16
7.90734e-16
7.11492e-16
5.09987e-16
2.01765e-16
5.55605e-16
9.47569e-16
6.8707e-16
4.53813e-16
5.87967e-16
5.2045e-16
6.04147e-16
1.00369e-15
1.01625e-15
1.04365e-15
1.0682e-15
1.4036e-15
1.55072e-15
1.24586e-15
1.45726e-15
1.16964e-15
5.92617e-16
1.25647e-16
1.77929e-16
1.88903e-16
2.99943e-16
5.07828e-17
2.17706e-16
2.18962e-16
1.07285e-16
5.20963e-17
4.29105e-17
5.36093e-17
1.88341e-16
7.04992e-16
6.08337e-16
4.6703e-16
4.32886e-16
1.86761e-16
2.91721e-16
2.14897e-16
5.40012e-17
8.47293e-17
3.8098e-17
1.39489e-16
2.59604e-16
2.26626e-16
2.109e-16
3.60541e-16
6.84967e-16
7.09486e-16
7.79299e-16
1.20087e-15
3.27535e-16
3.19825e-16
3.93031e-16
2.75692e-16
6.86269e-16
5.51223e-16
8.98334e-16
7.62601e-16
6.85151e-16
6.13618e-16
4.80322e-16
2.11671e-16
4.86977e-16
8.06e-16
6.416e-16
4.21245e-16
5.60976e-16
5.17282e-16
5.77158e-16
9.20587e-16
9.71103e-16
1.01258e-15
1.05383e-15
1.33504e-15
1.43528e-15
1.14982e-15
1.23984e-15
1.02158e-15
4.83829e-16
1.44256e-16
1.16442e-16
1.65336e-16
2.29978e-16
6.16755e-17
1.42133e-16
1.81217e-16
1.08128e-16
4.92316e-17
3.26401e-17
5.74487e-17
1.5501e-16
5.46304e-16
5.45033e-16
4.0822e-16
4.05993e-16
1.65113e-16
2.1044e-16
1.8071e-16
4.60016e-17
7.74941e-17
3.75103e-17
1.09076e-16
2.0961e-16
2.17147e-16
2.12393e-16
3.34839e-16
5.87258e-16
6.04959e-16
6.02812e-16
9.33282e-16
3.13757e-16
2.26915e-16
3.74067e-16
2.34328e-16
5.8368e-16
5.19802e-16
7.63991e-16
6.76815e-16
5.96261e-16
5.3015e-16
4.44029e-16
2.17996e-16
4.31938e-16
6.9684e-16
5.95804e-16
4.02268e-16
5.37379e-16
5.06052e-16
5.58023e-16
8.51026e-16
9.28289e-16
9.80623e-16
1.03425e-15
1.26963e-15
1.34156e-15
1.07082e-15
1.06813e-15
8.939e-16
4.03581e-16
1.55098e-16
8.03871e-17
1.44899e-16
1.76293e-16
7.16135e-17
8.99171e-17
1.47015e-16
1.05972e-16
4.70486e-17
2.58893e-17
6.04332e-17
1.33183e-16
4.29514e-16
4.83454e-16
3.59032e-16
3.76832e-16
1.5202e-16
1.5548e-16
1.50263e-16
4.04051e-17
7.17751e-17
3.84818e-17
8.89061e-17
1.71608e-16
2.03413e-16
2.11297e-16
3.11999e-16
5.10098e-16
5.20426e-16
4.75533e-16
7.22676e-16
2.92813e-16
1.57296e-16
3.46615e-16
2.08501e-16
4.93019e-16
4.87238e-16
6.57898e-16
5.9987e-16
5.20912e-16
4.59851e-16
4.04479e-16
2.20586e-16
3.87191e-16
6.11462e-16
5.51972e-16
3.92268e-16
5.14731e-16
4.89986e-16
5.44373e-16
7.92185e-16
8.87643e-16
9.48258e-16
1.01017e-15
1.20693e-15
1.26172e-15
1.00479e-15
9.33578e-16
7.84255e-16
3.44917e-16
1.5956e-16
6.16744e-17
1.26238e-16
1.36065e-16
7.80449e-17
5.54384e-17
1.17333e-16
1.01158e-16
4.49292e-17
2.17087e-17
6.2213e-17
1.18733e-16
3.44973e-16
4.25414e-16
3.18278e-16
3.46091e-16
1.44337e-16
1.18788e-16
1.2405e-16
3.6678e-17
6.70419e-17
4.00567e-17
7.59872e-17
1.43697e-16
1.87795e-16
2.07285e-16
2.91313e-16
4.479e-16
4.5163e-16
3.82851e-16
5.59055e-16
2.66683e-16
1.07787e-16
3.12962e-16
1.92431e-16
4.15697e-16
4.53716e-16
5.72951e-16
5.31595e-16
4.56545e-16
4.01122e-16
3.64552e-16
2.19903e-16
3.50242e-16
5.43661e-16
5.11563e-16
3.87304e-16
4.91989e-16
4.72143e-16
5.3375e-16
7.41984e-16
8.49053e-16
9.15869e-16
9.82809e-16
1.14706e-15
1.19071e-15
9.48723e-16
8.28537e-16
6.90831e-16
3.02359e-16
1.59342e-16
5.40401e-17
1.09088e-16
1.06664e-16
8.02362e-17
3.4004e-17
9.24394e-17
9.43878e-17
4.24859e-17
1.92626e-17
6.26278e-17
1.08847e-16
2.84399e-16
3.72396e-16
2.84579e-16
3.14819e-16
1.39823e-16
9.44991e-17
1.02239e-16
3.43724e-17
6.29098e-17
4.17587e-17
6.80992e-17
1.23852e-16
1.72031e-16
2.00619e-16
2.72385e-16
3.96886e-16
3.95226e-16
3.14649e-16
4.33277e-16
2.37794e-16
7.44644e-17
2.75891e-16
1.82093e-16
3.51699e-16
4.19701e-16
5.03848e-16
4.71509e-16
4.01195e-16
3.52135e-16
3.2633e-16
2.16432e-16
3.19241e-16
4.88978e-16
4.75196e-16
3.84365e-16
4.69333e-16
4.54763e-16
5.23998e-16
6.98876e-16
8.12419e-16
8.83776e-16
9.53168e-16
1.09027e-15
1.12547e-15
9.00164e-16
7.46443e-16
6.11993e-16
2.71538e-16
1.56061e-16
5.29249e-17
9.37094e-17
8.55838e-17
7.85127e-17
2.17954e-17
7.21017e-17
8.64532e-17
3.95985e-17
1.78978e-17
6.17385e-17
1.01691e-16
2.41108e-16
3.25338e-16
2.56581e-16
2.84153e-16
1.36847e-16
7.86951e-17
8.46926e-17
3.31265e-17
5.91633e-17
4.34249e-17
6.35781e-17
1.10056e-16
1.57278e-16
1.92028e-16
2.54861e-16
3.5445e-16
3.48576e-16
2.63917e-16
3.37444e-16
2.08363e-16
5.35377e-17
2.3802e-16
1.7473e-16
3.00021e-16
3.85771e-16
4.4667e-16
4.18925e-16
3.53441e-16
3.11025e-16
2.91107e-16
2.10792e-16
2.92855e-16
4.44185e-16
4.42915e-16
3.81456e-16
4.4743e-16
4.39134e-16
5.13581e-16
6.61735e-16
7.77706e-16
8.52256e-16
9.22092e-16
1.03674e-15
1.06434e-15
8.5707e-16
6.81932e-16
5.46157e-16
2.49163e-16
1.5105e-16
5.52384e-17
8.02775e-17
7.06477e-17
7.37695e-17
1.58185e-17
5.58328e-17
7.79617e-17
3.63767e-17
1.71683e-17
5.97662e-17
9.61171e-17
2.09859e-16
2.8462e-16
2.33098e-16
2.55044e-16
1.34262e-16
6.85896e-17
7.10544e-17
3.26564e-17
5.56695e-17
4.50129e-17
6.1213e-17
1.00658e-16
1.44238e-16
1.82358e-16
2.38573e-16
3.18703e-16
3.09662e-16
2.25716e-16
2.64962e-16
1.80112e-16
4.15475e-17
2.0153e-16
1.68604e-16
2.591e-16
3.52631e-16
3.98579e-16
3.73053e-16
3.12121e-16
2.76097e-16
2.59527e-16
2.03657e-16
2.70125e-16
4.06904e-16
4.14469e-16
3.7748e-16
4.27085e-16
4.25643e-16
5.01864e-16
6.29589e-16
7.44953e-16
8.21479e-16
8.90239e-16
9.86445e-16
1.00656e-15
8.17867e-16
6.3071e-16
4.91744e-16
2.32839e-16
1.45295e-16
5.89924e-17
6.90173e-17
6.006e-17
6.70953e-17
1.37492e-17
4.30221e-17
6.9348e-17
3.30636e-17
1.68001e-17
5.69798e-17
9.14466e-17
1.86772e-16
2.50145e-16
2.13092e-16
2.28199e-16
1.31326e-16
6.23865e-17
6.07918e-17
3.27236e-17
5.24102e-17
4.65175e-17
6.01682e-17
9.43742e-17
1.33281e-16
1.72444e-16
2.23464e-16
2.88302e-16
2.76964e-16
1.96572e-16
2.10444e-16
1.5423e-16
3.56501e-17
1.68121e-16
1.62658e-16
2.27152e-16
3.20987e-16
3.57514e-16
3.33089e-16
2.76219e-16
2.46005e-16
2.31716e-16
1.95663e-16
2.50386e-16
3.7537e-16
3.89445e-16
3.72015e-16
4.0888e-16
4.14109e-16
4.88838e-16
6.01613e-16
7.1412e-16
7.91559e-16
8.58197e-16
9.39274e-16
9.51889e-16
7.81402e-16
5.89436e-16
4.47042e-16
2.20804e-16
1.39483e-16
6.30709e-17
5.99425e-17
5.24722e-17
5.95144e-17
1.39501e-17
3.30598e-17
6.09725e-17
2.99535e-17
1.66435e-17
5.36655e-17
8.73002e-17
1.69099e-16
2.21468e-16
1.95896e-16
2.04046e-16
1.27647e-16
5.88831e-17
5.33056e-17
3.31649e-17
4.94129e-17
4.79293e-17
5.99568e-17
9.02274e-17
1.24477e-16
1.62902e-16
2.09466e-16
2.62249e-16
2.49319e-16
1.74023e-16
1.69618e-16
1.31393e-16
3.36677e-17
1.38864e-16
1.56355e-16
2.02399e-16
2.91396e-16
3.22011e-16
2.98274e-16
2.44917e-16
2.19727e-16
2.07502e-16
1.87324e-16
2.33213e-16
3.48318e-16
3.67395e-16
3.6506e-16
3.93015e-16
4.0407e-16
4.74926e-16
5.7706e-16
6.85138e-16
7.62572e-16
8.26434e-16
8.95085e-16
9.00333e-16
7.46843e-16
5.55576e-16
4.10487e-16
2.11805e-16
1.34064e-16
6.68592e-17
5.29524e-17
4.69317e-17
5.1837e-17
1.52117e-17
2.54224e-17
5.31047e-17
2.72904e-17
3.17503e-14
1.84079e-14
1.5025e-14
7.00513e-15
2.79111e-15
2.29133e-14
2.75308e-14
6.75133e-14
2.02763e-14
3.12716e-14
1.11799e-15
1.02751e-15
1.13563e-14
3.00521e-14
9.58074e-15
2.19572e-14
2.33434e-15
3.00349e-15
4.24664e-14
2.57127e-14
4.5466e-14
4.66601e-14
2.1278e-14
1.40404e-14
8.34127e-15
3.2448e-15
2.06994e-15
1.96795e-14
9.21072e-15
4.05292e-15
7.86737e-15
8.71268e-15
2.58593e-14
1.43591e-14
5.23871e-14
2.41795e-14
3.22061e-14
2.05856e-14
2.03865e-15
8.74255e-16
2.52953e-15
3.51717e-15
9.49655e-16
1.47938e-14
4.84301e-15
4.78688e-15
5.61113e-15
4.24091e-15
7.4314e-15
3.79104e-14
2.81472e-14
4.54594e-14
1.70241e-15
1.65025e-16
7.02043e-15
2.23842e-14
9.76548e-15
2.17752e-14
4.29309e-15
8.28288e-15
2.45954e-14
1.32504e-14
1.40133e-14
6.98066e-15
2.72376e-15
1.70372e-14
2.31075e-14
5.63619e-14
1.48002e-14
2.47046e-14
1.02073e-15
9.1165e-16
8.03689e-15
2.3145e-14
6.08899e-15
1.64296e-14
1.89501e-15
1.73905e-15
3.38958e-14
2.07966e-14
4.31382e-14
3.79311e-14
1.68828e-14
1.32547e-14
8.02098e-15
3.2487e-15
1.9425e-15
1.46426e-14
8.41711e-15
4.02669e-15
7.32531e-15
5.59612e-15
1.90736e-14
1.09647e-14
4.25804e-14
1.80875e-14
2.97882e-14
1.53176e-14
1.89249e-15
8.54037e-16
2.46689e-15
3.34409e-15
1.00667e-15
1.09314e-14
4.50494e-15
4.64788e-15
5.43377e-15
4.27045e-15
7.1413e-15
3.01459e-14
2.26862e-14
3.71632e-14
1.48676e-15
1.41223e-16
4.42754e-15
1.63582e-14
6.55464e-15
1.60969e-14
3.57568e-15
5.05483e-15
1.89837e-14
9.83365e-15
1.14466e-14
6.70032e-15
2.44417e-15
1.30542e-14
1.7356e-14
4.4914e-14
1.07872e-14
1.98858e-14
1.04061e-15
6.46987e-16
5.78439e-15
1.72212e-14
3.8738e-15
1.26143e-14
1.1709e-15
9.56756e-16
2.70168e-14
1.61665e-14
3.67571e-14
3.15115e-14
1.26857e-14
1.09638e-14
7.09957e-15
3.2415e-15
1.57479e-15
1.16139e-14
6.94169e-15
3.86484e-15
5.92422e-15
4.10377e-15
1.34883e-14
7.49298e-15
3.38149e-14
1.38931e-14
2.38206e-14
1.25269e-14
1.57735e-15
7.46821e-16
2.33337e-15
3.05755e-15
1.09476e-15
8.4013e-15
3.81554e-15
4.28079e-15
5.06968e-15
4.307e-15
6.38817e-15
2.46606e-14
1.66527e-14
3.05528e-14
1.36778e-15
1.28227e-16
2.92237e-15
1.14708e-14
4.13714e-15
1.20906e-14
2.24503e-15
3.33485e-15
1.45257e-14
7.4493e-15
8.86275e-15
6.29955e-15
2.18152e-15
1.01593e-14
1.24659e-14
3.55372e-14
8.06675e-15
1.58976e-14
1.10357e-15
4.53378e-16
4.22086e-15
1.27114e-14
2.57942e-15
9.68752e-15
7.30026e-16
4.99177e-16
2.15301e-14
1.23246e-14
3.02899e-14
2.64529e-14
9.30447e-15
8.69137e-15
6.0636e-15
3.17133e-15
1.28861e-15
9.43257e-15
5.54779e-15
3.60763e-15
4.66552e-15
3.2857e-15
9.38272e-15
4.82921e-15
2.66982e-14
1.08643e-14
1.80945e-14
1.06752e-14
1.31082e-15
6.56929e-16
2.14774e-15
2.75952e-15
1.2201e-15
6.60571e-15
3.16887e-15
3.83454e-15
4.64118e-15
4.26907e-15
5.61525e-15
2.03266e-14
1.18372e-14
2.48356e-14
1.37502e-15
1.63787e-16
1.98678e-15
7.92833e-15
2.58066e-15
9.05074e-15
1.26929e-15
2.29854e-15
1.08481e-14
5.73459e-15
6.71586e-15
5.82402e-15
1.9489e-15
7.8035e-15
9.0238e-15
2.77006e-14
6.34383e-15
1.24765e-14
1.16416e-15
3.21844e-16
3.15869e-15
9.14783e-15
1.88491e-15
7.31836e-15
5.56059e-16
2.95477e-16
1.69283e-14
9.4044e-15
2.47037e-14
2.21057e-14
6.86191e-15
6.9102e-15
5.10827e-15
3.03091e-15
1.08481e-15
7.64404e-15
4.47494e-15
3.31047e-15
3.73271e-15
2.76617e-15
6.32337e-15
3.1069e-15
2.08632e-14
8.59915e-15
1.35617e-14
9.15063e-15
1.11828e-15
5.99011e-16
1.92691e-15
2.50735e-15
1.30547e-15
5.27213e-15
2.70279e-15
3.42578e-15
4.21586e-15
4.14019e-15
4.94154e-15
1.65352e-14
8.65609e-15
1.9729e-14
1.4777e-15
2.10119e-16
1.4027e-15
5.30654e-15
1.70351e-15
6.64011e-15
7.17778e-16
1.61764e-15
7.81971e-15
4.47061e-15
4.96464e-15
5.29646e-15
1.74369e-15
5.89321e-15
6.64337e-15
2.11306e-14
5.25781e-15
9.54318e-15
1.21642e-15
2.279e-16
2.41819e-15
6.32967e-15
1.51405e-15
5.37047e-15
5.2418e-16
2.24954e-16
1.30851e-14
7.24149e-15
1.99271e-14
1.83756e-14
5.12987e-15
5.53491e-15
4.24734e-15
2.83704e-15
9.3267e-16
6.13144e-15
3.66681e-15
2.99029e-15
3.02734e-15
2.39176e-15
4.05093e-15
2.02741e-15
1.60716e-14
6.91547e-15
1.00271e-14
7.82557e-15
9.81932e-16
5.66527e-16
1.69769e-15
2.29861e-15
1.34286e-15
4.26726e-15
2.37358e-15
3.06324e-15
3.80629e-15
3.93823e-15
4.36052e-15
1.31857e-14
6.62383e-15
1.51545e-14
1.62399e-15
2.48391e-16
1.013e-15
3.38996e-15
1.2036e-15
4.6979e-15
4.32486e-16
1.14937e-15
5.44878e-15
3.50009e-15
3.56571e-15
4.73944e-15
1.57256e-15
4.39363e-15
4.95603e-15
1.57699e-14
4.55046e-15
7.08383e-15
1.26092e-15
1.68104e-16
1.87353e-15
4.2113e-15
1.3017e-15
3.82633e-15
5.62193e-16
2.13607e-16
9.95982e-15
5.62244e-15
1.58677e-14
1.52227e-14
3.88369e-15
4.4549e-15
3.49688e-15
2.61034e-15
8.21692e-16
4.85312e-15
3.05634e-15
2.66431e-15
2.48709e-15
2.09336e-15
2.43657e-15
1.34042e-15
1.22119e-14
5.65256e-15
7.28049e-15
6.66332e-15
8.86244e-16
5.52488e-16
1.48005e-15
2.12462e-15
1.34321e-15
3.49972e-15
2.13224e-15
2.74584e-15
3.42472e-15
3.68368e-15
3.86234e-15
1.03064e-14
5.29234e-15
1.12226e-14
1.77542e-15
2.75392e-16
7.28036e-16
2.06952e-15
8.93276e-16
3.19619e-15
3.05959e-16
8.11633e-16
3.67927e-15
2.72836e-15
2.48653e-15
4.17099e-15
1.43572e-15
3.2595e-15
3.7444e-15
1.15605e-14
4.05751e-15
5.07903e-15
1.29517e-15
1.37004e-16
1.45496e-15
2.68916e-15
1.15744e-15
2.64974e-15
6.28683e-16
2.30062e-16
7.4834e-15
4.40084e-15
1.24679e-14
1.25629e-14
2.98106e-15
3.59871e-15
2.86657e-15
2.36464e-15
7.4398e-16
3.7908e-15
2.59285e-15
2.34524e-15
2.076e-15
1.83958e-15
1.35409e-15
9.03156e-16
9.16728e-15
4.68463e-15
5.19219e-15
5.63265e-15
8.21854e-16
5.502e-16
1.28688e-15
1.97566e-15
1.31542e-15
2.91167e-15
1.94946e-15
2.47168e-15
3.07869e-15
3.39873e-15
3.4413e-15
7.91318e-15
4.38079e-15
7.97548e-15
1.9012e-15
2.87904e-16
5.10507e-16
1.21302e-15
6.81551e-16
2.08744e-15
2.68725e-16
5.61618e-16
2.41263e-15
2.10117e-15
1.68255e-15
3.60344e-15
1.32748e-15
2.42891e-15
2.86624e-15
8.3311e-15
3.66696e-15
3.49074e-15
1.31158e-15
1.2518e-16
1.1234e-15
1.64278e-15
1.03306e-15
1.78576e-15
6.92599e-16
2.57855e-16
5.56548e-15
3.47518e-15
9.66512e-15
1.03187e-14
2.32728e-15
2.91191e-15
2.35203e-15
2.10736e-15
6.92089e-16
2.9297e-15
2.23362e-15
2.04111e-15
1.7613e-15
1.61527e-15
6.76085e-16
6.26516e-16
6.80923e-15
3.92482e-15
3.64957e-15
4.71596e-15
7.83915e-16
5.54713e-16
1.1249e-15
1.84031e-15
1.26896e-15
2.46239e-15
1.80501e-15
2.23646e-15
2.76974e-15
3.09727e-15
3.08672e-15
5.99059e-15
3.70722e-15
5.40753e-15
1.97457e-15
2.85103e-16
3.46763e-16
6.84465e-16
5.23072e-16
1.3034e-15
2.70673e-16
3.78083e-16
1.53503e-15
1.58854e-15
1.10288e-15
3.04832e-15
1.23767e-15
1.83514e-15
2.2219e-15
5.91143e-15
3.30979e-15
2.28178e-15
1.30037e-15
1.24722e-16
8.57958e-16
9.63529e-16
9.06354e-16
1.17508e-15
7.3304e-16
2.877e-16
4.11385e-15
2.76927e-15
7.39389e-15
8.42754e-15
1.85358e-15
2.35358e-15
1.9394e-15
1.84581e-15
6.58225e-16
2.25074e-15
1.94508e-15
1.757e-15
1.51624e-15
1.41375e-15
2.90492e-16
4.49638e-16
5.00951e-15
3.3126e-15
2.54635e-15
3.89936e-15
7.68518e-16
5.62736e-16
9.95882e-16
1.71023e-15
1.21368e-15
2.1198e-15
1.6851e-15
2.03512e-15
2.49648e-15
2.79322e-15
2.78674e-15
4.49413e-15
3.15919e-15
3.47503e-15
1.9755e-15
2.7109e-16
2.29905e-16
3.75765e-16
3.96353e-16
7.76418e-16
2.78707e-16
2.47964e-16
9.50661e-16
1.17279e-15
7.00705e-16
2.52183e-15
1.15818e-15
1.41753e-15
1.74303e-15
4.13969e-15
2.95433e-15
1.40736e-15
1.2538e-15
1.29485e-16
6.47329e-16
5.50183e-16
7.7275e-16
7.61432e-16
7.40272e-16
3.15015e-16
3.03785e-15
2.22611e-15
5.58679e-15
6.83621e-15
1.50905e-15
1.89404e-15
1.61224e-15
1.58987e-15
6.35407e-16
1.72948e-15
1.70242e-15
1.49807e-15
1.32025e-15
1.23254e-15
1.04482e-16
3.33132e-16
3.65898e-15
2.80714e-15
1.78558e-15
3.17806e-15
7.6944e-16
5.71603e-16
8.9718e-16
1.58185e-15
1.15714e-15
1.85793e-15
1.58102e-15
1.86285e-15
2.25635e-15
2.49905e-15
2.52646e-15
3.36016e-15
2.67755e-15
2.09352e-15
1.89646e-15
2.51875e-16
1.52881e-16
2.06182e-16
2.92726e-16
4.4115e-16
2.76479e-16
1.60057e-16
5.73604e-16
8.42569e-16
4.33531e-16
2.0411e-15
1.08261e-15
1.12447e-15
1.38394e-15
2.87378e-15
2.5922e-15
8.13214e-16
1.16958e-15
1.3697e-16
4.83671e-16
3.19109e-16
6.37414e-16
4.94539e-16
7.14261e-16
3.37466e-16
2.25456e-15
1.80383e-15
4.17538e-15
5.50094e-15
1.25614e-15
1.51247e-15
1.35427e-15
1.34937e-15
6.17329e-16
1.33879e-15
1.48934e-15
1.26808e-15
1.15864e-15
1.07088e-15
4.4567e-17
2.52867e-16
2.66241e-15
2.38174e-15
1.28185e-15
2.55191e-15
7.79159e-16
5.79362e-16
8.24023e-16
1.45546e-15
1.10422e-15
1.65605e-15
1.48777e-15
1.71476e-15
2.04623e-15
2.22448e-15
2.29305e-15
2.5209e-15
2.23866e-15
1.16689e-15
1.74351e-15
2.34273e-16
1.07373e-16
1.17871e-16
2.09489e-16
2.39738e-16
2.60187e-16
1.04811e-16
3.37951e-16
5.88142e-16
2.63848e-16
1.61853e-15
1.00686e-15
9.1668e-16
1.11354e-15
1.98835e-15
2.22786e-15
4.41771e-16
1.05132e-15
1.46005e-16
3.59993e-16
2.03883e-16
5.08684e-16
3.32265e-16
6.61502e-16
3.5388e-16
1.69334e-15
1.4722e-15
3.09215e-15
4.38644e-15
1.06695e-15
1.19418e-15
1.15068e-15
1.13197e-15
5.99867e-16
1.05152e-15
1.29714e-15
1.06955e-15
1.02103e-15
9.28498e-16
5.67671e-17
1.95142e-16
1.9382e-15
2.01931e-15
9.63067e-16
2.02063e-15
7.90494e-16
5.84467e-16
7.70332e-16
1.33441e-15
1.05692e-15
1.49749e-15
1.40252e-15
1.58674e-15
1.86271e-15
1.97561e-15
2.07698e-15
1.91478e-15
1.83879e-15
5.92657e-16
1.53284e-15
2.22835e-16
8.42875e-17
7.36798e-17
1.45686e-16
1.25783e-16
2.32881e-16
7.36261e-17
1.95426e-16
3.99081e-16
1.61086e-16
1.25923e-15
9.2851e-16
7.65825e-16
9.09448e-16
1.38048e-15
1.87219e-15
2.34676e-16
9.0821e-16
1.56326e-16
2.69474e-16
1.55959e-16
3.94591e-16
2.40621e-16
5.91618e-16
3.63873e-16
1.29566e-15
1.20959e-15
2.27394e-15
3.46395e-15
9.20961e-16
9.29e-16
9.88799e-16
9.42437e-16
5.80271e-16
8.42753e-16
1.12218e-15
9.0227e-16
9.00266e-16
8.0467e-16
1.03778e-16
1.52995e-16
1.41935e-15
1.70884e-15
7.70773e-16
1.58207e-15
7.97427e-16
5.85811e-16
7.30509e-16
1.22176e-15
1.01518e-15
1.37023e-15
1.32409e-15
1.47524e-15
1.70244e-15
1.75552e-15
1.87261e-15
1.48224e-15
1.48298e-15
2.72834e-16
1.28785e-15
2.19267e-16
7.477e-17
5.11723e-17
9.97373e-17
6.54866e-17
1.99966e-16
5.87651e-17
1.1157e-16
2.64332e-16
1.02038e-16
9.64392e-16
8.47033e-16
6.52993e-16
7.5496e-16
9.6946e-16
1.53831e-15
1.40069e-16
7.5272e-16
1.67172e-16
2.05438e-16
1.42405e-16
3.0101e-16
1.93432e-16
5.14614e-16
3.67322e-16
1.01538e-15
1.00043e-15
1.6653e-15
2.70805e-15
8.03428e-16
7.10052e-16
8.5789e-16
7.82045e-16
5.5654e-16
6.91371e-16
9.64103e-16
7.64226e-16
7.91858e-16
6.97897e-16
1.61411e-16
1.23199e-16
1.05243e-15
1.44309e-15
6.59935e-16
1.23103e-15
7.95705e-16
5.83311e-16
6.99847e-16
1.11973e-15
9.7797e-16
1.26554e-15
1.25189e-15
1.37735e-15
1.56227e-15
1.56452e-15
1.67782e-15
1.1775e-15
1.17687e-15
1.21966e-16
1.03344e-15
2.22246e-16
7.17734e-17
3.9065e-17
6.88018e-17
3.61626e-17
1.66474e-16
5.36166e-17
6.34232e-17
1.72861e-16
7.00833e-17
7.3011e-16
7.63246e-16
5.65826e-16
6.37292e-16
6.94403e-16
1.23707e-15
1.15267e-16
5.97698e-16
1.77336e-16
1.61582e-16
1.42626e-16
2.3031e-16
1.71818e-16
4.39074e-16
3.64581e-16
8.17724e-16
8.3327e-16
1.21915e-15
2.09595e-15
7.04143e-16
5.31991e-16
7.49175e-16
6.49805e-16
5.27766e-16
5.80966e-16
8.23834e-16
6.51832e-16
6.93352e-16
6.06189e-16
2.15326e-16
1.04164e-16
7.95512e-16
1.2173e-15
5.98175e-16
9.59605e-16
7.83185e-16
5.775e-16
6.74913e-16
1.02969e-15
9.43613e-16
1.17711e-15
1.18534e-15
1.2907e-15
1.4393e-15