/*--------------------------------*- C++ -*----------------------------------*\
| =========                 |                                                 |
| \\      /  F ield         | OpenFOAM: The Open Source CFD Toolbox           |
|  \\    /   O peration     | Version:  2312                                  |
|   \\  /    A nd           | Website:  www.openfoam.com                      |
|    \\/     M anipulation  |                                                 |
\*---------------------------------------------------------------------------*/
FoamFile
{
    version     2.0;
    format      ascii;
    arch        "LSB;label=32;scalar=64";
    class       volScalarField;
    location    "100";
    object      k;
}
// * * * * * * * * * * * * * * * * * * * * * * * * * * * * * * * * * * * * * //

dimensions      [0 2 -2 0 0 0 0];

internalField   nonuniform List<scalar> 
144000
(
3.59446e-05
3.59311e-05
3.59405e-05
3.59211e-05
3.60563e-05
3.59291e-05
3.60641e-05
3.60508e-05
3.60665e-05
3.59457e-05
3.59345e-05
3.59286e-05
3.59386e-05
3.59293e-05
3.60497e-05
3.60553e-05
3.5937e-05
3.59382e-05
3.5931e-05
3.60497e-05
3.60514e-05
3.59466e-05
3.59329e-05
3.6062e-05
3.59436e-05
3.59272e-05
3.60528e-05
3.59409e-05
3.59256e-05
3.60486e-05
3.59174e-05
3.60661e-05
3.59407e-05
3.60665e-05
3.60537e-05
3.6075e-05
3.59505e-05
3.60699e-05
3.59504e-05
3.59347e-05
3.60636e-05
3.59267e-05
3.59412e-05
3.59293e-05
3.60574e-05
3.60563e-05
3.59376e-05
3.59456e-05
3.59297e-05
3.59355e-05
3.59171e-05
3.60426e-05
3.59287e-05
3.59424e-05
3.60472e-05
3.60592e-05
3.59354e-05
3.59372e-05
3.59254e-05
3.59207e-05
6.79878e-05
6.79629e-05
6.79674e-05
6.79549e-05
6.78842e-05
6.79295e-05
6.78919e-05
6.78547e-05
6.7855e-05
6.79264e-05
6.79504e-05
6.79465e-05
6.79561e-05
6.79539e-05
6.78885e-05
6.78579e-05
6.79185e-05
6.79474e-05
6.79557e-05
6.78904e-05
6.78436e-05
6.79178e-05
6.79492e-05
6.78875e-05
6.79385e-05
6.79523e-05
6.78832e-05
6.79372e-05
6.79487e-05
6.78837e-05
6.79176e-05
6.78772e-05
6.79353e-05
6.78949e-05
6.78569e-05
6.7861e-05
6.79378e-05
6.78914e-05
6.79413e-05
6.79525e-05
6.78967e-05
6.79256e-05
6.79533e-05
6.79513e-05
6.78921e-05
6.786e-05
6.79156e-05
6.79556e-05
6.79531e-05
6.79604e-05
6.79518e-05
6.7873e-05
6.79133e-05
6.79563e-05
6.78876e-05
6.7858e-05
6.79192e-05
6.79427e-05
6.79493e-05
6.79443e-05
7.8267e-05
7.82393e-05
7.82289e-05
7.82258e-05
7.81432e-05
7.81845e-05
7.81395e-05
7.81006e-05
7.80803e-05
7.81526e-05
7.82006e-05
7.82036e-05
7.82099e-05
7.82157e-05
7.81507e-05
7.81001e-05
7.81574e-05
7.81917e-05
7.82143e-05
7.81544e-05
7.80865e-05
7.81459e-05
7.81993e-05
7.81336e-05
7.81784e-05
7.82133e-05
7.81385e-05
7.8182e-05
7.82106e-05
7.81434e-05
7.81802e-05
7.81191e-05
7.81775e-05
7.81383e-05
7.80999e-05
7.80823e-05
7.81659e-05
7.81261e-05
7.81765e-05
7.82051e-05
7.81464e-05
7.818e-05
7.82032e-05
7.82113e-05
7.81481e-05
7.8102e-05
7.81525e-05
7.81969e-05
7.82103e-05
7.82173e-05
7.8223e-05
7.81396e-05
7.81645e-05
7.82047e-05
7.81484e-05
7.80965e-05
7.8159e-05
7.81867e-05
7.82105e-05
7.82101e-05
8.07142e-05
8.06909e-05
8.06663e-05
8.06703e-05
8.06081e-05
8.06273e-05
8.05938e-05
8.05636e-05
8.05317e-05
8.05738e-05
8.06231e-05
8.06359e-05
8.06391e-05
8.06512e-05
8.06125e-05
8.05605e-05
8.0592e-05
8.06164e-05
8.06446e-05
8.06142e-05
8.05526e-05
8.05768e-05
8.06264e-05
8.05851e-05
8.06061e-05
8.06458e-05
8.0597e-05
8.06149e-05
8.06457e-05
8.06029e-05
8.06283e-05
8.05768e-05
8.06102e-05
8.05864e-05
8.05599e-05
8.05299e-05
8.05876e-05
8.05675e-05
8.05992e-05
8.06329e-05
8.05971e-05
8.06193e-05
8.06313e-05
8.06471e-05
8.06066e-05
8.05608e-05
8.05873e-05
8.06171e-05
8.064e-05
8.06454e-05
8.06627e-05
8.06079e-05
8.06122e-05
8.06338e-05
8.06074e-05
8.05547e-05
8.05929e-05
8.06124e-05
8.06422e-05
8.0645e-05
7.9735e-05
7.97196e-05
7.96887e-05
7.96922e-05
7.96514e-05
7.9656e-05
7.96313e-05
7.9612e-05
7.95792e-05
7.9596e-05
7.96304e-05
7.96493e-05
7.9652e-05
7.96656e-05
7.96483e-05
7.96091e-05
7.9621e-05
7.96317e-05
7.96558e-05
7.96448e-05
7.96079e-05
7.96104e-05
7.96391e-05
7.96199e-05
7.96276e-05
7.96571e-05
7.96341e-05
7.96389e-05
7.9661e-05
7.96392e-05
7.96575e-05
7.96218e-05
7.9635e-05
7.96196e-05
7.96055e-05
7.9575e-05
7.96071e-05
7.95978e-05
7.96146e-05
7.96436e-05
7.96275e-05
7.96426e-05
7.96466e-05
7.9663e-05
7.96431e-05
7.96069e-05
7.96179e-05
7.96291e-05
7.9652e-05
7.96564e-05
7.96765e-05
7.96501e-05
7.96459e-05
7.96525e-05
7.96416e-05
7.96039e-05
7.96209e-05
7.96295e-05
7.9653e-05
7.96585e-05
7.70828e-05
7.70728e-05
7.70449e-05
7.70429e-05
7.70169e-05
7.70144e-05
7.6995e-05
7.6984e-05
7.6959e-05
7.69626e-05
7.69776e-05
7.69962e-05
7.69989e-05
7.70112e-05
7.70052e-05
7.69842e-05
7.69857e-05
7.69879e-05
7.70021e-05
7.70001e-05
7.69858e-05
7.69768e-05
7.69913e-05
7.69839e-05
7.69863e-05
7.70031e-05
7.69959e-05
7.69968e-05
7.70097e-05
7.69999e-05
7.70143e-05
7.6993e-05
7.69962e-05
7.69836e-05
7.69763e-05
7.69536e-05
7.69683e-05
7.69625e-05
7.69704e-05
7.69897e-05
7.6985e-05
7.69968e-05
7.69975e-05
7.70108e-05
7.70023e-05
7.69804e-05
7.69844e-05
7.69851e-05
7.69997e-05
7.70026e-05
7.70198e-05
7.70101e-05
7.70109e-05
7.70083e-05
7.70015e-05
7.69778e-05
7.69846e-05
7.69863e-05
7.70001e-05
7.70054e-05
7.351e-05
7.35034e-05
7.34803e-05
7.34755e-05
7.34551e-05
7.3452e-05
7.34363e-05
7.34297e-05
7.34137e-05
7.3411e-05
7.34162e-05
7.34284e-05
7.34303e-05
7.344e-05
7.34391e-05
7.34317e-05
7.34283e-05
7.34296e-05
7.34351e-05
7.34352e-05
7.34314e-05
7.34229e-05
7.3429e-05
7.34264e-05
7.34274e-05
7.34343e-05
7.34338e-05
7.34342e-05
7.3441e-05
7.34372e-05
7.34485e-05
7.34378e-05
7.34381e-05
7.34272e-05
7.34229e-05
7.34079e-05
7.34139e-05
7.3409e-05
7.34123e-05
7.34221e-05
7.34218e-05
7.34312e-05
7.34313e-05
7.34409e-05
7.3438e-05
7.34276e-05
7.34298e-05
7.34281e-05
7.34346e-05
7.34351e-05
7.34469e-05
7.34457e-05
7.345e-05
7.34444e-05
7.34396e-05
7.34252e-05
7.34284e-05
7.34283e-05
7.3434e-05
7.34375e-05
6.93637e-05
6.93589e-05
6.9341e-05
6.93346e-05
6.93171e-05
6.93143e-05
6.9302e-05
6.92973e-05
6.92865e-05
6.92866e-05
6.92864e-05
6.92926e-05
6.92929e-05
6.92993e-05
6.92995e-05
6.92972e-05
6.92984e-05
6.92973e-05
6.92987e-05
6.92975e-05
6.92957e-05
6.92922e-05
6.92946e-05
6.92936e-05
6.92946e-05
6.92948e-05
6.92948e-05
6.92963e-05
6.92993e-05
6.92988e-05
6.93077e-05
6.93033e-05
6.9304e-05
6.92953e-05
6.92922e-05
6.92825e-05
6.92854e-05
6.92812e-05
6.92821e-05
6.92859e-05
6.92859e-05
6.92929e-05
6.9293e-05
6.92994e-05
6.92989e-05
6.92954e-05
6.92989e-05
6.92962e-05
6.92985e-05
6.92987e-05
6.93047e-05
6.93049e-05
6.93113e-05
6.93063e-05
6.93023e-05
6.92935e-05
6.92967e-05
6.9296e-05
6.92976e-05
6.92994e-05
6.48241e-05
6.48201e-05
6.48064e-05
6.47997e-05
6.47845e-05
6.47821e-05
6.47727e-05
6.4768e-05
6.47632e-05
6.47636e-05
6.47632e-05
6.47654e-05
6.47654e-05
6.47681e-05
6.47676e-05
6.4768e-05
6.477e-05
6.47697e-05
6.47684e-05
6.4764e-05
6.47663e-05
6.47664e-05
6.47665e-05
6.47658e-05
6.47666e-05
6.47656e-05
6.47643e-05
6.47654e-05
6.47663e-05
6.47662e-05
6.47734e-05
6.47722e-05
6.47738e-05
6.47676e-05
6.47651e-05
6.47586e-05
6.47609e-05
6.47578e-05
6.47566e-05
6.47589e-05
6.47581e-05
6.47627e-05
6.47628e-05
6.47666e-05
6.47666e-05
6.47655e-05
6.47702e-05
6.47685e-05
6.47699e-05
6.47695e-05
6.47716e-05
6.47713e-05
6.47774e-05
6.47742e-05
6.47699e-05
6.47653e-05
6.47686e-05
6.47684e-05
6.47684e-05
6.47697e-05
6.00033e-05
6e-05
5.99895e-05
5.99834e-05
5.99707e-05
5.99685e-05
5.99612e-05
5.99563e-05
5.99564e-05
5.99563e-05
5.99558e-05
5.99572e-05
5.99568e-05
5.99573e-05
5.99568e-05
5.99557e-05
5.99587e-05
5.99583e-05
5.99569e-05
5.99531e-05
5.99559e-05
5.99561e-05
5.99562e-05
5.99558e-05
5.99577e-05
5.99562e-05
5.99539e-05
5.99547e-05
5.99542e-05
5.99543e-05
5.99595e-05
5.99594e-05
5.99613e-05
5.99572e-05
5.9955e-05
5.99507e-05
5.99531e-05
5.99501e-05
5.99514e-05
5.99511e-05
5.99497e-05
5.99527e-05
5.99527e-05
5.99544e-05
5.99539e-05
5.9954e-05
5.99585e-05
5.99579e-05
5.99592e-05
5.99587e-05
5.99579e-05
5.99559e-05
5.9962e-05
5.99604e-05
5.99567e-05
5.99551e-05
5.99578e-05
5.99579e-05
5.99579e-05
5.99589e-05
5.49872e-05
5.49848e-05
5.49772e-05
5.49722e-05
5.49621e-05
5.49602e-05
5.49542e-05
5.49515e-05
5.49502e-05
5.49517e-05
5.49516e-05
5.49529e-05
5.49523e-05
5.49524e-05
5.49503e-05
5.49502e-05
5.49518e-05
5.49514e-05
5.49511e-05
5.49481e-05
5.49501e-05
5.495e-05
5.49504e-05
5.49501e-05
5.49525e-05
5.49515e-05
5.49491e-05
5.49498e-05
5.49494e-05
5.49488e-05
5.49521e-05
5.49521e-05
5.49538e-05
5.49512e-05
5.49489e-05
5.4947e-05
5.49491e-05
5.49477e-05
5.49485e-05
5.49484e-05
5.49461e-05
5.49483e-05
5.49485e-05
5.49488e-05
5.49485e-05
5.49476e-05
5.49518e-05
5.49515e-05
5.49528e-05
5.49521e-05
5.49503e-05
5.49483e-05
5.49531e-05
5.49525e-05
5.495e-05
5.49503e-05
5.4951e-05
5.49509e-05
5.49516e-05
5.49521e-05
4.98535e-05
4.9852e-05
4.9847e-05
4.98434e-05
4.98359e-05
4.98344e-05
4.983e-05
4.98272e-05
4.98279e-05
4.98282e-05
4.98282e-05
4.98296e-05
4.98293e-05
4.98291e-05
4.98276e-05
4.9826e-05
4.9828e-05
4.9828e-05
4.98275e-05
4.98256e-05
4.98269e-05
4.98271e-05
4.98277e-05
4.98277e-05
4.98294e-05
4.98287e-05
4.98269e-05
4.98275e-05
4.98273e-05
4.98257e-05
4.98281e-05
4.9828e-05
4.98292e-05
4.98274e-05
4.98256e-05
4.98259e-05
4.98269e-05
4.98262e-05
4.9827e-05
4.98267e-05
4.98251e-05
4.98266e-05
4.98265e-05
4.98266e-05
4.98253e-05
4.98253e-05
4.98278e-05
4.98278e-05
4.98288e-05
4.98283e-05
4.98268e-05
4.98251e-05
4.98285e-05
4.98282e-05
4.98273e-05
4.9826e-05
4.98273e-05
4.98276e-05
4.98275e-05
4.98282e-05
4.46777e-05
4.46769e-05
4.46743e-05
4.46721e-05
4.46672e-05
4.46663e-05
4.46632e-05
4.4662e-05
4.46614e-05
4.46623e-05
4.46624e-05
4.46636e-05
4.46633e-05
4.46635e-05
4.46618e-05
4.46613e-05
4.46626e-05
4.46626e-05
4.4662e-05
4.4661e-05
4.46617e-05
4.4662e-05
4.46625e-05
4.46624e-05
4.46637e-05
4.46633e-05
4.46621e-05
4.46626e-05
4.46621e-05
4.4661e-05
4.46622e-05
4.4662e-05
4.46628e-05
4.46612e-05
4.46615e-05
4.46613e-05
4.46623e-05
4.46616e-05
4.46621e-05
4.46621e-05
4.46611e-05
4.4662e-05
4.46619e-05
4.46616e-05
4.46605e-05
4.46603e-05
4.46621e-05
4.46622e-05
4.46629e-05
4.46626e-05
4.46618e-05
4.46604e-05
4.46626e-05
4.46624e-05
4.46612e-05
4.46616e-05
4.46616e-05
4.46618e-05
4.46619e-05
4.46625e-05
3.95353e-05
3.95352e-05
3.95345e-05
3.95336e-05
3.95311e-05
3.95309e-05
3.95292e-05
3.95283e-05
3.95285e-05
3.95292e-05
3.95295e-05
3.95305e-05
3.95308e-05
3.95307e-05
3.95298e-05
3.95296e-05
3.95304e-05
3.95301e-05
3.95299e-05
3.9529e-05
3.95292e-05
3.95296e-05
3.95303e-05
3.95299e-05
3.95308e-05
3.95305e-05
3.953e-05
3.95303e-05
3.95298e-05
3.95289e-05
3.95295e-05
3.95292e-05
3.95297e-05
3.95287e-05
3.95289e-05
3.9529e-05
3.95298e-05
3.95294e-05
3.95296e-05
3.95301e-05
3.95292e-05
3.95298e-05
3.95297e-05
3.95296e-05
3.9529e-05
3.9529e-05
3.953e-05
3.95301e-05
3.95305e-05
3.95303e-05
3.95298e-05
3.9529e-05
3.95302e-05
3.953e-05
3.95293e-05
3.95292e-05
3.95294e-05
3.95297e-05
3.95299e-05
3.95301e-05
3.45022e-05
3.45025e-05
3.45032e-05
3.45038e-05
3.45031e-05
3.45034e-05
3.45028e-05
3.45029e-05
3.45034e-05
3.45048e-05
3.45054e-05
3.45067e-05
3.45066e-05
3.45066e-05
3.45061e-05
3.45061e-05
3.45064e-05
3.4506e-05
3.45061e-05
3.45052e-05
3.45052e-05
3.45055e-05
3.45064e-05
3.45059e-05
3.45063e-05
3.4506e-05
3.45059e-05
3.45061e-05
3.45056e-05
3.45052e-05
3.45053e-05
3.45049e-05
3.45051e-05
3.45044e-05
3.45044e-05
3.45047e-05
3.45057e-05
3.45053e-05
3.45054e-05
3.4506e-05
3.45053e-05
3.45056e-05
3.45059e-05
3.45066e-05
3.45059e-05
3.45058e-05
3.45062e-05
3.45069e-05
3.45072e-05
3.45067e-05
3.45065e-05
3.4506e-05
3.45064e-05
3.45062e-05
3.45057e-05
3.45056e-05
3.45058e-05
3.45064e-05
3.45061e-05
3.45063e-05
2.96533e-05
2.96539e-05
2.96555e-05
2.96577e-05
2.96583e-05
2.966e-05
2.96604e-05
2.96612e-05
2.96622e-05
2.96644e-05
2.9665e-05
2.96661e-05
2.96656e-05
2.96655e-05
2.96659e-05
2.96652e-05
2.96654e-05
2.96651e-05
2.96652e-05
2.96642e-05
2.96644e-05
2.96647e-05
2.96656e-05
2.9665e-05
2.96652e-05
2.9665e-05
2.96649e-05
2.96648e-05
2.96646e-05
2.96643e-05
2.96642e-05
2.9664e-05
2.96642e-05
2.96635e-05
2.96634e-05
2.96637e-05
2.9665e-05
2.96645e-05
2.96644e-05
2.96651e-05
2.96644e-05
2.96647e-05
2.96652e-05
2.96662e-05
2.96654e-05
2.96655e-05
2.96657e-05
2.96667e-05
2.96662e-05
2.96663e-05
2.96658e-05
2.96659e-05
2.96658e-05
2.96657e-05
2.96655e-05
2.96654e-05
2.96652e-05
2.96657e-05
2.96658e-05
2.9666e-05
2.50611e-05
2.5062e-05
2.50639e-05
2.50677e-05
2.50692e-05
2.50721e-05
2.50731e-05
2.50752e-05
2.50765e-05
2.50794e-05
2.5079e-05
2.5079e-05
2.50792e-05
2.50799e-05
2.50808e-05
2.50797e-05
2.50799e-05
2.50795e-05
2.50795e-05
2.50789e-05
2.50787e-05
2.50791e-05
2.50804e-05
2.50793e-05
2.50794e-05
2.50795e-05
2.50789e-05
2.50793e-05
2.50787e-05
2.50784e-05
2.50788e-05
2.50789e-05
2.50785e-05
2.50783e-05
2.50781e-05
2.50786e-05
2.50799e-05
2.5079e-05
2.50792e-05
2.50798e-05
2.5079e-05
2.50792e-05
2.508e-05
2.50798e-05
2.50799e-05
2.50796e-05
2.508e-05
2.50808e-05
2.50814e-05
2.50809e-05
2.50805e-05
2.50804e-05
2.50809e-05
2.50805e-05
2.50802e-05
2.50799e-05
2.50798e-05
2.50812e-05
2.50804e-05
2.50801e-05
2.0793e-05
2.07939e-05
2.07962e-05
2.08009e-05
2.08033e-05
2.08067e-05
2.08085e-05
2.08113e-05
2.0813e-05
2.08162e-05
2.08155e-05
2.08157e-05
2.08166e-05
2.08163e-05
2.08161e-05
2.08159e-05
2.08163e-05
2.08163e-05
2.08163e-05
2.08157e-05
2.08158e-05
2.08158e-05
2.08162e-05
2.08156e-05
2.08154e-05
2.08167e-05
2.08162e-05
2.08164e-05
2.08161e-05
2.08167e-05
2.08162e-05
2.0816e-05
2.08157e-05
2.08152e-05
2.08158e-05
2.08161e-05
2.08165e-05
2.08167e-05
2.08162e-05
2.08165e-05
2.0816e-05
2.08164e-05
2.08163e-05
2.08167e-05
2.08164e-05
2.08168e-05
2.08168e-05
2.08173e-05
2.08186e-05
2.0818e-05
2.0818e-05
2.08178e-05
2.08177e-05
2.08179e-05
2.08174e-05
2.08173e-05
2.08173e-05
2.08189e-05
2.08177e-05
2.08178e-05
1.69082e-05
1.69091e-05
1.69115e-05
1.69167e-05
1.69198e-05
1.69232e-05
1.69257e-05
1.69286e-05
1.69312e-05
1.69344e-05
1.6934e-05
1.69344e-05
1.69347e-05
1.69344e-05
1.69346e-05
1.69343e-05
1.69347e-05
1.69346e-05
1.69342e-05
1.69339e-05
1.6934e-05
1.69348e-05
1.69341e-05
1.69345e-05
1.69345e-05
1.69346e-05
1.69349e-05
1.69348e-05
1.69351e-05
1.69352e-05
1.69348e-05
1.69347e-05
1.69345e-05
1.69342e-05
1.69349e-05
1.69354e-05
1.69355e-05
1.69349e-05
1.69349e-05
1.69367e-05
1.69353e-05
1.69354e-05
1.69353e-05
1.69355e-05
1.69359e-05
1.69354e-05
1.69357e-05
1.69367e-05
1.69375e-05
1.69366e-05
1.69362e-05
1.69358e-05
1.69358e-05
1.69357e-05
1.69362e-05
1.69366e-05
1.69366e-05
1.69365e-05
1.69362e-05
1.69365e-05
1.34537e-05
1.34546e-05
1.34572e-05
1.34622e-05
1.34659e-05
1.3469e-05
1.3472e-05
1.34745e-05
1.34781e-05
1.34801e-05
1.34831e-05
1.34821e-05
1.34823e-05
1.34821e-05
1.34817e-05
1.34818e-05
1.34819e-05
1.34814e-05
1.34816e-05
1.34818e-05
1.34815e-05
1.34817e-05
1.34816e-05
1.34811e-05
1.3481e-05
1.34819e-05
1.34831e-05
1.34836e-05
1.34821e-05
1.34818e-05
1.34825e-05
1.34819e-05
1.34821e-05
1.34817e-05
1.34826e-05
1.3484e-05
1.34829e-05
1.34827e-05
1.34839e-05
1.34854e-05
1.34838e-05
1.34842e-05
1.34832e-05
1.34832e-05
1.3483e-05
1.34834e-05
1.3483e-05
1.34842e-05
1.34838e-05
1.34841e-05
1.34836e-05
1.3483e-05
1.34827e-05
1.34829e-05
1.34846e-05
1.34834e-05
1.34836e-05
1.34835e-05
1.34837e-05
1.34836e-05
1.04614e-05
1.0462e-05
1.04641e-05
1.04687e-05
1.04725e-05
1.04754e-05
1.04782e-05
1.0481e-05
1.04842e-05
1.04872e-05
1.049e-05
1.04894e-05
1.04894e-05
1.04888e-05
1.04888e-05
1.04885e-05
1.04887e-05
1.04885e-05
1.04883e-05
1.04888e-05
1.04884e-05
1.04884e-05
1.04883e-05
1.04883e-05
1.04881e-05
1.04896e-05
1.04902e-05
1.0489e-05
1.04888e-05
1.04884e-05
1.04888e-05
1.04888e-05
1.04892e-05
1.04886e-05
1.04914e-05
1.04907e-05
1.04906e-05
1.04907e-05
1.04908e-05
1.04916e-05
1.0491e-05
1.04913e-05
1.04908e-05
1.04908e-05
1.04903e-05
1.04907e-05
1.04902e-05
1.04913e-05
1.0491e-05
1.04915e-05
1.04913e-05
1.04902e-05
1.04904e-05
1.04906e-05
1.049e-05
1.04906e-05
1.04903e-05
1.04899e-05
1.04919e-05
1.04916e-05
7.94143e-06
7.942e-06
7.94391e-06
7.94796e-06
7.95149e-06
7.95429e-06
7.95664e-06
7.95954e-06
7.96214e-06
7.96558e-06
7.96762e-06
7.9691e-06
7.96764e-06
7.96754e-06
7.96739e-06
7.96715e-06
7.96709e-06
7.96704e-06
7.96736e-06
7.96742e-06
7.9676e-06
7.96688e-06
7.96798e-06
7.96763e-06
7.96771e-06
7.96774e-06
7.9676e-06
7.96739e-06
7.9678e-06
7.96723e-06
7.96685e-06
7.96753e-06
7.96711e-06
7.96717e-06
7.97068e-06
7.97042e-06
7.97062e-06
7.9714e-06
7.97066e-06
7.97096e-06
7.97046e-06
7.97005e-06
7.96942e-06
7.97002e-06
7.9692e-06
7.96915e-06
7.97004e-06
7.97045e-06
7.97148e-06
7.97041e-06
7.97059e-06
7.96986e-06
7.97003e-06
7.97005e-06
7.96921e-06
7.96919e-06
7.969e-06
7.96939e-06
7.97026e-06
7.96953e-06
5.88475e-06
5.88522e-06
5.88696e-06
5.89027e-06
5.89341e-06
5.89563e-06
5.89778e-06
5.90016e-06
5.90295e-06
5.90519e-06
5.90782e-06
5.90664e-06
5.90652e-06
5.90597e-06
5.9057e-06
5.90814e-06
5.90795e-06
5.9081e-06
5.90814e-06
5.90805e-06
5.90769e-06
5.90908e-06
5.90971e-06
5.90838e-06
5.90847e-06
5.9086e-06
5.90801e-06
5.90876e-06
5.90828e-06
5.90824e-06
5.90812e-06
5.90789e-06
5.90781e-06
5.90823e-06
5.91075e-06
5.91311e-06
5.9125e-06
5.91251e-06
5.91218e-06
5.9121e-06
5.91165e-06
5.91126e-06
5.91111e-06
5.91129e-06
5.9108e-06
5.91074e-06
5.91063e-06
5.91087e-06
5.91072e-06
5.91144e-06
5.91097e-06
5.91063e-06
5.91095e-06
5.91057e-06
5.91006e-06
5.90993e-06
5.91001e-06
5.91091e-06
5.90985e-06
5.91009e-06
4.26056e-06
4.2609e-06
4.26227e-06
4.2648e-06
4.26739e-06
4.26876e-06
4.27092e-06
4.27241e-06
4.27535e-06
4.27535e-06
4.27528e-06
4.27522e-06
4.27566e-06
4.27501e-06
4.27552e-06
4.27976e-06
4.27957e-06
4.27963e-06
4.2794e-06
4.27948e-06
4.27999e-06
4.28026e-06
4.27955e-06
4.27945e-06
4.27988e-06
4.27917e-06
4.27946e-06
4.27931e-06
4.27951e-06
4.27952e-06
4.28078e-06
4.28004e-06
4.27989e-06
4.2802e-06
4.28237e-06
4.28328e-06
4.28487e-06
4.28393e-06
4.28415e-06
4.28373e-06
4.28325e-06
4.28311e-06
4.28372e-06
4.28404e-06
4.28333e-06
4.28333e-06
4.28305e-06
4.28268e-06
4.2826e-06
4.28222e-06
4.28205e-06
4.28237e-06
4.28222e-06
4.28235e-06
4.28235e-06
4.28208e-06
4.28313e-06
4.28241e-06
4.28258e-06
4.28226e-06
3.01958e-06
3.01981e-06
3.02075e-06
3.0227e-06
3.02462e-06
3.02567e-06
3.02765e-06
3.0281e-06
3.02792e-06
3.02891e-06
3.02837e-06
3.02872e-06
3.02857e-06
3.02815e-06
3.03013e-06
3.03312e-06
3.03405e-06
3.03343e-06
3.03335e-06
3.03421e-06
3.03366e-06
3.03367e-06
3.03349e-06
3.03359e-06
3.03318e-06
3.03321e-06
3.03326e-06
3.03363e-06
3.03327e-06
3.03498e-06
3.03491e-06
3.03525e-06
3.03496e-06
3.03484e-06
3.03592e-06
3.03755e-06
3.03727e-06
3.03734e-06
3.03715e-06
3.03716e-06
3.03782e-06
3.03748e-06
3.03784e-06
3.0378e-06
3.03803e-06
3.03792e-06
3.038e-06
3.03786e-06
3.03715e-06
3.03679e-06
3.03759e-06
3.03697e-06
3.03712e-06
3.03695e-06
3.03673e-06
3.03727e-06
3.03729e-06
3.0374e-06
3.03707e-06
3.03715e-06
3.60789e-05
3.59468e-05
3.59468e-05
3.59242e-05
3.59287e-05
3.59202e-05
3.60481e-05
3.60516e-05
3.59566e-05
3.59324e-05
3.60632e-05
3.59344e-05
3.60621e-05
3.6059e-05
3.59522e-05
3.59361e-05
3.60596e-05
3.59466e-05
3.59337e-05
3.60559e-05
3.60468e-05
3.60738e-05
3.59475e-05
3.59405e-05
3.59319e-05
3.59176e-05
3.59298e-05
3.59146e-05
3.6057e-05
3.59194e-05
3.60544e-05
3.59385e-05
3.59326e-05
3.6049e-05
3.60633e-05
3.59448e-05
3.59553e-05
3.59195e-05
3.60626e-05
3.59176e-05
3.60737e-05
3.5926e-05
3.60696e-05
3.5926e-05
3.59278e-05
3.5923e-05
3.59189e-05
3.5918e-05
3.59273e-05
3.59295e-05
3.60374e-05
3.60586e-05
3.59308e-05
3.60661e-05
3.59385e-05
3.59405e-05
3.60527e-05
3.60702e-05
3.59437e-05
3.60593e-05
6.79057e-05
6.79448e-05
6.79693e-05
6.79582e-05
6.79522e-05
6.79466e-05
6.78853e-05
6.78378e-05
6.79246e-05
6.79519e-05
6.78899e-05
6.79349e-05
6.78921e-05
6.78546e-05
6.79274e-05
6.79553e-05
6.78864e-05
6.79396e-05
6.79582e-05
6.78974e-05
6.78463e-05
6.78529e-05
6.79285e-05
6.79517e-05
6.79581e-05
6.79462e-05
6.79507e-05
6.7941e-05
6.78829e-05
6.79205e-05
6.78708e-05
6.79214e-05
6.79516e-05
6.78815e-05
6.7853e-05
6.79123e-05
6.79708e-05
6.79514e-05
6.78895e-05
6.79195e-05
6.78865e-05
6.79236e-05
6.78885e-05
6.79252e-05
6.794e-05
6.794e-05
6.79385e-05
6.79361e-05
6.79409e-05
6.79553e-05
6.78785e-05
6.78469e-05
6.79152e-05
6.78806e-05
6.79242e-05
6.79553e-05
6.78876e-05
6.78636e-05
6.79347e-05
6.78863e-05
7.81579e-05
7.8193e-05
7.82199e-05
7.8226e-05
7.82204e-05
7.82156e-05
7.81524e-05
7.80782e-05
7.81439e-05
7.82015e-05
7.81364e-05
7.81835e-05
7.81408e-05
7.8091e-05
7.81514e-05
7.82061e-05
7.81349e-05
7.81788e-05
7.82141e-05
7.81573e-05
7.80972e-05
7.80731e-05
7.81526e-05
7.81933e-05
7.82157e-05
7.82157e-05
7.82148e-05
7.82107e-05
7.81372e-05
7.81795e-05
7.81196e-05
7.81602e-05
7.82053e-05
7.81403e-05
7.80875e-05
7.81372e-05
7.82054e-05
7.8214e-05
7.8143e-05
7.81791e-05
7.81253e-05
7.81733e-05
7.81267e-05
7.81751e-05
7.81954e-05
7.8201e-05
7.82015e-05
7.8202e-05
7.8201e-05
7.82156e-05
7.8149e-05
7.80842e-05
7.81551e-05
7.81161e-05
7.8161e-05
7.82032e-05
7.8144e-05
7.8094e-05
7.81706e-05
7.81284e-05
8.06211e-05
8.06313e-05
8.06453e-05
8.06633e-05
8.06608e-05
8.06577e-05
8.06198e-05
8.0547e-05
8.05699e-05
8.06248e-05
8.0586e-05
8.0617e-05
8.0593e-05
8.05483e-05
8.05749e-05
8.06305e-05
8.05872e-05
8.0607e-05
8.06422e-05
8.06123e-05
8.05674e-05
8.05243e-05
8.05733e-05
8.06123e-05
8.06408e-05
8.06525e-05
8.06524e-05
8.06543e-05
8.05984e-05
8.06239e-05
8.05802e-05
8.05952e-05
8.06341e-05
8.05998e-05
8.05466e-05
8.05674e-05
8.06133e-05
8.06469e-05
8.05979e-05
8.0623e-05
8.05779e-05
8.06107e-05
8.05749e-05
8.0609e-05
8.06276e-05
8.06367e-05
8.06393e-05
8.06437e-05
8.06408e-05
8.06499e-05
8.06159e-05
8.05473e-05
8.05904e-05
8.05637e-05
8.05895e-05
8.06275e-05
8.05993e-05
8.05467e-05
8.05975e-05
8.05759e-05
7.96661e-05
7.96627e-05
7.9661e-05
7.96769e-05
7.96772e-05
7.96772e-05
7.96587e-05
7.96087e-05
7.96019e-05
7.96345e-05
7.96176e-05
7.96369e-05
7.96252e-05
7.9596e-05
7.96017e-05
7.96381e-05
7.96202e-05
7.96277e-05
7.96518e-05
7.96407e-05
7.96188e-05
7.95751e-05
7.95964e-05
7.96214e-05
7.96451e-05
7.96645e-05
7.96669e-05
7.96741e-05
7.96392e-05
7.96522e-05
7.9625e-05
7.96245e-05
7.96476e-05
7.96343e-05
7.95979e-05
7.96006e-05
7.96169e-05
7.96561e-05
7.96307e-05
7.96488e-05
7.96173e-05
7.96365e-05
7.96112e-05
7.96308e-05
7.96433e-05
7.96532e-05
7.96568e-05
7.96641e-05
7.96625e-05
7.96657e-05
7.96518e-05
7.96031e-05
7.96204e-05
7.96015e-05
7.96129e-05
7.96372e-05
7.96287e-05
7.95933e-05
7.96185e-05
7.96088e-05
7.70355e-05
7.70278e-05
7.70143e-05
7.70222e-05
7.70235e-05
7.70251e-05
7.70174e-05
7.69922e-05
7.69715e-05
7.69867e-05
7.69793e-05
7.69913e-05
7.69852e-05
7.69705e-05
7.69652e-05
7.69853e-05
7.69808e-05
7.69839e-05
7.69972e-05
7.69936e-05
7.69868e-05
7.69601e-05
7.69635e-05
7.69728e-05
7.69871e-05
7.70059e-05
7.70102e-05
7.70216e-05
7.70035e-05
7.70103e-05
7.69951e-05
7.69879e-05
7.69988e-05
7.69943e-05
7.69755e-05
7.69689e-05
7.69711e-05
7.69982e-05
7.69888e-05
7.70038e-05
7.69845e-05
7.69959e-05
7.69786e-05
7.69883e-05
7.69939e-05
7.70021e-05
7.70059e-05
7.70135e-05
7.70139e-05
7.70141e-05
7.70098e-05
7.69829e-05
7.69862e-05
7.6971e-05
7.69754e-05
7.6985e-05
7.69847e-05
7.69675e-05
7.69775e-05
7.69723e-05
7.3478e-05
7.34704e-05
7.34523e-05
7.34508e-05
7.34523e-05
7.34543e-05
7.3451e-05
7.34416e-05
7.34217e-05
7.34259e-05
7.34206e-05
7.34282e-05
7.34239e-05
7.3417e-05
7.34109e-05
7.34201e-05
7.34199e-05
7.34217e-05
7.34277e-05
7.34262e-05
7.3429e-05
7.34179e-05
7.34113e-05
7.34135e-05
7.3419e-05
7.34315e-05
7.3436e-05
7.34482e-05
7.34415e-05
7.34465e-05
7.34391e-05
7.34313e-05
7.34343e-05
7.34324e-05
7.34225e-05
7.34187e-05
7.34115e-05
7.34285e-05
7.34259e-05
7.34383e-05
7.34279e-05
7.34355e-05
7.34243e-05
7.34285e-05
7.34297e-05
7.34347e-05
7.34379e-05
7.34422e-05
7.3446e-05
7.34455e-05
7.34439e-05
7.34327e-05
7.34302e-05
7.34175e-05
7.34205e-05
7.34202e-05
7.34229e-05
7.34145e-05
7.34185e-05
7.34152e-05
6.93418e-05
6.93356e-05
6.93177e-05
6.93121e-05
6.93083e-05
6.93121e-05
6.93092e-05
6.93058e-05
6.92955e-05
6.92926e-05
6.92857e-05
6.9292e-05
6.92882e-05
6.92859e-05
6.92825e-05
6.92852e-05
6.92852e-05
6.92859e-05
6.92879e-05
6.92876e-05
6.92932e-05
6.92891e-05
6.92843e-05
6.9281e-05
6.9284e-05
6.92891e-05
6.92924e-05
6.93026e-05
6.93018e-05
6.93068e-05
6.93035e-05
6.92989e-05
6.92963e-05
6.9294e-05
6.9289e-05
6.92896e-05
6.92843e-05
6.92918e-05
6.92905e-05
6.92996e-05
6.92945e-05
6.93002e-05
6.92935e-05
6.92952e-05
6.92953e-05
6.92969e-05
6.9299e-05
6.93004e-05
6.9306e-05
6.93052e-05
6.93047e-05
6.93e-05
6.92981e-05
6.92885e-05
6.92908e-05
6.92888e-05
6.92876e-05
6.92822e-05
6.92853e-05
6.92833e-05
6.48086e-05
6.48039e-05
6.47897e-05
6.47801e-05
6.47753e-05
6.47773e-05
6.47735e-05
6.47732e-05
6.47699e-05
6.4765e-05
6.47582e-05
6.47631e-05
6.47597e-05
6.47603e-05
6.47603e-05
6.47584e-05
6.47562e-05
6.47574e-05
6.47576e-05
6.47566e-05
6.47622e-05
6.47614e-05
6.47586e-05
6.47559e-05
6.4757e-05
6.47578e-05
6.47598e-05
6.47666e-05
6.47666e-05
6.47724e-05
6.47712e-05
6.47693e-05
6.47655e-05
6.47625e-05
6.47632e-05
6.47638e-05
6.47605e-05
6.47636e-05
6.47624e-05
6.47683e-05
6.47659e-05
6.47703e-05
6.47666e-05
6.47676e-05
6.47677e-05
6.4767e-05
6.47694e-05
6.47696e-05
6.47741e-05
6.47732e-05
6.47723e-05
6.47688e-05
6.47705e-05
6.47649e-05
6.47668e-05
6.47633e-05
6.47597e-05
6.47547e-05
6.47577e-05
6.47569e-05
5.99922e-05
5.99887e-05
5.99782e-05
5.9969e-05
5.99626e-05
5.99618e-05
5.99577e-05
5.99605e-05
5.99595e-05
5.99561e-05
5.99501e-05
5.99535e-05
5.99517e-05
5.99523e-05
5.99522e-05
5.99501e-05
5.99477e-05
5.99485e-05
5.99484e-05
5.99465e-05
5.99508e-05
5.99508e-05
5.99497e-05
5.99487e-05
5.99476e-05
5.99492e-05
5.99495e-05
5.99526e-05
5.99529e-05
5.9958e-05
5.99574e-05
5.99584e-05
5.99569e-05
5.99537e-05
5.9952e-05
5.99555e-05
5.99533e-05
5.99545e-05
5.99533e-05
5.99569e-05
5.99556e-05
5.99589e-05
5.99569e-05
5.99579e-05
5.99575e-05
5.99576e-05
5.99587e-05
5.99585e-05
5.9961e-05
5.99605e-05
5.99591e-05
5.99572e-05
5.996e-05
5.99566e-05
5.99585e-05
5.9956e-05
5.99507e-05
5.99468e-05
5.99491e-05
5.99488e-05
5.49795e-05
5.49772e-05
5.49697e-05
5.49629e-05
5.49552e-05
5.49539e-05
5.49501e-05
5.49527e-05
5.49524e-05
5.49508e-05
5.49472e-05
5.49491e-05
5.4948e-05
5.49465e-05
5.49483e-05
5.4947e-05
5.49443e-05
5.49451e-05
5.49446e-05
5.49429e-05
5.49452e-05
5.4945e-05
5.49454e-05
5.49451e-05
5.49462e-05
5.49459e-05
5.49468e-05
5.49469e-05
5.4947e-05
5.49505e-05
5.49505e-05
5.49525e-05
5.49515e-05
5.49482e-05
5.49489e-05
5.49504e-05
5.49496e-05
5.49499e-05
5.49487e-05
5.49509e-05
5.49501e-05
5.49527e-05
5.49516e-05
5.49525e-05
5.49526e-05
5.49522e-05
5.49532e-05
5.49531e-05
5.49546e-05
5.49541e-05
5.49516e-05
5.49511e-05
5.49538e-05
5.49517e-05
5.49536e-05
5.49519e-05
5.49476e-05
5.49442e-05
5.49457e-05
5.49455e-05
4.98483e-05
4.9847e-05
4.98422e-05
4.98377e-05
4.98314e-05
4.98298e-05
4.98261e-05
4.98277e-05
4.98276e-05
4.98274e-05
4.98254e-05
4.98266e-05
4.9825e-05
4.98252e-05
4.98263e-05
4.98253e-05
4.98231e-05
4.98236e-05
4.98233e-05
4.98213e-05
4.98226e-05
4.98225e-05
4.9824e-05
4.98239e-05
4.98249e-05
4.98248e-05
4.98244e-05
4.98252e-05
4.98246e-05
4.98267e-05
4.98264e-05
4.98283e-05
4.98279e-05
4.98261e-05
4.98263e-05
4.98279e-05
4.98275e-05
4.98267e-05
4.98249e-05
4.98271e-05
4.98268e-05
4.9829e-05
4.98284e-05
4.98292e-05
4.98291e-05
4.98293e-05
4.98299e-05
4.98299e-05
4.98308e-05
4.98304e-05
4.98282e-05
4.98286e-05
4.98301e-05
4.98288e-05
4.98303e-05
4.98294e-05
4.98264e-05
4.98238e-05
4.98245e-05
4.98242e-05
4.46742e-05
4.46738e-05
4.46715e-05
4.4669e-05
4.46648e-05
4.46635e-05
4.46606e-05
4.46609e-05
4.46617e-05
4.46614e-05
4.46603e-05
4.46612e-05
4.46605e-05
4.46598e-05
4.46612e-05
4.46605e-05
4.46591e-05
4.46594e-05
4.46591e-05
4.46574e-05
4.4658e-05
4.46581e-05
4.46592e-05
4.46591e-05
4.46599e-05
4.46598e-05
4.466e-05
4.46602e-05
4.46597e-05
4.4661e-05
4.46609e-05
4.46621e-05
4.46618e-05
4.46608e-05
4.46612e-05
4.46624e-05
4.4662e-05
4.46609e-05
4.46598e-05
4.46614e-05
4.46613e-05
4.4663e-05
4.46627e-05
4.46631e-05
4.46633e-05
4.46632e-05
4.46639e-05
4.46639e-05
4.46647e-05
4.46645e-05
4.46634e-05
4.46629e-05
4.46645e-05
4.46635e-05
4.46645e-05
4.4664e-05
4.46621e-05
4.46605e-05
4.46603e-05
4.46597e-05
3.95332e-05
3.95336e-05
3.9533e-05
3.95321e-05
3.95303e-05
3.95297e-05
3.9528e-05
3.95281e-05
3.95289e-05
3.95286e-05
3.95279e-05
3.95285e-05
3.95278e-05
3.95278e-05
3.95289e-05
3.95282e-05
3.95278e-05
3.95277e-05
3.95274e-05
3.9526e-05
3.95262e-05
3.95266e-05
3.95273e-05
3.95274e-05
3.95278e-05
3.95279e-05
3.95279e-05
3.95283e-05
3.95277e-05
3.95285e-05
3.95283e-05
3.9529e-05
3.95288e-05
3.95283e-05
3.95285e-05
3.95298e-05
3.95294e-05
3.95288e-05
3.95282e-05
3.95291e-05
3.95288e-05
3.95301e-05
3.95298e-05
3.953e-05
3.95303e-05
3.95308e-05
3.95311e-05
3.95316e-05
3.95323e-05
3.95322e-05
3.9531e-05
3.95311e-05
3.95321e-05
3.95312e-05
3.95317e-05
3.95315e-05
3.95304e-05
3.95293e-05
3.9529e-05
3.95287e-05
3.45015e-05
3.45021e-05
3.45029e-05
3.45035e-05
3.45034e-05
3.45035e-05
3.4503e-05
3.45033e-05
3.45046e-05
3.45043e-05
3.45043e-05
3.45044e-05
3.4504e-05
3.4504e-05
3.45049e-05
3.45043e-05
3.45044e-05
3.45044e-05
3.4504e-05
3.45031e-05
3.45032e-05
3.45034e-05
3.45043e-05
3.45042e-05
3.45042e-05
3.45045e-05
3.45044e-05
3.45046e-05
3.45039e-05
3.45044e-05
3.45041e-05
3.45046e-05
3.45043e-05
3.45043e-05
3.45046e-05
3.45056e-05
3.45053e-05
3.45053e-05
3.45048e-05
3.45052e-05
3.45048e-05
3.45056e-05
3.45054e-05
3.45056e-05
3.4506e-05
3.45069e-05
3.45076e-05
3.45085e-05
3.4509e-05
3.45088e-05
3.45078e-05
3.45077e-05
3.45083e-05
3.45074e-05
3.45075e-05
3.45077e-05
3.45068e-05
3.45067e-05
3.45065e-05
3.45063e-05
2.96536e-05
2.96543e-05
2.96561e-05
2.96582e-05
2.96591e-05
2.96609e-05
2.96614e-05
2.96622e-05
2.96642e-05
2.96638e-05
2.96637e-05
2.96637e-05
2.96635e-05
2.96636e-05
2.96642e-05
2.96638e-05
2.96639e-05
2.96639e-05
2.96636e-05
2.96634e-05
2.96634e-05
2.96637e-05
2.96646e-05
2.96641e-05
2.96641e-05
2.96641e-05
2.96642e-05
2.96641e-05
2.96634e-05
2.96637e-05
2.96634e-05
2.96636e-05
2.96635e-05
2.96635e-05
2.96638e-05
2.96649e-05
2.96646e-05
2.96645e-05
2.96642e-05
2.96644e-05
2.96639e-05
2.96645e-05
2.96642e-05
2.96644e-05
2.96651e-05
2.96663e-05
2.96673e-05