/*--------------------------------*- C++ -*----------------------------------*\
| =========                 |                                                 |
| \\      /  F ield         | OpenFOAM: The Open Source CFD Toolbox           |
|  \\    /   O peration     | Version:  2312                                  |
|   \\  /    A nd           | Website:  www.openfoam.com                      |
|    \\/     M anipulation  |                                                 |
\*---------------------------------------------------------------------------*/
FoamFile
{
    version     2.0;
    format      ascii;
    arch        "LSB;label=32;scalar=64";
    class       volScalarField;
    location    "100";
    object      k_0;
}
// * * * * * * * * * * * * * * * * * * * * * * * * * * * * * * * * * * * * * //

dimensions      [0 2 -2 0 0 0 0];

internalField   nonuniform List<scalar> 
144000
(
3.6009e-05
3.59955e-05
3.60049e-05
3.59854e-05
3.61208e-05
3.59934e-05
3.61286e-05
3.61153e-05
3.61311e-05
3.601e-05
3.59988e-05
3.59929e-05
3.60029e-05
3.59936e-05
3.61142e-05
3.61198e-05
3.60013e-05
3.60025e-05
3.59953e-05
3.61142e-05
3.61159e-05
3.6011e-05
3.59973e-05
3.61266e-05
3.60079e-05
3.59915e-05
3.61173e-05
3.60053e-05
3.59899e-05
3.61131e-05
3.59817e-05
3.61306e-05
3.6005e-05
3.6131e-05
3.61182e-05
3.61395e-05
3.60148e-05
3.61345e-05
3.60148e-05
3.59991e-05
3.61282e-05
3.5991e-05
3.60055e-05
3.59937e-05
3.6122e-05
3.61209e-05
3.6002e-05
3.60099e-05
3.5994e-05
3.59998e-05
3.59814e-05
3.61071e-05
3.5993e-05
3.60067e-05
3.61117e-05
3.61238e-05
3.59998e-05
3.60016e-05
3.59897e-05
3.5985e-05
6.81012e-05
6.80761e-05
6.80805e-05
6.8068e-05
6.79972e-05
6.80426e-05
6.80049e-05
6.79677e-05
6.7968e-05
6.80395e-05
6.80635e-05
6.80596e-05
6.80692e-05
6.8067e-05
6.80015e-05
6.79708e-05
6.80316e-05
6.80605e-05
6.80688e-05
6.80034e-05
6.79565e-05
6.80309e-05
6.80623e-05
6.80006e-05
6.80516e-05
6.80654e-05
6.79963e-05
6.80503e-05
6.80618e-05
6.79968e-05
6.80307e-05
6.79902e-05
6.80484e-05
6.8008e-05
6.79698e-05
6.7974e-05
6.80508e-05
6.80045e-05
6.80544e-05
6.80656e-05
6.80098e-05
6.80387e-05
6.80664e-05
6.80644e-05
6.80051e-05
6.7973e-05
6.80287e-05
6.80687e-05
6.80663e-05
6.80736e-05
6.80649e-05
6.7986e-05
6.80264e-05
6.80694e-05
6.80007e-05
6.7971e-05
6.80323e-05
6.80558e-05
6.80625e-05
6.80574e-05
7.8391e-05
7.83631e-05
7.83527e-05
7.83495e-05
7.82668e-05
7.83081e-05
7.82631e-05
7.82241e-05
7.82038e-05
7.82762e-05
7.83242e-05
7.83272e-05
7.83335e-05
7.83393e-05
7.82743e-05
7.82236e-05
7.8281e-05
7.83153e-05
7.83379e-05
7.8278e-05
7.821e-05
7.82694e-05
7.83229e-05
7.82571e-05
7.8302e-05
7.8337e-05
7.8262e-05
7.83056e-05
7.83342e-05
7.82669e-05
7.83038e-05
7.82426e-05
7.83011e-05
7.82619e-05
7.82234e-05
7.82058e-05
7.82895e-05
7.82497e-05
7.83002e-05
7.83288e-05
7.827e-05
7.83037e-05
7.83269e-05
7.8335e-05
7.82717e-05
7.82255e-05
7.8276e-05
7.83205e-05
7.83339e-05
7.83409e-05
7.83467e-05
7.82632e-05
7.82881e-05
7.83284e-05
7.8272e-05
7.822e-05
7.82826e-05
7.83103e-05
7.83342e-05
7.83338e-05
8.08365e-05
8.08132e-05
8.07885e-05
8.07924e-05
8.07301e-05
8.07494e-05
8.07158e-05
8.06855e-05
8.06536e-05
8.06957e-05
8.07451e-05
8.07579e-05
8.07612e-05
8.07733e-05
8.07345e-05
8.06825e-05
8.07139e-05
8.07384e-05
8.07666e-05
8.07362e-05
8.06745e-05
8.06987e-05
8.07484e-05
8.07071e-05
8.07281e-05
8.07678e-05
8.0719e-05
8.07369e-05
8.07677e-05
8.07249e-05
8.07503e-05
8.06988e-05
8.07322e-05
8.07084e-05
8.06818e-05
8.06518e-05
8.07096e-05
8.06895e-05
8.07212e-05
8.07549e-05
8.07191e-05
8.07413e-05
8.07534e-05
8.07692e-05
8.07286e-05
8.06827e-05
8.07093e-05
8.07391e-05
8.07621e-05
8.07675e-05
8.07847e-05
8.073e-05
8.07342e-05
8.07558e-05
8.07295e-05
8.06767e-05
8.07149e-05
8.07345e-05
8.07643e-05
8.07671e-05
7.98506e-05
7.98351e-05
7.98041e-05
7.98076e-05
7.97667e-05
7.97713e-05
7.97466e-05
7.97272e-05
7.96945e-05
7.97112e-05
7.97457e-05
7.97646e-05
7.97673e-05
7.97809e-05
7.97636e-05
7.97243e-05
7.97363e-05
7.9747e-05
7.9771e-05
7.97601e-05
7.97231e-05
7.97256e-05
7.97543e-05
7.97351e-05
7.97428e-05
7.97724e-05
7.97494e-05
7.97542e-05
7.97762e-05
7.97545e-05
7.97728e-05
7.9737e-05
7.97503e-05
7.97348e-05
7.97208e-05
7.96902e-05
7.97224e-05
7.97131e-05
7.97298e-05
7.97589e-05
7.97428e-05
7.97579e-05
7.97619e-05
7.97783e-05
7.97584e-05
7.97222e-05
7.97331e-05
7.97444e-05
7.97673e-05
7.97717e-05
7.97918e-05
7.97654e-05
7.97612e-05
7.97679e-05
7.97569e-05
7.97191e-05
7.97362e-05
7.97448e-05
7.97683e-05
7.97738e-05
7.7189e-05
7.7179e-05
7.7151e-05
7.7149e-05
7.71228e-05
7.71204e-05
7.71009e-05
7.70899e-05
7.70649e-05
7.70685e-05
7.70835e-05
7.71021e-05
7.71048e-05
7.71171e-05
7.71111e-05
7.709e-05
7.70916e-05
7.70938e-05
7.7108e-05
7.7106e-05
7.70917e-05
7.70827e-05
7.70972e-05
7.70897e-05
7.70922e-05
7.7109e-05
7.71018e-05
7.71027e-05
7.71156e-05
7.71058e-05
7.71202e-05
7.70989e-05
7.71021e-05
7.70895e-05
7.70821e-05
7.70595e-05
7.70742e-05
7.70683e-05
7.70763e-05
7.70956e-05
7.70909e-05
7.71027e-05
7.71034e-05
7.71167e-05
7.71082e-05
7.70863e-05
7.70903e-05
7.7091e-05
7.71056e-05
7.71086e-05
7.71258e-05
7.7116e-05
7.71168e-05
7.71142e-05
7.71075e-05
7.70837e-05
7.70906e-05
7.70922e-05
7.7106e-05
7.71114e-05
7.36051e-05
7.35986e-05
7.35753e-05
7.35705e-05
7.355e-05
7.35469e-05
7.35312e-05
7.35246e-05
7.35086e-05
7.35059e-05
7.35111e-05
7.35233e-05
7.35252e-05
7.35349e-05
7.35339e-05
7.35266e-05
7.35232e-05
7.35245e-05
7.353e-05
7.353e-05
7.35261e-05
7.35179e-05
7.35239e-05
7.35213e-05
7.35222e-05
7.35292e-05
7.35286e-05
7.3529e-05
7.35359e-05
7.3532e-05
7.35434e-05
7.35326e-05
7.3533e-05
7.35221e-05
7.35178e-05
7.35028e-05
7.35088e-05
7.35038e-05
7.35071e-05
7.3517e-05
7.35166e-05
7.35261e-05
7.35262e-05
7.35358e-05
7.35329e-05
7.35225e-05
7.35247e-05
7.3523e-05
7.35295e-05
7.353e-05
7.35418e-05
7.35406e-05
7.35449e-05
7.35393e-05
7.35345e-05
7.35201e-05
7.35233e-05
7.3523e-05
7.3529e-05
7.35324e-05
6.94467e-05
6.94419e-05
6.94239e-05
6.94175e-05
6.93999e-05
6.93971e-05
6.93849e-05
6.93801e-05
6.93692e-05
6.93694e-05
6.93691e-05
6.93754e-05
6.93757e-05
6.93821e-05
6.9382e-05
6.93799e-05
6.93812e-05
6.93801e-05
6.93814e-05
6.93802e-05
6.93785e-05
6.9375e-05
6.93774e-05
6.93764e-05
6.93774e-05
6.93775e-05
6.93775e-05
6.9379e-05
6.93821e-05
6.93816e-05
6.93904e-05
6.93861e-05
6.93868e-05
6.93781e-05
6.9375e-05
6.93652e-05
6.93681e-05
6.93639e-05
6.93649e-05
6.93686e-05
6.93685e-05
6.93757e-05
6.9376e-05
6.93822e-05
6.93817e-05
6.93782e-05
6.93817e-05
6.93789e-05
6.93813e-05
6.93813e-05
6.93875e-05
6.93875e-05
6.93941e-05
6.93891e-05
6.93851e-05
6.93763e-05
6.93794e-05
6.93794e-05
6.93804e-05
6.93821e-05
6.48941e-05
6.48902e-05
6.48764e-05
6.48697e-05
6.48545e-05
6.4852e-05
6.48427e-05
6.48379e-05
6.48331e-05
6.48334e-05
6.48332e-05
6.48354e-05
6.48352e-05
6.48378e-05
6.48379e-05
6.48381e-05
6.484e-05
6.48396e-05
6.48383e-05
6.4834e-05
6.48362e-05
6.48361e-05
6.48362e-05
6.48357e-05
6.48364e-05
6.48354e-05
6.48341e-05
6.48353e-05
6.48363e-05
6.48365e-05
6.48433e-05
6.48421e-05
6.48437e-05
6.48375e-05
6.4835e-05
6.48285e-05
6.48308e-05
6.48277e-05
6.48265e-05
6.48287e-05
6.4828e-05
6.48327e-05
6.4833e-05
6.48365e-05
6.48363e-05
6.48356e-05
6.48401e-05
6.48384e-05
6.48396e-05
6.48394e-05
6.48414e-05
6.48412e-05
6.48473e-05
6.48442e-05
6.48398e-05
6.48353e-05
6.48389e-05
6.48389e-05
6.48381e-05
6.48394e-05
6.006e-05
6.00567e-05
6.00461e-05
6.00401e-05
6.00274e-05
6.00251e-05
6.00179e-05
6.00129e-05
6.0013e-05
6.00132e-05
6.00122e-05
6.00137e-05
6.00133e-05
6.00141e-05
6.00134e-05
6.00123e-05
6.00153e-05
6.00149e-05
6.00135e-05
6.00098e-05
6.00124e-05
6.00123e-05
6.00127e-05
6.00124e-05
6.00143e-05
6.00126e-05
6.00104e-05
6.00112e-05
6.00113e-05
6.00113e-05
6.00161e-05
6.0016e-05
6.00179e-05
6.00137e-05
6.00116e-05
6.00073e-05
6.00097e-05
6.00067e-05
6.0008e-05
6.0008e-05
6.00061e-05
6.00094e-05
6.00095e-05
6.00109e-05
6.00103e-05
6.00106e-05
6.00151e-05
6.00145e-05
6.00158e-05
6.00153e-05
6.00145e-05
6.00125e-05
6.00186e-05
6.00171e-05
6.00133e-05
6.00117e-05
6.00147e-05
6.00148e-05
6.00148e-05
6.00151e-05
5.50304e-05
5.5028e-05
5.50203e-05
5.50154e-05
5.50053e-05
5.50033e-05
5.49974e-05
5.49946e-05
5.49936e-05
5.49948e-05
5.49947e-05
5.4996e-05
5.49954e-05
5.49956e-05
5.4993e-05
5.49932e-05
5.49948e-05
5.49949e-05
5.4994e-05
5.49913e-05
5.49931e-05
5.49932e-05
5.49936e-05
5.49937e-05
5.49957e-05
5.49945e-05
5.49922e-05
5.4993e-05
5.49931e-05
5.49918e-05
5.49952e-05
5.49952e-05
5.49969e-05
5.49943e-05
5.4992e-05
5.49901e-05
5.49923e-05
5.49908e-05
5.49918e-05
5.49913e-05
5.49894e-05
5.49916e-05
5.49915e-05
5.49917e-05
5.49914e-05
5.49908e-05
5.49949e-05
5.49946e-05
5.4996e-05
5.49952e-05
5.49935e-05
5.49914e-05
5.49963e-05
5.49956e-05
5.49931e-05
5.49935e-05
5.49944e-05
5.49944e-05
5.49948e-05
5.49953e-05
4.98834e-05
4.98819e-05
4.98769e-05
4.98733e-05
4.98658e-05
4.98643e-05
4.98599e-05
4.98571e-05
4.98578e-05
4.98581e-05
4.98583e-05
4.98595e-05
4.98592e-05
4.98591e-05
4.9857e-05
4.98557e-05
4.9858e-05
4.98581e-05
4.98572e-05
4.98558e-05
4.98569e-05
4.98568e-05
4.98578e-05
4.98576e-05
4.98593e-05
4.98585e-05
4.98567e-05
4.98576e-05
4.98571e-05
4.98558e-05
4.9858e-05
4.98578e-05
4.98591e-05
4.98572e-05
4.98555e-05
4.98558e-05
4.98567e-05
4.9856e-05
4.98568e-05
4.98565e-05
4.9855e-05
4.98564e-05
4.98562e-05
4.98563e-05
4.98549e-05
4.9855e-05
4.98576e-05
4.98579e-05
4.98588e-05
4.98582e-05
4.98567e-05
4.98549e-05
4.98584e-05
4.98581e-05
4.98571e-05
4.98559e-05
4.98573e-05
4.98577e-05
4.98578e-05
4.98581e-05
4.46948e-05
4.4694e-05
4.46914e-05
4.46892e-05
4.46843e-05
4.46834e-05
4.46803e-05
4.46791e-05
4.46786e-05
4.46796e-05
4.46795e-05
4.46807e-05
4.46808e-05
4.46805e-05
4.46788e-05
4.46784e-05
4.46799e-05
4.46796e-05
4.46793e-05
4.46782e-05
4.46789e-05
4.46791e-05
4.46797e-05
4.46795e-05
4.46808e-05
4.46804e-05
4.46792e-05
4.46798e-05
4.46793e-05
4.46783e-05
4.46794e-05
4.46791e-05
4.46799e-05
4.46783e-05
4.46786e-05
4.46784e-05
4.46794e-05
4.46788e-05
4.46792e-05
4.46794e-05
4.46782e-05
4.46791e-05
4.46789e-05
4.46786e-05
4.46776e-05
4.46774e-05
4.46793e-05
4.46793e-05
4.468e-05
4.46797e-05
4.46789e-05
4.46776e-05
4.46797e-05
4.46795e-05
4.46784e-05
4.46787e-05
4.46789e-05
4.46791e-05
4.46791e-05
4.46797e-05
3.95405e-05
3.95403e-05
3.95396e-05
3.95387e-05
3.95363e-05
3.9536e-05
3.95344e-05
3.95335e-05
3.95338e-05
3.95344e-05
3.95347e-05
3.95358e-05
3.95361e-05
3.95359e-05
3.9535e-05
3.95349e-05
3.95357e-05
3.95354e-05
3.95352e-05
3.95343e-05
3.95345e-05
3.95349e-05
3.95355e-05
3.95352e-05
3.9536e-05
3.95357e-05
3.95352e-05
3.95355e-05
3.95352e-05
3.95342e-05
3.95347e-05
3.95344e-05
3.95349e-05
3.95339e-05
3.95342e-05
3.95342e-05
3.95351e-05
3.95346e-05
3.95349e-05
3.95353e-05
3.95344e-05
3.9535e-05
3.95349e-05
3.95348e-05
3.95343e-05
3.95342e-05
3.95351e-05
3.95353e-05
3.95357e-05
3.95355e-05
3.9535e-05
3.95343e-05
3.95354e-05
3.95352e-05
3.95345e-05
3.95344e-05
3.95346e-05
3.9535e-05
3.95351e-05
3.95353e-05
3.44965e-05
3.44969e-05
3.44976e-05
3.44982e-05
3.44975e-05
3.44978e-05
3.44972e-05
3.44973e-05
3.44979e-05
3.44993e-05
3.44999e-05
3.45012e-05
3.45011e-05
3.45011e-05
3.45006e-05
3.45006e-05
3.45009e-05
3.45006e-05
3.45005e-05
3.44997e-05
3.44997e-05
3.45e-05
3.45009e-05
3.45004e-05
3.45008e-05
3.45005e-05
3.45005e-05
3.45005e-05
3.45001e-05
3.44997e-05
3.44998e-05
3.44995e-05
3.44997e-05
3.44989e-05
3.4499e-05
3.44992e-05
3.45002e-05
3.44999e-05
3.44999e-05
3.45005e-05
3.44997e-05
3.45001e-05
3.45005e-05
3.45011e-05
3.45004e-05
3.45004e-05
3.45007e-05
3.45013e-05
3.45016e-05
3.45012e-05
3.4501e-05
3.45005e-05
3.45009e-05
3.45007e-05
3.45002e-05
3.45002e-05
3.45004e-05
3.45009e-05
3.45006e-05
3.45007e-05
2.96383e-05
2.9639e-05
2.96406e-05
2.96428e-05
2.96435e-05
2.96451e-05
2.96455e-05
2.96464e-05
2.96475e-05
2.96497e-05
2.96502e-05
2.96514e-05
2.96508e-05
2.96509e-05
2.9651e-05
2.96505e-05
2.96507e-05
2.96503e-05
2.96503e-05
2.96495e-05
2.96497e-05
2.96497e-05
2.96511e-05
2.96502e-05
2.96505e-05
2.96502e-05
2.96502e-05
2.965e-05
2.96497e-05
2.96495e-05
2.96495e-05
2.96493e-05
2.96493e-05
2.96487e-05
2.96487e-05
2.96491e-05
2.96502e-05
2.96497e-05
2.96498e-05
2.96506e-05
2.96497e-05
2.96499e-05
2.96505e-05
2.96515e-05
2.96507e-05
2.96506e-05
2.96511e-05
2.96519e-05
2.96515e-05
2.96514e-05
2.9651e-05
2.9651e-05
2.96511e-05
2.9651e-05
2.96506e-05
2.96504e-05
2.96506e-05
2.96507e-05
2.96509e-05
2.9651e-05
2.50387e-05
2.50395e-05
2.50416e-05
2.50453e-05
2.50468e-05
2.50497e-05
2.50508e-05
2.50529e-05
2.50542e-05
2.50571e-05
2.50568e-05
2.50568e-05
2.5057e-05
2.50578e-05
2.50586e-05
2.50575e-05
2.50577e-05
2.50572e-05
2.50569e-05
2.50564e-05
2.50565e-05
2.50569e-05
2.50581e-05
2.50569e-05
2.50568e-05
2.50574e-05
2.50567e-05
2.50566e-05
2.50563e-05
2.50563e-05
2.50563e-05
2.50567e-05
2.50564e-05
2.50559e-05
2.5056e-05
2.50567e-05
2.50575e-05
2.50567e-05
2.50567e-05
2.50578e-05
2.50568e-05
2.5057e-05
2.50579e-05
2.50576e-05
2.50577e-05
2.50573e-05
2.50578e-05
2.50584e-05
2.50588e-05
2.50587e-05
2.50583e-05
2.50584e-05
2.50585e-05
2.50582e-05
2.50575e-05
2.50573e-05
2.50579e-05
2.50587e-05
2.5058e-05
2.5058e-05
2.0765e-05
2.07658e-05
2.07684e-05
2.07731e-05
2.07754e-05
2.07787e-05
2.07806e-05
2.07835e-05
2.07852e-05
2.07884e-05
2.07876e-05
2.0788e-05
2.07885e-05
2.07885e-05
2.07885e-05
2.07883e-05
2.07887e-05
2.07884e-05
2.0788e-05
2.07876e-05
2.07881e-05
2.0788e-05
2.07885e-05
2.07876e-05
2.07878e-05
2.07895e-05
2.07884e-05
2.07887e-05
2.07885e-05
2.07885e-05
2.07883e-05
2.07878e-05
2.07879e-05
2.07877e-05
2.07886e-05
2.07884e-05
2.07883e-05
2.07891e-05
2.07885e-05
2.07889e-05
2.07883e-05
2.07889e-05
2.07887e-05
2.07892e-05
2.07887e-05
2.07892e-05
2.07889e-05
2.07898e-05
2.07904e-05
2.07903e-05
2.079e-05
2.07903e-05
2.07902e-05
2.07903e-05
2.07895e-05
2.07892e-05
2.07899e-05
2.0791e-05
2.07899e-05
2.07897e-05
1.68768e-05
1.68777e-05
1.68804e-05
1.68855e-05
1.68884e-05
1.68917e-05
1.68943e-05
1.68973e-05
1.68999e-05
1.69031e-05
1.69028e-05
1.69026e-05
1.69039e-05
1.69032e-05
1.69035e-05
1.69032e-05
1.69029e-05
1.69026e-05
1.6903e-05
1.69027e-05
1.69029e-05
1.69034e-05
1.69029e-05
1.69028e-05
1.69038e-05
1.69036e-05
1.6904e-05
1.69036e-05
1.69035e-05
1.69044e-05
1.69034e-05
1.69038e-05
1.69034e-05
1.69035e-05
1.69035e-05
1.69036e-05
1.69044e-05
1.69037e-05
1.69042e-05
1.69051e-05
1.69041e-05
1.69044e-05
1.69044e-05
1.69044e-05
1.69047e-05
1.69042e-05
1.69047e-05
1.6905e-05
1.69064e-05
1.69051e-05
1.69052e-05
1.69047e-05
1.69049e-05
1.69047e-05
1.69046e-05
1.6906e-05
1.69054e-05
1.69055e-05
1.69051e-05
1.69049e-05
1.34209e-05
1.34219e-05
1.34247e-05
1.34296e-05
1.34331e-05
1.34361e-05
1.34392e-05
1.34419e-05
1.34456e-05
1.34475e-05
1.34503e-05
1.34495e-05
1.34499e-05
1.34498e-05
1.34491e-05
1.34492e-05
1.34491e-05
1.34488e-05
1.34486e-05
1.34494e-05
1.34489e-05
1.34486e-05
1.34491e-05
1.34486e-05
1.34487e-05
1.34496e-05
1.34502e-05
1.34504e-05
1.34495e-05
1.34495e-05
1.34503e-05
1.34495e-05
1.34497e-05
1.34493e-05
1.34504e-05
1.34511e-05
1.34503e-05
1.34505e-05
1.34514e-05
1.34527e-05
1.34512e-05
1.34512e-05
1.34504e-05
1.34509e-05
1.34506e-05
1.3451e-05
1.34504e-05
1.34523e-05
1.34513e-05
1.3451e-05
1.34505e-05
1.34506e-05
1.34503e-05
1.34508e-05
1.34519e-05
1.34508e-05
1.34507e-05
1.34505e-05
1.3451e-05
1.3451e-05
1.04291e-05
1.04298e-05
1.04321e-05
1.04367e-05
1.04402e-05
1.04431e-05
1.0446e-05
1.04489e-05
1.04522e-05
1.04552e-05
1.04579e-05
1.04573e-05
1.04575e-05
1.04567e-05
1.04571e-05
1.04566e-05
1.04568e-05
1.04564e-05
1.04565e-05
1.04568e-05
1.04563e-05
1.04564e-05
1.04564e-05
1.04561e-05
1.04564e-05
1.04574e-05
1.04575e-05
1.04568e-05
1.0457e-05
1.04566e-05
1.04574e-05
1.0457e-05
1.04567e-05
1.04571e-05
1.04599e-05
1.04587e-05
1.04589e-05
1.04588e-05
1.04589e-05
1.04598e-05
1.04589e-05
1.04595e-05
1.04589e-05
1.04589e-05
1.04585e-05
1.04583e-05
1.04584e-05
1.04596e-05
1.04589e-05
1.04588e-05
1.04588e-05
1.04581e-05
1.04579e-05
1.04586e-05
1.04581e-05
1.0458e-05
1.04579e-05
1.04583e-05
1.04602e-05
1.04594e-05
7.91155e-06
7.91214e-06
7.91414e-06
7.91822e-06
7.92149e-06
7.92411e-06
7.92658e-06
7.92965e-06
7.93231e-06
7.93582e-06
7.93772e-06
7.93912e-06
7.93759e-06
7.93739e-06
7.93785e-06
7.93738e-06
7.93745e-06
7.93742e-06
7.93732e-06
7.93718e-06
7.93715e-06
7.93687e-06
7.93852e-06
7.93798e-06
7.93818e-06
7.93785e-06
7.93798e-06
7.9377e-06
7.93747e-06
7.93761e-06
7.93711e-06
7.93769e-06
7.9372e-06
7.93825e-06
7.94147e-06
7.94075e-06
7.9411e-06
7.94111e-06
7.94078e-06
7.94041e-06
7.93999e-06
7.93953e-06
7.93961e-06
7.93995e-06
7.9391e-06
7.93988e-06
7.94009e-06
7.94042e-06
7.9413e-06
7.94025e-06
7.94025e-06
7.93979e-06
7.93966e-06
7.93956e-06
7.93896e-06
7.93882e-06
7.93875e-06
7.93985e-06
7.94002e-06
7.93941e-06
5.8583e-06
5.85882e-06
5.86056e-06
5.8639e-06
5.86679e-06
5.86885e-06
5.87111e-06
5.8737e-06
5.87649e-06
5.87878e-06
5.88122e-06
5.87993e-06
5.88004e-06
5.8795e-06
5.87966e-06
5.88257e-06
5.88165e-06
5.88174e-06
5.8816e-06
5.88113e-06
5.88154e-06
5.88267e-06
5.88294e-06
5.8818e-06
5.8817e-06
5.88242e-06
5.88175e-06
5.88169e-06
5.88149e-06
5.88144e-06
5.88174e-06
5.88149e-06
5.88099e-06
5.88283e-06
5.8848e-06
5.88683e-06
5.88592e-06
5.8862e-06
5.88559e-06
5.88501e-06
5.88457e-06
5.88513e-06
5.88476e-06
5.88496e-06
5.88434e-06
5.88439e-06
5.88417e-06
5.88457e-06
5.88452e-06
5.88451e-06
5.88452e-06
5.88412e-06
5.8839e-06
5.88351e-06
5.88358e-06
5.88349e-06
5.88377e-06
5.88381e-06
5.88332e-06
5.88321e-06
4.23827e-06
4.23866e-06
4.23998e-06
4.24245e-06
4.24479e-06
4.24605e-06
4.24834e-06
4.25003e-06
4.2529e-06
4.25279e-06
4.25281e-06
4.25274e-06
4.25316e-06
4.25227e-06
4.25447e-06
4.25783e-06
4.2573e-06
4.2575e-06
4.25707e-06
4.25729e-06
4.25729e-06
4.25785e-06
4.257e-06
4.25709e-06
4.25724e-06
4.25672e-06
4.2573e-06
4.2569e-06
4.25671e-06
4.25754e-06
4.25825e-06
4.25743e-06
4.25723e-06
4.25848e-06
4.25993e-06
4.26087e-06
4.26253e-06
4.26155e-06
4.26134e-06
4.26141e-06
4.26101e-06
4.26108e-06
4.26124e-06
4.26125e-06
4.26081e-06
4.26045e-06
4.26003e-06
4.25983e-06
4.25966e-06
4.25998e-06
4.25977e-06
4.26007e-06
4.25976e-06
4.25973e-06
4.25972e-06
4.25997e-06
4.26031e-06
4.25989e-06
4.2596e-06
4.25943e-06
3.00153e-06
3.00179e-06
3.0027e-06
3.00459e-06
3.00629e-06
3.00727e-06
3.00943e-06
3.00944e-06
3.00977e-06
3.01036e-06
3.00997e-06
3.01062e-06
3.01005e-06
3.00951e-06
3.0135e-06
3.01521e-06
3.01563e-06
3.01521e-06
3.01536e-06
3.01581e-06
3.01539e-06
3.01543e-06
3.01537e-06
3.0154e-06
3.01491e-06
3.01526e-06
3.0152e-06
3.01546e-06
3.01529e-06
3.01744e-06
3.01682e-06
3.01669e-06
3.01645e-06
3.01686e-06
3.01762e-06
3.01927e-06
3.01912e-06
3.01917e-06
3.01908e-06
3.01919e-06
3.01969e-06
3.01929e-06
3.01987e-06
3.01964e-06
3.01979e-06
3.01951e-06
3.01925e-06
3.019e-06
3.0186e-06
3.0188e-06
3.01934e-06
3.0188e-06
3.01912e-06
3.01874e-06
3.01877e-06
3.01881e-06
3.01881e-06
3.01927e-06
3.01881e-06
3.01881e-06
3.61436e-05
3.60112e-05
3.60111e-05
3.59886e-05
3.59931e-05
3.59845e-05
3.61126e-05
3.61161e-05
3.6021e-05
3.59968e-05
3.61277e-05
3.59987e-05
3.61266e-05
3.61235e-05
3.60165e-05
3.60005e-05
3.61242e-05
3.60109e-05
3.59981e-05
3.61204e-05
3.61113e-05
3.61383e-05
3.60119e-05
3.60049e-05
3.59962e-05
3.59819e-05
3.59941e-05
3.59789e-05
3.61216e-05
3.59837e-05
3.61189e-05
3.60028e-05
3.59969e-05
3.61135e-05
3.61278e-05
3.60091e-05
3.60196e-05
3.59838e-05
3.61271e-05
3.59819e-05
3.61382e-05
3.59903e-05
3.61341e-05
3.59903e-05
3.59922e-05
3.59873e-05
3.59832e-05
3.59823e-05
3.59916e-05
3.59939e-05
3.61019e-05
3.61232e-05
3.59951e-05
3.61306e-05
3.60028e-05
3.60049e-05
3.61173e-05
3.61348e-05
3.6008e-05
3.61239e-05
6.80189e-05
6.8058e-05
6.80825e-05
6.80713e-05
6.80653e-05
6.80597e-05
6.79983e-05
6.79507e-05
6.80377e-05
6.8065e-05
6.80029e-05
6.8048e-05
6.80051e-05
6.79676e-05
6.80404e-05
6.80684e-05
6.79994e-05
6.80527e-05
6.80713e-05
6.80104e-05
6.79593e-05
6.79659e-05
6.80415e-05
6.80648e-05
6.80712e-05
6.80593e-05
6.80638e-05
6.80541e-05
6.79959e-05
6.80336e-05
6.79838e-05
6.80344e-05
6.80647e-05
6.79945e-05
6.7966e-05
6.80254e-05
6.80839e-05
6.80645e-05
6.80025e-05
6.80325e-05
6.79995e-05
6.80367e-05
6.80016e-05
6.80383e-05
6.80531e-05
6.80531e-05
6.80516e-05
6.80492e-05
6.8054e-05
6.80684e-05
6.79915e-05
6.79598e-05
6.80283e-05
6.79936e-05
6.80373e-05
6.80684e-05
6.80007e-05
6.79767e-05
6.80478e-05
6.79993e-05
7.82817e-05
7.83167e-05
7.83436e-05
7.83497e-05
7.8344e-05
7.83393e-05
7.8276e-05
7.82017e-05
7.82675e-05
7.83251e-05
7.82599e-05
7.83071e-05
7.82643e-05
7.82145e-05
7.8275e-05
7.83297e-05
7.82585e-05
7.83024e-05
7.83377e-05
7.82809e-05
7.82206e-05
7.81965e-05
7.82761e-05
7.83169e-05
7.83394e-05
7.83393e-05
7.83384e-05
7.83345e-05
7.82608e-05
7.83031e-05
7.82431e-05
7.82838e-05
7.83289e-05
7.82639e-05
7.8211e-05
7.82607e-05
7.8329e-05
7.83376e-05
7.82666e-05
7.83027e-05
7.82489e-05
7.82969e-05
7.82503e-05
7.82988e-05
7.8319e-05
7.83246e-05
7.83251e-05
7.83256e-05
7.83247e-05
7.83393e-05
7.82726e-05
7.82077e-05
7.82786e-05
7.82396e-05
7.82846e-05
7.83268e-05
7.82676e-05
7.82175e-05
7.82942e-05
7.8252e-05
8.07433e-05
8.07534e-05
8.07674e-05
8.07854e-05
8.07829e-05
8.07798e-05
8.07418e-05
8.06689e-05
8.06919e-05
8.07468e-05
8.0708e-05
8.0739e-05
8.0715e-05
8.06702e-05
8.06968e-05
8.07526e-05
8.07092e-05
8.0729e-05
8.07642e-05
8.07343e-05
8.06893e-05
8.06462e-05
8.06953e-05
8.07343e-05
8.07627e-05
8.07745e-05
8.07743e-05
8.07763e-05
8.07204e-05
8.0746e-05
8.07021e-05
8.07172e-05
8.07561e-05
8.07218e-05
8.06685e-05
8.06894e-05
8.07353e-05
8.07689e-05
8.07199e-05
8.0745e-05
8.06998e-05
8.07327e-05
8.06969e-05
8.07311e-05
8.07496e-05
8.07587e-05
8.07614e-05
8.07658e-05
8.07628e-05
8.0772e-05
8.07379e-05
8.06692e-05
8.07124e-05
8.06857e-05
8.07115e-05
8.07496e-05
8.07214e-05
8.06686e-05
8.07195e-05
8.06979e-05
7.97816e-05
7.97782e-05
7.97764e-05
7.97923e-05
7.97922e-05
7.97923e-05
7.9774e-05
7.9724e-05
7.97171e-05
7.97497e-05
7.97329e-05
7.97522e-05
7.97404e-05
7.97112e-05
7.97169e-05
7.97533e-05
7.97354e-05
7.9743e-05
7.97671e-05
7.9756e-05
7.9734e-05
7.96903e-05
7.97116e-05
7.97367e-05
7.97603e-05
7.97797e-05
7.97822e-05
7.97895e-05
7.97545e-05
7.97675e-05
7.97403e-05
7.97398e-05
7.97628e-05
7.97496e-05
7.97131e-05
7.97158e-05
7.97322e-05
7.97714e-05
7.9746e-05
7.97641e-05
7.97325e-05
7.97518e-05
7.97265e-05
7.97461e-05
7.97586e-05
7.97685e-05
7.97721e-05
7.97795e-05
7.97778e-05
7.9781e-05
7.97671e-05
7.97184e-05
7.97357e-05
7.97167e-05
7.97282e-05
7.97525e-05
7.9744e-05
7.97085e-05
7.97338e-05
7.97241e-05
7.71417e-05
7.71339e-05
7.71203e-05
7.7128e-05
7.71292e-05
7.71311e-05
7.71233e-05
7.70982e-05
7.70774e-05
7.70925e-05
7.70851e-05
7.70972e-05
7.70911e-05
7.70763e-05
7.7071e-05
7.70911e-05
7.70867e-05
7.70898e-05
7.71031e-05
7.70995e-05
7.70927e-05
7.70659e-05
7.70694e-05
7.70787e-05
7.7093e-05
7.71118e-05
7.71161e-05
7.71275e-05
7.71094e-05
7.71162e-05
7.7101e-05
7.70938e-05
7.71047e-05
7.71002e-05
7.70814e-05
7.70748e-05
7.70769e-05
7.7104e-05
7.70947e-05
7.71098e-05
7.70904e-05
7.71018e-05
7.70845e-05
7.70942e-05
7.70998e-05
7.7108e-05
7.71118e-05
7.71194e-05
7.71198e-05
7.71197e-05
7.71157e-05
7.70887e-05
7.70922e-05
7.70769e-05
7.70813e-05
7.70909e-05
7.70911e-05
7.70733e-05
7.70834e-05
7.70782e-05
7.35732e-05
7.35655e-05
7.35473e-05
7.35458e-05
7.35472e-05
7.35493e-05
7.3546e-05
7.35365e-05
7.35166e-05
7.35208e-05
7.35155e-05
7.35231e-05
7.35188e-05
7.35119e-05
7.35058e-05
7.3515e-05
7.35147e-05
7.35166e-05
7.35226e-05
7.35211e-05
7.35239e-05
7.35128e-05
7.35062e-05
7.35084e-05
7.35138e-05
7.35264e-05
7.35308e-05
7.35431e-05
7.35364e-05
7.35414e-05
7.3534e-05
7.35261e-05
7.35292e-05
7.35273e-05
7.35173e-05
7.35136e-05
7.35064e-05
7.35234e-05
7.35208e-05
7.35332e-05
7.35228e-05
7.35304e-05
7.35192e-05
7.35234e-05
7.35246e-05
7.35296e-05
7.35328e-05
7.35371e-05
7.35407e-05
7.35401e-05
7.35393e-05
7.35275e-05
7.35251e-05
7.35124e-05
7.35154e-05
7.35156e-05
7.35179e-05
7.35094e-05
7.35134e-05
7.35101e-05
6.94248e-05
6.94185e-05
6.94006e-05
6.93949e-05
6.93911e-05
6.9395e-05
6.9392e-05
6.93886e-05
6.93782e-05
6.93754e-05
6.93684e-05
6.93748e-05
6.93709e-05
6.93687e-05
6.93653e-05
6.93679e-05
6.93683e-05
6.93691e-05
6.93707e-05
6.93702e-05
6.9376e-05
6.93719e-05
6.93671e-05
6.93637e-05
6.93668e-05
6.93718e-05
6.93751e-05
6.93854e-05
6.93846e-05
6.93896e-05
6.93863e-05
6.93817e-05
6.93791e-05
6.93768e-05
6.93717e-05
6.93724e-05
6.93671e-05
6.93746e-05
6.93732e-05
6.93823e-05
6.93773e-05
6.9383e-05
6.93763e-05
6.9378e-05
6.93783e-05
6.93798e-05
6.93818e-05
6.93831e-05
6.93887e-05
6.93882e-05
6.93879e-05
6.93829e-05
6.9381e-05
6.93712e-05
6.93737e-05
6.93717e-05
6.93704e-05
6.9365e-05
6.9368e-05
6.93661e-05
6.48787e-05
6.48739e-05
6.48597e-05
6.48501e-05
6.48452e-05
6.48473e-05
6.48435e-05
6.48431e-05
6.48398e-05
6.48349e-05
6.48281e-05
6.4833e-05
6.48296e-05
6.48302e-05
6.48301e-05
6.48282e-05
6.48264e-05
6.48274e-05
6.48275e-05
6.48263e-05
6.48322e-05
6.48313e-05
6.48285e-05
6.48258e-05
6.48268e-05
6.48276e-05
6.48297e-05
6.48365e-05
6.48367e-05
6.48423e-05
6.48411e-05
6.48392e-05
6.48354e-05
6.48324e-05
6.48331e-05
6.48337e-05
6.48304e-05
6.48335e-05
6.48323e-05
6.48382e-05
6.48358e-05
6.48402e-05
6.48365e-05
6.48376e-05
6.48374e-05
6.48371e-05
6.48392e-05
6.48396e-05
6.4844e-05
6.48434e-05
6.48425e-05
6.48385e-05
6.48404e-05
6.48347e-05
6.48368e-05
6.48333e-05
6.48296e-05
6.48246e-05
6.48276e-05
6.48268e-05
6.00488e-05
6.00454e-05
6.00348e-05
6.00256e-05
6.00192e-05
6.00185e-05
6.00144e-05
6.00172e-05
6.00161e-05
6.00128e-05
6.00067e-05
6.00101e-05
6.00083e-05
6.00089e-05
6.00089e-05
6.00065e-05
6.00043e-05
6.00051e-05
6.00046e-05
6.00036e-05
6.00074e-05
6.00072e-05
6.00065e-05
6.00054e-05
6.00042e-05
6.00058e-05
6.00061e-05
6.00093e-05
6.00096e-05
6.00145e-05
6.00139e-05
6.0015e-05
6.00135e-05
6.00102e-05
6.00086e-05
6.00121e-05
6.00099e-05
6.00111e-05
6.00099e-05
6.00135e-05
6.00121e-05
6.00155e-05
6.00135e-05
6.00144e-05
6.00146e-05
6.00146e-05
6.0015e-05
6.00153e-05
6.00175e-05
6.00173e-05
6.00155e-05
6.00137e-05
6.00166e-05
6.00131e-05
6.00151e-05
6.00126e-05
6.00073e-05
6.00034e-05
6.00057e-05
6.00054e-05
5.50227e-05
5.50204e-05
5.50129e-05
5.5006e-05
5.49984e-05
5.49971e-05
5.49933e-05
5.49959e-05
5.49955e-05
5.49944e-05
5.49903e-05
5.49923e-05
5.49911e-05
5.49898e-05
5.49914e-05
5.49902e-05
5.49874e-05
5.49881e-05
5.49879e-05
5.49861e-05
5.49882e-05
5.4988e-05
5.49884e-05
5.49882e-05
5.49894e-05
5.49891e-05
5.49899e-05
5.49902e-05
5.499e-05
5.49936e-05
5.49935e-05
5.49956e-05
5.49946e-05
5.49913e-05
5.4992e-05
5.49935e-05
5.49927e-05
5.49931e-05
5.49919e-05
5.49941e-05
5.49933e-05
5.49958e-05
5.49948e-05
5.49958e-05
5.49958e-05
5.49952e-05
5.49964e-05
5.49959e-05
5.49976e-05
5.49972e-05
5.49947e-05
5.49943e-05
5.49969e-05
5.49949e-05
5.49967e-05
5.49951e-05
5.49908e-05
5.49874e-05
5.49888e-05
5.49887e-05
4.98782e-05
4.98769e-05
4.98721e-05
4.98676e-05
4.98613e-05
4.98597e-05
4.9856e-05
4.98576e-05
4.98577e-05
4.98573e-05
4.98552e-05
4.98565e-05
4.98549e-05
4.9855e-05
4.98561e-05
4.98552e-05
4.9853e-05
4.98535e-05
4.98532e-05
4.98512e-05
4.98524e-05
4.98525e-05
4.98539e-05
4.98537e-05
4.98548e-05
4.98546e-05
4.98545e-05
4.98549e-05
4.98545e-05
4.98565e-05
4.98563e-05
4.98582e-05
4.98577e-05
4.9856e-05
4.98562e-05
4.98578e-05
4.98574e-05
4.98566e-05
4.98548e-05
4.9857e-05
4.98567e-05
4.98588e-05
4.98583e-05
4.9859e-05
4.98587e-05
4.98591e-05
4.98598e-05
4.98596e-05
4.98606e-05
4.98602e-05
4.98581e-05
4.98585e-05
4.986e-05
4.98587e-05
4.98602e-05
4.98593e-05
4.98563e-05
4.98537e-05
4.98544e-05
4.98541e-05
4.46913e-05
4.46909e-05
4.46886e-05
4.46861e-05
4.46819e-05
4.46807e-05
4.46778e-05
4.46781e-05
4.46789e-05
4.46786e-05
4.46774e-05
4.46783e-05
4.46776e-05
4.4677e-05
4.46784e-05
4.46776e-05
4.46763e-05
4.46765e-05
4.46762e-05
4.46746e-05
4.46752e-05
4.46753e-05
4.46763e-05
4.46763e-05
4.4677e-05
4.46772e-05
4.46773e-05
4.46774e-05
4.46769e-05
4.46781e-05
4.4678e-05
4.46792e-05
4.46789e-05
4.46779e-05
4.46783e-05
4.46796e-05
4.46791e-05
4.4678e-05
4.4677e-05
4.46786e-05
4.46784e-05
4.46801e-05
4.46798e-05
4.46801e-05
4.46805e-05
4.46805e-05
4.46809e-05
4.4681e-05
4.46818e-05
4.46816e-05
4.46806e-05
4.46801e-05
4.46816e-05
4.46806e-05
4.46816e-05
4.46812e-05
4.46793e-05
4.46776e-05
4.46774e-05
4.46768e-05
3.95384e-05
3.95388e-05
3.95382e-05
3.95373e-05
3.95355e-05
3.95349e-05
3.95333e-05
3.95333e-05
3.95342e-05
3.95339e-05
3.95332e-05
3.95338e-05
3.9533e-05
3.95331e-05
3.95341e-05
3.95334e-05
3.9533e-05
3.9533e-05
3.95326e-05
3.95313e-05
3.95315e-05
3.95318e-05
3.95326e-05
3.95327e-05
3.95331e-05
3.95333e-05
3.95332e-05
3.95336e-05
3.95329e-05
3.95337e-05
3.95335e-05
3.95342e-05
3.9534e-05
3.95335e-05
3.95337e-05
3.9535e-05
3.95346e-05
3.95341e-05
3.95334e-05
3.95343e-05
3.9534e-05
3.95353e-05
3.9535e-05
3.95353e-05
3.95356e-05
3.95359e-05
3.95363e-05
3.95368e-05
3.95375e-05
3.95374e-05
3.95362e-05
3.95363e-05
3.95373e-05
3.95364e-05
3.95369e-05
3.95367e-05
3.95356e-05
3.95345e-05
3.95343e-05
3.95339e-05
3.44958e-05
3.44965e-05
3.44973e-05
3.44979e-05
3.44979e-05
3.4498e-05
3.44975e-05
3.44978e-05
3.44991e-05
3.44988e-05
3.44988e-05
3.44989e-05
3.44985e-05
3.44986e-05
3.44994e-05
3.44989e-05
3.44988e-05
3.44988e-05
3.44985e-05
3.44976e-05
3.44977e-05
3.44979e-05
3.44989e-05
3.44986e-05
3.44987e-05
3.4499e-05
3.44989e-05
3.44991e-05
3.44984e-05
3.44989e-05
3.44986e-05
3.44991e-05
3.44988e-05
3.44989e-05
3.44989e-05
3.45002e-05
3.44998e-05
3.44998e-05
3.44993e-05
3.44997e-05
3.44993e-05
3.45001e-05
3.44999e-05
3.45e-05
3.45005e-05
3.45014e-05
3.45021e-05
3.45031e-05
3.45035e-05
3.45033e-05
3.45022e-05
3.45023e-05
3.45027e-05
3.45019e-05
3.4502e-05
3.45022e-05
3.45013e-05
3.45011e-05
3.45009e-05
3.45008e-05
2.96386e-05
2.96394e-05
2.96412e-05
2.96434e-05
2.96443e-05
2.96461e-05
2.96466e-05
2.96475e-05
2.96495e-05
2.9649e-05
2.9649e-05
2.9649e-05
2.96488e-05
2.96487e-05
2.96496e-05
2.96491e-05
2.9649e-05
2.96493e-05
2.96489e-05
2.96486e-05
2.96487e-05
2.96487e-05
2.965e-05
2.96493e-05
2.96494e-05
2.96493e-05
2.96492e-05
2.96494e-05
2.96487e-05
2.96489e-05
2.96486e-05
2.96489e-05
2.96487e-05
2.96488e-05
2.96489e-05
2.96504e-05
2.96499e-05
2.96499e-05
2.96495e-05
2.96497e-05
2.96492e-05
2.96497e-05
2.96494e-05
2.96496e-05
2.96503e-05
2.96515e-05
2.96526e-05