/*--------------------------------*- C++ -*----------------------------------*\
| =========                 |                                                 |
| \\      /  F ield         | OpenFOAM: The Open Source CFD Toolbox           |
|  \\    /   O peration     | Version:  2312                                  |
|   \\  /    A nd           | Website:  www.openfoam.com                      |
|    \\/     M anipulation  |                                                 |
\*---------------------------------------------------------------------------*/
FoamFile
{
    version     2.0;
    format      ascii;
    arch        "LSB;label=32;scalar=64";
    class       volScalarField;
    location    "100";
    object      nut;
}
// * * * * * * * * * * * * * * * * * * * * * * * * * * * * * * * * * * * * * //

dimensions      [0 2 -1 0 0 0 0];

internalField   nonuniform List<scalar> 
144000
(
1.68371e-05
1.68339e-05
1.68361e-05
1.68316e-05
1.68632e-05
1.68335e-05
1.68651e-05
1.6862e-05
1.68656e-05
1.68374e-05
1.68347e-05
1.68334e-05
1.68357e-05
1.68335e-05
1.68617e-05
1.6863e-05
1.68353e-05
1.68356e-05
1.68339e-05
1.68617e-05
1.68621e-05
1.68376e-05
1.68344e-05
1.68646e-05
1.68369e-05
1.6833e-05
1.68624e-05
1.68363e-05
1.68327e-05
1.68615e-05
1.68307e-05
1.68655e-05
1.68362e-05
1.68656e-05
1.68626e-05
1.68676e-05
1.68385e-05
1.68664e-05
1.68385e-05
1.68348e-05
1.6865e-05
1.68329e-05
1.68363e-05
1.68335e-05
1.68635e-05
1.68633e-05
1.68355e-05
1.68373e-05
1.68336e-05
1.6835e-05
1.68307e-05
1.686e-05
1.68334e-05
1.68366e-05
1.68611e-05
1.68639e-05
1.6835e-05
1.68354e-05
1.68326e-05
1.68315e-05
2.31561e-05
2.31519e-05
2.31527e-05
2.31505e-05
2.31385e-05
2.31462e-05
2.31398e-05
2.31335e-05
2.31335e-05
2.31457e-05
2.31498e-05
2.31491e-05
2.31507e-05
2.31504e-05
2.31392e-05
2.3134e-05
2.31443e-05
2.31493e-05
2.31507e-05
2.31396e-05
2.31316e-05
2.31442e-05
2.31496e-05
2.31391e-05
2.31478e-05
2.31501e-05
2.31383e-05
2.31475e-05
2.31495e-05
2.31384e-05
2.31442e-05
2.31373e-05
2.31472e-05
2.31403e-05
2.31338e-05
2.31345e-05
2.31476e-05
2.31397e-05
2.31482e-05
2.31501e-05
2.31406e-05
2.31456e-05
2.31503e-05
2.31499e-05
2.31398e-05
2.31344e-05
2.31438e-05
2.31507e-05
2.31502e-05
2.31515e-05
2.315e-05
2.31366e-05
2.31435e-05
2.31508e-05
2.31391e-05
2.3134e-05
2.31445e-05
2.31485e-05
2.31496e-05
2.31487e-05
2.48451e-05
2.48407e-05
2.4839e-05
2.48385e-05
2.48254e-05
2.4832e-05
2.48248e-05
2.48186e-05
2.48154e-05
2.48269e-05
2.48345e-05
2.4835e-05
2.4836e-05
2.48369e-05
2.48266e-05
2.48186e-05
2.48277e-05
2.48331e-05
2.48367e-05
2.48272e-05
2.48164e-05
2.48258e-05
2.48343e-05
2.48239e-05
2.4831e-05
2.48365e-05
2.48247e-05
2.48316e-05
2.48361e-05
2.48254e-05
2.48313e-05
2.48216e-05
2.48309e-05
2.48246e-05
2.48185e-05
2.48157e-05
2.4829e-05
2.48227e-05
2.48307e-05
2.48352e-05
2.48259e-05
2.48313e-05
2.48349e-05
2.48362e-05
2.48262e-05
2.48189e-05
2.48269e-05
2.48339e-05
2.48361e-05
2.48372e-05
2.48381e-05
2.48248e-05
2.48288e-05
2.48352e-05
2.48262e-05
2.4818e-05
2.48279e-05
2.48323e-05
2.48361e-05
2.4836e-05
2.52305e-05
2.52269e-05
2.5223e-05
2.52236e-05
2.52139e-05
2.52169e-05
2.52117e-05
2.52069e-05
2.52019e-05
2.52085e-05
2.52162e-05
2.52182e-05
2.52188e-05
2.52206e-05
2.52146e-05
2.52065e-05
2.52114e-05
2.52152e-05
2.52196e-05
2.52149e-05
2.52052e-05
2.5209e-05
2.52168e-05
2.52103e-05
2.52136e-05
2.52198e-05
2.52122e-05
2.5215e-05
2.52198e-05
2.52131e-05
2.52171e-05
2.5209e-05
2.52142e-05
2.52105e-05
2.52064e-05
2.52017e-05
2.52107e-05
2.52076e-05
2.52125e-05
2.52178e-05
2.52122e-05
2.52157e-05
2.52175e-05
2.522e-05
2.52137e-05
2.52065e-05
2.52106e-05
2.52153e-05
2.52189e-05
2.52197e-05
2.52224e-05
2.52139e-05
2.52145e-05
2.52179e-05
2.52138e-05
2.52056e-05
2.52115e-05
2.52146e-05
2.52192e-05
2.52197e-05
2.5077e-05
2.50746e-05
2.50697e-05
2.50702e-05
2.50638e-05
2.50646e-05
2.50607e-05
2.50576e-05
2.50525e-05
2.50551e-05
2.50605e-05
2.50635e-05
2.50639e-05
2.50661e-05
2.50633e-05
2.50572e-05
2.5059e-05
2.50607e-05
2.50645e-05
2.50628e-05
2.5057e-05
2.50574e-05
2.50619e-05
2.50589e-05
2.50601e-05
2.50647e-05
2.50611e-05
2.50619e-05
2.50653e-05
2.50619e-05
2.50648e-05
2.50592e-05
2.50613e-05
2.50588e-05
2.50566e-05
2.50518e-05
2.50569e-05
2.50554e-05
2.5058e-05
2.50626e-05
2.50601e-05
2.50624e-05
2.50631e-05
2.50657e-05
2.50625e-05
2.50568e-05
2.50586e-05
2.50603e-05
2.50639e-05
2.50646e-05
2.50678e-05
2.50636e-05
2.5063e-05
2.5064e-05
2.50623e-05
2.50564e-05
2.5059e-05
2.50604e-05
2.50641e-05
2.50649e-05
2.46564e-05
2.46548e-05
2.46503e-05
2.465e-05
2.46458e-05
2.46455e-05
2.46423e-05
2.46406e-05
2.46366e-05
2.46372e-05
2.46396e-05
2.46425e-05
2.4643e-05
2.46449e-05
2.4644e-05
2.46406e-05
2.46409e-05
2.46412e-05
2.46435e-05
2.46432e-05
2.46409e-05
2.46394e-05
2.46417e-05
2.46406e-05
2.4641e-05
2.46436e-05
2.46425e-05
2.46426e-05
2.46447e-05
2.46431e-05
2.46454e-05
2.4642e-05
2.46425e-05
2.46405e-05
2.46393e-05
2.46357e-05
2.46381e-05
2.46371e-05
2.46384e-05
2.46415e-05
2.46407e-05
2.46426e-05
2.46428e-05
2.46449e-05
2.46435e-05
2.464e-05
2.46407e-05
2.46408e-05
2.46431e-05
2.46436e-05
2.46463e-05
2.46448e-05
2.46449e-05
2.46445e-05
2.46434e-05
2.46396e-05
2.46407e-05
2.4641e-05
2.46432e-05
2.4644e-05
2.40782e-05
2.40771e-05
2.40733e-05
2.40725e-05
2.40692e-05
2.40687e-05
2.40661e-05
2.4065e-05
2.40624e-05
2.4062e-05
2.40628e-05
2.40648e-05
2.40651e-05
2.40667e-05
2.40666e-05
2.40654e-05
2.40648e-05
2.4065e-05
2.40659e-05
2.40659e-05
2.40653e-05
2.40639e-05
2.40649e-05
2.40645e-05
2.40647e-05
2.40658e-05
2.40657e-05
2.40658e-05
2.40669e-05
2.40663e-05
2.40681e-05
2.40664e-05
2.40664e-05
2.40646e-05
2.40639e-05
2.40615e-05
2.40625e-05
2.40616e-05
2.40622e-05
2.40638e-05
2.40637e-05
2.40653e-05
2.40653e-05
2.40669e-05
2.40664e-05
2.40647e-05
2.40651e-05
2.40648e-05
2.40658e-05
2.40659e-05
2.40679e-05
2.40677e-05
2.40684e-05
2.40674e-05
2.40667e-05
2.40643e-05
2.40648e-05
2.40648e-05
2.40658e-05
2.40663e-05
2.33893e-05
2.33885e-05
2.33855e-05
2.33844e-05
2.33814e-05
2.33809e-05
2.33789e-05
2.33781e-05
2.33763e-05
2.33763e-05
2.33763e-05
2.33773e-05
2.33773e-05
2.33784e-05
2.33785e-05
2.33781e-05
2.33783e-05
2.33781e-05
2.33783e-05
2.33781e-05
2.33778e-05
2.33772e-05
2.33776e-05
2.33775e-05
2.33776e-05
2.33777e-05
2.33777e-05
2.33779e-05
2.33784e-05
2.33783e-05
2.33798e-05
2.33791e-05
2.33792e-05
2.33777e-05
2.33772e-05
2.33756e-05
2.33761e-05
2.33754e-05
2.33755e-05
2.33762e-05
2.33762e-05
2.33773e-05
2.33774e-05
2.33784e-05
2.33784e-05
2.33778e-05
2.33784e-05
2.33779e-05
2.33783e-05
2.33783e-05
2.33793e-05
2.33794e-05
2.33804e-05
2.33796e-05
2.33789e-05
2.33774e-05
2.3378e-05
2.33779e-05
2.33781e-05
2.33784e-05
2.2611e-05
2.26103e-05
2.26079e-05
2.26067e-05
2.26041e-05
2.26036e-05
2.2602e-05
2.26012e-05
2.26003e-05
2.26004e-05
2.26003e-05
2.26007e-05
2.26007e-05
2.26012e-05
2.26011e-05
2.26012e-05
2.26015e-05
2.26015e-05
2.26012e-05
2.26005e-05
2.26009e-05
2.26009e-05
2.26009e-05
2.26008e-05
2.26009e-05
2.26007e-05
2.26005e-05
2.26007e-05
2.26009e-05
2.26009e-05
2.26021e-05
2.26019e-05
2.26022e-05
2.26011e-05
2.26007e-05
2.25995e-05
2.25999e-05
2.25994e-05
2.25992e-05
2.25996e-05
2.25994e-05
2.26003e-05
2.26003e-05
2.26009e-05
2.26009e-05
2.26007e-05
2.26016e-05
2.26013e-05
2.26015e-05
2.26014e-05
2.26018e-05
2.26017e-05
2.26028e-05
2.26023e-05
2.26015e-05
2.26007e-05
2.26013e-05
2.26012e-05
2.26012e-05
2.26015e-05
2.1754e-05
2.17534e-05
2.17515e-05
2.17504e-05
2.17481e-05
2.17476e-05
2.17463e-05
2.17454e-05
2.17455e-05
2.17454e-05
2.17453e-05
2.17456e-05
2.17455e-05
2.17456e-05
2.17455e-05
2.17453e-05
2.17459e-05
2.17458e-05
2.17455e-05
2.17449e-05
2.17454e-05
2.17454e-05
2.17454e-05
2.17453e-05
2.17457e-05
2.17454e-05
2.1745e-05
2.17451e-05
2.17451e-05
2.17451e-05
2.1746e-05
2.1746e-05
2.17463e-05
2.17456e-05
2.17452e-05
2.17444e-05
2.17449e-05
2.17443e-05
2.17446e-05
2.17445e-05
2.17442e-05
2.17448e-05
2.17448e-05
2.17451e-05
2.1745e-05
2.1745e-05
2.17458e-05
2.17457e-05
2.1746e-05
2.17459e-05
2.17457e-05
2.17454e-05
2.17465e-05
2.17462e-05
2.17455e-05
2.17452e-05
2.17457e-05
2.17457e-05
2.17457e-05
2.17459e-05
2.08248e-05
2.08244e-05
2.08229e-05
2.0822e-05
2.08201e-05
2.08197e-05
2.08186e-05
2.08181e-05
2.08178e-05
2.08181e-05
2.08181e-05
2.08183e-05
2.08182e-05
2.08182e-05
2.08178e-05
2.08178e-05
2.08181e-05
2.08181e-05
2.0818e-05
2.08174e-05
2.08178e-05
2.08178e-05
2.08179e-05
2.08178e-05
2.08183e-05
2.08181e-05
2.08176e-05
2.08177e-05
2.08177e-05
2.08176e-05
2.08182e-05
2.08182e-05
2.08185e-05
2.0818e-05
2.08176e-05
2.08172e-05
2.08176e-05
2.08174e-05
2.08175e-05
2.08175e-05
2.08171e-05
2.08175e-05
2.08175e-05
2.08176e-05
2.08175e-05
2.08173e-05
2.08181e-05
2.08181e-05
2.08183e-05
2.08182e-05
2.08179e-05
2.08175e-05
2.08184e-05
2.08183e-05
2.08178e-05
2.08179e-05
2.0818e-05
2.0818e-05
2.08181e-05
2.08182e-05
1.98289e-05
1.98286e-05
1.98276e-05
1.98269e-05
1.98254e-05
1.98251e-05
1.98242e-05
1.98237e-05
1.98238e-05
1.98239e-05
1.98239e-05
1.98241e-05
1.98241e-05
1.9824e-05
1.98237e-05
1.98234e-05
1.98238e-05
1.98238e-05
1.98237e-05
1.98233e-05
1.98236e-05
1.98236e-05
1.98238e-05
1.98238e-05
1.98241e-05
1.9824e-05
1.98236e-05
1.98237e-05
1.98237e-05
1.98234e-05
1.98238e-05
1.98238e-05
1.98241e-05
1.98237e-05
1.98234e-05
1.98234e-05
1.98236e-05
1.98235e-05
1.98236e-05
1.98236e-05
1.98232e-05
1.98235e-05
1.98235e-05
1.98235e-05
1.98233e-05
1.98233e-05
1.98238e-05
1.98238e-05
1.9824e-05
1.98239e-05
1.98236e-05
1.98232e-05
1.98239e-05
1.98239e-05
1.98237e-05
1.98234e-05
1.98237e-05
1.98237e-05
1.98237e-05
1.98239e-05
1.87714e-05
1.87712e-05
1.87707e-05
1.87702e-05
1.87692e-05
1.8769e-05
1.87683e-05
1.87681e-05
1.87679e-05
1.87681e-05
1.87682e-05
1.87684e-05
1.87684e-05
1.87684e-05
1.8768e-05
1.87679e-05
1.87682e-05
1.87682e-05
1.87681e-05
1.87679e-05
1.8768e-05
1.87681e-05
1.87682e-05
1.87682e-05
1.87684e-05
1.87683e-05
1.87681e-05
1.87682e-05
1.87681e-05
1.87679e-05
1.87681e-05
1.87681e-05
1.87683e-05
1.87679e-05
1.8768e-05
1.87679e-05
1.87681e-05
1.8768e-05
1.87681e-05
1.87681e-05
1.87679e-05
1.87681e-05
1.8768e-05
1.8768e-05
1.87678e-05
1.87677e-05
1.87681e-05
1.87681e-05
1.87683e-05
1.87682e-05
1.8768e-05
1.87677e-05
1.87682e-05
1.87682e-05
1.87679e-05
1.8768e-05
1.8768e-05
1.8768e-05
1.87681e-05
1.87682e-05
1.76581e-05
1.76581e-05
1.76579e-05
1.76577e-05
1.76571e-05
1.76571e-05
1.76567e-05
1.76565e-05
1.76566e-05
1.76567e-05
1.76568e-05
1.7657e-05
1.76571e-05
1.7657e-05
1.76568e-05
1.76568e-05
1.7657e-05
1.76569e-05
1.76569e-05
1.76567e-05
1.76567e-05
1.76568e-05
1.76569e-05
1.76569e-05
1.76571e-05
1.7657e-05
1.76569e-05
1.76569e-05
1.76569e-05
1.76566e-05
1.76568e-05
1.76567e-05
1.76568e-05
1.76566e-05
1.76567e-05
1.76567e-05
1.76568e-05
1.76568e-05
1.76568e-05
1.76569e-05
1.76567e-05
1.76568e-05
1.76568e-05
1.76568e-05
1.76567e-05
1.76567e-05
1.76569e-05
1.76569e-05
1.7657e-05
1.7657e-05
1.76569e-05
1.76567e-05
1.76569e-05
1.76569e-05
1.76567e-05
1.76567e-05
1.76567e-05
1.76568e-05
1.76569e-05
1.76569e-05
1.64958e-05
1.64959e-05
1.64961e-05
1.64962e-05
1.6496e-05
1.64961e-05
1.6496e-05
1.6496e-05
1.64961e-05
1.64964e-05
1.64966e-05
1.64969e-05
1.64969e-05
1.64969e-05
1.64968e-05
1.64968e-05
1.64968e-05
1.64967e-05
1.64968e-05
1.64965e-05
1.64966e-05
1.64966e-05
1.64968e-05
1.64967e-05
1.64968e-05
1.64967e-05
1.64967e-05
1.64968e-05
1.64966e-05
1.64965e-05
1.64966e-05
1.64965e-05
1.64965e-05
1.64964e-05
1.64964e-05
1.64964e-05
1.64967e-05
1.64966e-05
1.64966e-05
1.64967e-05
1.64966e-05
1.64967e-05
1.64967e-05
1.64969e-05
1.64967e-05
1.64967e-05
1.64968e-05
1.64969e-05
1.6497e-05
1.64969e-05
1.64969e-05
1.64967e-05
1.64968e-05
1.64968e-05
1.64967e-05
1.64967e-05
1.64967e-05
1.64968e-05
1.64968e-05
1.64968e-05
1.52928e-05
1.5293e-05
1.52934e-05
1.52939e-05
1.52941e-05
1.52945e-05
1.52946e-05
1.52949e-05
1.52951e-05
1.52957e-05
1.52958e-05
1.52961e-05
1.5296e-05
1.5296e-05
1.5296e-05
1.52959e-05
1.52959e-05
1.52958e-05
1.52959e-05
1.52956e-05
1.52957e-05
1.52958e-05
1.5296e-05
1.52958e-05
1.52959e-05
1.52958e-05
1.52958e-05
1.52958e-05
1.52957e-05
1.52956e-05
1.52956e-05
1.52956e-05
1.52956e-05
1.52954e-05
1.52954e-05
1.52955e-05
1.52958e-05
1.52957e-05
1.52957e-05
1.52959e-05
1.52957e-05
1.52957e-05
1.52959e-05
1.52961e-05
1.52959e-05
1.52959e-05
1.5296e-05
1.52963e-05
1.52961e-05
1.52962e-05
1.5296e-05
1.52961e-05
1.5296e-05
1.5296e-05
1.52959e-05
1.52959e-05
1.52959e-05
1.5296e-05
1.5296e-05
1.52961e-05
1.40589e-05
1.40591e-05
1.40597e-05
1.40607e-05
1.40611e-05
1.4062e-05
1.40623e-05
1.40628e-05
1.40632e-05
1.4064e-05
1.40639e-05
1.40639e-05
1.4064e-05
1.40642e-05
1.40644e-05
1.40641e-05
1.40641e-05
1.4064e-05
1.4064e-05
1.40639e-05
1.40638e-05
1.40639e-05
1.40643e-05
1.4064e-05
1.4064e-05
1.40641e-05
1.40639e-05
1.4064e-05
1.40638e-05
1.40637e-05
1.40639e-05
1.40639e-05
1.40638e-05
1.40637e-05
1.40636e-05
1.40638e-05
1.40642e-05
1.40639e-05
1.40639e-05
1.40641e-05
1.40639e-05
1.40639e-05
1.40642e-05
1.40641e-05
1.40642e-05
1.40641e-05
1.40642e-05
1.40644e-05
1.40646e-05
1.40644e-05
1.40643e-05
1.40643e-05
1.40644e-05
1.40643e-05
1.40642e-05
1.40642e-05
1.40641e-05
1.40645e-05
1.40643e-05
1.40642e-05
1.28059e-05
1.28061e-05
1.28068e-05
1.28083e-05
1.28091e-05
1.28101e-05
1.28107e-05
1.28115e-05
1.2812e-05
1.2813e-05
1.28128e-05
1.28129e-05
1.28131e-05
1.2813e-05
1.2813e-05
1.28129e-05
1.28131e-05
1.2813e-05
1.28131e-05
1.28129e-05
1.28129e-05
1.28129e-05
1.2813e-05
1.28128e-05
1.28128e-05
1.28132e-05
1.2813e-05
1.28131e-05
1.2813e-05
1.28132e-05
1.2813e-05
1.2813e-05
1.28129e-05
1.28127e-05
1.28129e-05
1.2813e-05
1.28131e-05
1.28132e-05
1.2813e-05
1.28131e-05
1.2813e-05
1.28131e-05
1.28131e-05
1.28132e-05
1.28131e-05
1.28132e-05
1.28132e-05
1.28134e-05
1.28137e-05
1.28136e-05
1.28136e-05
1.28135e-05
1.28135e-05
1.28136e-05
1.28134e-05
1.28134e-05
1.28134e-05
1.28139e-05
1.28135e-05
1.28135e-05
1.15478e-05
1.15481e-05
1.15489e-05
1.15507e-05
1.15518e-05
1.15529e-05
1.15538e-05
1.15548e-05
1.15556e-05
1.15567e-05
1.15566e-05
1.15568e-05
1.15569e-05
1.15567e-05
1.15568e-05
1.15567e-05
1.15569e-05
1.15568e-05
1.15567e-05
1.15566e-05
1.15566e-05
1.15569e-05
1.15567e-05
1.15568e-05
1.15568e-05
1.15568e-05
1.15569e-05
1.15569e-05
1.1557e-05
1.1557e-05
1.15569e-05
1.15568e-05
1.15568e-05
1.15567e-05
1.15569e-05
1.15571e-05
1.15571e-05
1.15569e-05
1.15569e-05
1.15575e-05
1.15571e-05
1.15571e-05
1.15571e-05
1.15571e-05
1.15573e-05
1.15571e-05
1.15572e-05
1.15575e-05
1.15578e-05
1.15575e-05
1.15574e-05
1.15572e-05
1.15572e-05
1.15572e-05
1.15574e-05
1.15575e-05
1.15575e-05
1.15575e-05
1.15574e-05
1.15575e-05
1.03008e-05
1.03011e-05
1.03022e-05
1.03041e-05
1.03055e-05
1.03067e-05
1.03078e-05
1.03088e-05
1.03102e-05
1.03109e-05
1.03121e-05
1.03117e-05
1.03118e-05
1.03117e-05
1.03115e-05
1.03116e-05
1.03116e-05
1.03114e-05
1.03115e-05
1.03116e-05
1.03114e-05
1.03115e-05
1.03115e-05
1.03113e-05
1.03113e-05
1.03116e-05
1.03121e-05
1.03122e-05
1.03117e-05
1.03116e-05
1.03118e-05
1.03116e-05
1.03117e-05
1.03115e-05
1.03119e-05
1.03124e-05
1.0312e-05
1.03119e-05
1.03124e-05
1.03129e-05
1.03123e-05
1.03125e-05
1.03121e-05
1.03121e-05
1.0312e-05
1.03122e-05
1.0312e-05
1.03125e-05
1.03123e-05
1.03124e-05
1.03123e-05
1.0312e-05
1.03119e-05
1.0312e-05
1.03126e-05
1.03122e-05
1.03123e-05
1.03122e-05
1.03123e-05
1.03123e-05
9.08333e-06
9.08358e-06
9.08449e-06
9.0865e-06
9.08814e-06
9.08944e-06
9.09064e-06
9.09185e-06
9.09322e-06
9.09454e-06
9.09576e-06
9.09547e-06
9.09548e-06
9.09522e-06
9.09524e-06
9.09511e-06
9.0952e-06
9.09508e-06
9.09502e-06
9.09525e-06
9.09506e-06
9.09507e-06
9.095e-06
9.09503e-06
9.09493e-06
9.09558e-06
9.09582e-06
9.09531e-06
9.09522e-06
9.09508e-06
9.09525e-06
9.09523e-06
9.09541e-06
9.09515e-06
9.09638e-06
9.09607e-06
9.09603e-06
9.09607e-06
9.09609e-06
9.09643e-06
9.09618e-06
9.09632e-06
9.09609e-06
9.09609e-06
9.09589e-06
9.09606e-06
9.09585e-06
9.0963e-06
9.09618e-06
9.09639e-06
9.09632e-06
9.09583e-06
9.09591e-06
9.096e-06
9.09574e-06
9.09601e-06
9.09586e-06
9.09572e-06
9.09657e-06
9.09645e-06
7.91408e-06
7.91436e-06
7.91531e-06
7.91733e-06
7.91908e-06
7.92048e-06
7.92165e-06
7.92309e-06
7.92438e-06
7.9261e-06
7.92711e-06
7.92785e-06
7.92712e-06
7.92707e-06
7.927e-06
7.92688e-06
7.92685e-06
7.92682e-06
7.92699e-06
7.92701e-06
7.9271e-06
7.92675e-06
7.92729e-06
7.92712e-06
7.92716e-06
7.92717e-06
7.92711e-06
7.927e-06
7.9272e-06
7.92692e-06
7.92673e-06
7.92707e-06
7.92686e-06
7.92689e-06
7.92863e-06
7.92851e-06
7.92861e-06
7.92899e-06
7.92862e-06
7.92877e-06
7.92853e-06
7.92832e-06
7.92801e-06
7.92831e-06
7.9279e-06
7.92788e-06
7.92832e-06
7.92852e-06
7.92903e-06
7.9285e-06
7.92859e-06
7.92823e-06
7.92831e-06
7.92832e-06
7.9279e-06
7.92789e-06
7.9278e-06
7.92799e-06
7.92843e-06
7.92806e-06
6.81263e-06
6.8129e-06
6.81391e-06
6.81583e-06
6.81764e-06
6.81893e-06
6.82017e-06
6.82155e-06
6.82316e-06
6.82445e-06
6.82597e-06
6.82529e-06
6.82522e-06
6.8249e-06
6.82474e-06
6.82616e-06
6.82605e-06
6.82613e-06
6.82616e-06
6.8261e-06
6.82589e-06
6.8267e-06
6.82706e-06
6.82629e-06
6.82635e-06
6.82642e-06
6.82608e-06
6.82652e-06
6.82623e-06
6.82621e-06
6.82614e-06
6.82601e-06
6.82597e-06
6.82621e-06
6.82766e-06
6.82902e-06
6.82867e-06
6.82868e-06
6.82849e-06
6.82844e-06
6.82819e-06
6.82796e-06
6.82787e-06
6.82797e-06
6.82769e-06
6.82766e-06
6.82759e-06
6.82773e-06
6.82764e-06
6.82806e-06
6.82779e-06
6.82759e-06
6.82778e-06
6.82756e-06
6.82726e-06
6.82719e-06
6.82724e-06
6.82775e-06
6.82714e-06
6.82728e-06
5.79674e-06
5.79698e-06
5.79791e-06
5.79963e-06
5.80139e-06
5.80232e-06
5.80379e-06
5.8048e-06
5.80679e-06
5.80679e-06
5.80675e-06
5.80671e-06
5.807e-06
5.80656e-06
5.80691e-06
5.80979e-06
5.80966e-06
5.8097e-06
5.80954e-06
5.8096e-06
5.80994e-06
5.81013e-06
5.80965e-06
5.80958e-06
5.80987e-06
5.80939e-06
5.80959e-06
5.80948e-06
5.80962e-06
5.80963e-06
5.81048e-06
5.80998e-06
5.80988e-06
5.81009e-06
5.81156e-06
5.81218e-06
5.81326e-06
5.81262e-06
5.81277e-06
5.81248e-06
5.81216e-06
5.81207e-06
5.81248e-06
5.8127e-06
5.81221e-06
5.81221e-06
5.81203e-06
5.81177e-06
5.81172e-06
5.81146e-06
5.81134e-06
5.81156e-06
5.81146e-06
5.81155e-06
5.81155e-06
5.81136e-06
5.81208e-06
5.81159e-06
5.81171e-06
5.81149e-06
4.88004e-06
4.88023e-06
4.88099e-06
4.88257e-06
4.88411e-06
4.88497e-06
4.88657e-06
4.88693e-06
4.88678e-06
4.88758e-06
4.88715e-06
4.88742e-06
4.8873e-06
4.88697e-06
4.88857e-06
4.89098e-06
4.89172e-06
4.89122e-06
4.89116e-06
4.89186e-06
4.89141e-06
4.89142e-06
4.89128e-06
4.89136e-06
4.89103e-06
4.89105e-06
4.89109e-06
4.89139e-06
4.8911e-06
4.89248e-06
4.89242e-06
4.8927e-06
4.89246e-06
4.89236e-06
4.89324e-06
4.89455e-06
4.89432e-06
4.89437e-06
4.89423e-06
4.89423e-06
4.89476e-06
4.89449e-06
4.89478e-06
4.89475e-06
4.89493e-06
4.89484e-06
4.89491e-06
4.8948e-06
4.89423e-06
4.89393e-06
4.89458e-06
4.89408e-06
4.8942e-06
4.89406e-06
4.89389e-06
4.89432e-06
4.89434e-06
4.89442e-06
4.89416e-06
4.89423e-06
1.68685e-05
1.68376e-05
1.68376e-05
1.68323e-05
1.68334e-05
1.68314e-05
1.68613e-05
1.68622e-05
1.68399e-05
1.68343e-05
1.68649e-05
1.68347e-05
1.68646e-05
1.68639e-05
1.68389e-05
1.68351e-05
1.6864e-05
1.68376e-05
1.68346e-05
1.68631e-05
1.6861e-05
1.68673e-05
1.68378e-05
1.68362e-05
1.68341e-05
1.68308e-05
1.68336e-05
1.68301e-05
1.68634e-05
1.68312e-05
1.68628e-05
1.68357e-05
1.68343e-05
1.68615e-05
1.68649e-05
1.68372e-05
1.68396e-05
1.68312e-05
1.68647e-05
1.68308e-05
1.68673e-05
1.68328e-05
1.68664e-05
1.68327e-05
1.68332e-05
1.6832e-05
1.68311e-05
1.68309e-05
1.68331e-05
1.68336e-05
1.68588e-05
1.68638e-05
1.68339e-05
1.68655e-05
1.68357e-05
1.68362e-05
1.68624e-05
1.68665e-05
1.68369e-05
1.6864e-05
2.31422e-05
2.31488e-05
2.3153e-05
2.31511e-05
2.31501e-05
2.31491e-05
2.31387e-05
2.31306e-05
2.31454e-05
2.315e-05
2.31395e-05
2.31471e-05
2.31398e-05
2.31334e-05
2.31458e-05
2.31506e-05
2.31389e-05
2.31479e-05
2.31511e-05
2.31407e-05
2.3132e-05
2.31332e-05
2.3146e-05
2.315e-05
2.31511e-05
2.31491e-05
2.31498e-05
2.31482e-05
2.31383e-05
2.31447e-05
2.31362e-05
2.31448e-05
2.315e-05
2.3138e-05
2.31332e-05
2.31433e-05
2.31532e-05
2.31499e-05
2.31394e-05
2.31445e-05
2.31389e-05
2.31452e-05
2.31392e-05
2.31455e-05
2.3148e-05
2.3148e-05
2.31478e-05
2.31473e-05
2.31482e-05
2.31506e-05
2.31375e-05
2.31321e-05
2.31438e-05
2.31379e-05
2.31453e-05
2.31506e-05
2.31391e-05
2.3135e-05
2.31471e-05
2.31388e-05
2.48277e-05
2.48333e-05
2.48376e-05
2.48386e-05
2.48377e-05
2.48369e-05
2.48269e-05
2.48151e-05
2.48255e-05
2.48347e-05
2.48243e-05
2.48318e-05
2.4825e-05
2.48171e-05
2.48267e-05
2.48354e-05
2.48241e-05
2.48311e-05
2.48367e-05
2.48276e-05
2.48181e-05
2.48143e-05
2.48269e-05
2.48334e-05
2.48369e-05
2.48369e-05
2.48368e-05
2.48361e-05
2.48245e-05
2.48312e-05
2.48217e-05
2.48281e-05
2.48353e-05
2.4825e-05
2.48166e-05
2.48244e-05
2.48353e-05
2.48367e-05
2.48254e-05
2.48311e-05
2.48226e-05
2.48302e-05
2.48228e-05
2.48305e-05
2.48337e-05
2.48346e-05
2.48347e-05
2.48347e-05
2.48346e-05
2.48369e-05
2.48263e-05
2.4816e-05
2.48273e-05
2.48211e-05
2.48282e-05
2.48349e-05
2.48255e-05
2.48176e-05
2.48298e-05
2.48231e-05
2.52159e-05
2.52175e-05
2.52197e-05
2.52225e-05
2.52222e-05
2.52217e-05
2.52157e-05
2.52043e-05
2.52079e-05
2.52165e-05
2.52105e-05
2.52153e-05
2.52115e-05
2.52045e-05
2.52087e-05
2.52174e-05
2.52106e-05
2.52137e-05
2.52192e-05
2.52146e-05
2.52075e-05
2.52008e-05
2.52085e-05
2.52146e-05
2.5219e-05
2.52209e-05
2.52208e-05
2.52211e-05
2.52124e-05
2.52164e-05
2.52095e-05
2.52119e-05
2.5218e-05
2.52126e-05
2.52043e-05
2.52075e-05
2.52147e-05
2.522e-05
2.52123e-05
2.52162e-05
2.52092e-05
2.52143e-05
2.52087e-05
2.52141e-05
2.5217e-05
2.52184e-05
2.52188e-05
2.52195e-05
2.5219e-05
2.52204e-05
2.52151e-05
2.52044e-05
2.52111e-05
2.5207e-05
2.5211e-05
2.52169e-05
2.52125e-05
2.52043e-05
2.52122e-05
2.52089e-05
2.50661e-05
2.50656e-05
2.50653e-05
2.50678e-05
2.50679e-05
2.50679e-05
2.5065e-05
2.50571e-05
2.5056e-05
2.50612e-05
2.50585e-05
2.50616e-05
2.50597e-05
2.50551e-05
2.5056e-05
2.50617e-05
2.50589e-05
2.50601e-05
2.50639e-05
2.50622e-05
2.50587e-05
2.50518e-05
2.50552e-05
2.50591e-05
2.50628e-05
2.50659e-05
2.50663e-05
2.50674e-05
2.50619e-05
2.5064e-05
2.50597e-05
2.50596e-05
2.50632e-05
2.50611e-05
2.50554e-05
2.50558e-05
2.50584e-05
2.50646e-05
2.50606e-05
2.50634e-05
2.50585e-05
2.50615e-05
2.50575e-05
2.50606e-05
2.50626e-05
2.50641e-05
2.50647e-05
2.50658e-05
2.50656e-05
2.50661e-05
2.50639e-05
2.50562e-05
2.5059e-05
2.5056e-05
2.50578e-05
2.50616e-05
2.50603e-05
2.50547e-05
2.50587e-05
2.50571e-05
2.46488e-05
2.46476e-05
2.46454e-05
2.46467e-05
2.46469e-05
2.46472e-05
2.46459e-05
2.46419e-05
2.46386e-05
2.4641e-05
2.46398e-05
2.46418e-05
2.46408e-05
2.46384e-05
2.46376e-05
2.46408e-05
2.46401e-05
2.46406e-05
2.46427e-05
2.46421e-05
2.4641e-05
2.46368e-05
2.46373e-05
2.46388e-05
2.46411e-05
2.46441e-05
2.46448e-05
2.46466e-05
2.46437e-05
2.46448e-05
2.46424e-05
2.46412e-05
2.46429e-05
2.46422e-05
2.46392e-05
2.46382e-05
2.46385e-05
2.46428e-05
2.46414e-05
2.46438e-05
2.46407e-05
2.46425e-05
2.46397e-05
2.46413e-05
2.46422e-05
2.46435e-05
2.46441e-05
2.46453e-05
2.46454e-05
2.46454e-05
2.46447e-05
2.46404e-05
2.46409e-05
2.46385e-05
2.46392e-05
2.46407e-05
2.46407e-05
2.46379e-05
2.46395e-05
2.46387e-05
2.4073e-05
2.40717e-05
2.40687e-05
2.40685e-05
2.40687e-05
2.40691e-05
2.40685e-05
2.4067e-05
2.40637e-05
2.40644e-05
2.40636e-05
2.40648e-05
2.40641e-05
2.4063e-05
2.4062e-05
2.40635e-05
2.40634e-05
2.40637e-05
2.40647e-05
2.40645e-05
2.40649e-05
2.40631e-05
2.4062e-05
2.40624e-05
2.40633e-05
2.40653e-05
2.40661e-05
2.40681e-05
2.4067e-05
2.40678e-05
2.40666e-05
2.40653e-05
2.40658e-05
2.40655e-05
2.40639e-05
2.40632e-05
2.40621e-05
2.40648e-05
2.40644e-05
2.40665e-05
2.40647e-05
2.4066e-05
2.40642e-05
2.40648e-05
2.4065e-05
2.40659e-05
2.40664e-05
2.40671e-05
2.40677e-05
2.40676e-05
2.40674e-05
2.40655e-05
2.40651e-05
2.4063e-05
2.40635e-05
2.40635e-05
2.40639e-05
2.40626e-05
2.40632e-05
2.40627e-05
2.33856e-05
2.33845e-05
2.33815e-05
2.33806e-05
2.33799e-05
2.33806e-05
2.33801e-05
2.33795e-05
2.33778e-05
2.33773e-05
2.33761e-05
2.33772e-05
2.33765e-05
2.33762e-05
2.33756e-05
2.3376e-05
2.3376e-05
2.33762e-05
2.33765e-05
2.33764e-05
2.33774e-05
2.33767e-05
2.33759e-05
2.33753e-05
2.33758e-05
2.33767e-05
2.33773e-05
2.3379e-05
2.33788e-05
2.33797e-05
2.33791e-05
2.33784e-05
2.33779e-05
2.33775e-05
2.33767e-05
2.33768e-05
2.33759e-05
2.33772e-05
2.33769e-05
2.33785e-05
2.33776e-05
2.33786e-05
2.33774e-05
2.33777e-05
2.33778e-05
2.3378e-05
2.33784e-05
2.33786e-05
2.33796e-05
2.33794e-05
2.33793e-05
2.33785e-05
2.33782e-05
2.33766e-05
2.3377e-05
2.33767e-05
2.33764e-05
2.33755e-05
2.33761e-05
2.33757e-05
2.26083e-05
2.26074e-05
2.2605e-05
2.26033e-05
2.26024e-05
2.26028e-05
2.26021e-05
2.26021e-05
2.26015e-05
2.26006e-05
2.25995e-05
2.26003e-05
2.25997e-05
2.25998e-05
2.25998e-05
2.25995e-05
2.25991e-05
2.25993e-05
2.25994e-05
2.25992e-05
2.26002e-05
2.26e-05
2.25995e-05
2.25991e-05
2.25992e-05
2.25994e-05
2.25997e-05
2.26009e-05
2.26009e-05
2.26019e-05
2.26017e-05
2.26014e-05
2.26007e-05
2.26002e-05
2.26003e-05
2.26004e-05
2.25999e-05
2.26004e-05
2.26002e-05
2.26012e-05
2.26008e-05
2.26016e-05
2.26009e-05
2.26011e-05
2.26011e-05
2.2601e-05
2.26014e-05
2.26014e-05
2.26022e-05
2.26021e-05
2.26019e-05
2.26013e-05
2.26016e-05
2.26006e-05
2.2601e-05
2.26004e-05
2.25997e-05
2.25989e-05
2.25994e-05
2.25992e-05
2.17519e-05
2.17513e-05
2.17494e-05
2.17477e-05
2.17466e-05
2.17464e-05
2.17457e-05
2.17462e-05
2.1746e-05
2.17454e-05
2.17443e-05
2.17449e-05
2.17446e-05
2.17447e-05
2.17447e-05
2.17443e-05
2.17439e-05
2.1744e-05
2.1744e-05
2.17437e-05
2.17444e-05
2.17444e-05
2.17442e-05
2.17441e-05
2.17439e-05
2.17441e-05
2.17442e-05
2.17448e-05
2.17448e-05
2.17457e-05
2.17456e-05
2.17458e-05
2.17455e-05
2.1745e-05
2.17447e-05
2.17453e-05
2.17449e-05
2.17451e-05
2.17449e-05
2.17455e-05
2.17453e-05
2.17459e-05
2.17456e-05
2.17457e-05
2.17457e-05
2.17457e-05
2.17459e-05
2.17458e-05
2.17463e-05
2.17462e-05
2.17459e-05
2.17456e-05
2.17461e-05
2.17455e-05
2.17458e-05
2.17454e-05
2.17444e-05
2.17437e-05
2.17441e-05
2.17441e-05
2.08234e-05
2.08229e-05
2.08215e-05
2.08202e-05
2.08188e-05
2.08185e-05
2.08178e-05
2.08183e-05
2.08182e-05
2.08179e-05
2.08173e-05
2.08176e-05
2.08174e-05
2.08171e-05
2.08175e-05
2.08172e-05
2.08167e-05
2.08169e-05
2.08168e-05
2.08164e-05
2.08169e-05
2.08168e-05
2.08169e-05
2.08169e-05
2.08171e-05
2.0817e-05
2.08172e-05
2.08172e-05
2.08172e-05
2.08179e-05
2.08179e-05
2.08183e-05
2.08181e-05
2.08174e-05
2.08176e-05
2.08179e-05
2.08177e-05
2.08178e-05
2.08175e-05
2.0818e-05
2.08178e-05
2.08183e-05
2.08181e-05
2.08183e-05
2.08183e-05
2.08182e-05
2.08184e-05
2.08184e-05
2.08187e-05
2.08186e-05
2.08181e-05
2.0818e-05
2.08185e-05
2.08181e-05
2.08185e-05
2.08182e-05
2.08173e-05
2.08167e-05
2.0817e-05
2.08169e-05
1.98279e-05
1.98276e-05
1.98267e-05
1.98258e-05
1.98245e-05
1.98242e-05
1.98235e-05
1.98238e-05
1.98238e-05
1.98237e-05
1.98233e-05
1.98235e-05
1.98232e-05
1.98233e-05
1.98235e-05
1.98233e-05
1.98229e-05
1.9823e-05
1.98229e-05
1.98225e-05
1.98228e-05
1.98227e-05
1.9823e-05
1.9823e-05
1.98232e-05
1.98232e-05
1.98231e-05
1.98233e-05
1.98232e-05
1.98236e-05
1.98235e-05
1.98239e-05
1.98238e-05
1.98235e-05
1.98235e-05
1.98238e-05
1.98237e-05
1.98236e-05
1.98232e-05
1.98236e-05
1.98236e-05
1.9824e-05
1.98239e-05
1.98241e-05
1.9824e-05
1.98241e-05
1.98242e-05
1.98242e-05
1.98244e-05
1.98243e-05
1.98239e-05
1.9824e-05
1.98242e-05
1.9824e-05
1.98243e-05
1.98241e-05
1.98235e-05
1.9823e-05
1.98231e-05
1.98231e-05
1.87706e-05
1.87706e-05
1.87701e-05
1.87695e-05
1.87687e-05
1.87684e-05
1.87678e-05
1.87679e-05
1.8768e-05
1.8768e-05
1.87677e-05
1.87679e-05
1.87678e-05
1.87676e-05
1.87679e-05
1.87678e-05
1.87675e-05
1.87675e-05
1.87675e-05
1.87671e-05
1.87672e-05
1.87673e-05
1.87675e-05
1.87675e-05
1.87676e-05
1.87676e-05
1.87677e-05
1.87677e-05
1.87676e-05
1.87679e-05
1.87678e-05
1.87681e-05
1.8768e-05
1.87678e-05
1.87679e-05
1.87682e-05
1.87681e-05
1.87678e-05
1.87676e-05
1.8768e-05
1.87679e-05
1.87683e-05
1.87682e-05
1.87683e-05
1.87684e-05
1.87683e-05
1.87685e-05
1.87685e-05
1.87686e-05
1.87686e-05
1.87684e-05
1.87683e-05
1.87686e-05
1.87684e-05
1.87686e-05
1.87685e-05
1.87681e-05
1.87678e-05
1.87677e-05
1.87676e-05
1.76576e-05
1.76577e-05
1.76576e-05
1.76574e-05
1.76569e-05
1.76568e-05
1.76564e-05
1.76565e-05
1.76566e-05
1.76566e-05
1.76564e-05
1.76566e-05
1.76564e-05
1.76564e-05
1.76566e-05
1.76565e-05
1.76564e-05
1.76564e-05
1.76563e-05
1.7656e-05
1.7656e-05
1.76561e-05
1.76563e-05
1.76563e-05
1.76564e-05
1.76564e-05
1.76564e-05
1.76565e-05
1.76564e-05
1.76566e-05
1.76565e-05
1.76567e-05
1.76566e-05
1.76565e-05
1.76566e-05
1.76568e-05
1.76568e-05
1.76566e-05
1.76565e-05
1.76567e-05
1.76566e-05
1.76569e-05
1.76569e-05
1.76569e-05
1.7657e-05
1.76571e-05
1.76571e-05
1.76572e-05
1.76574e-05
1.76574e-05
1.76571e-05
1.76571e-05
1.76574e-05
1.76572e-05
1.76573e-05
1.76572e-05
1.7657e-05
1.76567e-05
1.76567e-05
1.76566e-05
1.64957e-05
1.64958e-05
1.6496e-05
1.64961e-05
1.64961e-05
1.64962e-05
1.6496e-05
1.64961e-05
1.64964e-05
1.64963e-05
1.64963e-05
1.64964e-05
1.64963e-05
1.64963e-05
1.64965e-05
1.64963e-05
1.64963e-05
1.64963e-05
1.64963e-05
1.64961e-05
1.64961e-05
1.64961e-05
1.64963e-05
1.64963e-05
1.64963e-05
1.64964e-05
1.64963e-05
1.64964e-05
1.64962e-05
1.64964e-05
1.64963e-05
1.64964e-05
1.64963e-05
1.64963e-05
1.64964e-05
1.64966e-05
1.64966e-05
1.64966e-05
1.64964e-05
1.64966e-05
1.64964e-05
1.64966e-05
1.64966e-05
1.64966e-05
1.64967e-05
1.6497e-05
1.64971e-05
1.64973e-05
1.64975e-05
1.64974e-05
1.64972e-05
1.64972e-05
1.64973e-05
1.64971e-05
1.64971e-05
1.64971e-05
1.64969e-05
1.64969e-05
1.64969e-05
1.64968e-05
1.52929e-05
1.52931e-05
1.52935e-05
1.52941e-05
1.52943e-05
1.52948e-05
1.52949e-05
1.52951e-05
1.52956e-05
1.52955e-05
1.52955e-05
1.52955e-05
1.52955e-05
1.52955e-05
1.52956e-05
1.52955e-05
1.52955e-05
1.52955e-05
1.52955e-05
1.52954e-05
1.52954e-05
1.52955e-05
1.52957e-05
1.52956e-05
1.52956e-05
1.52956e-05
1.52956e-05
1.52956e-05
1.52954e-05
1.52955e-05
1.52954e-05
1.52955e-05
1.52954e-05
1.52954e-05
1.52955e-05
1.52958e-05
1.52957e-05
1.52957e-05
1.52956e-05
1.52957e-05
1.52955e-05
1.52957e-05
1.52956e-05
1.52957e-05