/*--------------------------------*- C++ -*----------------------------------*\
| =========                 |                                                 |
| \\      /  F ield         | OpenFOAM: The Open Source CFD Toolbox           |
|  \\    /   O peration     | Version:  2312                                  |
|   \\  /    A nd           | Website:  www.openfoam.com                      |
|    \\/     M anipulation  |                                                 |
\*---------------------------------------------------------------------------*/
FoamFile
{
    version     2.0;
    format      ascii;
    arch        "LSB;label=32;scalar=64";
    class       volScalarField;
    location    "100";
    object      p;
}
// * * * * * * * * * * * * * * * * * * * * * * * * * * * * * * * * * * * * * //

dimensions      [0 2 -2 0 0 0 0];

internalField   nonuniform List<scalar> 
144000
(
1.72999e-08
-1.90044e-08
-2.09047e-07
-2.67872e-07
1.0476e-07
-4.99332e-09
-6.98194e-08
3.00207e-07
3.53638e-07
9.69753e-08
-9.9227e-09
6.52544e-09
-1.2312e-07
-2.15892e-07
-4.30423e-08
2.67637e-07
1.12763e-07
-1.58115e-07
-2.94474e-07
2.46848e-08
5.05926e-07
2.40009e-07
-1.75409e-07
8.03088e-08
7.26596e-08
-2.72334e-07
6.6588e-08
-2.90289e-08
-2.78478e-07
1.28678e-07
1.57873e-07
1.55842e-07
1.4159e-08
-1.55542e-10
3.52302e-07
3.7604e-07
-8.54749e-09
3.31806e-08
2.03621e-07
-1.85995e-07
1.39663e-07
2.44434e-07
-3.5386e-08
-1.19637e-07
-7.99732e-09
3.66893e-07
1.85913e-07
-1.50487e-07
-1.58509e-07
-2.39412e-07
-2.86179e-07
1.93077e-07
1.42686e-07
-3.5235e-07
-8.64555e-08
2.73713e-07
1.1588e-07
-5.77721e-08
-7.32262e-08
-3.75645e-08
1.77942e-08
-1.85322e-08
-2.06549e-07
-2.46107e-07
1.01616e-07
-3.23107e-09
-4.86251e-08
2.95978e-07
3.28912e-07
7.63157e-08
-7.18464e-09
7.66986e-09
-1.21283e-07
-1.90962e-07
-2.47612e-08
2.40041e-07
9.1443e-08
-1.53352e-07
-2.69276e-07
4.15648e-08
4.77079e-07
2.21997e-07
-1.48454e-07
7.68368e-08
5.23336e-08
-2.46637e-07
6.30183e-08
-4.97454e-08
-2.54521e-07
1.2628e-07
1.57688e-07
1.5576e-07
1.57026e-08
2.1579e-08
3.47956e-07
3.53678e-07
-4.2849e-09
3.05833e-08
1.83478e-07
-1.6064e-07
1.35667e-07
2.2196e-07
-3.15753e-08
-9.33592e-08
1.0148e-08
3.39163e-07
1.65859e-07
-1.47758e-07
-1.57742e-07
-2.36593e-07
-2.64183e-07
1.88136e-07
1.22511e-07
-3.25055e-07
-6.83014e-08
2.45753e-07
9.47924e-08
-5.55125e-08
-7.26558e-08
-3.73793e-08
1.78274e-08
-1.83298e-08
-2.01667e-07
-2.38716e-07
9.61758e-08
2.60384e-10
-4.18879e-08
2.87407e-07
3.17146e-07
7.19851e-08
-2.38224e-09
9.29955e-09
-1.17848e-07
-1.78662e-07
-2.35469e-08
2.23278e-07
8.55624e-08
-1.44099e-07
-2.55573e-07
4.07768e-08
4.58013e-07
2.20495e-07
-1.34584e-07
6.97519e-08
4.81989e-08
-2.34389e-07
5.62254e-08
-5.4004e-08
-2.43582e-07
1.22372e-07
1.56607e-07
1.55533e-07
1.92291e-08
2.87806e-08
3.39234e-07
3.4509e-07
1.29531e-09
2.64934e-08
1.79148e-07
-1.48085e-07
1.28058e-07
2.13552e-07
-2.41455e-08
-7.96329e-08
1.11828e-08
3.21865e-07
1.61088e-07
-1.42638e-07
-1.56508e-07
-2.30738e-07
-2.56751e-07
1.78614e-07
1.17863e-07
-3.09173e-07
-6.67741e-08
2.29558e-07
8.9066e-08
-5.13367e-08
-7.08494e-08
-3.68604e-08
1.76537e-08
-1.88265e-08
-1.94993e-07
-2.32695e-07
8.90689e-08
4.94108e-09
-3.73391e-08
2.75227e-07
3.06203e-07
7.15082e-08
3.26336e-09
1.1309e-08
-1.12847e-07
-1.67845e-07
-2.65323e-08
2.0574e-07
8.2429e-08
-1.32581e-07
-2.41167e-07
3.61209e-08
4.3716e-07
2.22282e-07
-1.21012e-07
6.08055e-08
4.72456e-08
-2.22718e-07
4.69747e-08
-5.39967e-08
-2.33178e-07
1.1713e-07
1.54999e-07
1.55069e-07
2.53777e-08
3.37507e-08
3.26663e-07
3.37343e-07
8.77332e-09
2.21039e-08
1.77346e-07
-1.35242e-07
1.18121e-07
2.06829e-07
-1.4931e-08
-6.67696e-08
8.67187e-09
3.03105e-07
1.58905e-07
-1.35677e-07
-1.55293e-07
-2.22723e-07
-2.50376e-07
1.65161e-07
1.15708e-07
-2.92212e-07
-6.95599e-08
2.12804e-07
8.62863e-08
-4.62086e-08
-6.86727e-08
-3.57895e-08
1.7377e-08
-1.98111e-08
-1.86651e-07
-2.25166e-07
8.1023e-08
1.03279e-08
-3.22835e-08
2.60619e-07
2.93641e-07
7.12643e-08
9.11288e-09
1.3932e-08
-1.06393e-07
-1.55077e-07
-3.00608e-08
1.85712e-07
7.87942e-08
-1.19742e-07
-2.23932e-07
3.13899e-08
4.13193e-07
2.23735e-07
-1.05644e-07
5.06172e-08
4.61799e-08
-2.09318e-07
3.62074e-08
-5.27719e-08
-2.2105e-07
1.10864e-07
1.53014e-07
1.54404e-07
3.285e-08
3.91288e-08
3.11635e-07
3.27498e-07
1.79815e-08
1.75956e-08
1.74907e-07
-1.19855e-07
1.06781e-07
1.98696e-07
-5.02844e-09
-5.23199e-08
6.33821e-09
2.81066e-07
1.55999e-07
-1.27322e-07
-1.54e-07
-2.12909e-07
-2.42135e-07
1.48613e-07
1.12959e-07
-2.7146e-07
-7.32222e-08
1.92952e-07
8.31117e-08
-4.07208e-08
-6.61204e-08
-3.41464e-08
1.69356e-08
-2.09945e-08
-1.76891e-07
-2.16386e-07
7.18943e-08
1.60228e-08
-2.68807e-08
2.44399e-07
2.79929e-07
7.08522e-08
1.4547e-08
1.7181e-08
-9.8792e-08
-1.41196e-07
-3.36402e-08
1.64093e-07
7.45873e-08
-1.06279e-07
-2.04733e-07
2.71355e-08
3.86785e-07
2.24146e-07
-8.91765e-08
3.98953e-08
4.474e-08
-1.94746e-07
2.48214e-08
-5.05491e-08
-2.07632e-07
1.03853e-07
1.50677e-07
1.53609e-07
4.1002e-08
4.4788e-08
2.95175e-07
3.15688e-07
2.85948e-08
1.31679e-08
1.71633e-07
-1.02442e-07
9.44109e-08
1.89809e-07
4.93358e-09
-3.688e-08
4.73894e-09
2.56801e-07
1.5218e-07
-1.17996e-07
-1.5252e-07
-2.01836e-07
-2.32279e-07
1.30557e-07
1.09615e-07
-2.49026e-07
-7.71715e-08
1.7183e-07
7.93207e-08
-3.5271e-08
-6.31752e-08
-3.20716e-08
1.62217e-08
-2.22051e-08
-1.66095e-07
-2.06853e-07
6.20394e-08
2.17532e-08
-2.14103e-08
2.27194e-07
2.6561e-07
7.04313e-08
1.91225e-08
2.0829e-08
-9.04568e-08
-1.27459e-07
-3.70628e-08
1.42767e-07
6.98528e-08
-9.27595e-08
-1.84671e-07
2.34544e-08
3.59596e-07
2.23363e-07
-7.23921e-08
2.92921e-08
4.29378e-08
-1.79649e-07
1.34861e-08
-4.7364e-08
-1.93346e-07
9.63155e-08
1.47926e-07
1.52699e-07
4.95396e-08
5.05527e-08
2.77995e-07
3.02377e-07
4.00025e-08
9.18271e-09
1.67564e-07
-8.34883e-08
8.21799e-08
1.80332e-07
1.46048e-08
-2.1193e-08
4.03344e-09
2.31599e-07
1.47588e-07
-1.07976e-07
-1.50764e-07
-1.90176e-07
-2.21359e-07
1.11548e-07
1.05809e-07
-2.26127e-07
-8.10792e-08
1.50727e-07
7.50858e-08
-3.00731e-08
-5.99458e-08
-2.98074e-08
1.51632e-08
-2.33662e-08
-1.54658e-07
-1.96803e-07
5.19083e-08
2.72371e-08
-1.59018e-08
2.09473e-07
2.50897e-07
7.01505e-08
2.26868e-08
2.46025e-08
-8.1746e-08
-1.14312e-07
-3.99958e-08
1.21704e-07
6.48671e-08
-7.96274e-08
-1.64468e-07
2.04121e-08
3.32266e-07
2.21357e-07
-5.57655e-08
1.93075e-08
4.06575e-08
-1.64269e-07
2.64661e-09
-4.34565e-08
-1.78416e-07
8.84918e-08
1.44696e-07
1.51617e-07
5.83112e-08
5.59085e-08
2.6062e-07
2.87947e-07
5.16091e-08
5.95164e-09
1.62608e-07
-6.40697e-08
7.05064e-08
1.70529e-07
2.35218e-08
-6.33325e-09
4.37973e-09
2.06441e-07
1.42208e-07
-9.74587e-08
-1.48558e-07
-1.78484e-07
-2.09764e-07
9.22728e-08
1.01418e-07
-2.03426e-07
-8.44555e-08
1.30135e-07
7.04747e-08
-2.52404e-08
-5.65487e-08
-2.75352e-08
1.37438e-08
-2.44476e-08
-1.42918e-07
-1.86344e-07
4.18411e-08
3.22345e-08
-1.03369e-08
1.91649e-07
2.35954e-07
7.00638e-08
2.52932e-08
2.82926e-08
-7.28786e-08
-1.01912e-07
-4.21665e-08
1.01859e-07
5.98794e-08
-6.721e-08
-1.44632e-07
1.80566e-08
3.05457e-07
2.18108e-07
-3.96474e-08
1.02904e-08
3.79043e-08
-1.48863e-07
-7.38394e-09
-3.91556e-08
-1.63179e-07
8.06275e-08
1.4098e-07
1.50268e-07
6.70867e-08
6.13162e-08
2.43516e-07
2.72778e-07
6.291e-08
3.70548e-09
1.56668e-07
-4.47702e-08
5.99571e-08
1.6056e-07
3.13727e-08
7.12415e-09
5.82512e-09
1.82135e-07
1.35988e-07
-8.66423e-08
-1.45691e-07
-1.67127e-07
-1.97783e-07
7.33384e-08
9.63032e-08
-1.81377e-07
-8.70048e-08
1.10383e-07
6.56018e-08
-2.08293e-08
-5.30502e-08
-2.53726e-08
1.19984e-08
-2.54424e-08
-1.3114e-07
-1.75552e-07
3.20824e-08
3.65648e-08
-4.7354e-09
1.74152e-07
2.20563e-07
7.01127e-08
2.7045e-08
3.17396e-08
-6.39732e-08
-9.03397e-08
-4.34373e-08
8.3553e-08
5.48487e-08
-5.57072e-08
-1.25485e-07
1.64307e-08
2.79627e-07
2.13599e-07
-2.42698e-08
2.49356e-09
3.47859e-08
-1.33656e-07
-1.63543e-08
-3.47683e-08
-1.47887e-07
7.2941e-08
1.36842e-07
1.48562e-07
7.55764e-08
6.65765e-08
2.27088e-07
2.57225e-07
7.34812e-08
2.71948e-09
1.49783e-07
-2.5948e-08
5.08719e-08
1.506e-07
3.80333e-08
1.88929e-08
8.28412e-09
1.5924e-07
1.28908e-07
-7.57549e-08
-1.42001e-07
-1.56353e-07
-1.85655e-07
5.5257e-08
9.03941e-08
-1.6034e-07
-8.86301e-08
9.09414e-08
6.05551e-08
-1.68232e-08
-4.94849e-08
-2.27133e-08
1.00061e-08
-2.63488e-08
-1.19533e-07
-1.64498e-07
2.28233e-08
4.00718e-08
8.70166e-10
1.57365e-07
2.06158e-07
7.02179e-08
2.80691e-08
3.47844e-08
-5.51169e-08
-7.96341e-08
-4.37888e-08
6.69687e-08
4.9763e-08
-4.52203e-08
-1.07311e-07
1.55265e-08
2.55056e-07
2.07872e-07
-9.82106e-09
-3.88547e-09
3.13682e-08
-1.18826e-07
-2.40471e-08
-3.05208e-08
-1.32767e-07
6.56019e-08
1.32372e-07
1.46442e-07
8.35126e-08
7.15457e-08
2.11694e-07
2.41582e-07
8.27471e-08
3.08964e-09
1.42112e-07
-7.45145e-09
4.35227e-08
1.40829e-07
4.35071e-08
2.88352e-08
1.15831e-08
1.3812e-07
1.20996e-07
-6.50616e-08
-1.37398e-07
-1.46301e-07
-1.73571e-07
3.84307e-08
8.36881e-08
-1.40599e-07
-8.92879e-08
7.27657e-08
5.53451e-08
-1.33276e-08
-4.59154e-08
-2.05069e-08
7.84664e-09
-2.71733e-08
-1.08261e-07
-1.53245e-07
1.42227e-08
4.26587e-08
6.41492e-09
1.41549e-07
1.91521e-07
7.0314e-08
2.85164e-08
3.72738e-08
-4.64061e-08
-6.97874e-08
-4.32529e-08
5.22466e-08
4.46686e-08
-3.58317e-08
-9.02944e-08
1.52798e-08
2.3195e-07
2.01049e-07
3.54362e-09
-8.7459e-09
2.76827e-08
-1.045e-07
-3.02488e-08
-2.65632e-08
-1.1797e-07
5.87837e-08
1.27689e-07
1.4389e-07
9.06474e-08
7.61792e-08
1.97556e-07
2.26108e-07
9.0898e-08
4.76548e-09
1.33822e-07
9.29513e-09
3.80628e-08
1.31399e-07
4.78822e-08
3.69444e-08
1.54873e-08
1.19032e-07
1.12344e-07
-5.48312e-08
-1.31872e-07
-1.37027e-07
-1.61676e-07
2.31482e-08
7.62467e-08
-1.22377e-07
-8.89548e-08
5.582e-08
4.99547e-08
-1.04302e-08
-4.2416e-08
-1.83277e-08
5.59675e-09
-2.79485e-08
-9.74883e-08
-1.41854e-07
6.41837e-09
4.42964e-08
1.18082e-08
1.26895e-07
1.77088e-07
7.03439e-08
2.8513e-08
3.91046e-08
-3.79526e-08
-6.0757e-08
-4.189e-08
3.94304e-08
3.96313e-08
-2.75491e-08
-7.45745e-08
1.5589e-08
2.10446e-07
1.93303e-07
1.56971e-08
-1.20704e-08
2.37874e-08
-9.09525e-08
-3.49352e-08
-2.2967e-08
-1.03608e-07
5.26341e-08
1.22898e-07
1.40928e-07
9.68519e-08
8.04495e-08
1.8477e-07
2.1103e-07
9.75366e-08
7.63744e-09
1.25169e-07
2.44275e-08
3.44874e-08
1.22413e-07
5.12825e-08
4.33458e-08
1.97358e-08
1.02139e-07
1.0312e-07
-4.53037e-08
-1.25489e-07
-1.28539e-07
-1.50097e-07
9.58771e-09
6.82096e-08
-1.05841e-07
-8.76506e-08
4.08586e-08
4.44101e-08
-8.14354e-09
-3.90789e-08
-1.62119e-08
3.37836e-09
-2.87233e-08
-8.73631e-08
-1.3039e-07
-4.75024e-10
4.50271e-08
1.69429e-08
1.13535e-07
1.62927e-07
7.02552e-08
2.82028e-08
4.02368e-08
-2.9874e-08
-5.24584e-08
-3.97659e-08
2.85092e-08
3.47099e-08
-2.03598e-08
-6.02396e-08
1.63445e-08
1.90642e-07
1.84821e-07
2.65455e-08
-1.39078e-08
1.97921e-08
-7.82878e-08
-3.81552e-08
-1.97434e-08
-8.97926e-08
4.7254e-08
1.18096e-07
1.37605e-07
1.02067e-07
8.43216e-08
1.73281e-07
1.96567e-07
1.02619e-07
1.14969e-08
1.16161e-07
3.77482e-08
3.26689e-08
1.13942e-07
5.38988e-08
4.81829e-08
2.40739e-08
8.7498e-08
9.35463e-08
-3.66406e-08
-1.18394e-07
-1.208e-07
-1.38945e-07
-2.16285e-09
5.9781e-08
-9.10926e-08
-8.54648e-08
2.7314e-08
3.87925e-08
-6.40834e-09
-3.59992e-08
-1.42165e-08
1.23998e-09
-2.95257e-08
-7.80062e-08
-1.18937e-07
-6.379e-09
4.491e-08
2.16974e-08
1.01538e-07
1.49189e-07
6.99967e-08
2.77279e-08
4.06552e-08
-2.22861e-08
-4.48219e-08
-3.69831e-08
1.94201e-08
2.99692e-08
-1.42604e-08
-4.73298e-08
1.74483e-08
1.72581e-07
1.75801e-07
3.60349e-08
-1.43671e-08
1.5837e-08
-6.66232e-08
-3.99845e-08
-1.68915e-08
-7.66305e-08
4.27167e-08
1.13375e-07
1.33975e-07
1.06279e-07
8.7783e-08
1.62995e-07
1.82923e-07
1.06159e-07
1.61329e-08
1.07292e-07
4.91221e-08
3.24062e-08
1.06073e-07
5.58806e-08
5.16344e-08
2.8268e-08
7.49578e-08
8.38803e-08
-2.89547e-08
-1.10777e-07
-1.13735e-07
-1.28313e-07
-1.20965e-08
5.12045e-08
-7.81149e-08
-8.25357e-08
1.53591e-08
3.3178e-08
-5.17538e-09
-3.3243e-08
-1.23461e-08
-8.00847e-10
-3.03413e-08
-6.94683e-08
-1.07606e-07
-1.12518e-08
4.4034e-08
2.59703e-08
9.09321e-08
1.36008e-07
6.95052e-08
2.72007e-08
4.03865e-08
-1.52939e-08
-3.77908e-08
-3.37032e-08
1.20713e-08
2.54781e-08
-9.16211e-09
-3.58479e-08
1.88049e-08
1.56258e-07
1.66444e-07
4.41443e-08
-1.35945e-08
1.20681e-08
-5.60269e-08
-4.05372e-08
-1.44123e-08
-6.42141e-08
3.90603e-08
1.08812e-07
1.30106e-07
1.09494e-07
9.0792e-08
1.53825e-07
1.70248e-07
1.08235e-07
2.1311e-08
9.87302e-08
5.84939e-08
3.3441e-08
9.88626e-08
5.7357e-08
5.39033e-08
3.2135e-08
6.45422e-08
7.43779e-08
-2.23475e-08
-1.02833e-07
-1.07209e-07
-1.18279e-07
-2.02788e-08
4.27252e-08
-6.68309e-08
-7.90261e-08
4.96488e-09
2.76144e-08
-4.42445e-09
-3.0821e-08
-1.06584e-08
-2.69877e-09
-3.11189e-08
-6.17764e-08
-9.65263e-08
-1.50901e-08
4.24981e-08
2.96883e-08
8.17227e-08
1.23512e-07
6.87131e-08
2.6696e-08
3.95045e-08
-8.97753e-09
-3.13187e-08
-3.00588e-08
6.35727e-09
2.13054e-08
-4.97681e-09
-2.57661e-08
2.03173e-08
1.41621e-07
1.56927e-07
5.08837e-08
-1.17646e-08
8.64636e-09
-4.65426e-08
-3.99561e-08
-1.22588e-08
-5.26226e-08
3.62803e-08
1.04476e-07
1.26083e-07
1.11734e-07
9.33391e-08
1.45693e-07
1.58643e-07
1.08958e-07
2.67915e-08
9.0685e-08
6.58873e-08
3.54045e-08
9.23258e-08
5.84309e-08
5.51969e-08
3.55284e-08
5.60893e-08
6.52648e-08
-1.68557e-08
-9.47422e-08
-1.0108e-07
-1.08893e-07
-2.68357e-08
3.45309e-08
-5.71709e-08
-7.51002e-08
-3.93914e-09
2.21597e-08
-4.11087e-09
-2.87232e-08
-9.20258e-09
-4.43712e-09
-3.17838e-08
-5.49365e-08
-8.58392e-08
-1.79277e-08
4.04184e-08
3.28014e-08
7.38755e-08
1.11801e-07
6.75623e-08
2.62802e-08
3.8118e-08
-3.396e-09
-2.53885e-08
-2.61804e-08
2.15846e-09
1.75239e-08
-1.61013e-09
-1.70209e-08
2.19e-08
1.28578e-07
1.47408e-07
5.62927e-08
-9.05642e-09
5.67354e-09
-3.81569e-08
-3.83883e-08
-1.03654e-08
-4.19147e-08
3.43222e-08
1.00398e-07
1.21997e-07
1.13074e-07
9.54422e-08
1.3849e-07
1.48152e-07
1.08489e-07
3.23212e-08
8.33139e-08
7.13827e-08
3.83886e-08
8.64973e-08
5.91844e-08
5.57429e-08
3.837e-08
4.9373e-08
5.6734e-08
-1.24232e-08
-8.66798e-08
-9.52385e-08
-1.00189e-07
-3.1931e-08
2.67336e-08
-4.90143e-08
-7.0889e-08
-1.14538e-08
1.68601e-08
-4.16969e-09
-2.6922e-08
-8.00842e-09
-6.00692e-09
-3.22506e-08
-4.89311e-08
-7.56795e-08
-1.98236e-08
3.79242e-08
3.52741e-08
6.73152e-08
1.01161e-07
6.60209e-08
2.60083e-08
3.63593e-08
1.4196e-09
-1.99946e-08
-2.19245e-08
-6.81575e-10
1.4205e-08
1.05878e-09
-9.50743e-09
2.34958e-08
1.16995e-07
1.3803e-07
6.04398e-08
-5.65887e-09
3.22971e-09
-3.08411e-08
-3.59928e-08
-8.67977e-09
-3.21187e-08
3.31057e-08
9.65827e-08
1.1795e-07
1.1359e-07
9.70996e-08
1.32095e-07
1.38798e-07
1.07028e-07
3.77197e-08
7.67649e-08
7.51055e-08
4.17235e-08
8.13981e-08
5.96739e-08
5.57341e-08
4.06175e-08
4.41339e-08
4.89476e-08
-8.99595e-09
-7.88173e-08
-8.96049e-08
-9.21865e-08
-3.57475e-08
1.94562e-08
-4.22101e-08
-6.64846e-08
-1.76733e-08
1.17232e-08
-4.54239e-09
-2.53698e-08
-7.12902e-09
-7.39986e-09
-3.24402e-08
-4.37173e-08
-6.61685e-08
-2.0857e-08
3.51489e-08
3.70863e-08
6.19257e-08
9.14328e-08
6.40896e-08
2.59197e-08
3.43547e-08
5.45514e-09
-1.51297e-08
-1.77758e-08
-2.37572e-09
1.14326e-08
3.14689e-09
-3.11343e-09
2.50623e-08
1.06709e-07
1.28919e-07
6.3439e-08
-1.80713e-09
1.37528e-09
-2.45317e-08
-3.29361e-08
-7.1296e-09
-2.32661e-08
3.25276e-08
9.30306e-08
1.1404e-07
1.1338e-07
9.83089e-08
1.26459e-07
1.30564e-07
1.04803e-07
4.28138e-08
7.11518e-08
7.72442e-08
4.52382e-08
7.70102e-08
5.99347e-08
5.53432e-08
4.22742e-08
4.013e-08
4.20122e-08
-6.48662e-09
-7.12996e-08
-8.41262e-08
-8.48845e-08
-3.84625e-08
1.27783e-08
-3.65862e-08
-6.2015e-08
-2.27149e-08
6.79098e-09
-5.16547e-09
-2.40299e-08
-6.60622e-09
-8.63233e-09
-3.23095e-08
-3.9233e-08
-5.74035e-08
-2.1122e-08
3.22184e-08
3.82469e-08
5.75548e-08
8.26847e-08
6.18232e-08
2.6e-08
3.22321e-08
8.72392e-09
-1.07848e-08
-1.3796e-08
-3.13692e-09
9.27933e-09
4.78718e-09
2.25423e-09
2.65323e-08
9.75897e-08
1.20192e-07
6.5411e-08
2.307e-09
1.5285e-10
-1.91383e-08
-2.94007e-08
-5.6451e-09
-1.53585e-08
3.24538e-08
8.97179e-08
1.10344e-07
1.12576e-07
9.91185e-08
1.21418e-07
1.23331e-07
1.02055e-07
4.74614e-08
6.64557e-08
7.80254e-08
4.87506e-08
7.33074e-08
5.99935e-08
5.47177e-08
4.3378e-08
3.71277e-08
3.59703e-08
-4.77026e-09
-6.42229e-08
-7.87733e-08
-7.82588e-08
-4.02455e-08
6.7372e-09
-3.20052e-08
-5.76132e-08
-2.66752e-08
2.1368e-09
-5.9491e-09
-2.28588e-08
-6.47129e-09
-9.72005e-09
-3.18425e-08
-3.54047e-08
-4.94563e-08
-2.07292e-08
2.92471e-08
3.87943e-08
5.40266e-08
7.49357e-08
5.92841e-08
2.6193e-08
3.01131e-08
1.12924e-08
-6.94266e-09
-1.00737e-08
-3.1335e-09
7.75431e-09
6.0992e-09
6.69134e-09
2.78522e-08
8.95274e-08
1.11935e-07
6.64869e-08
6.52782e-09
-4.34304e-10
-1.45779e-08
-2.55564e-08
-4.15843e-09
-8.35392e-09
3.27674e-08
8.66214e-08
1.069e-07
1.11316e-07
9.95624e-08
1.1688e-07
1.17033e-07
9.89992e-08
5.15496e-08
6.25265e-08
7.76724e-08
5.1981e-08
7.0241e-08
5.98806e-08
5.39774e-08
4.39911e-08
3.49255e-08
3.08187e-08
-3.68876e-09
-5.76364e-08
-7.35628e-08
-7.22736e-08
-4.12499e-08
1.34798e-09
-2.83531e-08
-5.33551e-08
-2.96311e-08
-2.18586e-09
-6.83755e-09
-2.1804e-08
-6.70981e-09
-1.06857e-08
-3.10413e-08
-3.2123e-08
-4.23666e-08
-1.98049e-08
2.63325e-08
3.87855e-08
5.11674e-08
6.81361e-08
5.65386e-08
2.64451e-08
2.80748e-08
1.32395e-08
-3.59241e-09
-6.63546e-09
-2.48695e-09
6.82601e-09
7.17098e-09
1.02998e-08
2.90032e-08
8.24272e-08
1.0419e-07
6.67929e-08
1.07017e-08
-4.15765e-10
-1.07373e-08
-2.15514e-08
-2.60968e-09
-2.19656e-09
3.33762e-08
8.37276e-08
1.03712e-07
1.09714e-07
9.96462e-08
1.12774e-07
1.11607e-07
9.58101e-08
5.50289e-08
5.95317e-08
7.64409e-08
5.4799e-08
6.77373e-08
5.96205e-08
5.32141e-08
4.421e-08
3.33131e-08
2.65126e-08
-3.08697e-09
-5.1576e-08
-6.85154e-08
-6.68854e-08
-4.16153e-08
-3.39812e-09
-2.54828e-08
-4.92775e-08
-3.16933e-08
-6.15307e-09
-7.81153e-09
-2.08299e-08
-7.27018e-09
-1.15523e-08
-2.99328e-08
-2.93207e-08
-3.6136e-08
-1.84786e-08
2.36303e-08
3.82909e-08
4.88084e-08
6.22331e-08
5.3649e-08
2.67037e-08
2.61787e-08
1.46476e-08
-6.82634e-10
-3.49929e-09
-1.341e-09
6.43619e-09
8.08405e-09
1.31952e-08
2.99854e-08
7.61858e-08
9.69466e-08
6.64556e-08
1.47252e-08
1.52663e-10
-7.49123e-09
-1.75068e-08
-9.53788e-10
3.18237e-09
3.42074e-08
8.10242e-08
1.00764e-07
1.07882e-07
9.94113e-08
1.09004e-07
1.06935e-07
9.26767e-08
5.78925e-08
5.73324e-08
7.45813e-08
5.71122e-08
6.57216e-08
5.92361e-08
5.24786e-08
4.41095e-08
3.21156e-08
2.29967e-08
-2.83309e-09
-4.60748e-08
-6.36508e-08
-6.20375e-08
-4.14627e-08
-7.52202e-09
-2.32675e-08
-4.5406e-08
-3.29767e-08
-9.75119e-09
-8.83963e-09
-1.99038e-08
-8.08042e-09
-1.23406e-08
-2.85698e-08
-2.69236e-08
-3.07366e-08
-1.68648e-08
2.10373e-08
3.73973e-08
4.67812e-08
5.71363e-08
5.07783e-08
2.69571e-08
2.44695e-08
1.56104e-08
1.87072e-09
-7.1475e-10
1.13724e-10
6.50652e-09
8.91433e-09
1.5496e-08
3.08022e-08
7.06852e-08
9.01995e-08
6.56238e-08
1.85205e-08
1.198e-09
-4.72342e-09
-1.35288e-08
8.06986e-10
7.87674e-09
3.51917e-08
7.84841e-08
9.80308e-08
1.05907e-07
9.89123e-08
1.05515e-07
1.02884e-07
8.95984e-08
6.01657e-08
5.58278e-08
7.2305e-08
5.88714e-08
6.41037e-08
5.87575e-08
5.17867e-08
4.37709e-08
3.12183e-08
2.02051e-08
-2.80361e-09
-4.11351e-08
-5.89963e-08
-5.76745e-08
-4.09048e-08
-1.10657e-08
-2.16054e-08
-4.17655e-08
-3.3598e-08
-1.29714e-08
-9.8842e-09
-1.90112e-08
-9.05999e-09
3.29694e-07
1.42964e-07
-2.08616e-07
-1.5888e-07
-6.8362e-08
-2.28248e-07
1.5525e-08
4.91465e-07
1.00143e-07
-2.94974e-07
7.99534e-08
-3.02086e-08
-1.03455e-07
3.48899e-07
6.16542e-08
-2.74972e-07
8.12967e-08
1.24881e-08
-3.51754e-07
1.17111e-08
4.32441e-07
4.30559e-07
1.05455e-07
-8.39979e-08
-9.48069e-08
-1.00141e-07
-4.86791e-08
-2.11653e-07
5.13787e-08
1.12852e-07
1.84721e-07
2.25783e-07
-1.87102e-07
1.28647e-07
4.96374e-07
1.97044e-07
-1.93763e-07
-1.65929e-07
1.81945e-07
9.8595e-08
1.63732e-07
9.62529e-08
5.33079e-08
2.12436e-07
1.6139e-08
3.08833e-08
-5.48958e-09
-7.15814e-08
-1.69272e-07
-4.1094e-07
-1.18928e-07
3.71273e-07
-3.85037e-08
-1.76919e-08
7.53474e-08
-3.15955e-07
-8.06965e-08
2.36342e-07
-1.1645e-07
-1.32947e-07
3.02914e-07
1.23195e-07
-2.0567e-07
-1.59065e-07
-6.62218e-08
-2.03162e-07
3.21803e-08
4.63191e-07
8.23998e-08
-2.69708e-07
7.81655e-08
-2.7644e-08
-8.38572e-08
3.21343e-07
4.33518e-08
-2.49387e-07
7.76234e-08
-7.8957e-09
-3.25106e-07
3.05577e-08
4.27476e-07
4.06046e-07
8.58178e-08
-8.11449e-08
-9.33654e-08
-1.005e-07
-4.62975e-08
-1.88777e-07
4.85097e-08
1.12551e-07
1.81584e-07
2.05081e-07
-1.59486e-07
1.46123e-07
4.69131e-07
1.76937e-07
-1.88985e-07
-1.43395e-07
1.80178e-07
9.84036e-08
1.63256e-07
9.75539e-08
5.09421e-08
1.90156e-07
1.82619e-08
3.15532e-08
-4.79716e-09
-7.10411e-08
-1.66596e-07
-3.85955e-07
-1.03163e-07
3.45257e-07
-3.63122e-08
-2.00059e-08
5.49306e-08
-2.88509e-07
-6.29033e-08
2.10375e-07
-1.12079e-07
-1.12827e-07
2.86715e-07
1.18894e-07
-2.00024e-07
-1.58875e-07
-6.21121e-08
-1.90023e-07
3.12297e-08
4.45362e-07
8.17954e-08
-2.57728e-07
7.4727e-08
-2.29602e-08
-7.99559e-08
3.05674e-07
4.24998e-08
-2.37064e-07
7.04612e-08
-1.20877e-08
-3.08657e-07
3.41312e-08
4.18056e-07
3.93255e-07
8.19408e-08
-7.56915e-08
-9.09417e-08
-1.01191e-07
-4.17303e-08
-1.79985e-07
4.40739e-08
1.11896e-07
1.75879e-07
2.00395e-07
-1.43105e-07
1.46534e-07
4.52087e-07
1.72367e-07
-1.79393e-07
-1.35319e-07
1.76841e-07
9.70905e-08
1.6236e-07
9.92727e-08
4.66498e-08
1.81922e-07
2.21935e-08
3.23187e-08
-4.08002e-09
-7.07534e-08
-1.61442e-07
-3.72754e-07
-1.05239e-07
3.31984e-07
-3.24005e-08
-2.39608e-08
5.07442e-08
-2.72206e-07
-6.23915e-08
1.96968e-07
-1.04045e-07
-1.07767e-07
2.692e-07
1.17208e-07
-1.92132e-07
-1.58293e-07
-5.75865e-08
-1.76876e-07
2.62204e-08
4.25365e-07
8.56552e-08
-2.45992e-07
6.94386e-08
-1.67363e-08
-7.88416e-08
2.88834e-07
4.6172e-08
-2.24687e-07
6.08429e-08
-1.28007e-08
-2.91167e-07
3.44979e-08
4.05102e-07
3.80524e-07
8.13719e-08
-6.93053e-08
-8.76818e-08
-1.01032e-07
-3.63979e-08
-1.725e-07
3.87317e-08
1.11329e-07
1.68947e-07
1.98258e-07
-1.25965e-07
1.42359e-07
4.33979e-07
1.70856e-07
-1.66829e-07
-1.29095e-07
1.72156e-07
9.56118e-08
1.60247e-07
1.01169e-07
4.20821e-08
1.75234e-07
2.72899e-08
3.29976e-08
-3.3678e-09
-7.07236e-08
-1.55323e-07
-3.5897e-07
-1.11674e-07
3.18097e-07
-2.67592e-08
-2.93096e-08
4.92501e-08
-2.54534e-07
-6.5769e-08
1.83341e-07
-9.38153e-08
-1.04879e-07
2.48402e-07
1.14835e-07
-1.82298e-07
-1.57247e-07
-5.28537e-08
-1.6118e-07
2.09523e-08
4.01498e-07
9.02832e-08
-2.32343e-07
6.26095e-08
-9.27511e-09
-7.74286e-08
2.67739e-07
5.08339e-08
-2.09989e-07
4.96506e-08
-1.30457e-08
-2.7071e-07
3.47402e-08
3.89392e-07
3.65294e-07
8.06247e-08
-6.27085e-08
-8.34414e-08
-1.00113e-07
-3.06553e-08
-1.63276e-07
3.27176e-08
1.10813e-07
1.61216e-07
1.954e-07
-1.06319e-07
1.37153e-07
4.13097e-07
1.69026e-07
-1.51952e-07
-1.21756e-07
1.66457e-07
9.41998e-08
1.56805e-07
1.03622e-07
3.75254e-08
1.67285e-07
3.30368e-08
3.36824e-08
-2.44777e-09
-7.06421e-08
-1.48584e-07
-3.42117e-07
-1.18763e-07
3.01251e-07
-1.97672e-08
-3.67772e-08
4.72781e-08
-2.33024e-07
-6.94235e-08
1.67243e-07
-8.22024e-08
-1.01125e-07
2.25248e-07
1.11573e-07
-1.70957e-07
-1.55727e-07
-4.82241e-08
-1.43618e-07
1.60676e-08
3.74934e-07
9.52201e-08
-2.17312e-07
5.45179e-08
-1.08083e-09
-7.55439e-08
2.44227e-07
5.59828e-08
-1.93542e-07
3.77154e-08
-1.29469e-08
-2.48387e-07
3.47974e-08
3.71817e-07
3.48585e-07
7.96726e-08
-5.64467e-08
-7.83338e-08
-9.85515e-08
-2.48607e-08
-1.52333e-07
2.63382e-08
1.10277e-07
1.53186e-07
1.91727e-07
-8.5251e-08
1.3134e-07
3.90495e-07
1.66891e-07
-1.35707e-07
-1.13891e-07
1.6003e-07
9.29496e-08
1.52509e-07
1.06195e-07
3.32748e-08
1.58196e-07
3.89204e-08
3.4403e-08
-1.25392e-09
-7.03084e-08
-1.41476e-07
-3.22771e-07
-1.25901e-07
2.81603e-07
-1.17557e-08
-4.45046e-08
4.45429e-08
-2.09791e-07
-7.27282e-08
1.49415e-07
-7.00622e-08
-9.64679e-08
2.0093e-07
1.07466e-07
-1.5855e-07
-1.5368e-07
-4.41054e-08
-1.25333e-07
1.17811e-08
3.46895e-07
1.00484e-07
-2.01431e-07
4.54299e-08
7.20975e-09
-7.31667e-08
2.20065e-07
6.13462e-08
-1.76123e-07
2.57494e-08
-1.24811e-08
-2.25444e-07
3.43722e-08
3.53165e-07
3.31624e-07
7.87291e-08
-5.08646e-08
-7.26258e-08
-9.65109e-08
-1.94716e-08
-1.40102e-07
1.98931e-08
1.0967e-07
1.45449e-07
1.87485e-07
-6.39903e-08
1.24875e-07
3.67352e-07
1.64995e-07
-1.18777e-07
-1.06042e-07
1.52982e-07
9.17838e-08
1.46935e-07
1.09019e-07
2.97853e-08
1.48406e-07
4.45101e-08
3.51343e-08
1.34116e-10
-6.96455e-08
-1.34335e-07
-3.01824e-07
-1.32682e-07
2.60252e-07
-2.97302e-09
-5.17401e-08
4.09355e-08
-1.86462e-07
-7.53111e-08
1.30805e-07
-5.81172e-08
-9.10513e-08
1.76337e-07
1.02411e-07
-1.45424e-07
-1.51041e-07
-4.08128e-08
-1.06983e-07
8.25828e-09
3.1879e-07
1.05975e-07
-1.84938e-07
3.56906e-08
1.50365e-08
-7.01437e-08
1.95977e-07
6.65308e-08
-1.58384e-07
1.43341e-08
-1.18343e-08
-2.02741e-07
3.34737e-08
3.33898e-07
3.15047e-07
7.79212e-08
-4.60558e-08
-6.65041e-08
-9.40778e-08
-1.49248e-08
-1.26986e-07
1.36316e-08
1.08906e-07
1.3846e-07
1.82813e-07
-4.33369e-08
1.18398e-07
3.44386e-07
1.63532e-07
-1.01522e-07
-9.82152e-08
1.45329e-07
9.08814e-08
1.40418e-07
1.11809e-07
2.74296e-08
1.38249e-07
4.9531e-08
3.58648e-08
1.59816e-09
-6.86139e-08
-1.27534e-07
-2.79983e-07
-1.38607e-07
2.37562e-07
6.28823e-09
-5.79638e-08
3.6358e-08
-1.63848e-07
-7.68728e-08
1.12033e-07
-4.69493e-08
-8.48661e-08
1.52128e-07
9.63072e-08
-1.31888e-07
-1.47601e-07
-3.84785e-08
-8.91964e-08
5.56941e-09
2.9102e-07
1.10811e-07
-1.6792e-07
2.57055e-08
2.19772e-08
-6.6366e-08
1.72391e-07
7.09873e-08
-1.40752e-07
3.90831e-09
-1.11462e-08
-1.80662e-07
3.21905e-08
3.14248e-07
2.98944e-07
7.73802e-08
-4.19603e-08
-6.0187e-08
-9.11994e-08
-1.13427e-08
-1.13368e-07
7.85142e-09
1.07896e-07
1.32436e-07
1.77825e-07
-2.37467e-08
1.11697e-07
3.21928e-07
1.62165e-07
-8.4114e-08
-9.02357e-08
1.3718e-07
9.02179e-08
1.331e-07
1.14259e-07
2.64432e-08
1.28021e-07
5.38251e-08
3.65152e-08
3.07179e-09
-6.71591e-08
-1.2125e-07
-2.57855e-07
-1.43266e-07
2.13925e-07
1.5686e-08
-6.27498e-08
3.08499e-08
-1.42598e-07
-7.72817e-08
9.36402e-08
-3.69851e-08
-7.79223e-08
1.28967e-07
8.91227e-08
-1.18262e-07
-1.43243e-07
-3.70879e-08
-7.25133e-08
3.77716e-09
2.64019e-07
1.15642e-07
-1.504e-07
1.58933e-08
2.77355e-08
-6.1829e-08
1.4963e-07
7.43747e-08
-1.23455e-07
-5.20858e-09
-1.04529e-08
-1.5937e-07
3.05931e-08
2.944e-07
2.83359e-07
7.71704e-08
-3.84611e-08
-5.39288e-08
-8.77422e-08
-8.75747e-09
-9.95943e-08
2.72471e-09
1.06452e-07
1.27412e-07
1.72642e-07
-5.42825e-09
1.0516e-07
3.00086e-07
1.60726e-07
-6.67569e-08
-8.2168e-08
1.28723e-07
8.97692e-08
1.25251e-07
1.16052e-07
2.67976e-08
1.18001e-07
5.73102e-08
3.70329e-08
4.51062e-09
-6.52377e-08
-1.15597e-07
-2.35977e-07
-1.46344e-07
1.89699e-07
2.4784e-08
-6.58278e-08
2.45959e-08
-1.22302e-07
-7.65096e-08
7.59297e-08
-2.85174e-08
-7.03189e-08
1.07277e-07
8.09069e-08
-1.04867e-07
-1.37882e-07
-3.65296e-08
-5.72769e-08
2.92703e-09
2.38032e-07
1.18762e-07
-1.32465e-07
6.6214e-09
3.21312e-08
-5.66109e-08
1.27937e-07
7.65382e-08
-1.0664e-07
-1.28074e-08
-9.77689e-09
-1.39039e-07
2.87642e-08
2.74548e-07
2.68286e-07
7.72563e-08
-3.54379e-08
-4.79068e-08
-8.36268e-08
-7.10515e-09
-8.59534e-08
-1.58183e-09
1.04476e-07
1.23324e-07
1.67335e-07
1.14754e-08
9.90956e-08
2.78934e-07
1.59109e-07
-4.94884e-08
-7.3998e-08
1.20094e-07
8.95159e-08
1.17117e-07
1.16923e-07
2.82925e-08
1.08438e-07
5.99462e-08
3.74089e-08
5.88041e-09
-6.28272e-08
-1.10592e-07
-2.14791e-07
-1.47641e-07
1.65223e-07
3.31158e-08
-6.71282e-08
1.78463e-08
-1.03943e-07
-7.45858e-08
5.93175e-08
-2.17111e-08
-6.22627e-08
8.73941e-08
7.18108e-08
-9.20105e-08
-1.31509e-07
-3.66213e-08
-4.36879e-08
2.97699e-09
2.13298e-07
1.21166e-07
-1.14322e-07
-1.79251e-09
3.50836e-08
-5.08176e-08
1.07743e-07
7.73788e-08
-9.04843e-08
-1.8784e-08
-9.10779e-09
-1.1986e-07
2.68733e-08
2.54913e-07
2.53686e-07
7.75884e-08
-3.27139e-08
-4.2259e-08
-7.88667e-08
-6.30842e-09
-7.26924e-08
-4.95387e-09
1.01914e-07
1.20042e-07
1.6194e-07
2.6868e-08
9.37144e-08
2.58588e-07
1.57209e-07
-3.33535e-08
-6.56742e-08
1.11425e-07
8.9403e-08
1.08953e-07
1.16718e-07
3.07123e-08
9.95083e-08
6.17398e-08
3.76514e-08
7.15729e-09
-5.9928e-08
-1.06182e-07
-1.94592e-07
-1.4707e-07
1.40793e-07
4.02772e-08
-6.66596e-08
1.08676e-08
-8.75244e-08
-7.15927e-08
4.41424e-08
-1.66088e-08
-5.4008e-08
6.95637e-08
6.20643e-08
-7.99596e-08
-1.24196e-07
-3.71179e-08
-3.18754e-08
3.84207e-09
1.90047e-07
1.22303e-07
-9.62584e-08
-9.07205e-09
3.6618e-08
-4.45833e-08
8.92284e-08
7.6856e-08
-7.51656e-08
-2.31115e-08
-8.46837e-09
-1.01971e-07
2.50954e-08
2.35715e-07
2.39495e-07
7.81002e-08
-3.01397e-08
-3.70906e-08
-7.35222e-08
-6.15858e-09
-6.00451e-08
-7.31308e-09
9.87707e-08
1.17405e-07
1.56512e-07
4.07101e-08
8.91369e-08
2.39168e-07
1.54964e-07
-1.75679e-08
-5.71272e-08
1.02835e-07
8.93503e-08
1.01023e-07
1.15411e-07
3.38037e-08
9.13401e-08
6.27432e-08
3.77578e-08
8.30532e-09
-5.65737e-08
-1.02245e-07
-1.75777e-07
-1.44653e-07
1.16956e-07
4.59589e-08
-6.45168e-08
3.94393e-09
-7.38043e-08
-6.76863e-08
3.0652e-08
-1.31419e-08
-4.58322e-08
5.39108e-08
5.19395e-08
-6.89461e-08
-1.16091e-07
-3.78181e-08
-2.19163e-08
5.41793e-09
1.68509e-07
1.22078e-07
-7.85761e-08
-1.50059e-08
3.68409e-08
-3.8084e-08
7.25425e-08
7.49967e-08
-6.08341e-08
-2.58342e-08
-7.85376e-09
-8.54395e-08
2.35584e-08
2.17132e-07
2.25662e-07
7.87169e-08
-2.75411e-08
-3.24763e-08
-6.76975e-08
-6.46265e-09
-4.82284e-08
-8.61184e-09
9.51043e-08
1.15232e-07
1.51123e-07
5.29903e-08
8.54249e-08
2.20782e-07
1.52315e-07
-2.51527e-09
-4.83028e-08
9.47023e-08
8.92314e-08
9.35636e-08
1.13082e-07
3.72538e-08
8.40107e-08
6.30263e-08
3.77325e-08
9.28654e-09
-5.28578e-08
-9.8587e-08
-1.5851e-07
-1.40553e-07
9.40658e-08
4.99501e-08
-6.08901e-08
-2.86038e-09
-6.21342e-08
-6.30887e-08
1.89777e-08
-1.11253e-08
-3.80034e-08
4.04533e-08
4.17294e-08
-5.91396e-08
-1.07392e-07
-3.85321e-08
-1.37853e-08
7.55745e-09
1.48848e-07
1.205e-07
-6.15815e-08
-1.94767e-08
3.5919e-08
-3.15057e-08
5.77851e-08
7.18988e-08
-4.76299e-08
-2.70535e-08
-7.23421e-09
-7.02987e-08
2.23454e-08
1.99311e-07
2.12146e-07