/*--------------------------------*- C++ -*----------------------------------*\
| =========                 |                                                 |
| \\      /  F ield         | OpenFOAM: The Open Source CFD Toolbox           |
|  \\    /   O peration     | Version:  2312                                  |
|   \\  /    A nd           | Website:  www.openfoam.com                      |
|    \\/     M anipulation  |                                                 |
\*---------------------------------------------------------------------------*/
FoamFile
{
    version     2.0;
    format      ascii;
    arch        "LSB;label=32;scalar=64";
    class       volScalarField;
    location    "100";
    object      pMean;
}
// * * * * * * * * * * * * * * * * * * * * * * * * * * * * * * * * * * * * * //

dimensions      [0 2 -2 0 0 0 0];

internalField   nonuniform List<scalar> 
144000
(
5.91979e-08
-1.97825e-08
-3.17102e-07
-3.96956e-07
1.58973e-07
-1.68604e-08
-1.27653e-07
4.14884e-07
4.96449e-07
1.16132e-07
-6.52881e-08
-2.70245e-08
-1.95346e-07
-3.58211e-07
-8.73443e-08
4.00203e-07
1.5947e-07
-2.69066e-07
-4.71551e-07
3.25997e-08
7.63548e-07
3.32646e-07
-3.23655e-07
9.38252e-08
9.16856e-08
-4.40018e-07
8.35904e-08
-3.88251e-08
-4.30966e-07
1.60392e-07
2.06001e-07
1.96219e-07
-2.2314e-08
-5.75513e-08
4.65409e-07
5.07245e-07
-7.3891e-08
1.7332e-08
2.67785e-07
-3.02943e-07
1.8434e-07
3.37407e-07
-8.3253e-08
-2.23234e-07
-2.31144e-08
5.46338e-07
2.7461e-07
-2.2269e-07
-2.37983e-07
-3.47381e-07
-3.94904e-07
3.24413e-07
2.49544e-07
-5.05772e-07
-1.14953e-07
4.53336e-07
2.1994e-07
-5.79893e-08
-9.35404e-08
-4.21743e-08
5.94966e-08
-1.9352e-08
-3.12347e-07
-3.6111e-07
1.53432e-07
-1.36025e-08
-9.25377e-08
4.07544e-07
4.55894e-07
8.27802e-08
-6.10704e-08
-2.54196e-08
-1.92137e-07
-3.17163e-07
-5.75587e-08
3.54959e-07
1.24644e-07
-2.61126e-07
-4.29679e-07
6.01895e-08
7.1583e-07
3.03338e-07
-2.7933e-07
8.75848e-08
5.85122e-08
-3.97932e-07
7.70366e-08
-7.21467e-08
-3.91839e-07
1.5616e-07
2.05688e-07
1.95998e-07
-1.9155e-08
-2.17468e-08
4.57692e-07
4.7042e-07
-6.72446e-08
1.28852e-08
2.34704e-07
-2.61225e-07
1.77321e-07
3.00395e-07
-7.68817e-08
-1.79964e-07
6.61147e-09
5.00639e-07
2.41831e-07
-2.18055e-07
-2.3713e-07
-3.42506e-07
-3.5867e-07
3.15358e-07
2.16511e-07
-4.60511e-07
-8.53778e-08
4.07589e-07
1.85615e-07
-5.42561e-08
-9.24683e-08
-4.19274e-08
5.87131e-08
-1.94293e-08
-3.01561e-07
-3.47457e-07
1.41697e-07
-6.49478e-09
-7.99198e-08
3.89699e-07
4.33282e-07
7.70037e-08
-5.10136e-08
-2.2598e-08
-1.85054e-07
-2.94e-07
-5.74364e-08
3.22228e-07
1.14599e-07
-2.42297e-07
-4.02645e-07
5.67452e-08
6.77337e-07
3.02488e-07
-2.51701e-07
7.25689e-08
5.16844e-08
-3.73816e-07
6.20932e-08
-7.84455e-08
-3.70714e-07
1.48057e-07
2.03093e-07
1.94808e-07
-1.10538e-08
-8.38444e-09
4.39067e-07
4.54242e-07
-5.45641e-08
4.85168e-09
2.27367e-07
-2.36749e-07
1.62086e-07
2.84499e-07
-6.20322e-08
-1.53928e-07
6.68694e-09
4.66513e-07
2.33688e-07
-2.06802e-07
-2.34559e-07
-3.3074e-07
-3.44521e-07
2.94677e-07
2.07998e-07
-4.2838e-07
-8.44043e-08
3.75343e-07
1.76088e-07
-4.51854e-08
-8.807e-08
-4.12115e-08
5.7131e-08
-2.00841e-08
-2.87406e-07
-3.36419e-07
1.2673e-07
2.40104e-09
-7.13139e-08
3.65737e-07
4.1196e-07
7.78674e-08
-3.92094e-08
-1.88099e-08
-1.75253e-07
-2.73132e-07
-6.44118e-08
2.88405e-07
1.09053e-07
-2.19218e-07
-3.74599e-07
4.62793e-08
6.35699e-07
3.07136e-07
-2.24122e-07
5.4392e-08
5.02647e-08
-3.50431e-07
4.31495e-08
-7.74619e-08
-3.50348e-07
1.37535e-07
1.99196e-07
1.93076e-07
9.56203e-10
9.09608e-10
4.14119e-07
4.39447e-07
-3.88492e-08
-3.52444e-09
2.24147e-07
-2.1168e-07
1.43516e-07
2.71506e-07
-4.4337e-08
-1.29519e-07
7.66714e-10
4.3012e-07
2.2956e-07
-1.91908e-07
-2.31143e-07
-3.15312e-07
-3.32536e-07
2.67148e-07
2.0356e-07
-3.94352e-07
-9.06164e-08
3.41765e-07
1.71179e-07
-3.41753e-08
-8.21117e-08
-3.98424e-08
5.50046e-08
-2.08765e-08
-2.70551e-07
-3.23045e-07
1.1032e-07
1.19696e-08
-6.20481e-08
3.38467e-07
3.88389e-07
7.86808e-08
-2.76502e-08
-1.39673e-08
-1.6334e-07
-2.49639e-07
-7.13325e-08
2.51625e-07
1.02256e-07
-1.9474e-07
-3.42643e-07
3.62039e-08
5.89639e-07
3.10217e-07
-1.9397e-07
3.53504e-08
4.82506e-08
-3.24561e-07
2.28221e-08
-7.4792e-08
-3.27368e-07
1.25502e-07
1.94322e-07
1.91007e-07
1.46656e-08
1.06318e-08
3.86279e-07
4.21204e-07
-2.06799e-08
-1.14992e-08
2.1918e-07
-1.82949e-07
1.23922e-07
2.56714e-07
-2.63552e-08
-1.03391e-07
-3.96288e-09
3.89476e-07
2.23563e-07
-1.75099e-07
-2.2696e-07
-2.97379e-07
-3.17797e-07
2.35536e-07
1.97665e-07
-3.56092e-07
-9.73137e-08
3.0434e-07
1.64964e-07
-2.3081e-08
-7.52527e-08
-3.78859e-08
5.2442e-08
-2.14463e-08
-2.51598e-07
-3.07589e-07
9.27084e-08
2.1508e-08
-5.22023e-08
3.09334e-07
3.63206e-07
7.87693e-08
-1.74164e-08
-8.21587e-09
-1.49898e-07
-2.24835e-07
-7.72069e-08
2.13575e-07
9.41354e-08
-1.70246e-07
-3.08231e-07
2.75274e-08
5.40434e-07
3.105e-07
-1.62375e-07
1.67084e-08
4.50538e-08
-2.97082e-07
2.69847e-09
-7.09928e-08
-3.02388e-07
1.12531e-07
1.88542e-07
1.88664e-07
2.89946e-08
2.06988e-08
3.57257e-07
3.99682e-07
-9.07142e-10
-1.8618e-08
2.12064e-07
-1.51534e-07
1.04398e-07
2.40455e-07
-9.15302e-09
-7.64578e-08
-6.5691e-09
3.46453e-07
2.15379e-07
-1.57234e-07
-2.21929e-07
-2.77937e-07
-3.00606e-07
2.02421e-07
1.90094e-07
-3.15895e-07
-1.03373e-07
2.65695e-07
1.57108e-07
-1.27206e-08
-6.7688e-08
-3.5559e-08
4.9501e-08
-2.16408e-08
-2.31396e-07
-2.90892e-07
7.45399e-08
3.04676e-08
-4.22118e-08
2.7945e-07
3.37271e-07
7.8531e-08
-9.06734e-09
-2.10321e-09
-1.35627e-07
-2.00602e-07
-8.18782e-08
1.76364e-07
8.51517e-08
-1.4662e-07
-2.73279e-07
2.02933e-08
4.90886e-07
3.07997e-07
-1.30752e-07
-5.40634e-10
4.07286e-08
-2.69076e-07
-1.61835e-08
-6.61903e-08
-2.76336e-07
9.91316e-08
1.81875e-07
1.86032e-07
4.34498e-08
3.07149e-08
3.28176e-07
3.75823e-07
1.93322e-08
-2.42469e-08
2.03052e-07
-1.18938e-07
8.59176e-08
2.23634e-07
6.66911e-09
-5.03213e-08
-7.0459e-09
3.03486e-07
2.05411e-07
-1.38852e-07
-2.15953e-07
-2.58105e-07
-2.8195e-07
1.68986e-07
1.8118e-07
-2.75885e-07
-1.08344e-07
2.27915e-07
1.48053e-07
-3.44764e-09
-5.97904e-08
-3.31177e-08
4.61667e-08
-2.14602e-08
-2.10781e-07
-2.73459e-07
5.65719e-08
3.83535e-08
-3.22113e-08
2.49779e-07
3.11151e-07
7.82595e-08
-2.66011e-09
3.85634e-09
-1.21152e-07
-1.77759e-07
-8.50077e-08
1.41588e-07
7.58868e-08
-1.24498e-07
-2.39091e-07
1.45722e-08
4.42414e-07
3.02777e-07
-1.00209e-07
-1.5592e-08
3.53486e-08
-2.41235e-07
-3.31108e-08
-6.08395e-08
-2.4995e-07
8.5852e-08
1.74396e-07
1.83014e-07
5.762e-08
4.0565e-08
2.99964e-07
3.50549e-07
3.89542e-08
-2.78579e-08
1.92298e-07
-8.67761e-08
6.9497e-08
2.06751e-07
2.05641e-08
-2.65729e-08
-5.42486e-09
2.62347e-07
1.93861e-07
-1.20432e-07
-2.08847e-07
-2.38766e-07
-2.62591e-07
1.3645e-07
1.70944e-07
-2.37394e-07
-1.11588e-07
1.91894e-07
1.38085e-07
4.59171e-09
-5.18138e-08
-3.06436e-08
4.24141e-08
-2.09087e-08
-1.90341e-07
-2.55553e-07
3.94211e-08
4.48e-08
-2.22794e-08
2.21174e-07
2.85368e-07
7.80182e-08
2.04565e-09
9.32322e-09
-1.06872e-07
-1.5667e-07
-8.63893e-08
1.10107e-07
6.6621e-08
-1.04315e-07
-2.06498e-07
1.03958e-08
3.96132e-07
2.94936e-07
-7.14275e-08
-2.79134e-08
2.9125e-08
-2.14247e-07
-4.75917e-08
-5.54861e-08
-2.23868e-07
7.32127e-08
1.6628e-07
1.79483e-07
7.10549e-08
5.0009e-08
2.73386e-07
3.24719e-07
5.70623e-08
-2.91134e-08
1.79994e-07
-5.62057e-08
5.58765e-08
1.9014e-07
3.22551e-08
-5.83084e-09
-1.92799e-09
2.24259e-07
1.80874e-07
-1.0246e-07
-2.0042e-07
-2.20469e-07
-2.43087e-07
1.05867e-07
1.5937e-07
-2.01295e-07
-1.12849e-07
1.58185e-07
1.27472e-07
1.13558e-08
-4.39513e-08
-2.822e-08
3.82611e-08
-2.00267e-08
-1.70499e-07
-2.37363e-07
2.35404e-08
4.96059e-08
-1.25369e-08
1.94361e-07
2.60282e-07
7.77317e-08
5.363e-09
1.40501e-08
-9.30097e-08
-1.37453e-07
-8.6033e-08
8.2296e-08
5.745e-08
-8.63017e-08
-1.76042e-07
7.69748e-09
3.52783e-07
2.84695e-07
-4.48779e-08
-3.72469e-08
2.22944e-08
-1.88599e-07
-5.9312e-08
-5.05424e-08
-1.98599e-07
6.16102e-08
1.57779e-07
1.75363e-07
8.33283e-08
5.88241e-08
2.49027e-07
2.99069e-07
7.29881e-08
-2.79099e-08
1.66502e-07
-2.79731e-08
4.53943e-08
1.74116e-07
4.17373e-08
1.16175e-08
3.01848e-09
1.89899e-07
1.66688e-07
-8.54155e-08
-1.90635e-07
-2.03471e-07
-2.23861e-07
7.80008e-08
1.46565e-07
-1.68209e-07
-1.1217e-07
1.2724e-07
1.16458e-07
1.68014e-08
-3.63651e-08
-2.59236e-08
3.38018e-08
-1.89303e-08
-1.51602e-07
-2.19083e-07
9.23477e-09
5.26773e-08
-3.13237e-09
1.69844e-07
2.3608e-07
7.73176e-08
7.60295e-09
1.78427e-08
-7.9734e-08
-1.2011e-07
-8.4109e-08
5.82733e-08
4.84897e-08
-7.0517e-08
-1.48115e-07
6.31606e-09
3.12822e-07
2.72422e-07
-2.09203e-08
-4.35342e-08
1.51201e-08
-1.64625e-07
-6.81357e-08
-4.62328e-08
-1.74506e-07
5.1331e-08
1.49161e-07
1.70647e-07
9.40871e-08
6.68737e-08
2.27201e-07
2.74174e-07
8.6307e-08
-2.44285e-08
1.52319e-07
-2.66628e-09
3.81166e-08
1.58974e-07
4.91758e-08
2.5776e-08
8.90573e-09
1.59629e-07
1.51647e-07
-6.973e-08
-1.79628e-07
-1.87872e-07
-2.05246e-07
5.33198e-08
1.3278e-07
-1.38547e-07
-1.09691e-07
9.94174e-08
1.05226e-07
2.08731e-08
-2.9191e-08
-2.37169e-08
2.91661e-08
-1.77732e-08
-1.33912e-07
-2.00903e-07
-3.29971e-09
5.4039e-08
5.75006e-09
1.47902e-07
2.1289e-07
7.67054e-08
9.04834e-09
2.05885e-08
-6.72128e-08
-1.04555e-07
-8.08484e-08
3.79997e-08
3.98855e-08
-5.69566e-08
-1.22933e-07
6.04331e-09
2.76494e-07
2.58568e-07
2.0854e-10
-4.69173e-08
7.87515e-09
-1.42657e-07
-7.41137e-08
-4.26161e-08
-1.51829e-07
4.25759e-08
1.40664e-07
1.65398e-07
1.03144e-07
7.40885e-08
2.07987e-07
2.50513e-07
9.68221e-08
-1.9029e-08
1.37965e-07
1.93132e-08
3.38769e-08
1.44936e-07
5.48316e-08
3.68832e-08
1.52369e-08
1.33585e-07
1.36154e-07
-5.57199e-08
-1.67662e-07
-1.73688e-07
-1.875e-07
3.2042e-08
1.18373e-07
-1.12495e-07
-1.05623e-07
7.48465e-08
9.39434e-08
2.36009e-08
-2.25811e-08
-2.15519e-08
2.44935e-08
-1.67117e-08
-1.17615e-07
-1.82992e-07
-1.39435e-08
5.3823e-08
1.39092e-08
1.28647e-07
1.90873e-07
7.58193e-08
9.94667e-09
2.22774e-08
-5.56096e-08
-9.06483e-08
-7.64973e-08
2.13095e-08
3.17764e-08
-4.55218e-08
-1.00571e-07
6.65744e-09
2.43891e-07
2.4361e-07
1.83951e-08
-4.76711e-08
8.40972e-10
-1.22887e-07
-7.74778e-08
-3.9632e-08
-1.30743e-07
3.54328e-08
1.32472e-07
1.5972e-07
1.10441e-07
8.04351e-08
1.91279e-07
2.28462e-07
1.04538e-07
-1.2162e-08
1.23927e-07
3.775e-08
3.23162e-08
1.32127e-07
5.90134e-08
4.52702e-08
2.15699e-08
1.11675e-07
1.20659e-07
-4.35611e-08
-1.55077e-07
-1.60839e-07
-1.7081e-07
1.41665e-08
1.03767e-07
-9.00924e-08
-1.00251e-07
5.35277e-08
8.28046e-08
2.51347e-08
-1.66952e-08
-1.94049e-08
1.9904e-08
-1.58693e-08
-1.02823e-07
-1.65521e-07
-2.26468e-08
5.22597e-08
2.11622e-08
1.12056e-07
1.70227e-07
7.45825e-08
1.05141e-08
2.29767e-08
-4.50617e-08
-7.82318e-08
-7.12924e-08
7.94949e-09
2.427e-08
-3.60547e-08
-8.09832e-08
7.93827e-09
2.14962e-07
2.28007e-07
3.36411e-08
-4.61561e-08
-5.70325e-09
-1.05411e-07
-7.85326e-08
-3.71702e-08
-1.11362e-07
2.98851e-08
1.24726e-07
1.53746e-07
1.16021e-07
8.59037e-08
1.76859e-07
2.08286e-07
1.09624e-07
-4.29609e-09
1.10621e-07
5.26205e-08
3.29581e-08
1.20636e-07
6.20111e-08
5.1328e-08
2.75477e-08
9.36262e-08
1.05607e-07
-3.33095e-08
-1.42229e-07
-1.49179e-07
-1.55304e-07
-4.67157e-10
8.93852e-08
-7.12022e-08
-9.39095e-08
3.53543e-08
7.19958e-08
2.56337e-08
-1.1649e-08
-1.72691e-08
1.54818e-08
-1.53091e-08
-8.95651e-08
-1.48672e-07
-2.94347e-08
4.96284e-08
2.73635e-08
9.80152e-08
1.51118e-07
7.2933e-08
1.09297e-08
2.28118e-08
-3.56715e-08
-6.71625e-08
-6.54794e-08
-2.3923e-09
1.74458e-08
-2.83647e-08
-6.40375e-08
9.67819e-09
1.89546e-07
2.12179e-07
4.60456e-08
-4.27985e-08
-1.1513e-08
-9.02167e-08
-7.76148e-08
-3.51003e-08
-9.37543e-08
2.58373e-08
1.17521e-07
1.47615e-07
1.19987e-07
9.05169e-08
1.64476e-07
1.90132e-07
1.12359e-07
4.11928e-09
9.83863e-08
6.40698e-08
3.52785e-08
1.10504e-07
6.40764e-08
5.54614e-08
3.29097e-08
7.90677e-08
9.13763e-08
-2.49477e-08
-1.29447e-07
-1.38511e-07
-1.41051e-07
-1.21341e-08
7.5604e-08
-5.55446e-08
-8.69418e-08
2.01281e-08
6.16531e-08
2.52323e-08
-7.48166e-09
-1.51311e-08
1.13215e-08
-1.5034e-08
-7.7821e-08
-1.32628e-07
-3.4404e-08
4.61987e-08
3.242e-08
8.63426e-08
1.3367e-07
7.08386e-08
1.13183e-08
2.19518e-08
-2.74976e-08
-5.73173e-08
-5.93129e-08
-1.00563e-08
1.13696e-08
-2.22251e-08
-4.9549e-08
1.16929e-08
1.67395e-07
1.96484e-07
5.5788e-08
-3.80341e-08
-1.63973e-08
-7.72027e-08
-7.5088e-08
-3.32949e-08
-7.79358e-08
2.31364e-08
1.10911e-07
1.41471e-07
1.22486e-07
9.43037e-08
1.53864e-07
1.74054e-07
1.13084e-07
1.26417e-08
8.74704e-08
7.23702e-08
3.87509e-08
1.0171e-07
6.5426e-08
5.80677e-08
3.74845e-08
6.75628e-08
7.82599e-08
-1.83803e-08
-1.17018e-07
-1.28636e-07
-1.2807e-07
-2.11759e-08
6.27061e-08
-4.28285e-08
-7.96652e-08
7.6001e-09
5.18738e-08
2.4079e-08
-4.17215e-09
-1.30249e-08
7.5196e-09
-1.5004e-08
-6.75444e-08
-1.17547e-07
-3.77104e-08
4.22232e-08
3.63055e-08
7.68037e-08
1.17969e-07
6.82994e-08
1.1745e-08
2.05782e-08
-2.05502e-08
-4.85887e-08
-5.30092e-08
-1.53996e-08
6.10558e-09
-1.74018e-08
-3.72997e-08
1.38284e-08
1.48201e-07
1.81223e-07
6.31015e-08
-3.22655e-08
-2.02289e-08
-6.61956e-08
-7.13146e-08
-3.16227e-08
-6.38702e-08
2.15892e-08
1.04914e-07
1.35451e-07
1.23692e-07
9.73156e-08
1.44763e-07
1.59998e-07
1.12183e-07
2.08976e-08
7.80285e-08
7.78803e-08
4.28981e-08
9.42124e-08
6.62307e-08
5.95055e-08
4.11965e-08
5.86456e-08
6.64562e-08
-1.34314e-08
-1.0517e-07
-1.19397e-07
-1.16344e-07
-2.79617e-08
5.0863e-08
-3.27243e-08
-7.23392e-08
-2.50405e-09
4.2727e-08
2.23396e-08
-1.66589e-09
-1.09808e-08
4.15134e-09
-1.51528e-08
-5.86621e-08
-1.03557e-07
-3.95511e-08
3.79273e-08
3.90494e-08
6.91226e-08
1.04047e-07
6.53569e-08
1.22253e-08
1.88575e-08
-1.47898e-08
-4.08913e-08
-4.67579e-08
-1.87865e-08
1.70891e-09
-1.36565e-08
-2.70521e-08
1.59621e-08
1.31631e-07
1.66626e-07
6.82518e-08
-2.59406e-08
-2.29468e-08
-5.69732e-08
-6.66373e-08
-2.99788e-08
-5.14829e-08
2.09835e-08
9.95052e-08
1.29675e-07
1.23801e-07
9.96101e-08
1.36935e-07
1.47841e-07
1.10048e-07
2.8606e-08
7.01127e-08
8.10073e-08
4.73005e-08
8.79491e-08
6.66218e-08
6.00877e-08
4.40443e-08
5.18477e-08
5.60803e-08
-9.87988e-09
-9.40779e-08
-1.10688e-07
-1.05822e-07
-3.28599e-08
4.01626e-08
-2.48682e-08
-6.51658e-08
-1.04645e-08
3.42603e-08
2.01786e-08
1.10826e-10
-9.06234e-09
1.26462e-09
-1.54035e-08
-5.10746e-08
-9.0742e-08
-4.01429e-08
3.35141e-08
4.07277e-08
6.30063e-08
9.18567e-08
6.20776e-08
1.27552e-08
1.69617e-08
-1.01355e-08
-3.416e-08
-4.073e-08
-2.05787e-08
-1.78912e-09
-1.07646e-08
-1.8567e-08
1.8001e-08
1.17354e-07
1.52856e-07
7.15292e-08
-1.93822e-08
-2.45571e-08
-4.92947e-08
-6.13659e-08
-2.82698e-08
-4.0667e-08
2.11059e-08
9.46369e-08
1.24236e-07
1.23013e-07
1.01242e-07
1.30165e-07
1.37419e-07
1.07059e-07
3.55703e-08
6.36917e-08
8.21738e-08
5.15924e-08
8.28193e-08
6.66994e-08
6.00765e-08
4.60818e-08
4.67367e-08
4.71597e-08
-7.48568e-09
-8.38525e-08
-1.02449e-07
-9.64308e-08
-3.621e-08
3.06495e-08
-1.89026e-08
-5.83046e-08
-1.65537e-08
2.65111e-08
1.77462e-08
1.24905e-09
-7.33619e-09
-1.12742e-09
-1.56826e-08
-4.46641e-08
-7.91509e-08
-3.97053e-08
2.91584e-08
4.14478e-08
5.81555e-08
8.13007e-08
5.85481e-08
1.33281e-08
1.50522e-08
-6.4747e-09
-2.83343e-08
-3.50664e-08
-2.11135e-08
-4.38658e-09
-8.5142e-09
-1.16156e-08
1.98658e-08
1.05066e-07
1.40014e-07
7.32334e-08
-1.28604e-08
-2.51179e-08
-4.29146e-08
-5.57681e-08
-2.64278e-08
-3.1293e-08
2.17594e-08
9.02502e-08
1.19192e-07
1.21528e-07
1.02277e-07
1.24265e-07
1.28529e-07
1.03552e-07
4.16699e-08
5.86841e-08
8.18079e-08
5.5522e-08
7.86888e-08
6.6534e-08
5.96828e-08
4.74027e-08
4.29399e-08
3.96571e-08
-6.00054e-09
-7.45557e-08
-9.46509e-08
-8.80814e-08
-3.83134e-08
2.23035e-08
-1.44922e-08
-5.18767e-08
-2.10288e-08
1.95007e-08
1.51729e-08
1.85703e-09
-5.86107e-09
-3.04787e-09
-1.59303e-08
-3.92993e-08
-6.87878e-08
-3.84498e-08
2.49995e-08
4.1341e-08
5.428e-08
7.22583e-08
5.48853e-08
1.39138e-08
1.32477e-08
-3.67419e-09
-2.3346e-08
-2.98592e-08
-2.06714e-08
-6.13052e-09
-6.74096e-09
-5.98894e-09
2.15038e-08
9.44999e-08
1.28144e-07
7.36538e-08
-6.59311e-09
-2.47299e-08
-3.75951e-08
-5.00673e-08
-2.44164e-08
-2.32163e-08
2.27769e-08
8.62921e-08
1.14559e-07
1.19533e-07
1.02783e-07
1.19076e-07
1.20966e-07
9.98058e-08
4.68524e-08
5.49591e-08
8.03097e-08
5.88717e-08
7.54043e-08
6.61736e-08
5.90709e-08
4.81254e-08
4.01363e-08
3.34809e-08
-5.18582e-09
-6.62024e-08
-8.72884e-08
-8.06665e-08
-3.94332e-08
1.50717e-08
-1.13381e-08
-4.59593e-08
-2.41275e-08
1.3233e-08
1.25641e-08
2.05281e-09
-4.67399e-09
-4.54372e-09
-1.61009e-08
-3.48492e-08
-5.9627e-08
-3.65739e-08
2.11393e-08
4.05497e-08
5.11217e-08
6.4588e-08
5.12073e-08
1.44805e-08
1.1628e-08
-1.59397e-09
-1.91137e-08
-2.51595e-08
-1.94978e-08
-7.11284e-09
-5.29872e-09
-1.48988e-09
2.2892e-08
8.54165e-08
1.17252e-07
7.30558e-08
-7.36565e-10
-2.35189e-08
-3.3116e-08
-4.44391e-08
-2.22227e-08
-1.62844e-08
2.40245e-08
8.27135e-08
1.10324e-07
1.17189e-07
1.02835e-07
1.14471e-07
1.14535e-07
9.60329e-08
5.1123e-08
5.23587e-08
7.80307e-08
6.15306e-08
7.28097e-08
6.56656e-08
5.83576e-08
4.83723e-08
3.80606e-08
2.85033e-08
-4.82701e-09
-5.87707e-08
-8.03653e-08
-7.40789e-08
-3.97926e-08
8.87467e-09
-9.19166e-09
-4.05876e-08
-2.60716e-08
7.69755e-09
9.99911e-09
1.94692e-09
-3.78759e-09
-5.67545e-09
-1.61647e-08
-3.11805e-08
-5.16122e-08
-3.42579e-08
1.76428e-08
3.92162e-08
4.84685e-08
5.81353e-08
4.76221e-08
1.50075e-08
1.02275e-08
-9.95237e-11
-1.55447e-08
-2.09916e-08
-1.78137e-08
-7.43205e-09
-4.06985e-09
2.07135e-09
2.40272e-08
7.76063e-08
1.07314e-07
7.16774e-08
4.61062e-09
-2.16273e-08
-2.92849e-08
-3.9014e-08
-1.98602e-08
-1.03436e-08
2.53998e-08
7.94658e-08
1.06449e-07
1.14629e-07
1.02512e-07
1.10349e-07
1.09054e-07
9.2388e-08
5.45314e-08
5.06941e-08
7.52742e-08
6.3458e-08
7.07577e-08
6.50541e-08
5.76133e-08
4.82573e-08
3.65039e-08
2.45791e-08
-4.74403e-09
-5.22118e-08
-7.38855e-08
-6.82147e-08
-3.95782e-08
3.61652e-09
-7.83262e-09
-3.57655e-08
-2.70685e-08
2.87506e-09
7.52534e-09
1.61931e-09
-3.18571e-09
-6.50899e-09
-1.6109e-08
-2.81713e-08
-4.4666e-08
-3.1661e-08
1.45382e-08
3.74782e-08
4.61534e-08
5.27472e-08
4.42197e-08
1.54744e-08
9.05121e-09
9.35245e-10
-1.2539e-08
-1.73529e-08
-1.58084e-08
-7.20363e-09
-2.95697e-09
4.87036e-09
2.49195e-08
7.08807e-08
9.8285e-08
6.97265e-08
9.40062e-09
-1.92043e-08
-2.59339e-08
-3.3882e-08
-1.73626e-08
-5.24469e-09
2.6828e-08
7.65033e-08
1.02881e-07
1.11957e-07
1.01888e-07
1.06634e-07
1.04356e-07
8.89757e-08
5.71606e-08
4.97674e-08
7.22806e-08
6.46774e-08
6.91116e-08
6.43695e-08
5.68721e-08
4.788e-08
3.53102e-08
2.15621e-08
-4.79558e-09
-4.64595e-08
-6.78475e-08
-6.29772e-08
-3.89427e-08
-8.13387e-10
-7.07484e-09
-3.14744e-08
-2.73082e-08
-1.25966e-09
5.16759e-09
1.13503e-09
-2.8299e-09
-7.11158e-09
-1.59425e-08
-2.57055e-08
-3.86949e-08
-2.89161e-08
1.18279e-08
3.54599e-08
4.40552e-08
4.82683e-08
4.10654e-08
1.58739e-08
8.09553e-09
1.6195e-09
-1.00143e-08
-1.4219e-08
-1.36461e-08
-6.54877e-09
-1.88388e-09
7.06402e-09
2.55864e-08
6.50697e-08
9.01049e-08
6.73775e-08
1.36235e-08
-1.63905e-08
-2.29329e-08
-2.90957e-08
-1.47754e-08
-8.51482e-10
2.82554e-08
7.37876e-08
9.95706e-08
1.09249e-07
1.01037e-07
1.03266e-07
1.00297e-07
8.5858e-08
5.91136e-08
4.93995e-08
6.92326e-08
6.52514e-08
6.77479e-08
6.36309e-08
5.6143e-08
4.73236e-08
3.43675e-08
1.93096e-08
-4.87661e-09
-4.14324e-08
-6.22447e-08
-5.82805e-08
-3.80084e-08
-4.52013e-09
-6.76088e-09
-2.76836e-08
-2.69573e-08
-4.7437e-09
2.94067e-09
5.49842e-10
-2.67258e-09
5.31014e-07
2.25139e-07
-3.21944e-07
-2.49772e-07
-1.22092e-07
-3.66219e-07
1.76542e-08
7.47924e-07
1.39391e-07
-4.91545e-07
7.36918e-08
-7.37427e-08
-1.70048e-07
5.18238e-07
8.5595e-08
-4.38543e-07
1.05561e-07
6.52185e-09
-5.65697e-07
-7.97739e-09
6.42046e-07
6.37409e-07
1.17672e-07
-1.7673e-07
-1.832e-07
-1.68889e-07
-1.02159e-07
-3.35947e-07
6.40984e-08
1.44423e-07
2.51917e-07
2.91019e-07
-3.57206e-07
1.33344e-07
7.2637e-07
2.71936e-07
-3.5242e-07
-3.04678e-07
2.31725e-07
1.22641e-07
2.18556e-07
1.12339e-07
6.57561e-08
2.88963e-07
2.10756e-09
3.51786e-08
-2.18177e-08
-1.13538e-07
-2.48864e-07
-6.04164e-07
-1.35243e-07
6.07156e-07
-2.0954e-08
-1.31428e-09
1.36189e-07
-4.56071e-07
-9.07347e-08
4.02711e-07
-1.52387e-07
-1.83816e-07
4.85877e-07
1.92713e-07
-3.16532e-07
-2.50227e-07
-1.18767e-07
-3.24492e-07
4.49563e-08
7.01239e-07
1.11077e-07
-4.50074e-07
7.00241e-08
-6.91909e-08
-1.37811e-07
4.72755e-07
5.61249e-08
-3.96495e-07
9.88289e-08
-2.66936e-08
-5.21592e-07
2.29145e-08
6.3356e-07
5.97215e-07
8.58067e-08
-1.72314e-07
-1.80882e-07
-1.69742e-07
-9.80503e-08
-2.98364e-07
5.92438e-08
1.44176e-07
2.46624e-07
2.57289e-07
-3.11599e-07
1.61758e-07
6.81274e-07
2.39142e-07
-3.43946e-07
-2.68194e-07
2.28406e-07
1.22339e-07
2.17532e-07
1.14642e-07
6.19493e-08
2.52247e-07
5.49947e-09
3.60785e-08
-2.06818e-08
-1.12946e-07
-2.44479e-07
-5.6237e-07
-1.09671e-07
5.64124e-07
-1.66498e-08
-5.3332e-09
1.02667e-07
-4.10782e-07
-6.17636e-08
3.5989e-07
-1.44401e-07
-1.50633e-07
4.53173e-07
1.85625e-07
-3.0346e-07
-2.49168e-07
-1.11388e-07
-2.9929e-07
4.12196e-08
6.6436e-07
1.1266e-07
-4.25607e-07
6.19878e-08
-5.97582e-08
-1.31227e-07
4.40616e-07
5.66134e-08
-3.71649e-07
8.34317e-08
-3.32462e-08
-4.89417e-07
2.81426e-08
6.12667e-07
5.7287e-07
8.09864e-08
-1.61183e-07
-1.75787e-07
-1.70804e-07
-8.9236e-08
-2.82362e-07
4.97459e-08
1.43056e-07
2.35087e-07
2.49672e-07
-2.78728e-07
1.60352e-07
6.47167e-07
2.31561e-07
-3.22919e-07
-2.53203e-07
2.20515e-07
1.1978e-07
2.14961e-07
1.17906e-07
5.40451e-08
2.37536e-07
1.3456e-08
3.76084e-08
-1.90661e-08
-1.12782e-07
-2.3505e-07
-5.36238e-07
-1.16025e-07
5.36799e-07
-7.61124e-09
-1.32133e-08
9.53677e-08
-3.78133e-07
-6.27938e-08
3.3324e-07
-1.2715e-07
-1.41721e-07
4.18075e-07
1.83115e-07
-2.85762e-07
-2.46836e-07
-1.03292e-07
-2.74288e-07
3.01261e-08
6.23358e-07
1.21911e-07
-4.00673e-07
5.07929e-08
-4.80774e-08
-1.2931e-07
4.06427e-07
6.44406e-08
-3.46401e-07
6.4185e-08
-3.34228e-08
-4.55086e-07
2.70999e-08
5.84798e-07
5.4852e-07
8.24476e-08
-1.4807e-07
-1.68711e-07
-1.70391e-07
-7.93565e-08
-2.68568e-07
3.84021e-08
1.41557e-07
2.21364e-07
2.46625e-07
-2.44508e-07
1.50805e-07
6.10719e-07
2.29375e-07
-2.9534e-07
-2.41074e-07
2.0999e-07
1.16864e-07
2.10057e-07
1.21348e-07
4.59521e-08
2.25721e-07
2.32574e-08
3.91875e-08
-1.71438e-08
-1.12673e-07
-2.23959e-07
-5.08954e-07
-1.30216e-07
5.07398e-07
4.5061e-09
-2.29818e-08
9.25039e-08
-3.43252e-07
-7.04284e-08
3.06009e-07
-1.06172e-07
-1.36733e-07
3.78515e-07
1.79231e-07
-2.6501e-07
-2.43197e-07
-9.52843e-08
-2.45858e-07
1.9238e-08
5.76521e-07
1.31585e-07
-3.72379e-07
3.75268e-08
-3.52069e-08
-1.26301e-07
3.66553e-07
7.27356e-08
-3.17775e-07
4.35128e-08
-3.28113e-08
-4.16633e-07
2.55381e-08
5.5256e-07
5.20671e-07
8.38237e-08
-1.35036e-07
-1.59866e-07
-1.6834e-07
-6.93766e-08
-2.51839e-07
2.63165e-08
1.39647e-07
2.06856e-07
2.42158e-07
-2.07091e-07
1.401e-07
5.70145e-07
2.26583e-07
-2.6443e-07
-2.27217e-07
1.97988e-07
1.14248e-07
2.02847e-07
1.25148e-07
3.86108e-08
2.12026e-07
3.34678e-08
4.07272e-08
-1.47062e-08
-1.12016e-07
-2.12156e-07
-4.77044e-07
-1.44644e-07
4.72752e-07
1.83183e-08
-3.40953e-08
8.82338e-08
-3.03838e-07
-7.74661e-08
2.75389e-07
-8.39624e-08
-1.30351e-07
3.36152e-07
1.73484e-07
-2.42218e-07
-2.38303e-07
-8.79191e-08
-2.15151e-07
9.87092e-09
5.26014e-07
1.40671e-07
-3.41676e-07
2.28453e-08
-2.21445e-08
-1.21859e-07
3.23808e-07
8.05558e-08
-2.86724e-07
2.28303e-08
-3.18844e-08
-3.75906e-07
2.36921e-08
5.17628e-07
4.90996e-07
8.48356e-08
-1.22979e-07
-1.49634e-07
-1.64869e-07
-5.99337e-08
-2.32269e-07
1.41254e-08
1.3728e-07
1.92476e-07
2.3601e-07
-1.68302e-07
1.29174e-07
5.27302e-07
2.23032e-07
-2.31884e-07
-2.12315e-07
1.8505e-07
1.12128e-07
1.93706e-07
1.29222e-07
3.2517e-08
1.96677e-07
4.32287e-08
4.22314e-08
-1.17478e-08
-1.1049e-07
-2.00159e-07
-4.41565e-07
-1.57881e-07
4.33521e-07
3.29977e-08
-4.46256e-08
8.2054e-08
-2.63041e-07
-8.28303e-08
2.42604e-07
-6.20503e-08
-1.22408e-07
2.93336e-07
1.6603e-07
-2.18368e-07
-2.32221e-07
-8.17387e-08
-1.84098e-07
2.31814e-09
4.74347e-07
1.49087e-07
-3.09555e-07
7.40905e-09
-9.96829e-09
-1.16154e-07
2.81152e-07
8.7532e-08
-2.54825e-07
3.2302e-09
-3.06987e-08
-3.34902e-07
2.12664e-08
4.81319e-07
4.61307e-07
8.58715e-08
-1.12242e-07
-1.38586e-07
-1.60308e-07
-5.17966e-08
-2.10798e-07
2.49664e-09
1.3443e-07
1.79102e-07
2.287e-07
-1.30181e-07
1.18124e-07
4.84162e-07
2.1938e-07
-1.98827e-07
-1.97138e-07
1.7135e-07
1.10432e-07
1.83046e-07
1.33133e-07
2.82127e-08
1.80547e-07
5.19265e-08
4.3606e-08
-8.50429e-09
-1.08019e-07
-1.88473e-07
-4.04232e-07
-1.69195e-07
3.91635e-07
4.79111e-08
-5.33689e-08
7.40731e-08
-2.23534e-07
-8.62008e-08
2.09401e-07
-4.16575e-08
-1.1318e-07
2.51776e-07
1.56893e-07
-1.943e-07
-2.24895e-07
-7.71328e-08
-1.54132e-07
-3.27462e-09
4.23654e-07
1.56423e-07
-2.76648e-07
-7.95736e-09
4.61018e-10
-1.09193e-07
2.39972e-07
9.30376e-08
-2.23286e-07
-1.43499e-08
-2.95063e-08
-2.95003e-07
1.84021e-08
4.44533e-07
4.3226e-07
8.71391e-08
-1.02788e-07
-1.27271e-07
-1.54849e-07
-4.53552e-08
-1.8832e-07
-7.9664e-09
1.31021e-07
1.67344e-07
2.20588e-07
-9.40884e-08
1.07286e-07
4.42013e-07
2.15689e-07
-1.66063e-07
-1.81715e-07
1.57033e-07
1.09089e-07
1.71263e-07
1.36372e-07
2.60373e-08
1.64335e-07
5.9188e-08
4.47452e-08
-5.24427e-09
-1.04608e-07
-1.77533e-07
-3.66521e-07
-1.77826e-07
3.48253e-07
6.23323e-08
-5.95281e-08
6.45129e-08
-1.86779e-07
-8.73382e-08
1.77048e-07
-2.36797e-08
-1.02794e-07
2.12645e-07
1.46165e-07
-1.70669e-07
-2.1617e-07
-7.4119e-08
-1.26324e-07
-6.89485e-09
3.74984e-07
1.62095e-07
-2.43403e-07
-2.241e-08
8.62932e-09
-1.0105e-07
2.01095e-07
9.64786e-08
-1.92878e-07
-2.9238e-08
-2.85032e-08
-2.57036e-07
1.53964e-08
4.0789e-07
4.04072e-07
8.87025e-08
-9.43942e-08
-1.16177e-07
-1.4849e-07
-4.06655e-08
-1.6562e-07
-1.6856e-08
1.26927e-07
1.57401e-07
2.11941e-07
-6.07757e-08
9.7282e-08
4.01585e-07
2.11585e-07
-1.34163e-07
-1.65914e-07
1.42413e-07
1.07963e-07
1.58796e-07
1.38483e-07
2.60179e-08
1.48602e-07
6.48627e-08
4.55829e-08
-2.13706e-09
-1.00259e-07
-1.67551e-07
-3.29666e-07
-1.8325e-07
3.04415e-07
7.54607e-08
-6.26838e-08
5.38228e-08
-1.53506e-07
-8.62197e-08
1.46467e-07
-8.69027e-09
-9.1531e-08
1.76648e-07
1.34079e-07
-1.48016e-07
-2.05978e-07
-7.2419e-08
-1.01399e-07
-8.62238e-09
3.29092e-07
1.6561e-07
-2.10281e-07
-3.52535e-08
1.43532e-08
-9.1954e-08
1.65193e-07
9.75725e-08
-1.64087e-07
-4.10672e-08
-2.77627e-08
-2.21488e-07
1.25255e-08
3.71947e-07
3.76835e-07
9.04982e-08
-8.67766e-08
-1.05656e-07
-1.4119e-07
-3.75788e-08
-1.43377e-07
-2.3934e-08
1.22003e-07
1.49174e-07
2.02999e-07
-3.06225e-08
8.8596e-08
3.63242e-07
2.06871e-07
-1.03641e-07
-1.49789e-07
1.27873e-07
1.06959e-07
1.46165e-07
1.39117e-07
2.78647e-08
1.33788e-07
6.89515e-08
4.61257e-08
7.20963e-10
-9.50128e-08
-1.5856e-07
-2.94634e-07
-1.8525e-07
2.61133e-07
8.65299e-08
-6.28291e-08
4.25847e-08
-1.24195e-07
-8.30152e-08
1.18352e-07
3.04248e-09
-7.98564e-08
1.44353e-07
1.20947e-07
-1.26821e-07
-1.94412e-07
-7.1672e-08
-7.97311e-08
-8.62934e-09
2.86549e-07
1.66733e-07
-1.77852e-07
-4.59924e-08
1.76653e-08
-8.22411e-08
1.32718e-07
9.63228e-08
-1.37277e-07
-4.97319e-08
-2.72904e-08
-1.887e-07
1.00276e-08
3.37214e-07
3.50578e-07
9.23884e-08
-7.96884e-08
-9.59597e-08
-1.33008e-07
-3.58091e-08
-1.2214e-07
-2.90783e-08
1.16237e-07
1.42419e-07
1.93968e-07
-3.83197e-09
8.15073e-08
3.27299e-07
2.01472e-07
-7.49916e-08
-1.334e-07
1.13778e-07
1.05968e-07
1.33827e-07
1.38098e-07
3.11326e-08
1.20213e-07
7.15463e-08
4.64137e-08
3.2634e-09
-8.89968e-08
-1.5042e-07
-2.62108e-07
-1.83906e-07
2.19235e-07
9.4964e-08
-6.01996e-08
3.13802e-08
-9.91035e-08
-7.80319e-08
9.32135e-08
1.1549e-08
-6.8205e-08
1.15935e-07
1.0716e-07
-1.07466e-07
-1.81712e-07
-7.14706e-08
-6.14288e-08
-7.18344e-09
2.47782e-07
1.65431e-07
-1.46703e-07
-5.4286e-08
1.87632e-08
-7.22676e-08
1.03996e-07
9.2906e-08
-1.12729e-07
-5.53268e-08
-2.69802e-08
-1.58902e-07
8.09846e-09
3.04138e-07
3.2529e-07
9.42063e-08
-7.28982e-08
-8.72173e-08
-1.24117e-07
-3.50063e-08
-1.02353e-07
-3.22634e-08
1.09735e-07
1.36811e-07
1.85013e-07
1.95546e-08
7.61291e-08
2.94006e-07
1.95363e-07
-4.8626e-08
-1.16819e-07
1.00445e-07
1.04854e-07
1.22178e-07
1.35457e-07
3.53259e-08
1.08071e-07
7.28001e-08
4.64883e-08
5.4498e-09
-8.2397e-08
-1.42915e-07
-2.32549e-07
-1.79531e-07
1.79559e-07
1.00427e-07
-5.51934e-08
2.07175e-08
-7.82508e-08
-7.16841e-08
7.1344e-08
1.70892e-08
-5.69595e-08
9.14139e-08
9.3141e-08
-9.02078e-08
-1.68197e-07
-7.14371e-08
-4.64362e-08
-4.61724e-09
2.13033e-07
1.6182e-07
-1.17426e-07
-5.99554e-08
1.80036e-08
-6.23783e-08
7.91164e-08
8.76069e-08
-9.06507e-08
-5.80945e-08
-2.67229e-08
-1.322e-07
6.85675e-09
2.7306e-07
3.00965e-07
9.57958e-08
-6.61961e-08
-7.9461e-08
-1.1475e-07
-3.48126e-08
-8.43435e-08
-3.35483e-08
1.02711e-07
1.32012e-07
1.7629e-07
3.962e-08
7.24274e-08
2.63524e-07
1.88582e-07
-2.48328e-08
-1.00152e-07
8.81368e-08
1.03484e-07
1.11542e-07
1.31405e-07
3.99609e-08
9.74548e-08
7.29026e-08
4.63854e-08
7.26116e-09
-7.54383e-08
-1.35799e-07
-2.06259e-07
-1.72611e-07
1.42828e-07
1.02807e-07
-4.83526e-08
1.10217e-08
-6.14417e-08
-6.44566e-08
5.28165e-08
2.008e-08
-4.64501e-08
7.06596e-08
7.92926e-08
-7.51851e-08
-1.54207e-07
-7.12676e-08
-3.45599e-08
-1.28074e-09
1.82383e-07
1.56146e-07
-9.04625e-08
-6.30035e-08
1.58047e-08
-5.28844e-08
5.80255e-08
8.0777e-08
-7.11707e-08
-5.83786e-08
-2.64127e-08
-1.08581e-07
6.32664e-09
2.44202e-07
2.77627e-07
9.70237e-08
-5.94317e-08
-7.26619e-08
-1.05172e-07
-3.49252e-08
-6.83115e-08
-3.3078e-08
9.54058e-08
1.27711e-07
1.67929e-07
5.65276e-08
7.02636e-08
2.35916e-07
1.81211e-07
-3.7689e-09
-8.35532e-08
7.70599e-08
1.01746e-07
1.02132e-07
1.26205e-07
4.46192e-08
8.83599e-08
7.20556e-08
4.61328e-08
8.69808e-09
-6.83582e-08
-1.28826e-07
-1.8323e-07
-1.63747e-07
1.09571e-07
1.02215e-07
-4.03043e-08
2.63077e-09
-4.8307e-08
-5.68429e-08
3.75081e-08
2.10233e-08
-3.69346e-08
5.34061e-08
6.59725e-08
-6.2417e-08
-1.40115e-07
-7.0756e-08
-2.55001e-08
2.4755e-09
1.55747e-07
1.48756e-07
-6.61436e-08
-6.35919e-08
1.26148e-08
-4.40331e-08
4.05561e-08
7.28228e-08
-5.43364e-08
-5.65837e-08
-2.59347e-08
-8.79328e-08