/*--------------------------------*- C++ -*----------------------------------*\
| =========                 |                                                 |
| \\      /  F ield         | OpenFOAM: The Open Source CFD Toolbox           |
|  \\    /   O peration     | Version:  2312                                  |
|   \\  /    A nd           | Website:  www.openfoam.com                      |
|    \\/     M anipulation  |                                                 |
\*---------------------------------------------------------------------------*/
FoamFile
{
    version     2.0;
    format      ascii;
    arch        "LSB;label=32;scalar=64";
    class       volScalarField;
    location    "100";
    object      pPrime2Mean;
}
// * * * * * * * * * * * * * * * * * * * * * * * * * * * * * * * * * * * * * //

dimensions      [0 4 -4 0 0 0 0];

internalField   nonuniform List<scalar> 
144000
(
2.64606e-15
3.95307e-15
2.41829e-14
8.2539e-14
3.60946e-14
4.59342e-15
4.74394e-14
3.08777e-14
6.52658e-14
5.02586e-14
2.52784e-14
5.50413e-15
5.91641e-15
5.18441e-14
5.6411e-14
6.42585e-14
2.86609e-14
2.4382e-14
1.05847e-13
1.34843e-13
1.7199e-13
9.97578e-14
7.03051e-14
1.32759e-15
4.51278e-14
5.9244e-14
1.77842e-14
1.17876e-14
7.21739e-14
2.82805e-14
2.18398e-14
1.02885e-14
2.7041e-15
3.19285e-14
2.02747e-14
6.47286e-14
3.37794e-14
1.28842e-15
5.24939e-14
3.37204e-14
3.2425e-15
5.60148e-14
3.04697e-14
4.59272e-14
1.8667e-14
8.18074e-14
1.07895e-13
6.57172e-14
3.36892e-14
2.42104e-14
5.32833e-14
4.61883e-14
5.10845e-14
6.0038e-14
5.36018e-14
7.824e-14
5.3848e-14
1.47471e-14
1.10296e-14
1.44191e-15
2.4925e-15
3.74656e-15
2.25922e-14
6.13029e-14
3.24911e-14
4.92433e-15
3.35525e-14
2.77336e-14
4.45828e-14
3.46391e-14
2.33849e-14
5.54249e-15
5.40601e-15
3.38855e-14
3.99834e-14
4.59416e-14
1.54433e-14
2.20308e-14
7.84809e-14
1.1295e-13
1.3683e-13
7.32149e-14
5.26046e-14
1.02526e-15
3.16153e-14
4.0384e-14
1.49011e-14
5.1727e-15
5.25078e-14
2.59271e-14
2.10029e-14
9.77044e-15
2.49995e-15
1.89866e-14
1.77048e-14
4.53382e-14
3.01988e-14
1.3712e-15
3.72527e-14
2.23241e-14
3.04278e-15
3.95581e-14
2.76413e-14
3.13019e-14
9.87336e-15
5.81833e-14
8.16006e-14
6.07988e-14
3.31206e-14
2.25887e-14
3.63028e-14
4.08009e-14
3.3447e-14
4.01519e-14
3.60073e-14
5.70226e-14
3.50057e-14
1.30627e-14
1.05053e-14
1.34691e-15
2.21365e-15
3.4461e-15
1.84534e-14
4.66486e-14
2.54525e-14
5.4886e-15
2.36478e-14
1.98714e-14
3.02706e-14
2.27887e-14
1.73968e-14
5.0103e-15
4.13532e-15
2.21247e-14
2.64198e-14
2.86864e-14
8.7471e-15
1.46034e-14
5.78263e-14
8.62588e-14
9.83823e-14
5.37033e-14
3.79945e-14
1.14154e-15
2.14372e-14
2.75217e-14
1.02632e-14
3.01599e-15
3.919e-14
2.23996e-14
1.88516e-14
8.55674e-15
1.9604e-15
1.15628e-14
1.14641e-14
3.30788e-14
2.34075e-14
1.70956e-15
2.5803e-14
1.54441e-14
2.80089e-15
2.89669e-14
2.15327e-14
2.13535e-14
4.31347e-15
3.87897e-14
6.19701e-14
5.00313e-14
3.03879e-14
1.7976e-14
2.53723e-14
2.83058e-14
2.37403e-14
2.408e-14
2.36036e-14
3.72797e-14
2.47115e-14
9.24791e-15
8.33436e-15
1.2346e-15
1.84212e-15
2.93243e-15
1.46661e-14
3.6151e-14
1.91976e-14
5.92737e-15
1.6833e-14
1.32878e-14
2.09788e-14
1.46781e-14
1.18947e-14
4.19162e-15
2.99842e-15
1.4808e-14
1.69407e-14
1.73451e-14
5.28376e-15
8.94841e-15
4.35446e-14
6.37732e-14
7.0656e-14
3.99063e-14
2.70189e-14
2.39199e-15
1.42542e-14
1.90754e-14
6.96857e-15
2.67081e-15
3.03984e-14
1.89758e-14
1.65442e-14
7.48561e-15
1.66934e-15
7.20764e-15
7.0522e-15
2.49134e-14
1.72704e-14
2.28603e-15
1.76987e-14
1.09957e-14
3.23108e-15
2.20895e-14
1.63824e-14
1.52393e-14
1.91836e-15
2.65128e-14
4.74732e-14
3.94083e-14
2.68611e-14
1.39901e-14
1.80581e-14
1.79836e-14
1.76862e-14
1.40841e-14
1.55078e-14
2.38368e-14
1.84079e-14
5.90098e-15
5.95869e-15
1.11436e-15
1.45299e-15
2.3464e-15
1.14749e-14
2.82691e-14
1.47352e-14
6.05154e-15
1.22331e-14
8.82744e-15
1.4622e-14
9.53804e-15
8.10761e-15
3.42607e-15
2.15415e-15
9.97584e-15
1.11363e-14
1.03059e-14
3.36015e-15
5.70919e-15
3.29939e-14
4.77607e-14
5.09923e-14
3.0277e-14
1.92401e-14
3.7867e-15
9.59781e-15
1.32538e-14
5.23529e-15
2.89204e-15
2.40747e-14
1.61648e-14
1.43813e-14
6.62865e-15
1.50083e-15
4.53723e-15
4.70779e-15
1.89798e-14
1.28659e-14
2.82021e-15
1.23705e-14
8.03662e-15
3.77802e-15
1.73615e-14
1.30351e-14
1.16345e-14
1.55048e-15
1.88432e-14
3.67765e-14
3.12092e-14
2.33138e-14
1.09851e-14
1.28512e-14
1.11485e-14
1.33767e-14
8.21119e-15
1.04744e-14
1.51021e-14
1.39224e-14
3.80987e-15
4.11486e-15
1.00047e-15
1.10534e-15
1.79618e-15
8.74913e-15
2.22347e-14
1.15926e-14
5.89001e-15
9.16057e-15
5.80389e-15
1.01276e-14
6.33355e-15
5.58129e-15
2.74786e-15
1.52374e-15
6.64581e-15
7.63448e-15
5.97708e-15
2.27289e-15
3.93909e-15
2.5159e-14
3.64195e-14
3.63904e-14
2.33413e-14
1.34703e-14
4.80704e-15
6.62795e-15
9.07124e-15
4.38468e-15
3.15835e-15
1.94063e-14
1.39055e-14
1.23993e-14
5.87205e-15
1.38914e-15
2.90085e-15
3.4971e-15
1.4617e-14
9.77163e-15
3.17066e-15
8.92851e-15
5.9304e-15
4.17432e-15
1.4104e-14
1.08692e-14
9.35632e-15
2.03189e-15
1.41036e-14
2.89651e-14
2.5042e-14
1.99494e-14
8.65834e-15
9.11842e-15
6.69926e-15
1.01373e-14
4.67541e-15
7.26364e-15
9.2705e-15
1.05663e-14
2.63213e-15
2.73646e-15
8.91105e-16
8.2767e-16
1.32475e-15
6.50273e-15
1.75258e-14
9.34916e-15
5.5526e-15
7.07133e-15
3.72888e-15
6.92201e-15
4.29075e-15
3.86733e-15
2.17759e-15
1.05165e-15
4.3661e-15
5.41908e-15
3.43257e-15
1.66282e-15
3.00305e-15
1.93801e-14
2.81132e-14
2.57269e-14
1.81276e-14
9.33331e-15
5.35119e-15
4.6955e-15
6.0775e-15
3.92703e-15
3.31707e-15
1.59213e-14
1.20589e-14
1.06239e-14
5.18371e-15
1.31536e-15
1.88913e-15
2.85615e-15
1.13841e-14
7.58902e-15
3.33536e-15
6.67495e-15
4.49085e-15
4.39329e-15
1.18047e-14
9.38075e-15
7.90738e-15
2.76423e-15
1.13152e-14
2.32176e-14
2.03436e-14
1.6888e-14
6.85108e-15
6.41635e-15
3.82439e-15
7.6129e-15
2.67393e-15
5.10346e-15
5.49946e-15
7.9955e-15
1.98702e-15
1.76431e-15
7.87674e-16
6.20377e-16
9.50834e-16
4.74959e-15
1.38243e-14
7.75741e-15
5.11018e-15
5.61625e-15
2.35366e-15
4.65653e-15
2.96057e-15
2.7041e-15
1.7184e-15
7.12206e-16
2.84276e-15
3.94467e-15
2.05335e-15
1.32513e-15
2.53862e-15
1.51308e-14
2.19333e-14
1.81322e-14
1.40791e-14
6.49842e-15
5.44314e-15
3.44129e-15
3.98493e-15
3.61424e-15
3.36334e-15
1.32717e-14
1.05396e-14
9.0766e-15
4.55819e-15
1.26546e-15
1.26575e-15
2.51776e-15
8.99887e-15
6.07708e-15
3.33254e-15
5.19904e-15
3.54529e-15
4.4576e-15
1.01252e-14
8.32183e-15
7.04622e-15
3.48761e-15
9.7754e-15
1.89703e-14
1.67747e-14
1.41992e-14
5.47482e-15
4.4579e-15
2.0471e-15
5.62888e-15
1.65861e-15
3.59664e-15
3.16155e-15
5.99555e-15
1.63381e-15
1.12481e-15
6.99912e-16
4.70115e-16
6.65875e-16
3.43049e-15
1.09069e-14
6.62616e-15
4.61272e-15
4.5787e-15
1.49253e-15
3.08038e-15
2.0801e-15
1.91482e-15
1.35864e-15
4.82514e-16
1.85447e-15
2.91944e-15
1.36598e-15
1.14277e-15
2.32282e-15
1.20087e-14
1.7282e-14
1.28112e-14
1.08682e-14
4.62149e-15
5.16267e-15
2.64289e-15
2.57147e-15
3.32341e-15
3.32728e-15
1.12166e-14
9.27958e-15
7.76112e-15
3.98991e-15
1.22202e-15
8.85574e-16
2.32581e-15
7.26137e-15
5.04596e-15
3.19715e-15
4.25114e-15
2.97363e-15
4.39449e-15
8.86081e-15
7.53884e-15
6.51074e-15
4.10015e-15
8.9758e-15
1.58308e-14
1.40668e-14
1.19036e-14
4.44155e-15
3.05107e-15
1.02507e-15
4.08102e-15
1.21839e-15
2.51986e-15
1.78851e-15
4.43179e-15
1.42664e-15
7.35668e-16
6.20349e-16
3.61028e-16
4.56806e-16
2.46825e-15
8.60601e-15
5.79465e-15
4.10899e-15
3.81963e-15
9.85792e-16
2.0041e-15
1.48786e-15
1.37535e-15
1.08125e-15
3.35955e-16
1.22585e-15
2.18315e-15
1.05682e-15
1.04907e-15
2.22228e-15
9.7089e-15
1.37427e-14
9.14202e-15
8.30227e-15
3.40742e-15
4.62242e-15
2.14772e-15
1.65193e-15
3.0057e-15
3.23713e-15
9.59259e-15
8.21805e-15
6.65797e-15
3.47693e-15
1.17152e-15
6.55683e-16
2.19117e-15
6.0085e-15
4.34018e-15
2.98114e-15
3.66378e-15
2.63359e-15
4.23585e-15
7.87778e-15
6.93534e-15
6.17371e-15
4.57602e-15
8.55689e-15
1.35088e-14
1.20024e-14
9.98723e-15
3.66779e-15
2.05711e-15
4.90339e-16
2.89634e-15
1.07859e-15
1.74107e-15
1.02308e-15
3.21899e-15
1.28064e-15
5.19139e-16
5.40215e-16
2.81941e-16
3.13889e-16
1.79529e-15
6.80184e-15
5.14301e-15
3.62761e-15
3.24811e-15
7.03458e-16
1.28857e-15
1.0822e-15
1.00351e-15
8.69282e-16
2.4833e-16
8.3262e-16
1.64441e-15
9.28564e-16
1.00467e-15
2.16218e-15
7.99551e-15
1.10251e-14
6.63876e-15
6.26381e-15
2.62519e-15
3.94111e-15
1.8448e-15
1.07113e-15
2.66024e-15
3.11315e-15
8.28652e-15
7.30565e-15
5.73958e-15
3.01863e-15
1.10761e-15
5.17903e-16
2.07017e-15
5.10643e-15
3.84474e-15
2.73658e-15
3.31264e-15
2.42953e-15
4.0204e-15
7.09236e-15
6.45224e-15
5.94751e-15
4.92077e-15
8.29723e-15
1.17855e-14
1.04081e-14
8.42062e-15
3.08957e-15
1.37056e-15
2.43474e-16
2.01573e-15
1.05939e-15
1.18117e-15
6.1686e-16
2.29606e-15
1.15249e-15
4.12385e-16
4.64674e-16
2.25367e-16
2.25805e-16
1.34366e-15
5.4005e-15
4.59635e-15
3.1886e-15
2.80325e-15
5.50969e-16
8.29382e-16
7.98246e-16
7.45009e-16
7.07899e-16
1.99937e-16
5.90112e-16
1.2491e-15
8.74261e-16
9.85752e-16
2.10537e-15
6.69402e-15
8.9219e-15
4.9358e-15
4.6674e-15
2.10563e-15
3.22383e-15
1.65308e-15
7.2025e-16
2.30951e-15
2.97072e-15
7.21792e-15
6.50626e-15
4.97397e-15
2.61408e-15
1.02918e-15
4.35862e-16
1.947e-15
4.44714e-15
3.48041e-15
2.50457e-15
3.10382e-15
2.29569e-15
3.78369e-15
6.44741e-15
6.05016e-15
5.76196e-15
5.15195e-15
8.07485e-15
1.04957e-14
9.15642e-15
7.16496e-15
2.65722e-15
9.09653e-16
1.50025e-16
1.38605e-15
1.0606e-15
7.88878e-16
4.09229e-16
1.61078e-15
1.02587e-15
3.68961e-16
3.99591e-16
1.84742e-16
1.79419e-16
1.04876e-15
4.32197e-15
4.11303e-15
2.80379e-15
2.44385e-15
4.68125e-16
5.4658e-16
5.94536e-16
5.62845e-16
5.85201e-16
1.75597e-16
4.4268e-16
9.61535e-16
8.39775e-16
9.77693e-16
2.03693e-15
5.6815e-15
7.28196e-15
3.77167e-15
3.44067e-15
1.73556e-15
2.54526e-15
1.51576e-15
5.17907e-16
1.97594e-15
2.81769e-15
6.32674e-15
5.79604e-15
4.33182e-15
2.26135e-15
9.3883e-16
3.86235e-16
1.81831e-15
3.9482e-15
3.19749e-15
2.31076e-15
2.96915e-15
2.19585e-15
3.55101e-15
5.90267e-15
5.70592e-15
5.59603e-15
5.28817e-15
7.83413e-15
9.51157e-15
8.15591e-15
6.17379e-15
2.32975e-15
6.11249e-16
1.28636e-16
9.55636e-16
1.03952e-15
5.25816e-16
3.02747e-16
1.11421e-15
8.9657e-16
3.57039e-16
3.46381e-16
1.54908e-16
1.61544e-16
8.58326e-16
3.49807e-15
3.67183e-15
2.47656e-15
2.14289e-15
4.20762e-16
3.79985e-16
4.45092e-16
4.33076e-16
4.91822e-16
1.64593e-16
3.55001e-16
7.56374e-16
8.0407e-16
9.71912e-16
1.95362e-15
4.87394e-15
5.99412e-15
2.96478e-15
2.51797e-15
1.44716e-15
1.95043e-15
1.39577e-15
4.08807e-16
1.67686e-15
2.66045e-15
5.57186e-15
5.16076e-15
3.78912e-15
1.95718e-15
8.41282e-16
3.55888e-16
1.68854e-15
3.55152e-15
2.96779e-15
2.16396e-15
2.86476e-15
2.11568e-15
3.33765e-15
5.4329e-15
5.4037e-15
5.43803e-15
5.34687e-15
7.56076e-15
8.73663e-15
7.3445e-15
5.39685e-15
2.07807e-15
4.27677e-16
1.35912e-16
6.7348e-16
9.83979e-16
3.59885e-16
2.43279e-16
7.62923e-16
7.67098e-16
3.56642e-16
3.04447e-16
1.32645e-16
1.61077e-16
7.35005e-16
2.87154e-15
3.26555e-15
2.20407e-15
1.88409e-15
3.91374e-16
2.8587e-16
3.34042e-16
3.39912e-16
4.20195e-16
1.59966e-16
3.03961e-16
6.13285e-16
7.62932e-16
9.63377e-16
1.8586e-15
4.21522e-15
4.97567e-15
2.39346e-15
1.83864e-15
1.20457e-15
1.46139e-15
1.27292e-15
3.57025e-16
1.42317e-15
2.50175e-15
4.92325e-15
4.59215e-15
3.3267e-15
1.69704e-15
7.41993e-16
3.36261e-16
1.5604e-15
3.2202e-15
2.77563e-15
2.06091e-15
2.76487e-15
2.05088e-15
3.15086e-15
5.02124e-15
5.13274e-15
5.28117e-15
5.34405e-15
7.25993e-15
8.10079e-15
6.67832e-15
4.78805e-15
1.88236e-15
3.23788e-16
1.51899e-16
4.95947e-16
8.99141e-16
2.63216e-16
2.03524e-16
5.20183e-16
6.43108e-16
3.56247e-16
2.72672e-16
1.15975e-16
1.69633e-16
6.54131e-16
2.39505e-15
2.89349e-15
1.97953e-15
1.6583e-15
3.71621e-16
2.33582e-16
2.51885e-16
2.72551e-16
3.64518e-16
1.58013e-16
2.74971e-16
5.16339e-16
7.18983e-16
9.49987e-16
1.75668e-15
3.66721e-15
4.16462e-15
1.97827e-15
1.34837e-15
9.92068e-16
1.07913e-15
1.14015e-15
3.3959e-16
1.2182e-15
2.34395e-15
4.35956e-15
4.08466e-15
2.92933e-15
1.47561e-15
6.46324e-16
3.23271e-16
1.43872e-15
2.93145e-15
2.61156e-15
1.9938e-15
2.65887e-15
2.00187e-15
2.98875e-15
4.65667e-15
4.88605e-15
5.12429e-15
5.29386e-15
6.93872e-15
7.55586e-15
6.12534e-15
4.30831e-15
1.7289e-15
2.74405e-16
1.69027e-16
3.88457e-16
7.96715e-16
2.12671e-16
1.71622e-16
3.56237e-16
5.30004e-16
3.50192e-16
2.48022e-16
1.03355e-16
1.81278e-16
5.99506e-16
2.03062e-15
2.55688e-15
1.79413e-15
1.46156e-15
3.57702e-16
2.03847e-16
1.92599e-16
2.23582e-16
3.20338e-16
1.57465e-16
2.59345e-16
4.52997e-16
6.7659e-16
9.31248e-16
1.65239e-15
3.20548e-15
3.51427e-15
1.66806e-15
1.00081e-15
8.04751e-16
7.92223e-16
1.00004e-15
3.419e-16
1.05911e-15
2.18578e-15
3.8668e-15
3.63344e-15
2.5852e-15
1.28747e-15
5.58174e-16
3.13459e-16
1.32591e-15
2.67434e-15
2.46845e-15
1.94984e-15
2.54521e-15
1.96886e-15
2.84703e-15
4.33261e-15
4.6587e-15
4.96645e-15
5.20917e-15
6.61685e-15
7.0714e-15
5.66203e-15
3.92594e-15
1.60953e-15
2.61452e-16
1.85361e-16
3.25776e-16
6.89796e-16
1.90373e-16
1.43658e-16
2.47593e-16
4.31152e-16
3.36801e-16
2.2771e-16
9.40884e-17
1.92115e-16
5.60739e-16
1.74896e-15
2.25675e-15
1.63895e-15
1.29157e-15
3.47793e-16
1.85412e-16
1.51656e-16
1.88011e-16
2.84435e-16
1.58154e-16
2.51348e-16
4.13099e-16
6.38559e-16
9.07931e-16
1.54969e-15
2.81352e-15
2.98933e-15
1.43042e-15
7.58136e-16
6.424e-16
5.83447e-16
8.59248e-16
3.54384e-16
9.39418e-16
2.02956e-15
3.43463e-15
3.23338e-15
2.28535e-15
1.12732e-15
4.80037e-16
3.05397e-16
1.22327e-15
2.44432e-15
2.34035e-15
1.91853e-15
2.42869e-15
1.94984e-15
2.72149e-15
4.04491e-15
4.44733e-15
4.80798e-15
5.10082e-15
6.29835e-15
6.63044e-15
5.26885e-15
3.61644e-15
1.51783e-15
2.72035e-16
2.01048e-16
2.89995e-16
5.88526e-16
1.83411e-16
1.19219e-16
1.76772e-16
3.47771e-16
3.1703e-16
2.09613e-16
8.75375e-17
1.99839e-16
5.31374e-16
1.52801e-15
1.99307e-15
1.50609e-15
1.14675e-15
3.40394e-16
1.72708e-16
1.25417e-16
1.62421e-16
2.54691e-16
1.60049e-16
2.47778e-16
3.88594e-16
6.06088e-16
8.80583e-16
1.45124e-15
2.47951e-15
2.56273e-15
1.2445e-15
5.90724e-16
5.05969e-16
4.34936e-16
7.25213e-16
3.70612e-16
8.51127e-16
1.87726e-15
3.05506e-15
2.87905e-15
2.02293e-15
9.90343e-16
4.1298e-16
2.98478e-16
1.13141e-15
2.2385e-15
2.2231e-15
1.89262e-15
2.31498e-15
1.94054e-15
2.60919e-15
3.79047e-15
4.25006e-15
4.64972e-15
4.9742e-15
5.98937e-15
6.22417e-15
4.93037e-15
3.36163e-15
1.44834e-15
2.97079e-16
2.16673e-16
2.70148e-16
4.986e-16
1.83206e-16
9.89472e-17
1.31033e-16
2.79333e-16
2.9284e-16
1.92218e-16
8.31434e-17
2.03444e-16
5.07501e-16
1.35176e-15
1.76437e-15
1.38945e-15
1.02511e-15
3.34184e-16
1.6337e-16
1.10577e-16
1.44189e-16
2.29774e-16
1.63101e-16
2.46601e-16
3.73829e-16
5.79112e-16
8.51004e-16
1.35815e-15
2.19429e-15
2.21379e-15
1.0964e-15
4.76251e-16
3.95419e-16
3.30924e-16
6.04289e-16
3.86277e-16
7.86238e-16
1.73129e-15
2.72175e-15
2.56523e-15
1.79254e-15
8.72483e-16
3.56766e-16
2.92311e-16
1.04983e-15
2.05514e-15
2.11371e-15
1.86749e-15
2.20837e-15
1.93588e-15
2.50838e-15
3.56626e-15
4.06545e-15
4.49228e-15
4.83565e-15
5.69344e-15
5.84897e-15
4.63444e-15
3.14837e-15
1.39613e-15
3.30309e-16
2.32623e-16
2.59421e-16
4.22369e-16
1.84709e-16
8.34464e-17
1.01365e-16
2.24183e-16
2.66166e-16
1.75128e-16
8.03739e-17
2.02908e-16
4.86802e-16
1.20844e-15
1.56795e-15
1.28476e-15
9.23997e-16
3.28462e-16
1.56524e-16
1.03627e-16
1.31419e-16
2.09077e-16
1.67081e-16
2.46916e-16
3.65337e-16
5.56949e-16
8.2054e-16
1.27097e-15
1.95046e-15
1.92662e-15
9.7658e-16
3.9843e-16
3.09092e-16
2.58713e-16
5.00535e-16
3.98579e-16
7.37873e-16
1.59348e-15
2.42911e-15
2.28715e-15
1.58983e-15
7.70557e-16
3.10334e-16
2.86706e-16
9.77701e-16
1.89271e-15
2.01021e-15
1.84041e-15
2.11236e-15
1.93124e-15
2.41837e-15
3.36907e-15
3.89241e-15
4.33635e-15
4.68923e-15
5.41233e-15
5.50264e-15
4.37151e-15
2.96708e-15
1.35686e-15
3.67322e-16
2.4904e-16
2.53891e-16
3.6048e-16
1.85355e-16
7.28376e-17
8.17761e-17
1.80093e-16
2.38458e-16
1.5867e-16
7.86715e-17
1.98992e-16
4.6788e-16
1.08975e-15
1.40026e-15
1.18935e-15
8.4052e-16
3.22885e-16
1.51967e-16
1.01628e-16
1.22859e-16
1.9239e-16
1.71764e-16
2.48223e-16
3.60514e-16
5.38818e-16
7.90164e-16
1.18961e-15
1.74195e-15
1.6889e-15
8.78364e-16
3.45754e-16
2.44177e-16
2.08847e-16
4.15532e-16
4.0593e-16
7.00629e-16
1.4651e-15
2.17201e-15
2.04059e-15
1.4112e-15
6.8202e-16
2.72275e-16
2.81568e-16
9.14082e-16
1.74942e-15
1.91168e-15
1.81019e-15
2.02838e-15
1.92352e-15
2.33814e-15
3.19588e-15
3.73005e-15
4.18283e-15
4.53784e-15
5.14689e-15
5.18336e-15
4.13417e-15
2.81076e-15
1.32695e-15
4.05125e-16
2.6589e-16
2.51431e-16
3.11652e-16
1.8418e-16
6.66628e-17
6.86149e-17
1.45004e-16
2.10634e-16
1.43473e-16
7.7575e-17
1.92856e-16
4.49939e-16
9.89674e-16
1.25738e-15
1.10177e-15
7.71591e-16
3.17328e-16
1.49392e-16
1.02499e-16
1.17634e-16
1.79338e-16
1.76818e-16
2.50209e-16
3.57794e-16
5.23877e-16
7.60599e-16
1.11416e-15
1.56335e-15
1.49099e-15
7.96846e-16
3.1028e-16
1.97295e-16
1.74693e-16
3.48651e-16
4.08019e-16
6.70535e-16
1.34684e-15
1.94585e-15
1.82185e-15
1.25359e-15
6.04723e-16
2.41269e-16
2.76832e-16
8.57918e-16
1.62308e-15
1.81815e-15
1.77649e-15
1.95608e-15
1.91114e-15
2.26749e-15
3.04331e-15
3.57772e-15
4.03235e-15
4.38359e-15
4.89699e-15
4.88918e-15
3.91735e-15
2.67402e-15
1.30377e-15
4.41834e-16
2.83001e-16
2.50869e-16
2.74432e-16
1.81064e-16
6.40847e-17
5.93009e-17
1.17273e-16
1.83856e-16
1.30038e-16
7.67683e-17
1.85601e-16
4.32548e-16
9.04036e-16
1.13553e-15
1.02127e-15
7.14294e-16
3.1192e-16
1.4868e-16
1.04851e-16
1.1506e-16
1.69458e-16
1.81894e-16
2.52668e-16
3.56423e-16
5.11359e-16
7.32388e-16
1.0448e-15
1.41016e-15
1.32533e-15
7.28468e-16
2.86572e-16
1.65006e-16
1.51778e-16
2.98082e-16
4.05418e-16
6.44835e-16
1.23879e-15
1.74652e-15
1.62772e-15
1.1144e-15
5.36985e-16
2.16053e-16
2.72519e-16
8.08161e-16
1.5114e-15
1.72993e-15
1.73952e-15
1.89384e-15
1.89365e-15
2.2053e-15
2.90829e-15
3.43481e-15
3.88552e-15
4.22858e-15
4.66206e-15
4.61819e-15
3.71763e-15
2.55262e-15
1.28482e-15
4.76444e-16
3.00135e-16
2.5175e-16
2.46728e-16
1.76355e-16
6.41444e-17
5.26453e-17
9.55358e-17
1.5909e-16
1.18645e-16
7.60855e-17
1.78293e-16
4.15547e-16
8.29884e-16
1.03132e-15
9.47433e-16
6.66156e-16
3.06855e-16
1.49565e-16
1.07926e-16
1.14636e-16
1.62351e-16
1.8673e-16
2.55502e-16
3.55835e-16
5.00526e-16
7.05656e-16
9.81425e-16
1.27847e-15
1.18599e-15
6.70631e-16
2.70862e-16
1.44152e-16
1.37069e-16
2.61329e-16
3.99047e-16
6.21751e-16
1.14062e-15
1.57045e-15
1.45541e-15
9.9142e-16
4.77577e-16
1.95486e-16
2.68537e-16
7.63947e-16
1.4124e-15
1.64731e-15
1.69974e-15
1.83953e-15
1.87137e-15
2.15022e-15
2.7881e-15
3.30076e-15
3.74292e-15
4.07466e-15
4.44155e-15
4.36858e-15
3.53252e-15
2.44337e-15
1.26865e-15
5.08407e-16
3.17024e-16
2.53674e-16
2.2654e-16
1.70653e-16
6.59131e-17
4.78293e-17
7.86082e-17
1.36879e-16
1.09301e-16
7.88251e-14
7.67535e-14
4.84604e-14
1.80311e-14
9.68002e-15
7.97674e-14
1.37336e-13
1.7811e-13
9.46244e-14
8.60357e-14
5.10243e-15
3.24403e-15
4.88741e-14
8.09079e-14
4.56819e-14
5.66346e-14
9.46783e-15
1.49902e-14
1.17914e-13
1.28286e-13
1.18199e-13
1.27683e-13
1.04721e-13
5.60605e-14
2.81463e-14
5.85449e-15
5.17357e-15
6.46667e-14
4.5628e-14
1.64109e-14
2.56188e-14
2.839e-14
8.04219e-14
7.03832e-14
1.33629e-13
1.05769e-13
1.13191e-13
6.44204e-14
2.77192e-15
3.00334e-15
5.61097e-15
1.65432e-14
4.52988e-15
6.03776e-14
2.37051e-14
2.38958e-14
2.71162e-14
1.54154e-14
1.74989e-14
8.99661e-14
1.36519e-13
1.23173e-13
8.46069e-15
7.77944e-16
3.0039e-14
6.06245e-14
4.73164e-14
6.09491e-14
1.57857e-14
3.3989e-14
5.59524e-14
5.48362e-14
4.43671e-14
1.78008e-14
9.57088e-15
5.81003e-14
1.14537e-13
1.41254e-13
6.93518e-14
6.41116e-14
4.69471e-15
2.88953e-15
3.49508e-14
5.83291e-14
2.93825e-14
3.85739e-14
7.6238e-15
8.26022e-15
8.87658e-14
1.03939e-13
1.09705e-13
9.71508e-14
8.37396e-14
5.26769e-14
2.68184e-14
5.74078e-15
4.86907e-15
4.62556e-14
4.17608e-14
1.62852e-14
2.35899e-14
1.67162e-14
5.6488e-14
5.22371e-14
1.00939e-13
7.91201e-14
1.03209e-13
4.50546e-14
2.37075e-15
2.90982e-15
5.39685e-15
1.55971e-14
4.86475e-15
4.51128e-14
2.20885e-14
2.31998e-14
2.62617e-14
1.55936e-14
1.67416e-14
6.45532e-14
1.10668e-13
9.56861e-14
7.35854e-15
6.53025e-16
1.92288e-14
4.06607e-14
3.21576e-14
4.18568e-14
1.28699e-14
2.05096e-14
3.76821e-14
3.85036e-14
3.41395e-14
1.65899e-14
8.70094e-15
4.28367e-14
8.59824e-14
1.00427e-13
4.89592e-14
4.6974e-14
4.93719e-15
2.01523e-15
2.41369e-14
3.76797e-14
1.82023e-14
2.54943e-14
4.74174e-15
4.21793e-15
6.49469e-14
8.07811e-14
8.63238e-14
7.34415e-14
6.28269e-14
4.27912e-14
2.29354e-14
5.60081e-15
3.74822e-15
3.39566e-14
3.45579e-14
1.55522e-14
1.81565e-14
1.00088e-14
3.603e-14
3.50689e-14
7.03614e-14
5.88965e-14
7.90323e-14
3.39997e-14
1.62289e-15
2.47396e-15
5.01889e-15
1.40405e-14
5.38048e-15
3.39631e-14
1.88134e-14
2.13625e-14
2.44981e-14
1.57697e-14
1.44957e-14
4.60234e-14
7.99671e-14
7.23231e-14
6.65449e-15
5.42271e-16
1.20823e-14
2.37848e-14
1.99818e-14
2.78389e-14
7.62103e-15
1.25498e-14
2.50982e-14
2.68267e-14
2.45243e-14
1.5015e-14
7.92543e-15
3.25911e-14
6.18987e-14
7.07912e-14
3.43888e-14
3.38945e-14
5.35578e-15
1.49124e-15
1.64215e-14
2.39158e-14
1.13319e-14
1.66216e-14
3.17076e-15
1.96038e-15
4.8112e-14
6.15752e-14
6.47737e-14
5.63001e-14
4.58413e-14
3.3169e-14
1.87596e-14
5.31958e-15
3.04146e-15
2.544e-14
2.77011e-14
1.43897e-14
1.35926e-14
6.16254e-15
2.24943e-14
2.23096e-14
4.82041e-14
4.38981e-14
5.718e-14
2.70731e-14
1.29207e-15
2.13582e-15
4.60452e-15
1.24107e-14
6.03908e-15
2.60995e-14
1.57184e-14
1.91274e-14
2.24287e-14
1.55918e-14
1.23256e-14
3.32675e-14
5.47569e-14
5.38014e-14
6.44003e-15
5.97055e-16
7.54037e-15
1.33891e-14
1.19004e-14
1.83535e-14
4.11284e-15
7.72157e-15
1.64095e-14
1.87023e-14
1.72769e-14
1.32888e-14
7.23154e-15
2.5028e-14
4.49274e-14
4.95291e-14
2.47401e-14
2.39985e-14
5.65363e-15
1.18817e-15
1.1338e-14
1.51322e-14
7.41829e-15
1.06763e-14
2.65134e-15
9.87271e-16
3.58021e-14
4.69716e-14
4.83254e-14
4.33012e-14
3.35493e-14
2.5825e-14
1.51653e-14
4.90528e-15
2.66109e-15
1.92757e-14
2.2343e-14
1.30731e-14
1.05618e-14
4.00151e-15
1.37522e-14
1.41966e-14
3.27367e-14
3.28151e-14
4.12371e-14
2.20224e-14
1.33302e-15
1.93683e-15
4.19498e-15
1.0992e-14
6.45962e-15
2.06287e-14
1.34506e-14
1.70777e-14
2.03925e-14
1.50336e-14
1.06324e-14
2.39468e-14
3.75738e-14
3.9236e-14
6.53584e-15
6.27404e-16
4.86232e-15
7.26496e-15
7.21492e-15
1.19943e-14
2.40574e-15
4.76706e-15
1.03095e-14
1.30833e-14
1.19064e-14
1.15019e-14
6.5786e-15
1.93552e-14
3.3146e-14
3.39631e-14
1.83235e-14
1.64701e-14
5.76084e-15
9.49917e-16
8.00765e-15
9.23098e-15
5.14332e-15
6.62117e-15
2.53822e-15
6.78723e-16
2.66484e-14
3.61466e-14
3.57993e-14
3.3227e-14
2.48156e-14
2.02499e-14
1.21233e-14
4.40441e-15
2.41988e-15
1.47503e-14
1.81982e-14
1.16841e-14
8.46471e-15
2.77301e-15
8.033e-15
9.19299e-15
2.18341e-14
2.47462e-14
2.97395e-14
1.80298e-14
1.5887e-15
1.8376e-15
3.84783e-15
9.77935e-15
6.62228e-15
1.6815e-14
1.17972e-14
1.52574e-14
1.84459e-14
1.42077e-14
9.29917e-15
1.69709e-14
2.61594e-14
2.7644e-14
6.68226e-15
5.81068e-16
3.27168e-15
3.62779e-15
4.48856e-15
7.57411e-15
1.64717e-15
2.96117e-15
6.22632e-15
9.1347e-15
7.98591e-15
9.74222e-15
5.9917e-15
1.51028e-14
2.47561e-14
2.27611e-14
1.38806e-14
1.08773e-14
5.66798e-15
7.63502e-16
5.76209e-15
5.45078e-15
3.72266e-15
3.96955e-15
2.51997e-15
6.62641e-16
1.99064e-14
2.80311e-14
2.62196e-14
2.53907e-14
1.85065e-14
1.59103e-14
9.61851e-15
3.86648e-15
2.24739e-15
1.13852e-14
1.49518e-14
1.03048e-14
6.93569e-15
2.04332e-15
4.41725e-15
6.05332e-15
1.42813e-14
1.88123e-14
2.14017e-14
1.47795e-14
1.95408e-15
1.80843e-15
3.59104e-15
8.75156e-15
6.60335e-15
1.40853e-14
1.05366e-14
1.36619e-14
1.66375e-14
1.32138e-14
8.22066e-15
1.18107e-14
1.841e-14
1.86788e-14
6.71375e-15
5.04641e-16
2.27072e-15
1.64413e-15
2.81652e-15
4.60131e-15
1.33545e-15
1.84468e-15
3.6448e-15
6.33434e-15
5.22508e-15
8.08612e-15
5.47496e-15
1.19172e-14
1.87075e-14
1.50171e-14
1.06702e-14
6.89003e-15
5.39019e-15
6.35826e-16
4.21808e-15
3.17241e-15
2.76682e-15
2.33806e-15
2.48312e-15
7.77604e-16
1.50111e-14
2.18919e-14
1.90093e-14
1.92892e-14
1.39007e-14
1.25003e-14
7.62565e-15
3.3288e-15
2.11959e-15
8.87759e-15
1.2392e-14
8.99708e-15
5.79305e-15
1.59078e-15
2.25948e-15
4.06793e-15
9.21344e-15
1.44011e-14
1.54619e-14
1.2104e-14
2.35674e-15
1.8236e-15
3.42636e-15
7.8922e-15
6.46182e-15
1.20826e-14
9.5497e-15
1.22832e-14
1.49959e-14
1.21527e-14
7.33714e-15
8.08699e-15
1.30602e-14
1.20504e-14
6.54228e-15
4.43764e-16
1.61221e-15
6.93308e-16
1.75837e-15
2.6952e-15
1.21473e-15
1.16187e-15
2.10038e-15
4.34815e-15
3.35225e-15
6.58762e-15
5.01852e-15
9.52446e-15
1.43145e-14
9.82368e-15
8.23885e-15
4.17179e-15
4.95608e-15
5.62845e-16
3.1414e-15
1.87872e-15
2.08039e-15
1.41558e-15
2.38389e-15
9.39075e-16
1.15094e-14
1.72243e-14
1.36955e-14
1.45456e-14
1.05206e-14
9.79988e-15
6.07022e-15
2.81654e-15
2.01968e-15
7.02351e-15
1.03529e-14
7.79918e-15
4.91153e-15
1.29655e-15
1.06498e-15
2.80129e-15
5.94448e-15
1.11056e-14
1.1328e-14
9.89119e-15
2.74617e-15
1.86709e-15
3.33811e-15
7.17348e-15
6.2463e-15
1.05792e-14
8.75892e-15
1.11014e-14
1.35259e-14
1.10832e-14
6.60451e-15
5.48105e-15
9.30104e-15
7.403e-15
6.13602e-15
4.27059e-16
1.16988e-15
3.02938e-16
1.08061e-15
1.5231e-15
1.14336e-15
7.60036e-16
1.21e-15
2.9516e-15
2.11901e-15
5.27042e-15
4.5983e-15
7.71315e-15
1.1092e-14
6.45306e-15
6.322e-15
2.44146e-15
4.40078e-15
5.38594e-16
2.38224e-15
1.20317e-15
1.56566e-15
9.57001e-16
2.21702e-15
1.10078e-15
9.02953e-15
1.36539e-14
9.85742e-15
1.08723e-14
8.02617e-15
7.64752e-15
4.86837e-15
2.35007e-15
1.93512e-15
5.66632e-15
8.70746e-15
6.73225e-15
4.20851e-15
1.09445e-15
4.75121e-16
1.97679e-15
3.92533e-15
8.63307e-15
8.50248e-15
8.05873e-15
3.08833e-15
1.9266e-15
3.30049e-15
6.57132e-15
5.99569e-15
9.4219e-15
8.11032e-15
1.00916e-14
1.22207e-14
1.00566e-14
5.98437e-15
3.718e-15
6.60821e-15
4.34849e-15
5.51213e-15
4.65849e-16
8.69638e-16
1.79379e-16
6.50978e-16
8.40354e-16
1.0538e-15
5.33521e-16
7.17363e-16
1.98512e-15
1.33308e-15
4.15205e-15
4.19817e-15
6.33114e-15
8.70118e-15
4.32515e-15
4.77808e-15
1.43215e-15
3.76428e-15
5.48797e-16
1.8428e-15
8.78851e-16
1.17711e-15
7.74727e-16
2.00139e-15
1.2405e-15
7.27323e-15
1.09043e-14
7.13632e-15
8.04377e-15
6.17212e-15
5.92506e-15
3.94129e-15
1.94489e-15
1.85512e-15
4.67644e-15
7.36052e-15
5.80366e-15
3.62886e-15
9.48021e-16
2.36018e-16
1.42455e-15
2.74071e-15
6.77383e-15
6.58975e-15
6.5582e-15
3.3585e-15
1.9935e-15
3.2876e-15
6.06721e-15
5.73507e-15
8.50653e-15
7.56697e-15
9.22934e-15
1.1068e-14
9.10715e-15
5.44405e-15
2.56254e-15
4.65321e-15
2.46617e-15
4.73042e-15
5.52106e-16
6.6266e-16
1.57708e-16
3.891e-16
4.60931e-16
9.32097e-16
4.0878e-16
4.48694e-16
1.33111e-15
8.49399e-16
3.24276e-15
3.81009e-15
5.26256e-15
6.90943e-15
3.01481e-15
3.5347e-15
9.0422e-16
3.09622e-15
5.81877e-16
1.45621e-15
7.33917e-16
8.94844e-16
7.35457e-16
1.76653e-15
1.34969e-15
6.01385e-15
8.77386e-15
5.2348e-15
5.88493e-15
4.78067e-15
4.54965e-15
3.22229e-15
1.60827e-15
1.77084e-15
3.94844e-15
6.24533e-15
5.01033e-15
3.13965e-15
8.37169e-16
1.77566e-16
1.0444e-15
2.0809e-15
5.3781e-15
5.29218e-15
5.35524e-15
3.54138e-15
2.0633e-15
3.28065e-15
5.64337e-15
5.47889e-15
7.76336e-15
7.10303e-15
8.48979e-15
1.00538e-14
8.25311e-15
4.96158e-15
1.8277e-15
3.23133e-15
1.38803e-15
3.87547e-15
6.69199e-16
5.16998e-16
1.58986e-16
2.40275e-16
2.5888e-16
7.91576e-16
3.39933e-16
2.99028e-16
8.99749e-16
5.60047e-16
2.53332e-15
3.4339e-15
4.42612e-15
5.55467e-15
2.2133e-15
2.55237e-15
6.67223e-16
2.44769e-15
6.23458e-16
1.17533e-15
6.70305e-16
7.04969e-16
7.55429e-16
1.54122e-15
1.4263e-15
5.08969e-15
7.11497e-15
3.91635e-15
4.25839e-15
3.72306e-15
3.45874e-15
2.65911e-15
1.33994e-15
1.67963e-15
3.4011e-15
5.31852e-15
4.34116e-15
2.72092e-15
7.4949e-16
1.96534e-16
7.78753e-16
1.72829e-15
4.33482e-15
4.39646e-15
4.41627e-15
3.63211e-15
2.13242e-15
3.266e-15
5.28575e-15
5.23387e-15
7.14253e-15
6.69918e-15
7.85204e-15
9.16253e-15
7.49793e-15
4.52412e-15
1.37319e-15
2.20785e-15
8.15377e-16
3.03108e-15
7.91315e-16
4.11621e-16
1.55145e-16
1.63993e-16
1.54035e-16
6.50992e-16
2.99441e-16
2.09908e-16
6.21948e-16
3.90316e-16
1.99563e-15
3.07253e-15
3.76388e-15
4.52005e-15
1.71556e-15
1.8011e-15
5.79638e-16
1.86155e-15
6.6205e-16
9.67694e-16
6.35496e-16
5.91471e-16
7.87036e-16
1.34624e-15
1.472e-15
4.38826e-15
5.81851e-15
3.00355e-15
3.05321e-15
2.90731e-15
2.60321e-15
2.21094e-15
1.13379e-15
1.5805e-15
2.97666e-15
4.549e-15
3.77872e-15
2.35986e-15
6.76844e-16
2.36187e-16
5.94354e-16
1.54285e-15
3.55979e-15
3.75696e-15
3.70417e-15
3.63541e-15
2.19715e-15
3.23844e-15
4.98016e-15
5.00307e-15
6.61323e-15
6.34239e-15
7.29803e-15
8.3794e-15
6.83644e-15
4.12857e-15
1.10266e-15
1.48551e-15
5.32211e-16
2.26774e-15
8.92297e-16
3.32897e-16
1.42629e-16
1.29885e-16
1.01062e-16
5.24145e-16
2.71831e-16
1.51102e-16
4.46128e-16
2.92792e-16
1.59948e-15
2.72974e-15
3.23592e-15
3.72085e-15
1.39511e-15
1.24928e-15
5.50782e-16
1.36579e-15
6.87694e-16
8.11977e-16
6.069e-16
5.35398e-16
8.0772e-16
1.192e-15
1.48991e-15
3.83536e-15
4.80221e-15
2.36766e-15
2.17528e-15
2.26875e-15
1.94218e-15
1.84704e-15
9.79529e-16
1.47462e-15
2.63621e-15
3.91246e-15
3.30492e-15
2.04816e-15
6.14024e-16
2.69772e-16
4.70564e-16
1.43761e-15
2.98732e-15
3.28064e-15
3.17869e-15
3.56408e-15
2.25552e-15
3.19725e-15
4.71456e-15
4.78754e-15
6.15486e-15
6.02263e-15
6.81279e-15
7.6905e-15
6.25982e-15
3.77567e-15
9.50951e-16
9.89035e-16
3.95255e-16
1.63015e-15
9.53126e-16
2.7468e-16
1.25952e-16
1.16733e-16
7.52028e-17
4.1819e-16
2.48917e-16
1.09144e-16
3.35476e-16
2.38764e-16
1.31194e-15
2.411e-15
2.81147e-15
3.09634e-15
1.17792e-15
8.62875e-16
5.31595e-16
9.72845e-16
6.9426e-16
6.93812e-16
5.77887e-16
5.16843e-16
8.11445e-16
1.07957e-15
1.48459e-15
3.38431e-15
4.00294e-15
1.91805e-15
1.54707e-15
1.76284e-15
1.44021e-15
1.54542e-15
8.66346e-16
1.36612e-15
2.35505e-15
3.38758e-15
2.90241e-15
1.77976e-15
5.5786e-16
2.88172e-16
3.92604e-16
1.36375e-15
2.56662e-15
2.91065e-15
2.79925e-15
3.43638e-15
2.30587e-15
3.14412e-15
4.47895e-15
4.58657e-15
5.75211e-15
5.73111e-15
6.38436e-15