/*--------------------------------*- C++ -*----------------------------------*\
| =========                 |                                                 |
| \\      /  F ield         | OpenFOAM: The Open Source CFD Toolbox           |
|  \\    /   O peration     | Version:  2312                                  |
|   \\  /    A nd           | Website:  www.openfoam.com                      |
|    \\/     M anipulation  |                                                 |
\*---------------------------------------------------------------------------*/
FoamFile
{
    version     2.0;
    format      ascii;
    arch        "LSB;label=32;scalar=64";
    class       volScalarField;
    location    "720";
    object      nut;
}
// * * * * * * * * * * * * * * * * * * * * * * * * * * * * * * * * * * * * * //

dimensions      [0 2 -1 0 0 0 0];

internalField   nonuniform List<scalar> 
144000
(
2.31981e-29
5.10582e-30
3.22905e-30
2.31397e-28
4.6288e-29
1.20856e-31
2.36656e-29
5.2533e-30
1.50165e-29
9.71107e-30
1.36868e-29
1.07252e-29
1.50516e-29
1.31222e-29
1.39156e-29
1.14226e-29
1.62578e-29
1.74108e-29
1.64792e-29
1.53322e-29
1.87576e-29
1.93407e-29
1.96286e-29
1.88009e-29
1.87846e-29
1.87567e-29
2.12051e-29
2.11956e-29
2.15926e-29
2.06741e-29
1.93981e-29
1.8332e-29
2.17062e-29
2.14978e-29
1.99715e-29
1.75321e-29
1.57964e-29
1.3985e-29
1.35019e-29
9.74583e-30
1.00397e-29
5.94476e-30
1.42834e-29
1.09878e-29
8.13891e-30
7.18475e-30
3.18012e-30
1.71231e-30
3.98573e-31
1.12663e-31
1.22741e-31
1.24047e-30
1.00768e-29
2.93518e-29
1.55027e-28
6.59665e-29
4.42205e-28
3.04445e-26
6.00688e-26
7.85512e-27
2.15477e-26
1.9113e-27
8.24796e-28
2.29385e-27
2.53303e-29
2.29562e-30
4.25367e-29
1.51005e-29
2.09531e-29
3.01093e-29
2.02548e-29
2.93197e-29
2.43207e-29
3.35575e-29
2.51387e-29
2.63701e-29
2.85747e-29
4.09338e-29
3.20582e-29
3.26043e-29
3.52321e-29
4.31138e-29
3.76574e-29
4.04805e-29
3.59643e-29
3.94314e-29
4.01388e-29
4.52706e-29
4.1351e-29
4.28963e-29
3.74602e-29
3.63311e-29
4.02896e-29
4.39283e-29
3.80143e-29
3.34076e-29
2.93526e-29
2.55295e-29
2.46972e-29
1.92743e-29
1.95925e-29
1.51647e-29
3.31387e-29
1.56997e-29
1.73308e-29
1.2769e-29
6.93268e-30
2.22097e-30
8.69587e-31
7.71779e-32
1.26995e-31
5.03826e-30
1.64702e-29
9.17025e-29
2.63735e-28
3.0997e-28
5.36576e-28
6.81951e-26
3.48258e-25
5.16722e-27
8.1288e-26
5.88749e-27
6.4448e-27
2.12374e-27
1.22349e-28
1.30134e-30
6.03686e-29
2.32538e-29
3.03412e-29
3.87535e-29
3.18798e-29
3.64083e-29
3.79898e-29
4.27079e-29
3.75873e-29
3.55798e-29
4.31243e-29
5.32307e-29
4.70077e-29
4.45471e-29
5.12291e-29
5.77404e-29
5.38824e-29
5.52625e-29
5.09171e-29
5.47966e-29
5.66279e-29
6.16382e-29
5.78316e-29
5.87278e-29
5.15262e-29
5.11785e-29
5.53893e-29
5.91535e-29
5.15852e-29
4.54375e-29
3.95154e-29
3.53567e-29
3.37779e-29
2.74922e-29
3.0211e-29
2.11729e-29
5.13809e-29
1.89879e-29
2.69303e-29
1.7139e-29
9.7341e-30
3.42118e-30
1.15079e-30
2.30846e-31
2.85144e-31
4.81185e-30
2.85556e-29
1.04304e-28
4.10664e-28
2.5881e-28
1.87411e-27
1.18721e-25
3.64326e-25
2.76954e-26
3.72205e-25
6.84496e-26
2.64155e-26
8.49836e-27
1.18028e-28
1.93439e-30
6.04395e-29
2.77373e-29
3.07449e-29
3.88168e-29
3.27777e-29
3.59871e-29
3.90821e-29
4.24713e-29
3.86502e-29
3.51534e-29
4.37814e-29
5.30017e-29
4.78308e-29
4.38171e-29
5.1964e-29
5.70254e-29
5.46497e-29
5.4311e-29
5.13887e-29
5.40048e-29
5.65275e-29
6.0996e-29
5.77542e-29
5.74573e-29
5.13477e-29
5.00292e-29
5.44333e-29
5.81731e-29
5.07523e-29
4.42702e-29
3.93199e-29
3.50873e-29
3.48868e-29
2.88398e-29
3.19639e-29
2.75656e-29
4.88843e-29
1.78844e-29
3.13038e-29
1.61443e-29
1.12421e-29
3.25631e-30
1.5851e-30
3.67733e-31
1.42208e-31
5.19467e-30
2.3908e-29
9.89736e-29
3.52372e-28
2.25829e-28
2.35999e-27
1.74138e-25
5.34483e-25
1.25103e-25
8.47345e-25
3.73255e-25
4.92124e-26
2.90868e-26
2.53756e-28
3.66992e-30
6.79694e-29
3.49627e-29
3.09718e-29
4.13866e-29
3.19951e-29
3.8094e-29
3.89483e-29
4.41875e-29
3.87013e-29
3.58639e-29
4.38641e-29
5.45461e-29
4.79901e-29
4.38016e-29
5.25675e-29
5.74045e-29
5.51097e-29
5.40113e-29
5.16839e-29
5.37255e-29
5.68297e-29
6.11034e-29
5.77008e-29
5.71331e-29
5.13451e-29
4.95626e-29
5.46126e-29
5.88252e-29
5.08245e-29
4.48423e-29
4.0307e-29
3.6804e-29
3.72468e-29
3.14054e-29
3.38787e-29
3.02543e-29
4.39936e-29
2.05013e-29
3.52434e-29
1.62894e-29
1.28749e-29
3.48919e-30
2.27146e-30
7.18184e-31
6.08993e-32
5.29121e-30
1.92869e-29
9.13933e-29
2.86165e-28
1.75442e-28
3.35535e-27
2.79423e-25
7.39132e-25
5.18629e-25
1.34166e-24
1.21991e-24
6.12205e-26
7.3778e-26
6.93437e-28
9.02641e-30
8.42767e-29
4.35861e-29
3.38774e-29
4.48046e-29
3.20105e-29
4.07955e-29
3.97375e-29
4.70213e-29
3.94092e-29
3.77448e-29
4.52567e-29
5.78326e-29
4.89775e-29
4.53717e-29
5.4571e-29
5.97279e-29
5.69463e-29
5.53103e-29
5.34837e-29
5.51776e-29
5.90883e-29
6.32763e-29
5.97054e-29
5.87424e-29
5.32538e-29
5.11999e-29
5.76568e-29
6.22307e-29
5.35535e-29
4.7935e-29
4.36983e-29
4.09435e-29
4.12806e-29
3.45558e-29
3.52491e-29
3.60079e-29
4.19462e-29
2.65473e-29
3.96522e-29
1.8375e-29
1.50301e-29
4.43353e-30
3.47751e-30
1.53194e-30
5.09994e-32
5.41176e-30
1.47763e-29
8.18097e-29
2.14465e-28
1.17808e-28
4.89687e-27
4.54133e-25
9.53025e-25
1.55676e-24
1.71452e-24
2.98777e-24
5.82916e-26
1.5292e-25
1.79416e-27
2.10177e-29
1.08658e-28
5.31112e-29
3.91544e-29
4.77653e-29
3.30924e-29
4.29381e-29
4.14766e-29
4.9613e-29
4.05963e-29
3.98801e-29
4.77314e-29
6.15238e-29
5.04131e-29
4.7721e-29
5.74147e-29
6.28317e-29
5.93027e-29
5.73298e-29
5.60663e-29
5.76942e-29
6.26356e-29
6.63689e-29
6.27706e-29
6.1458e-29
5.64212e-29
5.44344e-29
6.27775e-29
6.71758e-29
5.7983e-29
5.25461e-29
4.87928e-29
4.6734e-29
4.65445e-29
3.83096e-29
3.72863e-29
3.88271e-29
4.10911e-29
3.60648e-29
4.54592e-29
2.23958e-29
1.78715e-29
6.45865e-30
5.69748e-30
3.41747e-30
2.48287e-31
5.97316e-30
1.12966e-29
6.93119e-29
1.45581e-28
7.18058e-29
6.60004e-27
7.12276e-25
1.22243e-24
3.65939e-24
1.8827e-24
5.97776e-24
4.49105e-26
2.72973e-25
4.09462e-27
4.0877e-29
1.41998e-28
6.54963e-29
4.55495e-29
5.06592e-29
3.48372e-29
4.45305e-29
4.38042e-29
5.18415e-29
4.21847e-29
4.18582e-29
5.08239e-29
6.51332e-29
5.2096e-29
5.02457e-29
6.06351e-29
6.63061e-29
6.1867e-29
5.97025e-29
5.91588e-29
6.07609e-29
6.66752e-29
7.01192e-29
6.65866e-29
6.4811e-29
6.05201e-29
5.85971e-29
6.91376e-29
7.32284e-29
6.36675e-29
5.82818e-29
5.55099e-29
5.41441e-29
5.32556e-29
4.27995e-29
4.0397e-29
4.48336e-29
4.14074e-29
4.77782e-29
5.3884e-29
2.88043e-29
2.19629e-29
1.03829e-29
9.83554e-30
7.74544e-30
1.44063e-30
8.45798e-30
1.10859e-29
6.00504e-29
1.00389e-28
7.30649e-29
8.38552e-27
1.06531e-24
1.58039e-24
7.06365e-24
1.86467e-24
1.05278e-23
2.79045e-26
4.41596e-25
8.626e-27
7.1468e-29
1.83916e-28
7.93005e-29
5.22203e-29
5.39653e-29
3.69673e-29
4.58473e-29
4.67445e-29
5.37732e-29
4.4146e-29
4.38868e-29
5.48045e-29
6.85732e-29
5.40843e-29
5.29e-29
6.45978e-29
6.99628e-29
6.46086e-29
6.24449e-29
6.2745e-29
6.4373e-29
7.15974e-29
7.43464e-29
7.08608e-29
6.89273e-29
6.54464e-29
6.37273e-29
7.69917e-29
8.03179e-29
7.04899e-29
6.54888e-29
6.44074e-29
6.41479e-29
6.32466e-29
5.1187e-29
4.91726e-29
5.71049e-29
3.87853e-29
6.3476e-29
6.67635e-29
3.86333e-29
2.83448e-29
1.76715e-29
1.79623e-29
1.74216e-29
6.16283e-30
1.70354e-29
1.98878e-29
6.67551e-29
1.13527e-28
2.13699e-28
9.76835e-27
1.52812e-24
2.20246e-24
1.20249e-23
1.68782e-24
1.67433e-23
1.60474e-26
6.54325e-25
1.68506e-26
1.1607e-28
2.33958e-28
9.20887e-29
5.93099e-29
5.78269e-29
3.94058e-29
4.70496e-29
5.02208e-29
5.55401e-29
4.6686e-29
4.58509e-29
5.94772e-29
7.18177e-29
5.65431e-29
5.55649e-29
6.91596e-29
7.37329e-29
6.78116e-29
6.54144e-29
6.70115e-29
6.84091e-29
7.70018e-29
7.91165e-29
7.58534e-29
7.36025e-29
7.13034e-29
6.97246e-29
8.59307e-29
8.86558e-29
7.88387e-29
7.45175e-29
7.63592e-29
7.8112e-29
7.86856e-29
6.76685e-29
7.47825e-29
6.0566e-29
3.26683e-29
8.31111e-29
8.59805e-29
5.38476e-29
3.87767e-29
3.09221e-29
3.39902e-29
3.82078e-29
2.10055e-29
4.24124e-29
5.625e-29
1.21e-28
2.72639e-28
8.48207e-28
1.09868e-26
2.12096e-24
3.20641e-24
1.84315e-23
1.48602e-24
2.47776e-23
1.27914e-26
9.07157e-25
3.10504e-26
1.83676e-28
3.02776e-28
1.01527e-28
6.65119e-29
6.23376e-29
4.20818e-29
4.81758e-29
5.42781e-29
5.71685e-29
4.96239e-29
4.79192e-29
6.50133e-29
7.48058e-29
5.94027e-29
5.8295e-29
7.4584e-29
7.73984e-29
7.14052e-29
6.86021e-29
7.18954e-29
7.28417e-29
8.33111e-29
8.4106e-29
8.13729e-29
7.89266e-29
7.80591e-29
7.67594e-29
9.63799e-29
9.81374e-29
8.87837e-29
8.57034e-29
9.19149e-29
9.65904e-29
9.99388e-29
9.16799e-29
1.00714e-28
7.5557e-29
3.47855e-29
9.5356e-29
1.21384e-28
7.51464e-29
5.65156e-29
5.41321e-29
6.50121e-29
8.02434e-29
6.07887e-29
1.10068e-28
1.70189e-28
3.06544e-28
8.40338e-28
2.76083e-27
1.16443e-26
2.89364e-24
5.04258e-24
2.62385e-23
1.28996e-24
3.44872e-23
2.73754e-26
1.18501e-24
5.41163e-26
2.9327e-28
3.91232e-28
1.07269e-28
7.33071e-29
6.81942e-29
4.45748e-29
4.95986e-29
5.84281e-29
5.90742e-29
5.28071e-29
5.01466e-29
7.09221e-29
7.77568e-29
6.25289e-29
6.11201e-29
8.04459e-29
8.10791e-29
7.53845e-29
7.19671e-29
7.74518e-29
7.75495e-29
8.99343e-29
8.94311e-29
8.77197e-29
8.47288e-29
8.58558e-29
8.46804e-29
1.08048e-28
1.08998e-28
1.00707e-28
9.9268e-29
1.11589e-28
1.19363e-28
1.25391e-28
1.2389e-28
1.40126e-28
9.45314e-29
3.74789e-29
1.04385e-28
1.76691e-28
1.05634e-28
8.65355e-29
9.37093e-29
1.22398e-28
1.60769e-28
1.55408e-28
2.71943e-28
4.67218e-28
8.1072e-28
2.37084e-27
7.34094e-27
1.22844e-26
3.93139e-24
7.94536e-24
3.48911e-23
1.28596e-24
4.58116e-23
7.22548e-26
1.47502e-24
8.91134e-26
4.90325e-28
5.12908e-28
1.06754e-28
7.96277e-29
7.54169e-29
4.68102e-29
5.12844e-29
6.26585e-29
6.12738e-29
5.58417e-29
5.26926e-29
7.73688e-29
8.06088e-29
6.56847e-29
6.41321e-29
8.69798e-29
8.46635e-29
7.94528e-29
7.56487e-29
8.34353e-29
8.24823e-29
9.74611e-29
9.49045e-29
9.45044e-29
9.12731e-29
9.45816e-29
9.36007e-29
1.21872e-28
1.21437e-28
1.15163e-28
1.17116e-28
1.39496e-28
1.56042e-28
1.82485e-28
2.55269e-28
5.78059e-28
3.20334e-28
7.64995e-30
1.8888e-28
2.06374e-28
1.6735e-28
1.29568e-28
1.63039e-28
2.24441e-28
3.10986e-28
3.53066e-28
6.19981e-28
1.13057e-27
1.9661e-27
5.75186e-27
1.63051e-26
1.24578e-26
5.30582e-24
1.29415e-23
4.39988e-23
1.54911e-24
5.89434e-23
1.7628e-25
1.77641e-24
1.38784e-25
8.65909e-28
6.68887e-28
9.93316e-29
8.58831e-29
8.38918e-29
4.88762e-29
5.313e-29
6.68753e-29
6.36652e-29
5.90406e-29
5.54131e-29
8.37489e-29
8.35071e-29
6.89702e-29
6.73061e-29
9.35843e-29
8.82995e-29
8.37751e-29
7.95045e-29
8.99615e-29
8.76364e-29
1.05192e-28
1.00796e-28
1.02061e-28
9.83425e-29
1.04521e-28
1.03537e-28
1.37244e-28
1.36002e-28
1.33035e-28
1.40225e-28
1.79004e-28
2.14602e-28
3.02475e-28
6.54055e-28
1.20764e-27
2.61122e-29
1.16497e-29
2.09154e-28
2.44718e-28
2.6976e-28
1.94227e-28
2.79736e-28
3.97152e-28
5.75073e-28
7.31144e-28
1.28919e-27
2.43893e-27
4.25667e-27
1.22382e-26
3.18975e-26
1.25071e-26
7.15509e-24
2.06712e-23
5.31593e-23
2.5493e-24
7.39822e-23
3.36607e-25
2.08501e-24
2.0456e-25
1.58989e-27
8.58637e-28
8.4956e-29
9.31325e-29
9.23767e-29
5.1319e-29
5.45678e-29
7.16617e-29
6.58055e-29
6.24098e-29
5.82088e-29
9.0529e-29
8.61222e-29
7.23564e-29
7.05879e-29
1.00665e-28
9.17073e-29
8.82502e-29
8.36113e-29
9.68476e-29
9.30237e-29
1.13655e-28
1.06851e-28
1.10103e-28
1.06185e-28
1.15357e-28
1.14447e-28
1.54092e-28
1.50911e-28
1.50576e-28
1.6027e-28
2.0634e-28
2.3431e-28
3.24529e-28
6.97135e-28
2.08322e-29
1.16464e-27
2.40081e-27
1.70863e-29
5.55827e-28
3.26858e-28
3.2663e-28
4.42654e-28
6.86608e-28
1.00399e-27
1.39235e-27
2.46362e-27
4.73227e-27
8.28615e-27
2.30479e-26
5.55017e-26
1.23754e-26
9.7134e-24
3.32592e-23
6.19891e-23
4.24399e-24
9.04219e-23
6.065e-25
2.44601e-24
2.87624e-25
3.04427e-27
1.04343e-27
7.03791e-29
9.76708e-29
1.03084e-28
5.31053e-29
5.62974e-29
7.62805e-29
6.81785e-29
6.5869e-29
6.11253e-29
9.70026e-29
8.88302e-29
7.57644e-29
7.40495e-29
1.07583e-28
9.51947e-29
9.29551e-29
8.79545e-29
1.04199e-28
9.86745e-29
1.22007e-28
1.13356e-28
1.19082e-28
1.14625e-28
1.2741e-28
1.26469e-28
1.7241e-28
1.68564e-28
1.73224e-28
1.90472e-28
2.61458e-28
3.25234e-28
6.22317e-28
2.02645e-27
4.10423e-27
5.0166e-27
1.17489e-30
5.82388e-29
6.41089e-28
5.08836e-28
4.85222e-28
6.93158e-28
1.12725e-27
1.66505e-27
2.46148e-27
4.33442e-27
8.39128e-27
1.46141e-26
3.93955e-26
8.82436e-26
1.29225e-26
1.32766e-23
5.02405e-23
6.89446e-23
7.27674e-24
1.06451e-22
9.61e-25
2.87142e-24
3.7991e-25
5.6894e-27
1.25428e-27
5.51969e-29
1.00269e-28
1.15902e-28
5.42448e-29
5.81883e-29
8.09261e-29
7.07195e-29
6.89547e-29
6.42256e-29
1.03789e-28
9.13352e-29
7.90115e-29
7.76797e-29
1.14948e-28
9.85531e-29
9.75781e-29
9.27691e-29
1.11655e-28
1.04515e-28
1.3112e-28
1.20114e-28
1.28363e-28
1.2414e-28
1.40333e-28
1.39845e-28
1.93981e-28
1.89847e-28
2.03351e-28
2.38068e-28
3.62983e-28
5.41528e-28
1.4428e-27
6.82943e-27
6.81722e-26
1.19524e-28
1.42894e-26
3.05807e-28
5.24182e-28
8.71223e-28
6.5994e-28
1.08242e-27
1.74439e-27
2.63626e-27
4.03076e-27
7.1066e-27
1.36881e-26
2.37092e-26
6.19395e-26
1.30163e-25
1.38098e-26
1.7921e-23
7.3785e-23
7.20433e-23
1.29158e-23
1.25395e-22
1.33529e-24
3.43817e-24
4.77265e-25
1.03781e-26
1.44175e-27
4.02446e-29
1.05133e-28
1.29197e-28
5.49342e-29
6.0324e-29
8.53034e-29
7.3469e-29
7.20452e-29
6.74794e-29
1.09977e-28
9.40641e-29
8.22533e-29
8.15792e-29
1.219e-28
1.02151e-28
1.02361e-28
9.78538e-29
1.19414e-28
1.10607e-28
1.40127e-28
1.27482e-28
1.38183e-28
1.34143e-28
1.54057e-28
1.53384e-28
2.14251e-28
2.07827e-28
2.23285e-28
2.56085e-28
3.66413e-28
4.63493e-28
9.00753e-28
2.65425e-27
6.50259e-27
4.82878e-27
2.26532e-30
3.79136e-29
1.24424e-27
9.36412e-28
1.03343e-27
1.54479e-27
2.62677e-27
3.92292e-27
6.20841e-27
1.08218e-26
2.07366e-26
3.54441e-26
9.03975e-26
1.79077e-25
1.64813e-26
2.41382e-23
1.05521e-22
7.39891e-23
2.33458e-23
1.47465e-22
1.61386e-24
4.16428e-24
5.67006e-25
1.80453e-26
1.60986e-27
3.1629e-29
1.14275e-28
1.40133e-28
5.60422e-29
6.18221e-29
9.05184e-29
7.56412e-29
7.53342e-29
7.06306e-29
1.16491e-28
9.63847e-29
8.55817e-29
8.55662e-29
1.29152e-28
1.05504e-28
1.07268e-28
1.03262e-28
1.27257e-28
1.16917e-28
1.49704e-28
1.35123e-28
1.48279e-28
1.45113e-28
1.68275e-28
1.67927e-28
2.35901e-28
2.26585e-28
2.44061e-28
2.755e-28
3.71977e-28
4.05787e-28
5.11739e-28
7.38096e-28
9.5861e-31
1.81014e-27
2.6614e-27
1.62046e-28
1.62078e-27
1.19887e-27
1.40818e-27
2.19834e-27
3.71524e-27
5.57647e-27
8.93016e-27
1.54739e-26
2.91966e-26
4.94082e-26
1.2294e-25
2.3161e-25
2.15345e-26
3.21633e-23
1.48192e-22
7.39161e-23
3.75483e-23
1.72055e-22
1.87239e-24
5.24716e-24
6.38841e-25
3.02247e-26
1.59652e-27
2.88011e-29
1.22247e-28
1.52712e-28
5.58625e-29
6.40587e-29
9.53492e-29
7.80041e-29
7.88024e-29
7.39767e-29
1.22244e-28
9.89599e-29
8.89922e-29
8.98753e-29
1.35764e-28
1.09067e-28
1.1244e-28
1.08943e-28
1.35359e-28
1.23598e-28
1.58793e-28
1.43325e-28
1.59276e-28
1.56716e-28
1.83586e-28
1.83924e-28
2.5887e-28
2.50068e-28
2.75128e-28
3.18374e-28
4.49856e-28
5.32161e-28
7.36485e-28
1.23554e-27
1.403e-27
5.62014e-29
1.56964e-29
1.40101e-27
1.43378e-27
1.67541e-27
1.80103e-27
3.01943e-27
4.99649e-27
7.51222e-27
1.21016e-26
2.06718e-26
3.85313e-26
6.42455e-26
1.57427e-25
2.84124e-25
3.2557e-26
4.2244e-23
1.95666e-22
7.05303e-23
5.8926e-23
1.96176e-22
1.98511e-24
6.65313e-24
6.74567e-25
4.72789e-26
1.44107e-27
3.2427e-29
1.34261e-28
1.63969e-28
5.47899e-29
6.70627e-29
9.95377e-29
8.08097e-29
8.15831e-29
7.77048e-29
1.27568e-28
1.01558e-28
9.19952e-29
9.44963e-29
1.42081e-28
1.12692e-28
1.17249e-28
1.15202e-28
1.43002e-28
1.3045e-28
1.67983e-28
1.51721e-28
1.69941e-28
1.68974e-28
1.98229e-28
1.99425e-28
2.79945e-28
2.68904e-28
2.95204e-28
3.38536e-28
4.60679e-28
5.13849e-28
6.14462e-28
7.83153e-28
1.24857e-27
9.33589e-28
8.89526e-29
1.47192e-27
2.13122e-27
1.84437e-27
2.44038e-27
3.84209e-27
6.4465e-27
9.51834e-27
1.54366e-26
2.58849e-26
4.76087e-26
7.80267e-26
1.89288e-25
3.27564e-25
5.17475e-26
5.4292e-23
2.5127e-22
6.30422e-23
8.80266e-23
2.21227e-22
1.97065e-24
8.52081e-24
6.69602e-25
6.93355e-26
1.19343e-27
4.20715e-29
1.52499e-28
1.72528e-28
5.28192e-29
7.11727e-29
1.0228e-28
8.43974e-29
8.34892e-29
8.18866e-29
1.31558e-28
1.0472e-28
9.45038e-29
9.9479e-29
1.47379e-28
1.16743e-28
1.21513e-28
1.21792e-28
1.49915e-28
1.37347e-28
1.76444e-28
1.60455e-28
1.79853e-28
1.81319e-28
2.12042e-28
2.14164e-28
2.99238e-28
2.86049e-28
3.11291e-28
3.5304e-28
4.54609e-28
4.70852e-28
4.66565e-28
4.00925e-28
3.86352e-28
4.25821e-28
5.79501e-28
1.71019e-27
2.57998e-27
2.17723e-27
3.02672e-27
4.72922e-27
7.83894e-27
1.14018e-26
1.8552e-26
3.03783e-26
5.50244e-26
8.81118e-26
2.13039e-25
3.53117e-25
8.61944e-26
6.78908e-23
3.09413e-22
5.34847e-23
1.2646e-22
2.43503e-22
1.86519e-24
1.07456e-23
6.16502e-25
9.51355e-26
9.41708e-28
6.12206e-29
1.84156e-28
1.7324e-28
5.20265e-29
7.36165e-29
1.06261e-28
8.64093e-29
8.5684e-29
8.4959e-29
1.35814e-28
1.06901e-28
9.68339e-29
1.03645e-28
1.52569e-28
1.19857e-28
1.25373e-28
1.2772e-28
1.5575e-28
1.43502e-28
1.84084e-28
1.6842e-28
1.88207e-28
1.92971e-28
2.23426e-28
2.27711e-28
3.16349e-28
3.01744e-28
3.25655e-28
3.70933e-28
4.61656e-28
4.69718e-28
4.48114e-28
3.52394e-28
2.77677e-28
5.5514e-28
9.36008e-28
2.31043e-27
2.6865e-27
2.57356e-27
3.52782e-27
5.54832e-27
9.0097e-27
1.2995e-26
2.07138e-26
3.3449e-26
5.8566e-26
9.21966e-26
2.20351e-25
3.54099e-25
1.4176e-25
8.21996e-23
3.65743e-22
4.188e-23
1.72744e-22
2.6943e-22
1.7814e-24
1.36595e-23
5.29502e-25
1.23965e-25
7.37756e-28
9.70141e-29
2.40637e-28
1.63889e-28
5.41051e-29
7.17348e-29
1.14725e-28
8.4451e-29
9.14649e-29
8.4525e-29
1.41213e-28
1.06942e-28
1.00841e-28
1.05221e-28
1.58071e-28
1.21216e-28
1.30543e-28
1.31601e-28
1.6195e-28
1.48212e-28
1.89937e-28
1.75451e-28
1.959e-28
2.02806e-28
2.32902e-28
2.39021e-28
3.26129e-28
3.14988e-28
3.3356e-28
3.81371e-28
4.55741e-28
4.59622e-28
4.26626e-28
3.45075e-28
2.50622e-28
6.905e-28
1.35774e-27
2.69084e-27
2.79586e-27
2.87543e-27
3.94246e-27
6.2144e-27
9.68515e-27
1.40651e-26
2.13579e-26
3.44113e-26
5.70446e-26
8.96268e-26
2.10269e-25
3.42164e-25
2.21758e-25
9.61577e-23
4.1411e-22
3.20583e-23
2.33468e-22
2.99519e-22
1.77176e-24
1.74058e-23
4.40468e-25
1.60639e-25
5.85368e-28
1.51828e-28
3.35206e-28
1.62362e-28
5.38686e-29
7.53331e-29
1.24193e-28
8.73111e-29
9.68944e-29
8.87785e-29
1.50536e-28
1.11771e-28
1.05504e-28
1.11993e-28
1.67605e-28
1.27278e-28
1.37483e-28
1.40343e-28
1.715e-28
1.57738e-28
2.01348e-28
1.87482e-28
2.07525e-28
2.18432e-28
2.46845e-28
2.56458e-28
3.45527e-28
3.33909e-28
3.45544e-28
3.96869e-28
4.58874e-28
4.57771e-28
4.26948e-28
3.54432e-28
2.63459e-28
8.39495e-28
1.84096e-27
2.93871e-27
2.94407e-27
3.15108e-27
4.34758e-27
6.74686e-27
1.0204e-26
1.45346e-26
2.13671e-26
3.36781e-26
5.3834e-26
8.34058e-26
1.97889e-25
3.30613e-25
3.18782e-25
1.11459e-22
4.66022e-22
2.39558e-23
3.38055e-29
4.89308e-30
3.05846e-30
2.31038e-28
4.09469e-29
2.24727e-31
2.12087e-29
6.01689e-30
1.40148e-29
9.9863e-30
1.35058e-29
1.0606e-29
1.50932e-29
1.27839e-29
1.42526e-29
1.10146e-29
1.65679e-29
1.68307e-29
1.67674e-29
1.49699e-29
1.89419e-29
1.91585e-29
1.97813e-29
1.87216e-29
1.92417e-29
1.87376e-29
2.16506e-29
2.16829e-29
2.1928e-29
2.16036e-29
2.01522e-29
1.95836e-29
2.29444e-29
2.36199e-29
2.20166e-29
2.03824e-29
1.88614e-29
1.7965e-29
1.75774e-29
1.50644e-29
1.26018e-29
9.45443e-30
1.00981e-29
1.08104e-29
7.76068e-30
7.56694e-30
3.02208e-30
1.79718e-30
3.69283e-31
1.23242e-31
1.24431e-31
1.18197e-30
1.01929e-29
2.82383e-29
1.57329e-28
6.92053e-29
4.26015e-28
3.08643e-26
6.25028e-26
7.66855e-27
2.27761e-26
1.97841e-27
8.16376e-28
2.26829e-27
2.23011e-29
2.70717e-30
3.96496e-29
1.64931e-29
1.96177e-29
3.10629e-29
1.95601e-29
2.97437e-29
2.37309e-29
3.37929e-29
2.4904e-29
2.6525e-29
2.83783e-29
4.07969e-29
3.18153e-29
3.27986e-29
3.51097e-29
4.35311e-29
3.77218e-29
4.10077e-29
3.67778e-29
4.01134e-29
4.12806e-29
4.69114e-29
4.26013e-29
4.55214e-29
3.96287e-29
3.97377e-29
4.36921e-29
4.95856e-29
4.33955e-29
4.05155e-29
3.67562e-29
3.46419e-29
3.39859e-29
3.08198e-29
2.55347e-29
2.40879e-29
2.03627e-29
1.69898e-29
1.61145e-29
1.37895e-29
6.33857e-30
2.4617e-30
7.47234e-31
9.75636e-32
1.56115e-31
4.58897e-30
1.74253e-29
8.79777e-29
2.69618e-28
3.17411e-28
5.21938e-28
6.90992e-26
3.58103e-25
4.99202e-27
8.18432e-26
5.93444e-27
6.37567e-27
2.0832e-27
1.14929e-28
1.42791e-30
5.72311e-29
2.45812e-29
2.88065e-29
3.98832e-29
3.07753e-29
3.71389e-29
3.68423e-29
4.35256e-29
3.68677e-29
3.6345e-29
4.24101e-29
5.38923e-29
4.61914e-29
4.56071e-29
5.06594e-29
5.92981e-29
5.37354e-29
5.68536e-29
5.2033e-29
5.66306e-29
5.84118e-29
6.50707e-29
6.00864e-29
6.35764e-29
5.52556e-29
5.73106e-29
6.12183e-29
6.87641e-29
6.04466e-29
5.71019e-29
5.11118e-29
4.97229e-29
4.79228e-29
4.50399e-29
3.92991e-29
3.56846e-29
2.79003e-29
2.36806e-29
2.33327e-29
1.93275e-29
8.47744e-30
3.96584e-30
9.06397e-31
2.93982e-31
3.82819e-31
4.19385e-30
3.10214e-29
9.8019e-29
4.25396e-28
2.60526e-28
1.86767e-27
1.20158e-25
3.71771e-25
2.72517e-26
3.72768e-25
6.83929e-26
2.62752e-26
8.39393e-27
1.09542e-28
2.00145e-30
5.74313e-29
2.88286e-29
2.93945e-29
3.98679e-29
3.17345e-29
3.67987e-29
3.78707e-29
4.35137e-29
3.78032e-29
3.62867e-29
4.29631e-29
5.43152e-29
4.68265e-29
4.56899e-29
5.11767e-29
5.97041e-29
5.42617e-29
5.70199e-29
5.25557e-29
5.70578e-29
5.85672e-29
6.59853e-29
6.0405e-29
6.39801e-29
5.58312e-29
5.79003e-29
6.13429e-29
6.9979e-29
6.08486e-29
5.77637e-29
5.21439e-29
5.09957e-29
5.02503e-29
4.80301e-29
4.31734e-29
3.84676e-29
2.67856e-29
2.41521e-29
2.49277e-29
1.93301e-29
9.34395e-30
3.9793e-30
1.19291e-30
4.58546e-31
2.24001e-31
4.48543e-30
2.64058e-29
9.18979e-29
3.67602e-28
2.25666e-28
2.37193e-27
1.7501e-25
5.42259e-25
1.2466e-25
8.47691e-25
3.73126e-25
4.91156e-26
2.88655e-26
2.41043e-28
3.64588e-30
6.53104e-29
3.64087e-29
2.966e-29
4.2488e-29
3.1093e-29
3.90227e-29
3.7793e-29
4.53811e-29
3.79027e-29
3.72651e-29
4.31458e-29
5.63893e-29
4.70737e-29
4.63932e-29
5.17842e-29
6.11282e-29
5.46065e-29
5.79527e-29
5.2927e-29
5.80916e-29
5.91727e-29
6.75496e-29
6.06856e-29
6.52969e-29
5.63703e-29
5.89673e-29
6.22039e-29
7.24463e-29
6.14704e-29
5.96566e-29
5.35543e-29
5.3713e-29
5.31637e-29
5.18342e-29
4.63124e-29
3.95274e-29
2.60927e-29
2.58759e-29
2.65554e-29
2.05174e-29
1.02679e-29
4.4629e-30
1.65555e-30
8.80233e-31
1.1241e-31
4.51254e-30
2.15767e-29
8.41433e-29
3.01094e-28
1.73424e-28
3.38581e-27
2.7947e-25
7.50774e-25
5.18539e-25
1.34194e-24
1.21959e-24
6.12455e-26
7.33656e-26
6.73253e-28
8.88155e-30
8.1191e-29
4.54415e-29
3.23955e-29
4.6229e-29
3.11552e-29
4.19168e-29
3.86246e-29
4.84281e-29
3.87498e-29
3.9396e-29
4.47852e-29
6.01193e-29
4.83753e-29
4.86051e-29
5.39807e-29
6.44115e-29
5.64919e-29
6.05208e-29
5.48548e-29
6.09235e-29
6.17126e-29
7.11465e-29
6.29415e-29
6.85532e-29
5.8561e-29
6.20875e-29
6.55412e-29
7.74299e-29
6.42328e-29
6.38086e-29
5.68861e-29
5.86944e-29
5.74956e-29
5.72989e-29
5.03146e-29
4.3154e-29
2.78816e-29
2.88622e-29
2.95175e-29
2.35947e-29
1.17529e-29
5.77349e-30
2.52503e-30
1.8545e-30
6.65922e-32
4.66084e-30
1.66452e-29
7.5123e-29
2.28168e-28
1.14746e-28
4.96889e-27
4.53811e-25
9.69927e-25
1.55671e-24
1.71525e-24
2.98927e-24
5.83723e-26
1.52274e-25
1.7621e-27
2.06374e-29
1.03176e-28
5.52453e-29
3.72547e-29
5.00055e-29
3.20012e-29
4.46229e-29
4.01785e-29
5.16038e-29
3.99568e-29
4.20315e-29
4.73817e-29
6.43421e-29
5.01426e-29
5.15806e-29
5.70596e-29
6.83905e-29
5.89873e-29
6.37593e-29
5.75159e-29
6.475e-29
6.54307e-29
7.54257e-29
6.61306e-29
7.26583e-29
6.16511e-29
6.65413e-29
7.03703e-29
8.34215e-29
6.79994e-29
6.89319e-29
6.1159e-29
6.47762e-29
6.26396e-29
6.40784e-29
5.603e-29
4.90233e-29
3.15394e-29
3.2818e-29
3.43697e-29
2.84619e-29
1.40719e-29
8.293e-30
4.24734e-30
4.06605e-30
1.86834e-31
5.46494e-30
1.2525e-29
6.43251e-29
1.56855e-28
6.91658e-29
6.71574e-27
7.12312e-25
1.24561e-24
3.66281e-24
1.88294e-24
5.98275e-24
4.49633e-26
2.72017e-25
4.04277e-27
3.98973e-29
1.32816e-28
6.89608e-29
4.29542e-29
5.41035e-29
3.32945e-29
4.71078e-29
4.21191e-29
5.47763e-29
4.13696e-29
4.48176e-29
5.03941e-29
6.86856e-29
5.20445e-29
5.47808e-29
6.0453e-29
7.26997e-29
6.16677e-29
6.7227e-29
6.05592e-29
6.90037e-29
6.94088e-29
8.01147e-29
6.98169e-29
7.70042e-29
6.52416e-29
7.15205e-29
7.57629e-29
8.98429e-29
7.2134e-29
7.43161e-29
6.58597e-29
7.13696e-29
6.81604e-29
7.29208e-29
6.40934e-29
5.84994e-29
3.68426e-29
3.75412e-29
4.16962e-29
3.56178e-29
1.77658e-29
1.28897e-29
7.66427e-30
9.02108e-30
1.08849e-30
8.47136e-30
1.14821e-29
5.76482e-29
1.07382e-28
7.2007e-29
8.5556e-27
1.06583e-24
1.60877e-24
7.07274e-24
1.86428e-24
1.05437e-23
2.77906e-26
4.40474e-25
8.54858e-27
6.95421e-29
1.72135e-28
8.4324e-29
4.89761e-29
5.87922e-29
3.48491e-29
4.94939e-29
4.44916e-29
5.79106e-29
4.29266e-29
4.78835e-29
5.3968e-29
7.31052e-29
5.40257e-29
5.81909e-29
6.43738e-29
7.71746e-29
6.43916e-29
7.09423e-29
6.38827e-29
7.3642e-29
7.39621e-29
8.5004e-29
7.3657e-29
8.16805e-29
6.9215e-29
7.69866e-29
8.19095e-29
9.64433e-29
7.63754e-29
7.99944e-29
7.10751e-29
7.87578e-29
7.50265e-29
8.48907e-29
7.50575e-29
7.15293e-29
4.31766e-29
4.36041e-29
5.2829e-29
4.59928e-29
2.38647e-29
2.10806e-29
1.47331e-29
1.97852e-29
5.03713e-30
1.82357e-29
1.88851e-29
6.76828e-29
1.15382e-28
2.18105e-28
9.97562e-27
1.52875e-24
2.23789e-24
1.20488e-23
1.68617e-24
1.67767e-23
1.56896e-26
6.53065e-25
1.67263e-26
1.13078e-28
2.21477e-28
9.75796e-29
5.57287e-29
6.39366e-29
3.66975e-29
5.17801e-29
4.72856e-29
6.097e-29
4.48801e-29
5.10182e-29
5.79109e-29
7.75519e-29
5.62243e-29
6.16937e-29
6.8626e-29
8.17712e-29
6.73734e-29
7.47596e-29
6.76399e-29
7.85603e-29
7.86567e-29
9.02245e-29
7.78742e-29
8.64954e-29
7.36709e-29
8.28296e-29
8.83962e-29
1.03392e-28
8.10858e-29
8.61462e-29
7.7313e-29
8.74668e-29
8.35177e-29
1.01079e-28
9.05523e-29
8.48211e-29
5.1622e-29
5.16974e-29
6.87794e-29
6.14446e-29
3.41798e-29
3.55695e-29
2.93223e-29
4.21745e-29
1.82648e-29
4.6157e-29
5.20049e-29
1.27475e-28
2.64966e-28
8.75032e-28
1.12314e-26
2.12107e-24
3.2489e-24
1.8472e-23
1.48653e-24
2.48451e-23
1.20308e-26
9.06043e-25
3.08639e-26
1.79825e-28
2.88674e-28
1.07067e-28
6.27509e-29
6.95646e-29
3.88342e-29
5.38724e-29
5.06185e-29
6.38236e-29
4.713e-29
5.42608e-29
6.24518e-29
8.18627e-29
5.85831e-29
6.5304e-29
7.34619e-29
8.62543e-29
7.05188e-29
7.86941e-29
7.1748e-29
8.3744e-29
8.38954e-29
9.54853e-29
8.22442e-29
9.16469e-29
7.85484e-29
8.92585e-29
9.56863e-29
1.10681e-28
8.63557e-29
9.32229e-29
8.49359e-29
9.79153e-29
9.4342e-29
1.21651e-28
1.07956e-28
1.05384e-28
6.48603e-29
6.18072e-29
9.21345e-29
8.43227e-29
5.14035e-29
6.05773e-29
5.7833e-29
8.71799e-29
5.48987e-29
1.18718e-28
1.58967e-28
3.24407e-28
8.1183e-28
2.846e-27
1.18903e-26
2.89286e-24
5.10601e-24
2.63093e-23
1.2914e-24
3.46005e-23
2.56771e-26
1.18406e-24
5.38788e-26
2.89e-28
3.73834e-28
1.12722e-28
6.94436e-29
7.64946e-29
4.08238e-29
5.62027e-29
5.40029e-29
6.69187e-29
4.95255e-29
5.76494e-29
6.71575e-29
8.62549e-29
6.09701e-29
6.90846e-29
7.846e-29
9.07981e-29
7.38145e-29
8.27368e-29
7.62727e-29
8.91143e-29
8.90979e-29
1.00983e-28
8.70648e-29
9.70382e-29
8.40144e-29
9.61692e-29
1.03502e-28
1.18684e-28
9.25409e-29
1.01457e-28
9.4355e-29
1.10368e-28
1.07453e-28
1.49405e-28
1.33216e-28
1.26514e-28
8.61037e-29
7.51917e-29
1.24585e-28
1.18726e-28
7.97531e-29
1.03007e-28
1.10458e-28
1.737e-28
1.43683e-28
2.89719e-28
4.43078e-28
8.50857e-28
2.30515e-27
7.55523e-27
1.25481e-26
3.93175e-24
8.03132e-24
3.49926e-23
1.29136e-24
4.59872e-23
6.8579e-26
1.47388e-24
8.88849e-26
4.86373e-28
4.9296e-28
1.11611e-28
7.57866e-29
8.46627e-29
4.26524e-29
5.8672e-29
5.75076e-29
7.02007e-29
5.17801e-29
6.12942e-29
7.23039e-29
9.05446e-29
6.32388e-29
7.3092e-29
8.38986e-29
9.526e-29
7.70145e-29
8.70638e-29
8.10061e-29
9.46317e-29
9.48671e-29
1.06561e-28
9.19511e-29
1.0305e-28
8.99777e-29
1.03746e-28
1.12594e-28
1.27403e-28
9.9591e-29
1.1138e-28
1.05871e-28
1.25432e-28
1.24538e-28
1.8777e-28
1.65726e-28
1.61157e-28
1.14954e-28
9.26252e-29
1.69564e-28
1.70313e-28
1.25264e-28
1.74987e-28
2.07164e-28
3.31715e-28
3.32506e-28
6.53459e-28
1.08512e-27
2.04644e-27
5.62858e-27
1.67285e-26
1.27245e-26
5.30576e-24
1.30734e-23
4.41448e-23
1.5614e-24
5.92178e-23
1.69013e-25
1.77477e-24
1.38657e-25
8.64123e-28
6.46215e-28
1.03301e-28
8.19839e-29
9.40622e-29
4.43658e-29
6.12186e-29
6.1019e-29
7.35897e-29
5.42091e-29
6.50615e-29
7.733e-29
9.48673e-29
6.55306e-29
7.72902e-29
8.92205e-29
9.98019e-29
8.03236e-29
9.15299e-29
8.61006e-29
1.00309e-28
1.00585e-28
1.12525e-28
9.72982e-29
1.09469e-28
9.67704e-29
1.12048e-28
1.22301e-28
1.37333e-28
1.08051e-28
1.23062e-28
1.19919e-28
1.43176e-28
1.45098e-28
2.33697e-28
1.94685e-28
1.83382e-28
1.5019e-28
1.14106e-28
2.31553e-28
2.46124e-28
1.97904e-28
2.92773e-28
3.7559e-28
6.0469e-28
6.98731e-28
1.34721e-27
2.36217e-27
4.40307e-27
1.20376e-26
3.26686e-26
1.27692e-26
7.15228e-24
2.08699e-23
5.33675e-23
2.58214e-24
7.4378e-23
3.24295e-25
2.08216e-24
2.04724e-25
1.59485e-27
8.33579e-28
8.78504e-29
8.89728e-29
1.03356e-28
4.64869e-29
6.32162e-29
6.51153e-29
7.66058e-29
5.68186e-29
6.88515e-29
8.27632e-29
9.88256e-29
6.78588e-29
8.16168e-29
9.48895e-29
1.04113e-28
8.36646e-29
9.6248e-29
9.14144e-29
1.06181e-28
1.06851e-28
1.18637e-28
1.02913e-28
1.16661e-28
1.04234e-28
1.21334e-28
1.33334e-28
1.48293e-28
1.17766e-28
1.36678e-28
1.36026e-28
1.62646e-28
1.67974e-28
2.79373e-28
2.33652e-28
2.69232e-28
2.07918e-28
1.37593e-28
3.2322e-28
3.51067e-28
3.1059e-28
4.73538e-28
6.50009e-28
1.05248e-27
1.34034e-27
2.56162e-27
4.61074e-27
8.53828e-27
2.27485e-26
5.67472e-26
1.26135e-26
9.70676e-24
3.35947e-23
6.22842e-23
4.29156e-24
9.09553e-23
5.89227e-25
2.44142e-24
2.88491e-25
3.07551e-27
1.01221e-27
7.19843e-29
9.3348e-29
1.15087e-28
4.79691e-29
6.55245e-29
6.90307e-29
7.98532e-29
5.94953e-29
7.27517e-29
8.7874e-29
1.0286e-28
7.01368e-29
8.61657e-29
1.00265e-28
1.08548e-28
8.7116e-29
1.01223e-28
9.70668e-29
1.12326e-28
1.1288e-28
1.25252e-28
1.09266e-28
1.24451e-28
1.12645e-28
1.31543e-28
1.45158e-28
1.60928e-28
1.29495e-28
1.5309e-28
1.56315e-28
1.88754e-28
2.02633e-28
3.60268e-28
4.03304e-28
2.96388e-28
2.83776e-28
1.8965e-28
4.37442e-28
5.01594e-28
4.77098e-28