/*--------------------------------*- C++ -*----------------------------------*\
| =========                 |                                                 |
| \\      /  F ield         | OpenFOAM: The Open Source CFD Toolbox           |
|  \\    /   O peration     | Version:  2312                                  |
|   \\  /    A nd           | Website:  www.openfoam.com                      |
|    \\/     M anipulation  |                                                 |
\*---------------------------------------------------------------------------*/
FoamFile
{
    version     2.0;
    format      ascii;
    arch        "LSB;label=32;scalar=64";
    class       volScalarField;
    location    "720";
    object      p;
}
// * * * * * * * * * * * * * * * * * * * * * * * * * * * * * * * * * * * * * //

dimensions      [0 2 -2 0 0 0 0];

internalField   nonuniform List<scalar> 
144000
(
1.61651e-10
1.40503e-10
-4.48732e-11
-1.96463e-10
-2.09811e-10
-1.80123e-10
-1.32248e-10
-1.07006e-10
-8.07888e-11
-7.5513e-11
-6.07975e-11
-6.14642e-11
-4.97244e-11
-5.24245e-11
-4.07357e-11
-4.33583e-11
-3.34565e-11
-3.80848e-11
-2.62689e-11
-2.92197e-11
-1.83101e-11
-2.34554e-11
-1.25584e-11
-1.74554e-11
-6.58578e-12
-1.14502e-11
-1.0068e-12
-7.00052e-12
3.668e-12
-1.84248e-12
9.18337e-12
4.11925e-12
1.39442e-11
7.00309e-12
1.71106e-11
1.11207e-11
2.07399e-11
1.49722e-11
2.35063e-11
1.70101e-11
2.42354e-11
1.90115e-11
2.60328e-11
2.09961e-11
2.82919e-11
2.32823e-11
2.97362e-11
2.75508e-11
3.15173e-11
3.09677e-11
3.2558e-11
3.49715e-11
2.65463e-11
2.56467e-11
6.18748e-13
3.82574e-13
-5.10699e-11
-1.136e-10
-3.12927e-10
-4.83859e-11
1.71279e-10
1.45644e-10
-4.67383e-11
-1.98653e-10
-2.10951e-10
-1.80464e-10
-1.32431e-10
-1.07085e-10
-8.09401e-11
-7.56036e-11
-6.09433e-11
-6.15278e-11
-4.98484e-11
-5.24697e-11
-4.08319e-11
-4.3372e-11
-3.35453e-11
-3.81036e-11
-2.63478e-11
-2.92127e-11
-1.83842e-11
-2.34518e-11
-1.26257e-11
-1.74342e-11
-6.64657e-12
-1.1424e-11
-1.06923e-12
-6.97728e-12
3.60961e-12
-1.80761e-12
9.13262e-12
4.16179e-12
1.38897e-11
7.0353e-12
1.70613e-11
1.11688e-11
2.06993e-11
1.5021e-11
2.34716e-11
1.70442e-11
2.41633e-11
1.89387e-11
2.59273e-11
2.10564e-11
2.82856e-11
2.33576e-11
2.97466e-11
2.7652e-11
3.15578e-11
3.1073e-11
3.26559e-11
3.51091e-11
2.67357e-11
2.57876e-11
9.753e-13
7.71631e-13
-4.96023e-11
-1.12793e-10
-3.1964e-10
-5.28209e-11
1.83062e-10
1.51088e-10
-4.88543e-11
-2.01315e-10
-2.12535e-10
-1.81113e-10
-1.32681e-10
-1.07246e-10
-8.10769e-11
-7.57693e-11
-6.10855e-11
-6.16709e-11
-4.99576e-11
-5.25868e-11
-4.0914e-11
-4.34441e-11
-3.35943e-11
-3.81846e-11
-2.64047e-11
-2.92657e-11
-1.84202e-11
-2.35082e-11
-1.26573e-11
-1.74645e-11
-6.66618e-12
-1.14508e-11
-1.08513e-12
-7.00834e-12
3.59636e-12
-1.82163e-12
9.127e-12
4.15452e-12
1.38916e-11
7.01572e-12
1.70603e-11
1.11739e-11
2.07128e-11
1.50274e-11
2.34956e-11
1.70467e-11
2.41318e-11
1.87728e-11
2.58145e-11
2.10524e-11
2.83548e-11
2.34244e-11
2.98188e-11
2.77568e-11
3.16728e-11
3.11883e-11
3.28039e-11
3.52717e-11
2.6998e-11
2.60146e-11
1.41002e-12
1.1917e-12
-4.76401e-11
-1.09865e-10
-3.30011e-10
-5.80105e-11
1.96767e-10
1.56238e-10
-5.0764e-11
-2.04245e-10
-2.14846e-10
-1.82112e-10
-1.33016e-10
-1.07415e-10
-8.12026e-11
-7.59634e-11
-6.12527e-11
-6.18502e-11
-5.00859e-11
-5.27407e-11
-4.10162e-11
-4.35391e-11
-3.3636e-11
-3.82923e-11
-2.64771e-11
-2.93424e-11
-1.8451e-11
-2.35865e-11
-1.2691e-11
-1.75093e-11
-6.67877e-12
-1.14915e-11
-1.08867e-12
-7.05519e-12
3.59095e-12
-1.84771e-12
9.13295e-12
4.13621e-12
1.39179e-11
6.98155e-12
1.70723e-11
1.11693e-11
2.07522e-11
1.5023e-11
2.35574e-11
1.7052e-11
2.41249e-11
1.85425e-11
2.56384e-11
2.09867e-11
2.84835e-11
2.35009e-11
2.99427e-11
2.78673e-11
3.18689e-11
3.12998e-11
3.30409e-11
3.54218e-11
2.74213e-11
2.62164e-11
2.07194e-12
1.51213e-12
-4.46067e-11
-1.05343e-10
-3.43403e-10
-6.34411e-11
2.10428e-10
1.59561e-10
-5.17374e-11
-2.06535e-10
-2.17681e-10
-1.83449e-10
-1.33419e-10
-1.07552e-10
-8.13104e-11
-7.61791e-11
-6.14637e-11
-6.20722e-11
-5.02531e-11
-5.29331e-11
-4.11574e-11
-4.36554e-11
-3.3686e-11
-3.84224e-11
-2.65813e-11
-2.94368e-11
-1.84892e-11
-2.36785e-11
-1.27419e-11
-1.75619e-11
-6.69736e-12
-1.15375e-11
-1.0916e-12
-7.10829e-12
3.57913e-12
-1.8783e-12
9.1384e-12
4.11632e-12
1.39584e-11
6.94209e-12
1.7085e-11
1.11605e-11
2.08098e-11
1.50127e-11
2.36551e-11
1.70674e-11
2.41485e-11
1.82724e-11
2.5357e-11
2.08411e-11
2.8668e-11
2.35881e-11
3.0114e-11
2.7971e-11
3.21503e-11
3.1384e-11
3.33794e-11
3.55186e-11
2.8039e-11
2.63183e-11
3.02834e-12
1.59393e-12
-4.03665e-11
-9.9622e-11
-3.58926e-10
-6.78977e-11
2.22674e-10
1.58687e-10
-5.15061e-11
-2.07137e-10
-2.20668e-10
-1.85085e-10
-1.33859e-10
-1.07621e-10
-8.13792e-11
-7.64102e-11
-6.17224e-11
-6.23429e-11
-5.04667e-11
-5.31706e-11
-4.13458e-11
-4.38007e-11
-3.37503e-11
-3.85772e-11
-2.67227e-11
-2.95535e-11
-1.85382e-11
-2.37854e-11
-1.28144e-11
-1.76256e-11
-6.72468e-12
-1.15903e-11
-1.09596e-12
-7.16801e-12
3.55801e-12
-1.91575e-12
9.14168e-12
4.09307e-12
1.40126e-11
6.89699e-12
1.70974e-11
1.11427e-11
2.08875e-11
1.4991e-11
2.3796e-11
1.70924e-11
2.42212e-11
1.79622e-11
2.49369e-11
2.05888e-11
2.89109e-11
2.36802e-11
3.03339e-11
2.80488e-11
3.2523e-11
3.14154e-11
3.3833e-11
3.55198e-11
2.8878e-11
2.62501e-11
4.33953e-12
1.29569e-12
-3.48419e-11
-9.30417e-11
-3.7605e-10
-6.94474e-11
2.33144e-10
1.51023e-10
-5.0368e-11
-2.05053e-10
-2.23372e-10
-1.86963e-10
-1.34308e-10
-1.07591e-10
-8.13851e-11
-7.66457e-11
-6.20263e-11
-6.26633e-11
-5.07298e-11
-5.34562e-11
-4.1586e-11
-4.39824e-11
-3.3834e-11
-3.87579e-11
-2.69042e-11
-2.96976e-11
-1.86016e-11
-2.39081e-11
-1.29115e-11
-1.77041e-11
-6.76252e-12
-1.16521e-11
-1.10355e-12
-7.23499e-12
3.52595e-12
-1.96276e-12
9.14225e-12
4.06372e-12
1.40796e-11
6.84576e-12
1.71097e-11
1.11101e-11
2.09877e-11
1.49515e-11
2.39875e-11
1.71242e-11
2.43754e-11
1.76055e-11
2.43306e-11
2.0202e-11
2.92165e-11
2.37707e-11
3.06063e-11
2.80809e-11
3.29945e-11
3.13692e-11
3.442e-11
3.53813e-11
2.99695e-11
2.59385e-11
6.07396e-12
4.88321e-13
-2.79743e-11
-8.58935e-11
-3.94748e-10
-6.59781e-11
2.42299e-10
1.34149e-10
-4.90983e-11
-1.99397e-10
-2.25298e-10
-1.8901e-10
-1.34744e-10
-1.07415e-10
-8.13065e-11
-7.68732e-11
-6.2371e-11
-6.3031e-11
-5.10441e-11
-5.37897e-11
-4.18803e-11
-4.42041e-11
-3.39431e-11
-3.89636e-11
-2.71274e-11
-2.98721e-11
-1.8684e-11
-2.40466e-11
-1.30358e-11
-1.77998e-11
-6.81329e-12
-1.17238e-11
-1.11756e-12
-7.30906e-12
3.48111e-12
-2.02077e-12
9.13899e-12
4.02692e-12
1.41567e-11
6.78867e-12
1.71221e-11
1.10584e-11
2.11118e-11
1.4889e-11
2.42366e-11
1.71595e-11
2.46573e-11
1.71704e-11
2.34699e-11
1.96563e-11
2.95901e-11
2.38523e-11
3.09362e-11
2.80476e-11
3.35722e-11
3.12205e-11
3.51607e-11
3.5061e-11
3.13456e-11
2.53172e-11
8.29577e-12
-9.26115e-13
-1.97687e-11
-7.83526e-11
-4.15352e-10
-5.56182e-11
2.51327e-10
1.06051e-10
-4.88554e-11
-1.89461e-10
-2.25916e-10
-1.91145e-10
-1.35158e-10
-1.07072e-10
-8.11246e-11
-7.70804e-11
-6.27512e-11
-6.34422e-11
-5.14093e-11
-5.41692e-11
-4.22291e-11
-4.44677e-11
-3.40829e-11
-3.91929e-11
-2.73926e-11
-3.00786e-11
-1.879e-11
-2.42003e-11
-1.3189e-11
-1.79143e-11
-6.8795e-12
-1.18057e-11
-1.14124e-12
-7.38974e-12
3.42186e-12
-2.09069e-12
9.13063e-12
3.98191e-12
1.42405e-11
6.72618e-12
1.71348e-11
1.09844e-11
2.12598e-11
1.47985e-11
2.45515e-11
1.71928e-11
2.51341e-11
1.66123e-11
2.22657e-11
1.89306e-11
3.0039e-11
2.39178e-11
3.13297e-11
2.7931e-11
3.42636e-11
3.09466e-11
3.60736e-11
3.45221e-11
3.30324e-11
2.43365e-11
1.10474e-11
-2.99404e-12
-1.03054e-11
-7.04684e-11
-4.38445e-10
-3.69343e-11
2.61748e-10
6.53186e-11
-5.09752e-11
-1.74749e-10
-2.24702e-10
-1.93286e-10
-1.35554e-10
-1.06549e-10
-8.08237e-11
-7.72571e-11
-6.31621e-11
-6.38925e-11
-5.18246e-11
-5.45918e-11
-4.26313e-11
-4.4774e-11
-3.42582e-11
-3.94437e-11
-2.76987e-11
-3.03176e-11
-1.89239e-11
-2.43683e-11
-1.3372e-11
-1.80486e-11
-6.96328e-12
-1.18978e-11
-1.17779e-12
-7.47662e-12
3.34745e-12
-2.17296e-12
9.11602e-12
3.92835e-12
1.43274e-11
6.65861e-12
1.71485e-11
1.08855e-11
2.14315e-11
1.46752e-11
2.49402e-11
1.72209e-11
2.58951e-11
1.58644e-11
2.06088e-11
1.80128e-11
3.05716e-11
2.39592e-11
3.17934e-11
2.77162e-11
3.50735e-11
3.05296e-11
3.71725e-11
3.37357e-11
3.50429e-11
2.29709e-11
1.43389e-11
-5.70906e-12
2.29847e-13
-6.21437e-11
-4.64593e-10
-9.13344e-12
2.75322e-10
1.12911e-11
-5.69174e-11
-1.55047e-10
-2.21144e-10
-1.95332e-10
-1.35966e-10
-1.0584e-10
-8.03942e-11
-7.73956e-11
-6.35999e-11
-6.43785e-11
-5.22891e-11
-5.50549e-11
-4.30856e-11
-4.51228e-11
-3.44732e-11
-3.97146e-11
-2.8044e-11
-3.05889e-11
-1.90891e-11
-2.455e-11
-1.35845e-11
-1.82031e-11
-7.06656e-12
-1.19999e-11
-1.22968e-12
-7.56926e-12
3.25756e-12
-2.26782e-12
9.09399e-12
3.86618e-12
1.4414e-11
6.58624e-12
1.71635e-11
1.07605e-11
2.1625e-11
1.45158e-11
2.54092e-11
1.72414e-11
2.70638e-11
1.47816e-11
1.83549e-11
1.6898e-11
3.11944e-11
2.39686e-11
3.23319e-11
2.73932e-11
3.60029e-11
2.99579e-11
3.84633e-11
3.26936e-11
3.7372e-11
2.1224e-11
1.81421e-11
-9.0031e-12
1.15877e-11
-5.31882e-11
-4.94306e-10
2.7908e-11
2.93687e-10
-5.59612e-11
-6.80798e-11
-1.30422e-10
-2.14785e-10
-1.97155e-10
-1.36419e-10
-1.04958e-10
-7.98327e-11
-7.74905e-11
-6.40621e-11
-6.48979e-11
-5.28028e-11
-5.55565e-11
-4.35909e-11
-4.55137e-11
-3.47315e-11
-4.00045e-11
-2.84266e-11
-3.08917e-11
-1.92889e-11
-2.47452e-11
-1.38263e-11
-1.8378e-11
-7.19105e-12
-1.21117e-11
-1.29907e-12
-7.66745e-12
3.15226e-12
-2.37513e-12
9.06338e-12
3.79579e-12
1.44969e-11
6.50953e-12
1.718e-11
1.06097e-11
2.18369e-11
1.43182e-11
2.59653e-11
1.72434e-11
2.88615e-11
1.32012e-11
1.52939e-11
1.55846e-11
3.19052e-11
2.3935e-11
3.29455e-11
2.69572e-11
3.70476e-11
2.92271e-11
3.994e-11
3.14022e-11
3.99938e-11
1.91313e-11
2.23924e-11
-1.27552e-11
2.34526e-11
-4.33894e-11
-5.27828e-10
7.37151e-11
3.18406e-10
-1.35669e-10
-8.57988e-11
-1.01273e-10
-2.05234e-10
-1.98584e-10
-1.36939e-10
-1.03929e-10
-7.91421e-11
-7.75375e-11
-6.4546e-11
-6.54484e-11
-5.33652e-11
-5.6095e-11
-4.41459e-11
-4.59459e-11
-3.50362e-11
-4.03129e-11
-2.88445e-11
-3.1225e-11
-1.95259e-11
-2.49539e-11
-1.40964e-11
-1.85732e-11
-7.33835e-12
-1.22329e-11
-1.38736e-12
-7.77103e-12
3.03162e-12
-2.49439e-12
9.02287e-12
3.71772e-12
1.45732e-11
6.42934e-12
1.71971e-11
1.04354e-11
2.20617e-11
1.40819e-11
2.66101e-11
1.7218e-11
3.15535e-11
1.09711e-11
1.11979e-11
1.41081e-11
3.27062e-11
2.38522e-11
3.36311e-11
2.64105e-11
3.81946e-11
2.83501e-11
4.15832e-11
2.98862e-11
4.28612e-11
1.67586e-11
2.69907e-11
-1.68008e-11
3.55178e-11
-3.25997e-11
-5.65244e-10
1.27352e-10
3.505e-10
-2.26306e-10
-1.11054e-10
-6.82975e-11
-1.92231e-10
-1.99422e-10
-1.37551e-10
-1.02796e-10
-7.83326e-11
-7.75329e-11
-6.50484e-11
-6.60278e-11
-5.39757e-11
-5.66685e-11
-4.47489e-11
-4.6418e-11
-3.53897e-11
-4.06397e-11
-2.92954e-11
-3.15876e-11
-1.98023e-11
-2.51765e-11
-1.43939e-11
-1.8788e-11
-7.50978e-12
-1.23633e-11
-1.49595e-12
-7.87992e-12
2.89603e-12
-2.62458e-12
8.97107e-12
3.63289e-12
1.46395e-11
6.34716e-12
1.72128e-11
1.02433e-11
2.22889e-11
1.38179e-11
2.73108e-11
1.72448e-11
3.52831e-11
8.08461e-12
5.90809e-12
1.25924e-11
3.36226e-11
2.37326e-11
3.4387e-11
2.57659e-11
3.94257e-11
2.73457e-11
4.33606e-11
2.81898e-11
4.59066e-11
1.41988e-11
3.18096e-11
-2.09509e-11
4.74499e-11
-2.07122e-11
-6.06225e-10
1.87353e-10
3.90439e-10
-3.25572e-10
-1.4442e-10
-3.24884e-11
-1.75669e-10
-1.99449e-10
-1.38266e-10
-1.01618e-10
-7.74245e-11
-7.74751e-11
-6.5566e-11
-6.66339e-11
-5.46336e-11
-5.72752e-11
-4.53983e-11
-4.69286e-11
-3.57936e-11
-4.09849e-11
-2.97774e-11
-3.19778e-11
-2.01197e-11
-2.54135e-11
-1.47176e-11
-1.90218e-11
-7.70665e-12
-1.25026e-11
-1.62569e-12
-7.99389e-12
2.74575e-12
-2.76445e-12
8.90621e-12
3.54253e-12
1.46924e-11
6.26516e-12
1.72235e-11
1.00414e-11
2.25051e-11
1.35458e-11
2.80034e-11
1.74462e-11
4.07636e-11
2.10602e-12
-1.28418e-12
1.10084e-11
3.46239e-11
2.35847e-11
3.52055e-11
2.50431e-11
4.0715e-11
2.62455e-11
4.52272e-11
2.63738e-11
4.90435e-11
1.15667e-11
3.66992e-11
-2.50004e-11
5.89498e-11
-7.68702e-12
-6.50104e-10
2.51734e-10
4.37947e-10
-4.30726e-10
-1.85979e-10
4.95203e-12
-1.55593e-10
-1.98427e-10
-1.39077e-10
-1.00465e-10
-7.6449e-11
-7.73655e-11
-6.60962e-11
-6.72657e-11
-5.53387e-11
-5.79144e-11
-4.60927e-11
-4.74763e-11
-3.62491e-11
-4.13492e-11
-3.02886e-11
-3.23941e-11
-2.04793e-11
-2.5666e-11
-1.50667e-11
-1.92735e-11
-7.9301e-12
-1.2651e-11
-1.77746e-12
-8.11271e-12
2.58096e-12
-2.91248e-12
8.82644e-12
3.44819e-12
1.47289e-11
6.18515e-12
1.72268e-11
9.83464e-12
2.27049e-11
1.32693e-11
2.86621e-11
1.71424e-11
4.97346e-11
-1.39349e-12
-1.1152e-11
8.98444e-12
3.54897e-11
2.33709e-11
3.60566e-11
2.42554e-11
4.20247e-11
2.50893e-11
4.71258e-11
2.45138e-11
5.21721e-11
8.99271e-12
4.1502e-11
-2.87492e-11
6.97532e-11
6.39051e-12
-6.95783e-10
3.18328e-10
4.92726e-10
-5.39295e-10
-2.35623e-10
4.25727e-11
-1.32212e-10
-1.96091e-10
-1.39951e-10
-9.93866e-11
-7.54409e-11
-7.72053e-11
-6.6635e-11
-6.79215e-11
-5.60906e-11
-5.85849e-11
-4.68308e-11
-4.80592e-11
-3.67562e-11
-4.1733e-11
-3.08275e-11
-3.28347e-11
-2.08817e-11
-2.59347e-11
-1.54406e-11
-1.95421e-11
-8.18124e-12
-1.2808e-11
-1.95155e-12
-8.23597e-12
2.40129e-12
-3.06695e-12
8.7296e-12
3.35179e-12
1.47456e-11
6.11072e-12
1.72157e-11
9.63729e-12
2.28609e-11
1.30571e-11
2.91294e-11
1.66828e-11
5.57947e-11
-1.25371e-14
-1.72692e-11
7.13421e-12
3.61789e-11
2.31138e-11
3.69308e-11
2.34449e-11
4.3313e-11
2.39257e-11
4.899e-11
2.2695e-11
5.51825e-11
6.61512e-12
4.60582e-11
-3.20067e-11
7.9693e-11
2.13173e-11
-7.42254e-10
3.85832e-10
5.5418e-10
-6.46498e-10
-2.92875e-10
7.87633e-11
-1.05934e-10
-1.92193e-10
-1.40842e-10
-9.85109e-11
-7.44402e-11
-7.69963e-11
-6.71771e-11
-6.8599e-11
-5.68883e-11
-5.92855e-11
-4.76105e-11
-4.86754e-11
-3.73147e-11
-4.21367e-11
-3.13924e-11
-3.32976e-11
-2.1327e-11
-2.62205e-11
-1.58386e-11
-1.98262e-11
-8.4608e-12
-1.29738e-11
-2.14852e-12
-8.36316e-12
2.20641e-12
-3.22569e-12
8.61355e-12
3.25563e-12
1.47381e-11
6.04689e-12
1.71806e-11
9.47088e-12
2.29327e-11
1.30198e-11
2.91946e-11
1.71928e-11
5.06455e-11
-1.18944e-13
-1.13019e-11
7.14918e-12
3.67548e-11
2.28908e-11
3.78307e-11
2.26545e-11
4.45372e-11
2.28109e-11
5.07493e-11
2.10106e-11
5.79612e-11
4.5748e-12
5.02112e-11
-3.45951e-11
8.86083e-11
3.68706e-11
-7.88398e-10
4.50138e-10
6.20948e-10
-7.49071e-10
-3.56716e-10
1.11884e-10
-7.73365e-11
-1.86508e-10
-1.41686e-10
-9.7902e-11
-7.35012e-11
-7.67456e-11
-6.77176e-11
-6.92958e-11
-5.7731e-11
-6.00151e-11
-4.84299e-11
-4.93227e-11
-3.79234e-11
-4.25605e-11
-3.19819e-11
-3.37808e-11
-2.18149e-11
-2.6524e-11
-1.62602e-11
-2.01244e-11
-8.76935e-12
-1.3148e-11
-2.36867e-12
-8.49346e-12
1.99588e-12
-3.38641e-12
8.4763e-12
3.16134e-12
1.47041e-11
5.9951e-12
1.71204e-11
9.33245e-12
2.29357e-11
1.30919e-11
2.9004e-11
1.76004e-11
4.20928e-11
4.22051e-12
-6.98732e-14
7.75671e-12
3.70626e-11
2.26362e-11
3.87041e-11
2.19121e-11
4.56472e-11
2.1801e-11
5.23292e-11
1.95527e-11
6.03962e-11
3.00516e-12
5.3814e-11
-3.63575e-11
9.63933e-11
5.27708e-11
-8.32756e-10
5.09605e-10
6.90871e-10
-8.43319e-10
-4.2557e-10
1.40373e-10
-4.71318e-11
-1.78846e-10
-1.42359e-10
-9.76473e-11
-7.26936e-11
-7.64674e-11
-6.82535e-11
-7.00109e-11
-5.86188e-11
-6.07736e-11
-4.92879e-11
-4.99992e-11
-3.85812e-11
-4.30048e-11
-3.25951e-11
-3.42824e-11
-2.23448e-11
-2.6846e-11
-1.67052e-11
-2.04352e-11
-9.10733e-12
-1.33304e-11
-2.6124e-12
-8.62604e-12
1.7691e-12
-3.54694e-12
8.31603e-12
3.07101e-12
1.46414e-11
5.95652e-12
1.70345e-11
9.21658e-12
2.28864e-11
1.31946e-11
2.87273e-11
1.75197e-11
3.65497e-11
1.08036e-11
7.97752e-12
8.00924e-12
3.71357e-11
2.2349e-11
3.94999e-11
2.12608e-11
4.65977e-11
2.09538e-11
5.36592e-11
1.84109e-11
6.23847e-11
2.03029e-12
5.67363e-11
-3.71566e-11
1.02954e-10
6.87169e-11
-8.73534e-10
5.61673e-10
7.61941e-10
-9.25459e-10
-4.97771e-10
1.62706e-10
-1.61287e-11
-1.69063e-10
-1.42745e-10
-9.78157e-11
-7.20873e-11
-7.61787e-11
-6.87818e-11
-7.07422e-11
-5.95518e-11
-6.15614e-11
-5.01841e-11
-5.07036e-11
-3.9286e-11
-4.34698e-11
-3.32316e-11
-3.48009e-11
-2.29153e-11
-2.71868e-11
-1.7174e-11
-2.07574e-11
-9.47518e-12
-1.35206e-11
-2.87962e-12
-8.75986e-12
1.52494e-12
-3.70518e-12
8.1307e-12
2.9869e-12
1.4548e-11
5.93469e-12
1.69172e-11
9.13634e-12
2.27696e-11
1.33573e-11
2.83357e-11
1.74882e-11
3.29795e-11
1.37563e-11
1.4283e-11
8.75038e-12
3.72002e-11
2.21303e-11
4.02066e-11
2.07474e-11
4.73478e-11
2.03223e-11
5.46745e-11
1.76631e-11
6.38353e-11
1.75804e-12
5.88636e-11
-3.68694e-11
1.08244e-10
8.44591e-11
-9.09199e-10
6.03784e-10
8.3209e-10
-9.91915e-10
-5.71531e-10
1.77535e-10
1.48136e-11
-1.57109e-10
-1.42723e-10
-9.84573e-11
-7.17508e-11
-7.59005e-11
-6.93e-11
-7.14876e-11
-6.0529e-11
-6.23783e-11
-5.11175e-11
-5.14345e-11
-4.00356e-11
-4.39553e-11
-3.38908e-11
-3.53349e-11
-2.35253e-11
-2.75468e-11
-1.76668e-11
-2.10899e-11
-9.87287e-12
-1.37183e-11
-3.17028e-12
-8.8939e-12
1.2626e-12
-3.85916e-12
7.91912e-12
2.91029e-12
1.44228e-11
5.93052e-12
1.67679e-11
9.08841e-12
2.25907e-11
1.35572e-11
2.78791e-11
1.75625e-11
3.04915e-11
1.57567e-11
1.95386e-11
9.86875e-12
3.72346e-11
2.19596e-11
4.07743e-11
2.03979e-11
4.786e-11
1.99475e-11
5.53214e-11
1.73789e-11
6.46759e-11
2.27657e-12
6.01087e-11
-3.53951e-11
1.12165e-10
9.98873e-11
-9.3822e-10
6.33429e-10
8.99354e-10
-1.03928e-09
-6.45066e-10
1.83759e-10
4.48499e-11
-1.43017e-10
-1.42195e-10
-9.96104e-11
-7.17512e-11
-7.56591e-11
-6.98083e-11
-7.22454e-11
-6.15499e-11
-6.32244e-11
-5.20867e-11
-5.21917e-11
-4.08278e-11
-4.44606e-11
-3.4572e-11
-3.58842e-11
-2.41735e-11
-2.79258e-11
-1.81837e-11
-2.1432e-11
-1.03e-11
-1.39237e-11
-3.48428e-12
-9.027e-12
9.81885e-13
-4.00729e-12
7.68087e-12
2.84138e-12
1.42658e-11
5.94404e-12
1.65884e-11
9.06618e-12
2.23644e-11
1.37588e-11
2.74371e-11
1.76253e-11
2.88449e-11
1.69762e-11
2.37173e-11
1.11685e-11
3.72095e-11
2.18446e-11
4.11734e-11
2.02348e-11
4.81092e-11
1.98801e-11
5.55628e-11
1.76059e-11
6.48625e-11
3.6427e-12
6.04229e-11
-3.2622e-11
1.14441e-10
1.15129e-10
-9.59134e-10
6.47947e-10
9.61915e-10
-1.06433e-09
-7.16696e-10
1.80577e-10
7.32226e-11
-1.26934e-10
-1.41102e-10
-1.01309e-10
-7.2157e-11
-7.54875e-11
-7.03119e-11
-7.30186e-11
-6.2617e-11
-6.41022e-11
-5.30922e-11
-5.29779e-11
-4.16621e-11
-4.49858e-11
-3.5275e-11
-3.64499e-11
-2.48597e-11
-2.8324e-11
-1.87253e-11
-2.17839e-11
-1.07564e-11
-1.41375e-11
-3.82186e-12
-9.15815e-12
6.82856e-13
-4.14854e-12
7.41615e-12
2.77984e-12
1.40766e-11
5.97595e-12
1.63798e-11
9.06597e-12
2.20985e-11
1.39537e-11
2.70294e-11
1.7655e-11
2.78212e-11
1.76927e-11
2.69605e-11
1.25912e-11
3.71392e-11
2.1822e-11
4.13914e-11
2.02888e-11
4.80805e-11
2.01388e-11
5.5384e-11
1.83645e-11
6.43868e-11
5.8712e-12
5.97967e-11
-2.84168e-11
1.14617e-10
1.30563e-10
-9.70463e-10
6.44346e-10
1.01809e-09
-1.06396e-09
-7.84977e-10
1.67397e-10
9.93323e-11
-1.09092e-10
-1.39393e-10
-1.03577e-10
-7.3038e-11
-7.54203e-11
-7.08169e-11
-7.38099e-11
-6.37355e-11
-6.5015e-11
-5.41368e-11
-5.37963e-11
-4.25396e-11
-4.55297e-11
-3.60004e-11
-3.70326e-11
-2.55848e-11
-2.87404e-11
-1.92932e-11
-2.21457e-11
-1.12434e-11
-1.43598e-11
-4.18407e-12
-9.2854e-12
3.64316e-13
-4.28165e-12
7.124e-12
2.72571e-12
1.38546e-11
6.02796e-12
1.61424e-11
9.08433e-12
2.17971e-11
1.41386e-11
2.66503e-11
1.76638e-11
2.72323e-11
1.8115e-11
2.94244e-11
1.40972e-11
3.70316e-11
2.1918e-11
4.14135e-11
2.05643e-11
4.77623e-11
2.07317e-11
5.47824e-11
1.9654e-11
6.32569e-11
8.95868e-12
5.82047e-11
-2.25128e-11
1.11994e-10
1.47095e-10
-9.70547e-10
6.19393e-10
1.61504e-10
1.39191e-10
-4.63813e-11
-1.97892e-10
-2.11209e-10
-1.81207e-10
-1.33105e-10
-1.07689e-10
-8.14017e-11
-7.60834e-11
-6.13137e-11
-6.19128e-11
-5.01279e-11
-5.27715e-11
-4.10446e-11
-4.36192e-11
-3.36427e-11
-3.81781e-11
-2.63291e-11
-2.92516e-11
-1.832e-11
-2.34417e-11
-1.25492e-11
-1.74471e-11
-6.58101e-12
-1.14728e-11
-1.01365e-12
-7.02399e-12
3.63931e-12
-1.9098e-12
9.14346e-12
4.02007e-12
1.38988e-11
6.87245e-12
1.71001e-11
1.10097e-11
2.08471e-11
1.48879e-11
2.38012e-11
1.7026e-11
2.48929e-11
1.94709e-11
2.64476e-11
2.15274e-11
2.86916e-11
2.36325e-11
3.01341e-11
2.80227e-11
3.20771e-11
3.1611e-11
3.32963e-11
3.57835e-11
2.75461e-11
2.6749e-11
1.87231e-12
1.69364e-12
-5.0096e-11
-1.13602e-10
-3.14888e-10
-4.95381e-11
1.71127e-10
1.44332e-10
-4.82594e-11
-2.00079e-10
-2.12349e-10
-1.81548e-10
-1.33287e-10
-1.07768e-10
-8.15555e-11
-7.61769e-11
-6.1462e-11
-6.19793e-11
-5.02546e-11
-5.28197e-11
-4.1144e-11
-4.36368e-11
-3.37329e-11
-3.81988e-11
-2.64089e-11
-2.92467e-11
-1.83936e-11
-2.34383e-11
-1.26165e-11
-1.7427e-11
-6.64183e-12
-1.14476e-11
-1.07403e-12
-6.99907e-12
3.5825e-12
-1.87391e-12
9.0937e-12
4.06313e-12
1.38452e-11
6.90644e-12
1.70502e-11
1.10604e-11
2.08046e-11
1.49421e-11
2.37639e-11
1.70746e-11
2.48416e-11
1.94631e-11
2.63914e-11
2.15959e-11
2.86851e-11
2.37086e-11
3.01461e-11
2.81248e-11
3.21195e-11
3.17182e-11
3.33962e-11
3.59239e-11
2.77393e-11
2.68936e-11
2.23234e-12
2.08795e-12
-4.86231e-11
-1.12796e-10
-3.21601e-10
-5.39792e-11
1.82899e-10
1.49781e-10
-5.03925e-11
-2.02729e-10
-2.13925e-10
-1.82193e-10
-1.33534e-10
-1.0793e-10
-8.16948e-11
-7.63469e-11
-6.16085e-11
-6.21277e-11
-5.03682e-11
-5.29421e-11
-4.12309e-11
-4.37155e-11
-3.37851e-11
-3.82828e-11
-2.64674e-11
-2.93027e-11
-1.84292e-11
-2.34946e-11
-1.2648e-11
-1.74588e-11
-6.66144e-12
-1.14757e-11
-1.08715e-12
-7.02739e-12
3.57221e-12
-1.88653e-12
9.08993e-12
4.05643e-12
1.38487e-11
6.88896e-12
1.70493e-11
1.10675e-11
2.08169e-11
1.49531e-11
2.37869e-11
1.70883e-11
2.48402e-11
1.93821e-11
2.63574e-11
2.16266e-11
2.87576e-11
2.3775e-11
3.02195e-11
2.82298e-11
3.22357e-11
3.18346e-11
3.35457e-11
3.60869e-11
2.80041e-11
2.7124e-11
2.66635e-12
2.5075e-12
-4.66597e-11
-1.09853e-10
-3.31962e-10
-5.91944e-11
1.96578e-10
1.54932e-10
-5.23298e-11
-2.05643e-10
-2.16218e-10
-1.83184e-10
-1.33863e-10
-1.08097e-10
-8.18229e-11
-7.65465e-11
-6.17817e-11
-6.23132e-11
-5.05024e-11
-5.31027e-11
-4.13394e-11
-4.38191e-11
-3.38321e-11
-3.83949e-11
-2.6542e-11
-2.93833e-11
-1.84603e-11
-2.35725e-11
-1.26812e-11
-1.75054e-11
-6.67428e-12
-1.15183e-11
-1.08811e-12
-7.07055e-12
3.57064e-12
-1.9105e-12
9.09788e-12
4.0394e-12
1.38762e-11
6.85816e-12
1.70606e-11
1.10664e-11
2.08531e-11
1.49559e-11
2.38442e-11
1.71001e-11
2.4869e-11
1.92505e-11
2.63092e-11
2.16333e-11
2.88931e-11
2.38487e-11
3.03448e-11
2.83402e-11
3.24325e-11
3.19468e-11
3.37842e-11
3.62375e-11
2.84286e-11
2.73295e-11
3.32378e-12
2.82606e-12
-4.36243e-11
-1.05302e-10
-3.45321e-10
-6.466e-11
2.10193e-10
1.58254e-10
-5.33401e-11
-2.07919e-10
-2.19028e-10
-1.84508e-10
-1.34256e-10
-1.0823e-10
-8.19318e-11
-7.6768e-11
-6.19994e-11
-6.25421e-11
-5.06764e-11
-5.33032e-11
-4.14881e-11
-4.39458e-11
-3.38894e-11
-3.85305e-11
-2.66491e-11
-2.94824e-11
-1.84995e-11
-2.36638e-11
-1.27313e-11
-1.75599e-11
-6.69348e-12
-1.15663e-11
-1.08926e-12
-7.11898e-12
3.5633e-12
-1.93783e-12
9.10508e-12
4.02222e-12
1.39168e-11
6.8243e-12
1.70705e-11
1.10646e-11
2.09027e-11
1.49584e-11
2.39285e-11
1.71181e-11
2.49266e-11
1.90761e-11
2.62228e-11
2.16128e-11
2.90885e-11
2.39301e-11
3.05177e-11
2.84441e-11
3.27138e-11
3.2031e-11
3.41234e-11
3.63342e-11
2.90451e-11
2.74349e-11
4.27265e-12
2.90429e-12
-3.93793e-11
-9.95425e-11
-3.6078e-10
-6.91527e-11
2.22377e-10
1.57373e-10
-5.3153e-11
-2.08512e-10
-2.21986e-10
-1.86126e-10
-1.34684e-10
-1.08291e-10
-8.19996e-11
-7.70043e-11
-6.2265e-11
-6.28197e-11
-5.08967e-11
-5.3549e-11
-4.16842e-11
-4.41022e-11
-3.39627e-11
-3.86919e-11
-2.6794e-11
-2.96041e-11
-1.85505e-11
-2.37699e-11
-1.28028e-11
-1.76251e-11
-6.72184e-12
-1.16211e-11
-1.09316e-12
-7.17328e-12
3.54682e-12
-1.97055e-12
9.1094e-12
4.00362e-12
1.3969e-11
6.78782e-12
1.70766e-11
1.10588e-11
2.09649e-11
1.49582e-11
2.40412e-11
1.71421e-11
2.50212e-11
1.88556e-11
2.60839e-11
2.15542e-11
2.93468e-11
2.40129e-11
3.07399e-11
2.85226e-11
3.30856e-11
3.20617e-11
3.45766e-11
3.63343e-11
2.98805e-11
2.73695e-11
5.57441e-12
2.60003e-12
-3.38479e-11
-9.29184e-11
-3.77818e-10
-7.07292e-11
2.32782e-10
1.49701e-10
-5.20658e-11
-2.06428e-10
-2.24657e-10
-1.8798e-10
-1.35116e-10
-1.08255e-10
-8.20022e-11
-7.72435e-11
-6.2575e-11
-6.31462e-11
-5.11661e-11
-5.38422e-11
-4.19318e-11
-4.42946e-11
-3.40569e-11
-3.88801e-11
-2.69795e-11
-2.97534e-11
-1.86169e-11
-2.38916e-11
-1.28984e-11
-1.77046e-11
-6.76119e-12
-1.16846e-11
-1.10194e-12
-7.23426e-12
3.51905e-12
-2.01104e-12
9.10983e-12
3.98139e-12
1.40313e-11
6.74902e-12
1.70777e-11
1.10456e-11
2.10396e-11
1.49524e-11
2.41839e-11
1.71708e-11
2.5163e-11
1.85844e-11
2.58805e-11
2.14478e-11
2.96707e-11
2.40897e-11
3.10156e-11
2.85562e-11
3.35554e-11
3.20137e-11
3.51618e-11
3.61932e-11
3.09658e-11
2.70593e-11
7.29876e-12
1.78442e-12
-2.69713e-11
-8.57263e-11
-3.96424e-10
-6.72724e-11
2.41884e-10
1.32818e-10
-5.08528e-11
-2.00783e-10
-2.26551e-10
-1.90001e-10
-1.35533e-10
-1.08067e-10
-8.1918e-11
-7.74725e-11
-6.29248e-11
-6.3519e-11
-5.14855e-11
-5.41824e-11
-4.22329e-11
-4.45261e-11
-3.41772e-11
-3.9094e-11
-2.72073e-11
-2.9933e-11
-1.87033e-11
-2.40292e-11
-1.30212e-11
-1.78004e-11
-6.81399e-12
-1.17575e-11
-1.11902e-12
-7.30195e-12
3.47759e-12
-2.06051e-12
9.10481e-12
3.9546e-12
1.41003e-11
6.70891e-12
1.70729e-11
1.10221e-11
2.11258e-11
1.4939e-11
2.43567e-11
1.72036e-11
2.53634e-11
1.82554e-11
2.56038e-11
2.12859e-11
3.00617e-11
2.41527e-11
3.13504e-11
2.85259e-11
3.41309e-11
3.18623e-11
3.58993e-11
3.58687e-11
3.2333e-11
2.64377e-11
9.51115e-12
3.59879e-13
-1.87548e-11
-7.81468e-11
-4.16937e-10
-5.69021e-11
2.5088e-10
1.04707e-10
-5.06709e-11
-1.9087e-10
-2.27145e-10
-1.92113e-10
-1.35925e-10
-1.0771e-10
-8.17284e-11
-7.76791e-11
-6.33088e-11
-6.39338e-11
-5.18546e-11
-5.45671e-11
-4.25875e-11
-4.47982e-11
-3.43287e-11
-3.93318e-11
-2.74776e-11
-3.01444e-11
-1.88144e-11
-2.41821e-11
-1.3173e-11
-1.7914e-11
-6.88274e-12
-1.18399e-11
-1.14767e-12
-7.37596e-12
3.42032e-12
-2.11975e-12
9.09274e-12
3.92272e-12
1.41721e-11
6.66845e-12
1.70614e-11
1.09865e-11
2.1222e-11
1.49168e-11
2.45588e-11
1.72394e-11
2.56355e-11
1.7859e-11
2.52448e-11
2.10629e-11
3.05209e-11
2.4193e-11
3.17509e-11
2.84141e-11
3.48199e-11
3.15849e-11
3.68079e-11
3.53252e-11
3.40088e-11
2.54542e-11
1.22548e-11
-1.71924e-12
-9.27868e-12
-7.02326e-11
-4.3995e-10
-3.81795e-11
2.61297e-10
6.39603e-11
-5.28515e-11
-1.76188e-10
-2.25914e-10
-1.94232e-10
-1.36303e-10
-1.07172e-10
-8.14178e-11
-7.78527e-11
-6.37218e-11
-6.43864e-11
-5.22723e-11
-5.49934e-11
-4.29943e-11
-4.51113e-11
-3.45155e-11
-3.95914e-11
-2.77895e-11
-3.0388e-11
-1.89542e-11
-2.43497e-11
-1.33549e-11
-1.80463e-11
-6.9696e-12
-1.19316e-11
-1.19095e-12
-7.45593e-12
3.34609e-12
-2.18921e-12
9.07228e-12
3.88541e-12
1.42427e-11
6.62814e-12
1.70434e-11
1.0937e-11
2.13264e-11
1.48848e-11
2.47883e-11
1.7277e-11
2.59941e-11
1.73858e-11
2.47974e-11
2.07766e-11
3.10485e-11
2.42017e-11
3.22237e-11
2.82061e-11
3.56275e-11
3.11633e-11
3.79015e-11
3.45317e-11
3.60067e-11
2.40829e-11
1.554e-11
-4.4462e-12
1.27102e-12
-6.18843e-11
-4.66035e-10
-1.03163e-11
2.74901e-10
9.92432e-12
-5.88506e-11
-1.56521e-10
-2.22352e-10
-1.9626e-10
-1.36694e-10
-1.06448e-10
-8.09769e-11
-7.79858e-11
-6.41601e-11
-6.48731e-11
-5.27378e-11
-5.54584e-11
-4.34519e-11
-4.54653e-11
-3.47411e-11
-3.98708e-11
-2.8141e-11
-3.06636e-11
-1.91262e-11
-2.45314e-11
-1.35671e-11
-1.81979e-11
-7.0765e-12
-1.20324e-11
-1.25113e-12
-7.5415e-12
3.25436e-12
-2.26934e-12
9.04223e-12
3.84242e-12
1.43091e-11
6.58818e-12
1.70193e-11
1.08722e-11
2.14371e-11
1.48422e-11
2.50429e-11
1.73144e-11
2.64533e-11
1.68252e-11
2.42574e-11
2.04272e-11
3.16427e-11
2.41702e-11
3.27734e-11
2.78918e-11
3.6555e-11
3.0586e-11
3.91855e-11
3.34807e-11
3.8322e-11
2.23271e-11
1.93385e-11
-7.75207e-12
1.26453e-11
-5.29085e-11
-4.95709e-10
2.68004e-11
2.93325e-10
-5.73267e-11
-7.0059e-11
-1.31934e-10
-2.15998e-10
-1.98072e-10
-1.37128e-10
-1.05552e-10
-8.04033e-11
-7.80733e-11
-6.46211e-11
-6.53918e-11
-5.32511e-11
-5.59605e-11
-4.39594e-11
-4.58595e-11
-3.50091e-11
-4.01689e-11
-2.85303e-11
-3.09705e-11
-1.93335e-11
-2.47269e-11
-1.38092e-11
-1.8369e-11
-7.2051e-12
-1.21418e-11
-1.33007e-12
-7.63255e-12
3.14522e-12
-2.36031e-12
9.00158e-12
3.79381e-12
1.43685e-11
6.54828e-12
1.69901e-11
1.07912e-11
2.15519e-11
1.47884e-11
2.5319e-11
1.73476e-11
2.70316e-11
1.6181e-11
2.36238e-11
2.00163e-11
3.22983e-11
2.40915e-11
3.34014e-11
2.74665e-11
3.76011e-11
2.98505e-11
4.06545e-11
3.21789e-11
4.09292e-11
2.02225e-11
2.35853e-11
-1.15155e-11
2.45269e-11
-4.309e-11
-5.29216e-10
7.26845e-11
3.18133e-10
-1.37025e-10
-8.78128e-11
-1.02821e-10
-2.0646e-10
-1.99496e-10
-1.37633e-10
-1.04509e-10
-7.97001e-11
-7.81115e-11
-6.51025e-11
-6.59406e-11
-5.3812e-11
-5.64979e-11
-4.45155e-11
-4.62935e-11
-3.53222e-11
-4.04848e-11
-2.8955e-11
-3.13075e-11
-1.95784e-11
-2.49364e-11
-1.40807e-11
-1.85598e-11
-7.35698e-12
-1.22598e-11
-1.42881e-12
-7.72902e-12
3.01891e-12
-2.46217e-12
8.94943e-12
3.73956e-12
1.44188e-11
6.50803e-12
1.69568e-11
1.06939e-11
2.16682e-11
1.47235e-11
2.56114e-11
1.73726e-11
2.7739e-11
1.54663e-11
2.29096e-11
1.95488e-11
3.30068e-11
2.39622e-11
3.41052e-11
2.69319e-11
3.87469e-11
2.89666e-11
4.22896e-11
3.06509e-11
4.37813e-11
1.7835e-11
2.81805e-11
-1.55711e-11
3.66101e-11
-3.22824e-11
-5.66642e-10
1.26399e-10
3.50337e-10
-2.27646e-10
-1.13087e-10
-6.98745e-11
-1.93477e-10
-2.00336e-10
-1.38234e-10
-1.03363e-10
-7.88785e-11
-7.80972e-11
-6.56012e-11
-6.65172e-11
-5.442e-11
-5.7069e-11
-4.51186e-11
-4.6766e-11
-3.56829e-11
-4.08181e-11
-2.94129e-11
-3.16734e-11
-1.98631e-11
-2.51601e-11
-1.43805e-11
-1.87698e-11
-7.53334e-12
-1.23861e-11
-1.54835e-12
-7.83103e-12
2.87619e-12
-2.57454e-12
8.88502e-12
3.67968e-12
1.4458e-11
6.46692e-12
1.69202e-11
1.05811e-11
2.17828e-11
1.46486e-11
2.59114e-11
1.73851e-11
2.85659e-11
1.47217e-11
2.21573e-11
1.90333e-11
3.37544e-11
2.37836e-11
3.48779e-11
2.62982e-11
3.99765e-11
2.7955e-11
4.40588e-11
2.89412e-11
4.68108e-11
1.5258e-11
3.29961e-11
-1.97307e-11
4.85605e-11
-2.03761e-11
-6.07655e-10
1.86478e-10
3.90397e-10
-3.26879e-10
-1.46451e-10
-3.40845e-11
-1.76937e-10
-2.00372e-10