/*--------------------------------*- C++ -*----------------------------------*\
| =========                 |                                                 |
| \\      /  F ield         | OpenFOAM: The Open Source CFD Toolbox           |
|  \\    /   O peration     | Version:  2312                                  |
|   \\  /    A nd           | Website:  www.openfoam.com                      |
|    \\/     M anipulation  |                                                 |
\*---------------------------------------------------------------------------*/
FoamFile
{
    version     2.0;
    format      ascii;
    arch        "LSB;label=32;scalar=64";
    class       volScalarField;
    location    "720";
    object      pPrime2Mean;
}
// * * * * * * * * * * * * * * * * * * * * * * * * * * * * * * * * * * * * * //

dimensions      [0 4 -4 0 0 0 0];

internalField   nonuniform List<scalar> 
144000
(
3.60305e-18
4.29979e-18
4.01902e-18
3.3064e-18
2.35776e-18
1.67134e-18
1.24315e-18
9.19626e-19
6.83499e-19
5.62294e-19
5.25344e-19
4.74925e-19
4.05425e-19
3.24598e-19
2.71708e-19
2.28287e-19
2.09773e-19
1.79391e-19
1.67054e-19
1.47997e-19
1.33758e-19
1.10178e-19
1.11744e-19
8.39457e-20
8.895e-20
6.9632e-20
7.06866e-20
5.69997e-20
5.66502e-20
4.42371e-20
4.68274e-20
3.39929e-20
3.9053e-20
2.80417e-20
2.99422e-20
2.93712e-20
1.62756e-20
3.27738e-20
1.16062e-20
2.11935e-20
2.70978e-20
3.10378e-21
4.16181e-20
1.0154e-20
3.03358e-20
4.58106e-20
1.80088e-20
6.27433e-20
4.89088e-20
5.23799e-20
9.44982e-20
8.29499e-20
1.21256e-19
1.74902e-19
2.18261e-19
3.24444e-19
5.21513e-19
9.35395e-19
2.33596e-18
2.36091e-18
3.78141e-18
4.40057e-18
4.12571e-18
3.38613e-18
2.3944e-18
1.69255e-18
1.25709e-18
9.28558e-19
6.88452e-19
5.65254e-19
5.27814e-19
4.77108e-19
4.07006e-19
3.25636e-19
2.72411e-19
2.28841e-19
2.10291e-19
1.79815e-19
1.67346e-19
1.48384e-19
1.34069e-19
1.10302e-19
1.12003e-19
8.41578e-20
8.90462e-20
6.98566e-20
7.07861e-20
5.71693e-20
5.67696e-20
4.43426e-20
4.69809e-20
3.40677e-20
3.92015e-20
2.81867e-20
2.9981e-20
2.97478e-20
1.61651e-20
3.3216e-20
1.18055e-20
2.11898e-20
2.79214e-20
2.87372e-21
4.24435e-20
1.07231e-20
3.04814e-20
4.74362e-20
1.83458e-20
6.42524e-20
5.09302e-20
5.37566e-20
9.78135e-20
8.64515e-20
1.25654e-19
1.82242e-19
2.27619e-19
3.38287e-19
5.44653e-19
9.70825e-19
2.43947e-18
2.42213e-18
3.91307e-18
4.47851e-18
4.16546e-18
3.40859e-18
2.40146e-18
1.69862e-18
1.26381e-18
9.34045e-19
6.91792e-19
5.67352e-19
5.30032e-19
4.79217e-19
4.08594e-19
3.26589e-19
2.73098e-19
2.29356e-19
2.1094e-19
1.80252e-19
1.67692e-19
1.48841e-19
1.34479e-19
1.10373e-19
1.12434e-19
8.43222e-20
8.92854e-20
7.00826e-20
7.09961e-20
5.73606e-20
5.70035e-20
4.44533e-20
4.72809e-20
3.41419e-20
3.94968e-20
2.83915e-20
3.00996e-20
3.03429e-20
1.60272e-20
3.3977e-20
1.21034e-20
2.13157e-20
2.92032e-20
2.61232e-21
4.38442e-20
1.15972e-20
3.0953e-20
4.99211e-20
1.90732e-20
6.67311e-20
5.4101e-20
5.61156e-20
1.02948e-19
9.18523e-20
1.3227e-19
1.9266e-19
2.40304e-19
3.55098e-19
5.69929e-19
1.00871e-18
2.54316e-18
2.48278e-18
3.89459e-18
4.42215e-18
4.08651e-18
3.3229e-18
2.357e-18
1.67468e-18
1.25261e-18
9.28898e-19
6.88765e-19
5.65472e-19
5.29467e-19
4.79296e-19
4.08693e-19
3.26538e-19
2.73054e-19
2.29339e-19
2.11216e-19
1.80372e-19
1.67741e-19
1.49114e-19
1.34757e-19
1.1029e-19
1.12776e-19
8.44208e-20
8.94635e-20
7.02925e-20
7.11919e-20
5.75527e-20
5.72329e-20
4.45683e-20
4.76073e-20
3.42148e-20
3.9839e-20
2.86246e-20
3.02296e-20
3.10501e-20
1.58616e-20
3.48915e-20
1.24693e-20
2.14798e-20
3.07289e-20
2.3459e-21
4.54793e-20
1.26937e-20
3.15056e-20
5.28316e-20
1.99986e-20
6.95555e-20
5.78247e-20
5.88041e-20
1.08637e-19
9.78943e-20
1.39132e-19
2.03341e-19
2.52334e-19
3.68969e-19
5.87645e-19
1.01805e-18
2.60637e-18
2.46483e-18
3.73553e-18
4.28769e-18
3.90663e-18
3.13184e-18
2.26447e-18
1.62004e-18
1.22139e-18
9.10772e-19
6.77325e-19
5.57693e-19
5.24216e-19
4.75651e-19
4.06108e-19
3.24679e-19
2.71704e-19
2.28338e-19
2.10678e-19
1.79844e-19
1.67209e-19
1.48906e-19
1.34666e-19
1.0993e-19
1.12823e-19
8.43521e-20
8.94812e-20
7.03851e-20
7.12946e-20
5.76774e-20
5.73887e-20
4.46399e-20
4.7893e-20
3.42574e-20
4.01577e-20
2.88427e-20
3.03228e-20
3.1764e-20
1.56751e-20
3.5793e-20
1.28604e-20
2.16202e-20
3.22635e-20
2.10872e-21
4.70311e-20
1.38728e-20
3.19831e-20
5.56835e-20
2.09672e-20
7.21313e-20
6.1475e-20
6.12851e-20
1.13774e-19
1.03475e-19
1.44768e-19
2.11984e-19
2.6134e-19
3.76901e-19
5.96792e-19
9.98551e-19
2.64605e-18
2.39859e-18
3.53758e-18
4.22358e-18
3.6868e-18
2.88173e-18
2.1429e-18
1.54592e-18
1.17425e-18
8.81333e-19
6.58195e-19
5.44114e-19
5.1397e-19
4.67853e-19
4.00409e-19
3.20648e-19
2.68787e-19
2.26134e-19
2.09121e-19
1.78495e-19
1.65945e-19
1.48038e-19
1.34047e-19
1.092e-19
1.12452e-19
8.40157e-20
8.92713e-20
7.02851e-20
7.12506e-20
5.7686e-20
5.74206e-20
4.4633e-20
4.80835e-20
3.42393e-20
4.03959e-20
2.90094e-20
3.03417e-20
3.24029e-20
1.5468e-20
3.65904e-20
1.32298e-20
2.17147e-20
3.36395e-20
1.91688e-21
4.83261e-20
1.49909e-20
3.23314e-20
5.81082e-20
2.1865e-20
7.4189e-20
6.4576e-20
6.335e-20
1.17756e-19
1.08032e-19
1.48809e-19
2.18091e-19
2.67007e-19
3.80039e-19
5.99426e-19
9.6026e-19
2.70346e-18
2.35515e-18
3.34818e-18
4.3213e-18
3.46326e-18
2.60858e-18
2.00162e-18
1.45787e-18
1.11467e-18
8.42795e-19
6.3269e-19
5.25647e-19
4.99293e-19
4.56187e-19
3.91722e-19
3.1451e-19
2.64338e-19
2.22757e-19
2.06537e-19
1.76308e-19
1.6395e-19
1.46471e-19
1.32863e-19
1.08069e-19
1.11612e-19
8.33519e-20
8.87888e-20
6.9962e-20
7.10075e-20
5.75571e-20
5.72965e-20
4.45276e-20
4.81445e-20
3.4148e-20
4.0517e-20
2.91058e-20
3.02678e-20
3.29204e-20
1.52415e-20
3.72224e-20
1.35441e-20
2.17687e-20
3.47785e-20
1.76812e-21
4.93269e-20
1.59516e-20
3.25711e-20
6.00055e-20
2.26082e-20
7.5729e-20
6.69496e-20
6.49924e-20
1.20586e-19
1.11414e-19
1.51407e-19
2.21794e-19
2.69609e-19
3.79734e-19
5.9671e-19
9.10349e-19
2.79323e-18
2.38751e-18
3.18429e-18
4.60761e-18
3.25167e-18
2.33799e-18
1.84448e-18
1.35899e-18
1.04525e-18
7.9692e-19
6.02142e-19
5.03296e-19
4.81006e-19
4.41347e-19
3.80523e-19
3.06533e-19
2.58532e-19
2.18327e-19
2.03031e-19
1.7338e-19
1.61319e-19
1.4428e-19
1.31165e-19
1.0656e-19
1.10332e-19
8.23678e-20
8.80179e-20
6.94225e-20
7.05497e-20
5.72923e-20
5.70095e-20
4.4324e-20
4.80662e-20
3.39873e-20
4.05073e-20
2.9134e-20
3.00971e-20
3.3307e-20
1.50009e-20
3.76927e-20
1.38026e-20
2.17832e-20
3.57078e-20
1.6451e-21
5.0072e-20
1.67502e-20
3.27277e-20
6.14505e-20
2.31636e-20
7.6923e-20
6.8652e-20
6.62674e-20
1.22532e-19
1.13749e-19
1.52818e-19
2.2357e-19
2.69455e-19
3.77028e-19
5.88828e-19
8.54279e-19
2.91111e-18
2.50684e-18
3.05119e-18
5.03679e-18
3.06023e-18
2.08993e-18
1.6765e-18
1.25271e-18
9.68912e-19
7.45848e-19
5.68156e-19
4.78205e-19
4.60146e-19
4.24144e-19
3.67423e-19
2.97129e-19
2.5163e-19
2.13027e-19
1.98753e-19
1.69844e-19
1.58178e-19
1.41593e-19
1.29059e-19
1.04739e-19
1.08687e-19
8.11145e-20
8.69638e-20
6.86953e-20
6.98795e-20
5.69051e-20
5.65688e-20
4.40383e-20
4.78589e-20
3.37721e-20
4.03729e-20
2.91111e-20
2.98334e-20
3.35846e-20
1.47522e-20
3.80155e-20
1.40367e-20
2.17441e-20
3.65067e-20
1.51998e-21
5.06351e-20
1.74451e-20
3.27644e-20
6.26186e-20
2.34865e-20
7.78329e-20
6.98276e-20
6.71009e-20
1.23765e-19
1.15027e-19
1.52982e-19
2.23599e-19
2.66524e-19
3.71778e-19
5.74984e-19
7.96027e-19
3.03711e-18
2.67729e-18
2.94479e-18
5.51306e-18
2.89525e-18
1.87282e-18
1.50538e-18
1.14271e-18
8.8904e-19
6.91879e-19
5.32291e-19
4.51574e-19
4.37669e-19
4.05394e-19
3.53073e-19
2.86755e-19
2.4396e-19
2.07093e-19
1.93886e-19
1.65834e-19
1.54652e-19
1.3854e-19
1.2668e-19
1.02691e-19
1.06776e-19
7.96763e-20
8.5652e-20
6.78311e-20
6.90152e-20
5.64135e-20
5.59901e-20
4.36917e-20
4.75388e-20
3.35199e-20
4.01249e-20
2.90603e-20
2.94775e-20
3.37739e-20
1.45014e-20
3.81863e-20
1.42936e-20
2.1603e-20
3.72573e-20
1.36656e-21
5.09982e-20
1.81179e-20
3.25614e-20
6.35993e-20
2.35187e-20
7.83376e-20
7.05379e-20
6.72354e-20
1.24139e-19
1.1512e-19
1.51502e-19
2.21558e-19
2.60154e-19
3.62874e-19
5.52376e-19
7.36062e-19
3.14116e-18
2.82522e-18
2.84921e-18
5.89861e-18
2.7589e-18
1.68284e-18
1.33952e-18
1.03301e-18
8.09023e-19
6.37234e-19
4.96087e-19
4.24516e-19
4.14494e-19
3.85879e-19
3.38063e-19
2.75853e-19
2.35852e-19
2.00781e-19
1.88624e-19
1.61512e-19
1.50841e-19
1.35231e-19
1.24148e-19
1.00501e-19
1.04688e-19
7.815e-20
8.41271e-20
6.68703e-20
6.79873e-20
5.58283e-20
5.52951e-20
4.33031e-20
4.71186e-20
3.32466e-20
3.97708e-20
2.89975e-20
2.90295e-20
3.38878e-20
1.42533e-20
3.81792e-20
1.46137e-20
2.12999e-20
3.79907e-20
1.1694e-21
5.10772e-20
1.88137e-20
3.19863e-20
6.43336e-20
2.31992e-20
7.81952e-20
7.0714e-20
6.64061e-20
1.23384e-19
1.13756e-19
1.47858e-19
2.16977e-19
2.499e-19
3.49246e-19
5.20276e-19
6.73989e-19
3.18518e-18
2.88164e-18
2.74577e-18
6.09129e-18
2.64728e-18
1.51221e-18
1.1856e-18
9.26982e-19
7.31699e-19
5.83731e-19
4.60735e-19
3.97939e-19
3.91385e-19
3.6623e-19
3.22876e-19
2.6479e-19
2.27583e-19
1.94307e-19
1.8315e-19
1.57012e-19
1.46845e-19
1.31756e-19
1.21543e-19
9.82454e-20
1.02487e-19
7.662e-20
8.24436e-20
6.58553e-20
6.6832e-20
5.51606e-20
5.45012e-20
4.28844e-20
4.66043e-20
3.29649e-20
3.93219e-20
2.89303e-20
2.84871e-20
3.39214e-20
1.4015e-20
3.79547e-20
1.50049e-20
2.07894e-20
3.8688e-20
9.30487e-22
5.07875e-20
1.95239e-20
3.09336e-20
6.47225e-20
2.25062e-20
7.72336e-20
7.02922e-20
6.44956e-20
1.21327e-19
1.10857e-19
1.41981e-19
2.09762e-19
2.35908e-19
3.30677e-19
4.79993e-19
6.10352e-19
3.14466e-18
2.80561e-18
2.61507e-18
6.03479e-18
2.54901e-18
1.35192e-18
1.04757e-18
8.27111e-19
6.59286e-19
5.32699e-19
4.27052e-19
3.72506e-19
3.68939e-19
3.46956e-19
3.07916e-19
2.53834e-19
2.19364e-19
1.87852e-19
1.77622e-19
1.52463e-19
1.42769e-19
1.28196e-19
1.18916e-19
9.59877e-20
1.00224e-19
7.51475e-20
8.06665e-20
6.48213e-20
6.55965e-20
5.44243e-20
5.36279e-20
4.24409e-20
4.59997e-20
3.26846e-20
3.87836e-20
2.88575e-20
2.78618e-20
3.38608e-20
1.37941e-20
3.74892e-20
1.54526e-20
2.00835e-20
3.93556e-20
6.67557e-22
5.01103e-20
2.02188e-20
2.94279e-20
6.4696e-20
2.14786e-20
7.5419e-20
6.92754e-20
6.15413e-20
1.1802e-19
1.06596e-19
1.34128e-19
2.00281e-19
2.1901e-19
3.0808e-19
4.34386e-19
5.46287e-19
3.0102e-18
2.5941e-18
2.44574e-18
5.73036e-18
2.45104e-18
1.19634e-18
9.26774e-19
7.34988e-19
5.93033e-19
4.85029e-19
3.95527e-19
3.48652e-19
3.47568e-19
3.28436e-19
2.93455e-19
2.43213e-19
2.11359e-19
1.81563e-19
1.72168e-19
1.47985e-19
1.38708e-19
1.24621e-19
1.16299e-19
9.37765e-20
9.79342e-20
7.37666e-20
7.88482e-20
6.37965e-20
6.43214e-20
5.36391e-20
5.2696e-20
4.19792e-20
4.53119e-20
3.24131e-20
3.81671e-20
2.87757e-20
2.71751e-20
3.37003e-20
1.35983e-20
3.6796e-20
1.59323e-20
1.92161e-20
4.00489e-20
4.0945e-22
4.91431e-20
2.08823e-20
2.75535e-20
6.42507e-20
2.02115e-20
7.2857e-20
6.77831e-20
5.77718e-20
1.13713e-19
1.01337e-19
1.24868e-19
1.89205e-19
2.00429e-19
2.82994e-19
3.87332e-19
4.83606e-19
2.79209e-18
2.27963e-18
2.23422e-18
5.22521e-18
2.34065e-18
1.0446e-18
8.22339e-19
6.51477e-19
5.33442e-19
4.41239e-19
3.66389e-19
3.2659e-19
3.27541e-19
3.10903e-19
2.79672e-19
2.33066e-19
2.03658e-19
1.75528e-19
1.66878e-19
1.43651e-19
1.34736e-19
1.21097e-19
1.13716e-19
9.16468e-20
9.56444e-20
7.24895e-20
7.70307e-20
6.28012e-20
6.30394e-20
5.28287e-20
5.17289e-20
4.15087e-20
4.4555e-20
3.21567e-20
3.74898e-20
2.86831e-20
2.64563e-20
3.34462e-20
1.34382e-20
3.59093e-20
1.64311e-20
1.82167e-20
4.0945e-20
1.92686e-22
4.81362e-20
2.15248e-20
2.54223e-20
6.34472e-20
1.88279e-20
6.96996e-20
6.59819e-20
5.34736e-20
1.08725e-19
9.55179e-20
1.1484e-19
1.77294e-19
1.81441e-19
2.5707e-19
3.42061e-19
4.23951e-19
2.5112e-18
1.91037e-18
1.98696e-18
4.59281e-18
2.20909e-18
8.99681e-19
7.32083e-19
5.76889e-19
4.80505e-19
4.01533e-19
3.39658e-19
3.06368e-19
3.08957e-19
2.94482e-19
2.66674e-19
2.23457e-19
1.96311e-19
1.69799e-19
1.61809e-19
1.3951e-19
1.30904e-19
1.17679e-19
1.11184e-19
8.96238e-20
9.33784e-20
7.13149e-20
7.52441e-20
6.18479e-20
6.17779e-20
5.20183e-20
5.07481e-20
4.10401e-20
4.37485e-20
3.19181e-20
3.67745e-20
2.85799e-20
2.57359e-20
3.31125e-20
1.33244e-20
3.4878e-20
1.6937e-20
1.71181e-20
4.23354e-20
5.27377e-23
4.75115e-20
2.21666e-20
2.31502e-20
6.23739e-20
1.74448e-20
6.61497e-20
6.40405e-20
4.89238e-20
1.03371e-19
8.95366e-20
1.04617e-19
1.65208e-19
1.63102e-19
2.31711e-19
3.00756e-19
3.68377e-19
2.19629e-18
1.53822e-18
1.71675e-18
3.90721e-18
2.05109e-18
7.65854e-19
6.53271e-19
5.11081e-19
4.33825e-19
3.65869e-19
3.15227e-19
2.87915e-19
2.91826e-19
2.79219e-19
2.54496e-19
2.14413e-19
1.89342e-19
1.64402e-19
1.56991e-19
1.35587e-19
1.27243e-19
1.14409e-19
1.08717e-19
8.77224e-20
9.11542e-20
7.02355e-20
7.35067e-20
6.09431e-20
6.05564e-20
5.12273e-20
4.97728e-20
4.0584e-20
4.29142e-20
3.16991e-20
3.60422e-20
2.84703e-20
2.50337e-20
3.27244e-20
1.32465e-20
3.3777e-20
1.73846e-20
1.60451e-20
4.30447e-20
7.20815e-28
4.65184e-20
2.26938e-20
2.08554e-20
6.11073e-20
1.61546e-20
6.2379e-20
6.2093e-20
4.43497e-20
9.79122e-20
8.36981e-20
9.46309e-20
1.53474e-19
1.46079e-19
2.07828e-19
2.64515e-19
3.17519e-19
1.87413e-18
1.2007e-18
1.44289e-18
3.23401e-18
1.86777e-18
6.47199e-19
5.83377e-19
4.5362e-19
3.92814e-19
3.34062e-19
2.92934e-19
2.71098e-19
2.76095e-19
2.65103e-19
2.43135e-19
2.0593e-19
1.82752e-19
1.5934e-19
1.52435e-19
1.3189e-19
1.23768e-19
1.11311e-19
1.06324e-19
8.59501e-20
8.89947e-20
6.92418e-20
7.18352e-20
6.00891e-20
5.9386e-20
5.04697e-20
4.88181e-20
4.01491e-20
4.20723e-20
3.15006e-20
3.53113e-20
2.83604e-20
2.43615e-20
3.23092e-20
1.31897e-20
3.2672e-20
1.77147e-20
1.50988e-20
4.14355e-20
4.81251e-23
4.37586e-20
2.30157e-20
1.86302e-20
5.97189e-20
1.50213e-20
5.85205e-20
6.02305e-20
3.99185e-20
9.25229e-20
7.82074e-20
8.51719e-20
1.42403e-19
1.30781e-19
1.85925e-19
2.33473e-19
2.71868e-19
1.56847e-18
9.21978e-19
1.18544e-18
2.6203e-18
1.66506e-18
5.46474e-19
5.2046e-19
4.03862e-19
3.56847e-19
3.05865e-19
2.72603e-19
2.55756e-19
2.61674e-19
2.52086e-19
2.32563e-19
1.97997e-19
1.76528e-19
1.54602e-19
1.48137e-19
1.28414e-19
1.20481e-19
1.084e-19
1.04012e-19
8.43068e-20
8.69106e-20
6.83245e-20
7.02346e-20
5.92852e-20
5.82731e-20
4.97545e-20
4.7896e-20
3.97406e-20
4.12408e-20
3.13215e-20
3.45982e-20
2.82532e-20
2.37333e-20
3.18805e-20
1.31669e-20
3.15772e-20
1.79854e-20
1.42281e-20
3.93563e-20
1.93651e-22
4.07424e-20
2.32899e-20
1.65155e-20
5.82633e-20
1.40812e-20
5.46751e-20
5.8506e-20
3.57415e-20
8.73247e-20
7.31797e-20
7.64063e-20
1.32151e-19
1.17336e-19
1.66157e-19
2.07265e-19
2.31724e-19
1.29608e-18
7.11953e-19
9.62877e-19
2.09319e-18
1.45254e-18
4.64102e-19
4.6329e-19
3.61052e-19
3.2531e-19
2.80978e-19
2.54064e-19
2.41721e-19
2.4845e-19
2.401e-19
2.22735e-19
1.90575e-19
1.70648e-19
1.50171e-19
1.44091e-19
1.25149e-19
1.17376e-19
1.05678e-19
1.01783e-19
8.27877e-20
8.4911e-20
6.7475e-20
6.87076e-20
5.85301e-20
5.72201e-20
4.9086e-20
4.70147e-20
3.93617e-20
4.04328e-20
3.11608e-20
3.39151e-20
2.81507e-20
2.31575e-20
3.14492e-20
1.31881e-20
3.05014e-20
1.82558e-20
1.33905e-20
3.79168e-20
4.75243e-22
3.83765e-20
2.36222e-20
1.45419e-20
5.67742e-20
1.33547e-20
5.09125e-20
5.69446e-20
3.18859e-20
8.23653e-20
6.86653e-20
6.83998e-20
1.22759e-19
1.05687e-19
1.48414e-19
1.85232e-19
1.97207e-19
1.06674e-18
5.68397e-19
7.87886e-19
1.66083e-18
1.24017e-18
3.98519e-19
4.11228e-19
3.24339e-19
2.97657e-19
2.59071e-19
2.37159e-19
2.28831e-19
2.36304e-19
2.29067e-19
2.136e-19
1.83626e-19
1.65086e-19
1.46026e-19
1.40286e-19
1.22082e-19
1.14442e-19
1.03141e-19
9.96395e-20
8.13843e-20
8.30016e-20
6.66855e-20
6.72547e-20
5.78214e-20
5.62275e-20
4.84663e-20
4.61793e-20
3.90131e-20
3.96568e-20
3.10177e-20
3.32693e-20
2.80566e-20
2.26339e-20
3.10277e-20
1.32447e-20
2.94692e-20
1.85225e-20
1.26164e-20
3.68623e-20
8.54799e-22
3.63484e-20
2.3998e-20
1.27446e-20
5.52746e-20
1.28393e-20
4.72805e-20
5.55471e-20
2.83849e-20
7.76774e-20
6.46716e-20
6.11547e-20
1.14201e-19
9.56554e-20
1.32522e-19
1.66632e-19
1.68282e-19
8.8266e-19
4.80924e-19
6.6866e-19
1.31899e-18
1.03787e-18
3.46601e-19
3.64049e-19
2.92899e-19
2.73412e-19
2.39826e-19
2.21752e-19
2.16941e-19
2.25119e-19
2.18907e-19
2.05103e-19
1.7711e-19
1.59817e-19
1.42145e-19
1.36706e-19
1.19196e-19
1.11668e-19
1.0078e-19
9.75801e-20
8.00874e-20
8.11849e-20
6.59492e-20
6.58745e-20
5.71558e-20
5.5294e-20
4.78944e-20
4.53931e-20
3.86944e-20
3.8918e-20
3.0891e-20
3.26658e-20
2.79716e-20
2.21634e-20
3.06219e-20
1.33329e-20
2.84918e-20
1.87784e-20
1.19338e-20
3.59984e-20
1.29138e-21
3.45004e-20
2.43975e-20
1.11361e-20
5.37814e-20
1.25234e-20
4.38096e-20
5.4302e-20
2.5251e-20
7.32652e-20
6.11694e-20
5.46347e-20
1.06411e-19
8.70375e-20
1.18219e-19
1.50836e-19
1.44686e-19
7.415e-19
4.35117e-19
6.08317e-19
1.05434e-18
8.54736e-19
3.04527e-19
3.21755e-19
2.65937e-19
2.52171e-19
2.22935e-19
2.07727e-19
2.0593e-19
2.14789e-19
2.09544e-19
1.97195e-19
1.70987e-19
1.54817e-19
1.38506e-19
1.33337e-19
1.16478e-19
1.09042e-19
9.85854e-20
9.56032e-20
7.88871e-20
7.94614e-20
6.52595e-20
6.45649e-20
5.65299e-20
5.44178e-20
4.73686e-20
4.46577e-20
3.84041e-20
3.82195e-20
3.07789e-20
3.21075e-20
2.78954e-20
2.17461e-20
3.02338e-20
1.34524e-20
2.75693e-20
1.90269e-20
1.1347e-20
3.52289e-20
1.77236e-21
3.27824e-20
2.48221e-20
9.71372e-21
5.23045e-20
1.23905e-20
4.05194e-20
5.319e-20
2.24813e-20
6.91159e-20
5.81192e-20
4.87824e-20
9.93153e-20
7.96318e-20
1.05284e-19
1.37267e-19
1.25987e-19
6.37581e-19
4.15514e-19
6.05798e-19
8.50192e-19
6.98054e-19
2.68611e-19
2.84417e-19
2.42781e-19
2.33605e-19
2.08123e-19
1.94985e-19
1.95698e-19
2.05217e-19
2.00905e-19
1.89826e-19
1.65221e-19
1.50062e-19
1.35088e-19
1.30162e-19
1.13912e-19
1.06552e-19
9.65427e-20
9.37061e-20
7.77733e-20
7.78299e-20
6.46109e-20
6.3323e-20
5.59399e-20
5.35963e-20
4.68866e-20
4.3974e-20
3.81406e-20
3.75622e-20
3.06797e-20
3.15953e-20
2.78274e-20
2.13816e-20
2.98649e-20
1.36014e-20
2.67025e-20
1.92718e-20
1.08504e-20
3.45015e-20
2.29377e-21
3.11746e-20
2.52682e-20
8.47257e-21
5.08502e-20
1.24202e-20
3.74246e-20
5.21884e-20
2.00643e-20
6.52137e-20
5.5474e-20
4.35405e-20
9.2831e-20
7.32576e-20
9.35116e-20
1.2549e-19
1.11796e-19
5.63671e-19
4.07015e-19
6.56007e-19
6.88127e-19
5.7234e-19
2.35845e-19
2.51937e-19
2.22866e-19
2.17437e-19
1.95148e-19
1.83436e-19
1.86163e-19
1.96318e-19
1.92924e-19
1.82953e-19
1.59776e-19
1.4553e-19
1.31869e-19
1.27167e-19
1.11486e-19
1.04187e-19
9.46401e-20
9.18853e-20
7.67373e-20
7.62874e-20
6.39991e-20
6.21445e-20
5.53829e-20
5.28263e-20
4.64463e-20
4.33418e-20
3.79021e-20
3.69459e-20
3.05925e-20
3.11294e-20
2.77673e-20
2.10684e-20
2.95167e-20
1.37764e-20
2.58942e-20
1.95132e-20
1.04386e-20
3.3806e-20
2.85116e-21
2.96697e-20
2.57274e-20
7.40665e-21
4.94291e-20
1.25906e-20
3.45366e-20
5.12813e-20
1.79834e-20
6.15514e-20
5.31895e-20
3.88604e-20
8.69002e-20
6.77791e-20
8.27414e-20
1.1516e-19
1.01763e-19
5.11505e-19
3.96445e-19
3.60986e-18
4.31511e-18
4.03413e-18
3.31507e-18
2.3631e-18
1.67413e-18
1.24544e-18
9.21702e-19
6.85173e-19
5.63391e-19
5.2596e-19
4.75237e-19
4.05535e-19
3.24595e-19
2.71625e-19
2.28196e-19
2.0968e-19
1.79356e-19
1.67046e-19
1.48e-19
1.33774e-19
1.10196e-19
1.1178e-19
8.39549e-20
8.89808e-20
6.96343e-20
7.0715e-20
5.70069e-20
5.66862e-20
4.42308e-20
4.68547e-20
3.39785e-20
3.90635e-20
2.80273e-20
2.99464e-20
2.93629e-20
1.62833e-20
3.27706e-20
1.16199e-20
2.11919e-20
2.71254e-20
3.09711e-21
4.16258e-20
1.01374e-20
3.03622e-20
4.58654e-20
1.7997e-20
6.28221e-20
4.8913e-20
5.24639e-20
9.45294e-20
8.30375e-20
1.21188e-19
1.74943e-19
2.18048e-19
3.24192e-19
5.20996e-19
9.33965e-19
2.34644e-18
2.36772e-18
3.78802e-18
4.41678e-18
4.14092e-18
3.39535e-18
2.3997e-18
1.69534e-18
1.25939e-18
9.30623e-19
6.90127e-19
5.66346e-19
5.28422e-19
4.77415e-19
4.07113e-19
3.25628e-19
2.72324e-19
2.28745e-19
2.10195e-19
1.79779e-19
1.67338e-19
1.48386e-19
1.34085e-19
1.1032e-19
1.12039e-19
8.41662e-20
8.90766e-20
6.98584e-20
7.08147e-20
5.71771e-20
5.68058e-20
4.43367e-20
4.70082e-20
3.40538e-20
3.92115e-20
2.81732e-20
2.99846e-20
2.97403e-20
1.61721e-20
3.32134e-20
1.18187e-20
2.11883e-20
2.79506e-20
2.867e-21
4.24528e-20
1.07058e-20
3.05086e-20
4.74935e-20
1.83345e-20
6.43327e-20
5.09364e-20
5.38405e-20
9.78471e-20
8.65383e-20
1.25578e-19
1.82274e-19
2.27395e-19
3.3802e-19
5.44024e-19
9.69362e-19
2.45011e-18
2.42895e-18
3.92164e-18
4.49533e-18
4.18048e-18
3.41791e-18
2.40657e-18
1.70117e-18
1.26598e-18
9.36086e-19
6.93445e-19
5.68437e-19
5.30635e-19
4.79512e-19
4.08693e-19
3.26574e-19
2.73003e-19
2.29253e-19
2.1084e-19
1.80212e-19
1.67683e-19
1.4884e-19
1.34494e-19
1.10391e-19
1.1247e-19
8.43297e-20
8.93153e-20
7.00838e-20
7.10251e-20
5.73695e-20
5.70411e-20
4.4448e-20
4.73088e-20
3.41287e-20
3.95064e-20
2.83792e-20
3.01029e-20
3.03367e-20
1.60337e-20
3.39759e-20
1.21166e-20
2.13141e-20
2.9235e-20
2.60538e-21
4.38577e-20
1.15774e-20
3.09829e-20
4.99833e-20
1.90637e-20
6.68138e-20
5.41109e-20
5.62028e-20
1.02989e-19
9.19464e-20
1.32204e-19
1.92719e-19
2.40094e-19
3.54851e-19
5.69281e-19
1.00782e-18
2.55359e-18
2.49044e-18
3.9037e-18
4.43978e-18
4.10023e-18
3.33162e-18
2.36169e-18
1.67675e-18
1.25464e-18
9.30842e-19
6.90392e-19
5.66531e-19
5.30052e-19
4.79576e-19
4.08777e-19
3.26513e-19
2.7295e-19
2.29226e-19
2.11108e-19
1.80328e-19
1.6773e-19
1.49111e-19
1.3477e-19
1.10308e-19
1.12812e-19
8.44275e-20
8.94924e-20
7.02931e-20
7.12202e-20
5.7563e-20
5.72711e-20
4.45644e-20
4.76355e-20
3.42027e-20
3.98477e-20
2.86139e-20
3.02315e-20
3.10457e-20
1.58671e-20
3.48904e-20
1.24826e-20
2.1478e-20
3.07681e-20
2.33919e-21
4.54974e-20
1.26676e-20
3.15405e-20
5.28998e-20
1.99915e-20
6.96452e-20
5.78418e-20
5.88975e-20
1.08695e-19
9.80071e-20
1.39084e-19
2.03435e-19
2.52189e-19
3.68835e-19
5.87168e-19
1.0181e-18
2.61778e-18
2.4732e-18
3.74237e-18
4.30369e-18
3.91811e-18
3.1393e-18
2.26841e-18
1.622e-18
1.22314e-18
9.12585e-19
6.78879e-19
5.58721e-19
5.24771e-19
4.75916e-19
4.06172e-19
3.24637e-19
2.71589e-19
2.28212e-19
2.10559e-19
1.79793e-19
1.67194e-19
1.489e-19
1.34676e-19
1.09947e-19
1.12859e-19
8.43585e-20
8.95083e-20
7.03851e-20
7.13205e-20
5.76898e-20
5.74273e-20
4.46385e-20
4.79204e-20
3.42475e-20
4.01643e-20
2.88343e-20
3.03233e-20
3.17616e-20
1.56781e-20
3.57941e-20
1.28735e-20
2.16174e-20
3.23086e-20
2.10301e-21
4.70552e-20
1.38346e-20
3.20249e-20
5.57597e-20
2.09644e-20
7.22275e-20
6.15002e-20
6.13911e-20
1.13853e-19
1.03613e-19
1.44762e-19
2.12138e-19
2.61281e-19
3.76933e-19
5.9659e-19
9.98688e-19
2.65859e-18
2.40675e-18
3.54522e-18
4.2359e-18
3.69616e-18
2.88786e-18
2.14597e-18
1.54753e-18
1.17578e-18
8.83018e-19
6.59733e-19
5.45136e-19
5.14501e-19
4.68089e-19
4.00455e-19
3.20592e-19
2.68661e-19
2.25996e-19
2.08989e-19
1.78437e-19
1.65924e-19
1.48028e-19
1.34052e-19
1.09217e-19
1.12486e-19
8.40227e-20
8.92955e-20
7.02853e-20
7.12726e-20
5.77011e-20
5.7459e-20
4.4635e-20
4.81098e-20
3.42322e-20
4.03988e-20
2.90043e-20
3.03386e-20
3.24041e-20
1.54684e-20
3.65931e-20
1.32419e-20
2.17108e-20
3.36935e-20
1.91328e-21
4.83573e-20
1.49336e-20
3.2381e-20
5.8192e-20
2.18677e-20
7.42906e-20
6.46102e-20
6.34692e-20
1.17852e-19
1.08196e-19
1.48836e-19
2.18305e-19
2.67012e-19
3.80233e-19
5.99416e-19
9.60786e-19
2.71642e-18
2.36186e-18
3.35549e-18
4.329e-18
3.4706e-18
2.61355e-18
2.00415e-18
1.45915e-18
1.11604e-18
8.44429e-19
6.34206e-19
5.26646e-19
4.99795e-19
4.56393e-19
3.91752e-19
3.14443e-19
2.64202e-19
2.22608e-19
2.06394e-19
1.76241e-19
1.63923e-19
1.46457e-19
1.32861e-19
1.08085e-19
1.11644e-19
8.33603e-20
8.88092e-20
6.99628e-20
7.10241e-20
5.75751e-20
5.73327e-20
4.4534e-20
4.81678e-20
3.41448e-20
4.05152e-20
2.91051e-20
3.02597e-20
3.29265e-20
1.52376e-20
3.72265e-20
1.35538e-20
2.17612e-20
3.48413e-20
1.76785e-21
4.93658e-20
1.58671e-20
3.26292e-20
6.00968e-20
2.26165e-20
7.58339e-20
6.69924e-20
6.51228e-20
1.20696e-19
1.11602e-19
1.51459e-19
2.22067e-19
2.69648e-19
3.80068e-19
5.96815e-19
9.11087e-19
2.80595e-18
2.39234e-18
3.191e-18
4.61092e-18
3.25706e-18
2.342e-18
1.84658e-18
1.35996e-18
1.04646e-18
7.98517e-19
6.03645e-19
5.04273e-19
4.81498e-19
4.41531e-19
3.80538e-19
3.06455e-19
2.58387e-19
2.1817e-19
2.02875e-19
1.73306e-19
1.61287e-19
1.44263e-19
1.31156e-19
1.06576e-19
1.10361e-19
8.23786e-20
8.80334e-20
6.94246e-20
7.05596e-20
5.73137e-20
5.70421e-20
4.4336e-20
4.80847e-20
3.39892e-20
4.04987e-20
2.91388e-20
3.00823e-20
3.3318e-20
1.49897e-20
3.77003e-20
1.38068e-20
2.1771e-20
3.57752e-20
1.64915e-21
5.01333e-20
1.66276e-20
3.27927e-20
6.15445e-20
2.31769e-20
7.70302e-20
6.87018e-20
6.64075e-20
1.22654e-19
1.13959e-19
1.52887e-19
2.23884e-19
2.69509e-19
3.77469e-19
5.88936e-19
8.55076e-19
2.92303e-18
2.50977e-18
3.05731e-18
5.03672e-18
3.06385e-18
2.09313e-18
1.67822e-18
1.25339e-18
9.69967e-19
7.47393e-19
5.69628e-19
4.79163e-19
4.60621e-19
4.24311e-19
3.67426e-19
2.97043e-19
2.51477e-19
2.12864e-19
1.98586e-19
1.69763e-19
1.58141e-19
1.41574e-19
1.29043e-19
1.04755e-19
1.08712e-19
8.11287e-20
8.69742e-20
6.86993e-20
6.98819e-20
5.69306e-20
5.65966e-20
4.40566e-20
4.78717e-20
3.37802e-20
4.0356e-20
2.91231e-20
2.98095e-20
3.36007e-20
1.47311e-20
3.80288e-20
1.40284e-20
2.17254e-20
3.65708e-20
1.52838e-21
5.07176e-20
1.72709e-20
3.28335e-20
6.27208e-20
2.35044e-20
7.79403e-20
6.98832e-20
6.72467e-20
1.23891e-19
1.15252e-19
1.53058e-19
2.23943e-19
2.66569e-19
3.72285e-19
5.75111e-19
7.96831e-19
3.04792e-18
2.67881e-18
2.95035e-18
5.51107e-18
2.89727e-18
1.87544e-18
1.50677e-18
1.14315e-18
8.89946e-19
6.9336e-19
5.33731e-19
4.52515e-19
4.38131e-19
4.0555e-19
3.53067e-19
2.86664e-19
2.43803e-19
2.06927e-19
1.93711e-19
1.65748e-19
1.54609e-19
1.3852e-19
1.26656e-19
1.02708e-19
1.06796e-19
7.96944e-20
8.5657e-20
6.78374e-20
6.90094e-20
5.64431e-20
5.60129e-20
4.37169e-20
4.75445e-20
3.3535e-20
4.0098e-20
2.90803e-20
2.94431e-20
3.37982e-20
1.44668e-20
3.82083e-20
1.42672e-20
2.15844e-20
3.72979e-20
1.37844e-21
5.11242e-20
1.78763e-20
3.2631e-20
6.3707e-20
2.35403e-20
7.84423e-20
7.0597e-20
6.73833e-20
1.24266e-19
1.15351e-19
1.51573e-19
2.21915e-19
2.60186e-19
3.63415e-19
5.52472e-19
7.36831e-19
3.1508e-18
2.82616e-18
2.85435e-18
5.89589e-18
2.75969e-18
1.68502e-18
1.34062e-18
1.03326e-18
8.09782e-19
6.38645e-19
4.97497e-19
4.25442e-19
4.14946e-19
3.86026e-19
3.38049e-19
2.75758e-19
2.35694e-19
2.00613e-19
1.88443e-19
1.61422e-19
1.50791e-19
1.3521e-19
1.24117e-19
1.00519e-19
1.04702e-19
7.81717e-20
8.41264e-20
6.68795e-20
6.79734e-20
5.58621e-20
5.53112e-20
4.33359e-20
4.71164e-20
3.32697e-20
3.97339e-20
2.90265e-20
2.89816e-20
3.39232e-20
1.42022e-20
3.8211e-20
1.45547e-20
2.12757e-20
3.79743e-20
1.18288e-21
5.12432e-20
1.84894e-20
3.20514e-20
6.4446e-20
2.32232e-20
7.82947e-20
7.07741e-20
6.65512e-20
1.23509e-19
1.13986e-19
1.47925e-19
2.17328e-19
2.49912e-19
3.49761e-19
5.20346e-19
6.7467e-19
3.19354e-18
2.88272e-18
2.75069e-18
6.08879e-18
2.64714e-18
1.51407e-18
1.18647e-18
9.27048e-19
7.32314e-19
5.85068e-19
4.62111e-19
3.98847e-19
3.91828e-19
3.66371e-19
3.22862e-19
2.64693e-19
2.27423e-19
1.94136e-19
1.82964e-19
1.56918e-19
1.46789e-19
1.31735e-19
1.21505e-19
9.82651e-20
1.02496e-19
7.66461e-20
8.24374e-20
6.58674e-20
6.68108e-20
5.51981e-20
5.45099e-20
4.29242e-20
4.6594e-20
3.2996e-20
3.92739e-20
2.89685e-20
2.84259e-20
3.39682e-20
1.39435e-20
3.8002e-20
1.49012e-20
2.0761e-20
3.85648e-20
9.44374e-22
5.09769e-20
1.91038e-20
3.09939e-20
6.48361e-20
2.25314e-20
7.73255e-20
7.03517e-20
6.46335e-20
1.21445e-19
1.11075e-19
1.42039e-19
2.10088e-19
2.35904e-19
3.31126e-19
4.80042e-19
6.10928e-19
3.15181e-18
2.80728e-18
2.61991e-18
6.03305e-18
2.54825e-18
1.35351e-18
1.04826e-18
8.27057e-19
6.59762e-19
5.33954e-19
4.2839e-19
3.73394e-19
3.69373e-19
3.47093e-19
3.07896e-19
2.53739e-19
2.19205e-19
1.87682e-19
1.77433e-19
1.5237e-19
1.42707e-19
1.28175e-19
1.18873e-19
9.60089e-20
1.00229e-19
7.51777e-20
8.06553e-20
6.48359e-20
6.55677e-20
5.44653e-20
5.36295e-20
4.24872e-20
4.59816e-20
3.27235e-20
3.87245e-20
2.89051e-20
2.77865e-20
3.39191e-20
1.37005e-20
3.75559e-20
1.52955e-20
2.00398e-20
3.9012e-20
6.83726e-22
5.02716e-20
1.96957e-20
2.94771e-20
6.48068e-20
2.15047e-20
7.55023e-20
6.93325e-20
6.1668e-20
1.1813e-19
1.06796e-19
1.34178e-19
2.00567e-19
2.18995e-19
3.08431e-19
4.34422e-19
5.46751e-19
3.01622e-18
2.5964e-18
2.45057e-18
5.72956e-18
2.45001e-18
1.19768e-18
9.27301e-19
7.34845e-19
5.93376e-19
4.86195e-19
3.96822e-19
3.49516e-19
3.47987e-19
3.28569e-19
2.93431e-19
2.43121e-19
2.11199e-19
1.81393e-19
1.71977e-19
1.4789e-19
1.38642e-19
1.246e-19
1.16251e-19
9.37989e-20
9.79344e-20
7.38004e-20
7.88323e-20
6.38135e-20
6.42859e-20
5.36829e-20
5.26907e-20
4.20313e-20
4.52868e-20
3.24594e-20
3.80986e-20
2.88318e-20
2.70877e-20
3.37693e-20
1.34848e-20
3.6881e-20
1.57171e-20
1.91502e-20
3.9278e-20
4.32559e-22
4.91582e-20
2.02493e-20
2.75858e-20
6.43575e-20
2.0238e-20
7.29295e-20
6.78366e-20
5.78851e-20
1.13813e-19
1.01515e-19
1.24911e-19
1.89439e-19
2.00409e-19
2.83223e-19
3.87357e-19
4.83951e-19
2.79709e-18
2.28245e-18
2.23903e-18
5.22516e-18
2.33959e-18
1.04567e-18
8.22737e-19
6.51274e-19
5.33669e-19
4.42312e-19
3.67635e-19
3.2743e-19
3.27949e-19
3.1103e-19
2.79646e-19
2.32975e-19
2.03499e-19
1.75359e-19
1.66686e-19
1.43557e-19
1.34665e-19
1.21077e-19
1.13663e-19
9.16702e-20
9.56406e-20
7.25263e-20
7.70109e-20
6.28201e-20
6.29983e-20
5.28745e-20
5.17177e-20
4.15655e-20
4.4524e-20
3.22092e-20
3.74139e-20
2.8746e-20
2.63594e-20
3.35232e-20
1.33063e-20
3.60152e-20
1.61457e-20
1.81485e-20
3.93511e-20
2.23914e-22
4.77006e-20
2.07661e-20
2.54425e-20
6.35475e-20
1.88533e-20
6.97621e-20
6.60311e-20
5.35724e-20
1.08815e-19
9.5671e-20
1.14879e-19
1.77472e-19
1.81424e-19
2.57171e-19
3.42079e-19
4.24178e-19
2.51526e-18
1.91357e-18
1.99168e-18
4.5933e-18
2.20817e-18
9.00468e-19
7.32373e-19
5.76656e-19
4.80634e-19
4.02511e-19
3.40851e-19
3.07183e-19
3.09354e-19
2.94603e-19
2.66644e-19
2.23365e-19
1.96154e-19
1.69632e-19
1.61618e-19
1.39416e-19
1.3083e-19
1.17661e-19
1.11127e-19
8.96478e-20
9.33713e-20
7.13541e-20
7.52214e-20
6.18682e-20
6.17322e-20
5.20653e-20
5.07318e-20
4.11005e-20
4.37128e-20
3.19755e-20
3.6693e-20
2.86484e-20
2.56307e-20
3.31982e-20
1.31717e-20
3.50115e-20
1.65665e-20
1.70964e-20
3.92369e-20
8.54055e-23
4.60027e-20
2.12573e-20
2.31711e-20