/*--------------------------------*- C++ -*----------------------------------*\
| =========                 |                                                 |
| \\      /  F ield         | OpenFOAM: The Open Source CFD Toolbox           |
|  \\    /   O peration     | Version:  2312                                  |
|   \\  /    A nd           | Website:  www.openfoam.com                      |
|    \\/     M anipulation  |                                                 |
\*---------------------------------------------------------------------------*/
FoamFile
{
    version     2.0;
    format      ascii;
    arch        "LSB;label=32;scalar=64";
    class       volScalarField;
    location    "560";
    object      pPrime2Mean;
}
// * * * * * * * * * * * * * * * * * * * * * * * * * * * * * * * * * * * * * //

dimensions      [0 4 -4 0 0 0 0];

internalField   nonuniform List<scalar> 
144000
(
4.51712e-18
5.51216e-18
5.12464e-18
4.15321e-18
2.97537e-18
2.12928e-18
1.59455e-18
1.18202e-18
8.78544e-19
7.22284e-19
6.73875e-19
6.09179e-19
5.19151e-19
4.15713e-19
3.47159e-19
2.91938e-19
2.67688e-19
2.29376e-19
2.13115e-19
1.89265e-19
1.70544e-19
1.4088e-19
1.42499e-19
1.07335e-19
1.13366e-19
8.90685e-20
9.00452e-20
7.29682e-20
7.21657e-20
5.6659e-20
5.96444e-20
4.3555e-20
4.97512e-20
3.59802e-20
3.81638e-20
3.77315e-20
2.0662e-20
4.21277e-20
1.47225e-20
2.72487e-20
3.47039e-20
3.98683e-21
5.3403e-20
1.30327e-20
3.89555e-20
5.88295e-20
2.31417e-20
8.05681e-20
6.28791e-20
6.72443e-20
1.21496e-19
1.0661e-19
1.55898e-19
2.24869e-19
2.80618e-19
4.16762e-19
6.70073e-19
1.19479e-18
2.82696e-18
3.02316e-18
4.73813e-18
5.63969e-18
5.26042e-18
4.25426e-18
3.02223e-18
2.15658e-18
1.61247e-18
1.1935e-18
8.84917e-19
7.26098e-19
6.77064e-19
6.11995e-19
5.21196e-19
4.17055e-19
3.48072e-19
2.92654e-19
2.6836e-19
2.29925e-19
2.13496e-19
1.89764e-19
1.70948e-19
1.41041e-19
1.42835e-19
1.07607e-19
1.13493e-19
8.93569e-20
9.01757e-20
7.3186e-20
7.23216e-20
5.67942e-20
5.98438e-20
4.36506e-20
4.9944e-20
3.61662e-20
3.82156e-20
3.82152e-20
2.05216e-20
4.2696e-20
1.49802e-20
2.72439e-20
3.57645e-20
3.69126e-21
5.44657e-20
1.3765e-20
3.91437e-20
6.09208e-20
2.35755e-20
8.25106e-20
6.54783e-20
6.90166e-20
1.25759e-19
1.11114e-19
1.61552e-19
2.34306e-19
2.92651e-19
4.34571e-19
6.99777e-19
1.23928e-18
2.95419e-18
3.09911e-18
4.89523e-18
5.73995e-18
5.30905e-18
4.28331e-18
3.0316e-18
2.16455e-18
1.62115e-18
1.20056e-18
8.89213e-19
7.28807e-19
6.79932e-19
6.14722e-19
5.2325e-19
4.18295e-19
3.48965e-19
2.93326e-19
2.692e-19
2.30495e-19
2.13946e-19
1.90357e-19
1.71477e-19
1.41137e-19
1.43391e-19
1.07822e-19
1.138e-19
8.965e-20
9.04452e-20
7.34341e-20
7.26221e-20
5.69379e-20
6.02288e-20
4.37469e-20
5.03225e-20
3.64304e-20
3.83677e-20
3.89808e-20
2.03436e-20
4.36746e-20
1.53625e-20
2.74059e-20
3.74129e-20
3.35506e-21
5.62666e-20
1.48886e-20
3.97498e-20
6.41157e-20
2.45108e-20
8.56978e-20
6.9555e-20
7.20501e-20
1.32361e-19
1.18058e-19
1.70059e-19
2.47701e-19
3.0896e-19
4.56227e-19
7.32235e-19
1.28623e-18
3.07643e-18
3.17535e-18
4.8586e-18
5.67164e-18
5.20469e-18
4.17654e-18
2.97545e-18
2.13405e-18
1.60682e-18
1.19395e-18
8.85319e-19
7.26399e-19
6.79223e-19
6.14845e-19
5.23394e-19
4.18247e-19
3.48922e-19
2.93317e-19
2.69561e-19
2.3066e-19
2.14017e-19
1.90716e-19
1.71836e-19
1.41036e-19
1.43834e-19
1.07953e-19
1.14031e-19
8.99227e-20
9.06967e-20
7.36835e-20
7.29176e-20
5.70877e-20
6.06484e-20
4.38416e-20
5.07612e-20
3.6731e-20
3.8535e-20
3.98905e-20
2.01302e-20
4.48506e-20
1.58323e-20
2.76168e-20
3.93751e-20
3.0124e-21
5.83691e-20
1.6298e-20
4.046e-20
6.78578e-20
2.57006e-20
8.93292e-20
7.43426e-20
7.55064e-20
1.39675e-19
1.25825e-19
1.7888e-19
2.61435e-19
3.24427e-19
4.74151e-19
7.54879e-19
1.29668e-18
3.14288e-18
3.15397e-18
4.64294e-18
5.50657e-18
4.97054e-18
3.93967e-18
2.85857e-18
2.06414e-18
1.56677e-18
1.17067e-18
8.70602e-19
7.16402e-19
6.72492e-19
6.10182e-19
5.20093e-19
4.15879e-19
3.47207e-19
2.92046e-19
2.6888e-19
2.29995e-19
2.13345e-19
1.90458e-19
1.71725e-19
1.40579e-19
1.43901e-19
1.0787e-19
1.14057e-19
9.00447e-20
9.083e-20
7.38461e-20
7.31204e-20
5.71816e-20
6.1017e-20
4.38972e-20
5.11704e-20
3.7012e-20
3.86563e-20
4.08088e-20
1.98907e-20
4.60098e-20
1.63352e-20
2.77973e-20
4.13499e-20
2.70745e-21
6.03653e-20
1.78133e-20
4.1074e-20
7.1525e-20
2.69463e-20
9.2641e-20
7.90358e-20
7.86951e-20
1.4628e-19
1.32997e-19
1.86126e-19
2.72549e-19
3.36002e-19
4.84466e-19
7.66337e-19
1.27083e-18
3.17589e-18
3.07468e-18
4.37825e-18
5.43014e-18
4.68453e-18
3.63234e-18
2.70571e-18
1.96917e-18
1.50625e-18
1.13284e-18
8.45993e-19
6.98948e-19
6.59342e-19
6.00184e-19
5.12795e-19
4.10721e-19
3.43482e-19
2.8923e-19
2.66891e-19
2.28274e-19
2.11736e-19
1.89352e-19
1.70937e-19
1.39648e-19
1.43433e-19
1.07443e-19
1.13792e-19
8.9919e-20
9.07763e-20
7.38595e-20
7.31658e-20
5.71745e-20
6.12648e-20
4.38744e-20
5.14772e-20
3.72267e-20
3.86835e-20
4.16305e-20
1.96258e-20
4.70349e-20
1.68109e-20
2.79188e-20
4.31219e-20
2.46099e-21
6.20327e-20
1.92499e-20
4.15226e-20
7.46434e-20
2.81011e-20
9.52862e-20
8.30227e-20
8.13474e-20
1.51399e-19
1.38851e-19
1.91318e-19
2.80402e-19
3.43274e-19
4.88598e-19
7.69161e-19
1.22179e-18
3.227e-18
3.02585e-18
4.12317e-18
5.54943e-18
4.39205e-18
3.29931e-18
2.52908e-18
1.85625e-18
1.42971e-18
1.08332e-18
8.13183e-19
6.75206e-19
6.40502e-19
5.85218e-19
5.01662e-19
4.02858e-19
3.37793e-19
2.8491e-19
2.63588e-19
2.25477e-19
2.09191e-19
1.87349e-19
1.69424e-19
1.382e-19
1.42365e-19
1.06595e-19
1.13179e-19
8.95063e-20
9.04684e-20
7.36955e-20
7.30124e-20
5.70406e-20
6.13477e-20
4.3757e-20
5.16344e-20
3.73507e-20
3.85929e-20
4.22961e-20
1.93372e-20
4.78472e-20
1.72169e-20
2.79882e-20
4.45901e-20
2.27011e-21
6.33235e-20
2.04838e-20
4.18322e-20
7.70844e-20
2.90573e-20
9.72655e-20
8.60743e-20
8.34547e-20
1.55037e-19
1.43189e-19
1.94652e-19
2.85156e-19
3.46583e-19
4.8822e-19
7.64778e-19
1.15859e-18
3.3139e-18
3.06903e-18
3.89725e-18
5.88649e-18
4.11199e-18
2.97062e-18
2.33357e-18
1.72936e-18
1.34046e-18
1.02437e-18
7.73887e-19
6.46472e-19
6.17026e-19
5.66177e-19
4.87307e-19
3.92636e-19
3.30367e-19
2.79239e-19
2.59103e-19
2.21729e-19
2.05833e-19
1.84545e-19
1.67255e-19
1.36267e-19
1.40733e-19
1.05336e-19
1.12197e-19
8.88149e-20
8.9886e-20
7.33564e-20
7.26512e-20
5.67801e-20
6.12529e-20
4.35499e-20
5.16248e-20
3.73864e-20
3.8379e-20
4.27931e-20
1.90315e-20
4.84514e-20
1.75518e-20
2.80067e-20
4.57891e-20
2.11248e-21
6.42875e-20
2.15086e-20
4.20354e-20
7.89443e-20
2.97721e-20
9.87993e-20
8.8263e-20
8.50876e-20
1.57539e-19
1.46175e-19
1.96453e-19
2.87419e-19
3.46312e-19
4.8462e-19
7.53464e-19
1.08784e-18
3.43129e-18
3.21089e-18
3.70541e-18
6.37369e-18
3.85359e-18
2.66858e-18
2.12525e-18
1.59296e-18
1.24224e-18
9.58728e-19
7.30169e-19
6.14217e-19
5.90252e-19
5.44105e-19
4.70518e-19
3.80583e-19
3.21539e-19
2.72452e-19
2.5363e-19
2.172e-19
2.01823e-19
1.81104e-19
1.64564e-19
1.33933e-19
1.38634e-19
1.0373e-19
1.10854e-19
8.78819e-20
8.90324e-20
7.28594e-20
7.20941e-20
5.64136e-20
6.09937e-20
4.32722e-20
5.14563e-20
3.7356e-20
3.80467e-20
4.31498e-20
1.87164e-20
4.88659e-20
1.78559e-20
2.79562e-20
4.68199e-20
1.95229e-21
6.50204e-20
2.23991e-20
4.2085e-20
8.04486e-20
3.01882e-20
9.99669e-20
8.97742e-20
8.61506e-20
1.59122e-19
1.47797e-19
1.96642e-19
2.87419e-19
3.4243e-19
4.77604e-19
7.34362e-19
1.01423e-18
3.55496e-18
3.40111e-18
3.54182e-18
6.88689e-18
3.62385e-18
2.40138e-18
1.91335e-18
1.45187e-18
1.13939e-18
8.89355e-19
6.84033e-19
5.79983e-19
5.61405e-19
5.20051e-19
4.5213e-19
3.67289e-19
3.11729e-19
2.64855e-19
2.47407e-19
2.12064e-19
1.97321e-19
1.77195e-19
1.61525e-19
1.31307e-19
1.36197e-19
1.01887e-19
1.09181e-19
8.67722e-20
8.79311e-20
7.22275e-20
7.13612e-20
5.59684e-20
6.05909e-20
4.29464e-20
5.11429e-20
3.72894e-20
3.75969e-20
4.33928e-20
1.83995e-20
4.90848e-20
1.81898e-20
2.77743e-20
4.77869e-20
1.7557e-21
6.54993e-20
2.32602e-20
4.18265e-20
8.17122e-20
3.02303e-20
1.00613e-19
9.0687e-20
8.6313e-20
1.59599e-19
1.47891e-19
1.94712e-19
2.84738e-19
3.34095e-19
4.65795e-19
7.04131e-19
9.38114e-19
3.64963e-18
3.5464e-18
3.38722e-18
7.2581e-18
3.42483e-18
2.16291e-18
1.70783e-18
1.31133e-18
1.03627e-18
8.19105e-19
6.37464e-19
5.45202e-19
5.31668e-19
4.95018e-19
4.32901e-19
3.53319e-19
3.01364e-19
2.56775e-19
2.40682e-19
2.06528e-19
1.92455e-19
1.72957e-19
1.58293e-19
1.28498e-19
1.33532e-19
9.99306e-20
1.07236e-19
8.55381e-20
8.66213e-20
7.14748e-20
7.048e-20
5.54687e-20
6.00608e-20
4.2593e-20
5.06946e-20
3.72067e-20
3.70294e-20
4.35385e-20
1.80869e-20
4.90747e-20
1.86049e-20
2.73839e-20
4.8729e-20
1.50277e-21
6.56162e-20
2.41494e-20
4.10897e-20
8.26593e-20
2.98202e-20
1.00426e-19
9.09132e-20
8.52351e-20
1.58626e-19
1.46108e-19
1.89995e-19
2.78782e-19
3.20758e-19
4.47909e-19
6.62088e-19
8.58912e-19
3.67123e-18
3.56501e-18
3.22039e-18
7.37203e-18
3.25174e-18
1.94369e-18
1.51645e-18
1.17577e-18
9.36519e-19
7.50311e-19
5.91993e-19
5.11041e-19
5.02019e-19
4.69816e-19
4.13453e-19
3.39147e-19
2.90796e-19
2.4849e-19
2.33689e-19
2.00765e-19
1.87355e-19
1.68506e-19
1.54971e-19
1.25606e-19
1.30726e-19
9.79696e-20
1.0509e-19
8.42341e-20
8.51498e-20
7.06155e-20
6.94729e-20
5.49299e-20
5.9411e-20
4.22283e-20
5.01257e-20
3.7118e-20
3.63411e-20
4.35808e-20
1.77877e-20
4.87851e-20
1.91111e-20
2.67266e-20
4.96196e-20
1.19601e-21
6.52618e-20
2.50558e-20
3.97388e-20
8.31624e-20
2.893e-20
9.91868e-20
9.03706e-20
8.27671e-20
1.55977e-19
1.42352e-19
1.82407e-19
2.69443e-19
3.02642e-19
4.23759e-19
6.10082e-19
7.77335e-19
3.59336e-18
3.41439e-18
3.02057e-18
7.17569e-18
3.09127e-18
1.73388e-18
1.3437e-18
1.0484e-18
8.43014e-19
6.84679e-19
5.48674e-19
4.78353e-19
4.73227e-19
4.45099e-19
3.94301e-19
3.25115e-19
2.80297e-19
2.40232e-19
2.26634e-19
1.94941e-19
1.82155e-19
1.63947e-19
1.51624e-19
1.22712e-19
1.27842e-19
9.60824e-20
1.02825e-19
8.29053e-20
8.35767e-20
6.96678e-20
6.83649e-20
5.43587e-20
5.86461e-20
4.18649e-20
4.94431e-20
3.70217e-20
3.5547e-20
4.35018e-20
1.75114e-20
4.81855e-20
1.96898e-20
2.58178e-20
5.04646e-20
8.58172e-22
6.44095e-20
2.59417e-20
3.78052e-20
8.31317e-20
2.76097e-20
9.68511e-20
8.90634e-20
7.89589e-20
1.51723e-19
1.36849e-19
1.72286e-19
2.5721e-19
2.80846e-19
3.94593e-19
5.51813e-19
6.94936e-19
3.40838e-18
3.10053e-18
2.77779e-18
6.68792e-18
2.92904e-18
1.52857e-18
1.19097e-18
9.31304e-19
7.57379e-19
6.23352e-19
5.0814e-19
4.47695e-19
4.4582e-19
4.21354e-19
3.75795e-19
3.11516e-19
2.70079e-19
2.3219e-19
2.19677e-19
1.89208e-19
1.76977e-19
1.59369e-19
1.48293e-19
1.19877e-19
1.24924e-19
9.43131e-20
1.00509e-19
8.15884e-20
8.19545e-20
6.86569e-20
6.71825e-20
5.37638e-20
5.77755e-20
4.15125e-20
4.8661e-20
3.69134e-20
3.46743e-20
4.32942e-20
1.7268e-20
4.7293e-20
2.031e-20
2.47011e-20
5.13317e-20
5.26168e-22
6.31803e-20
2.67869e-20
3.53973e-20
8.25627e-20
2.59815e-20
9.35558e-20
8.71453e-20
7.41061e-20
1.46185e-19
1.30072e-19
1.60372e-19
2.42954e-19
2.56957e-19
3.62404e-19
4.92158e-19
6.14173e-19
3.13221e-18
2.67207e-18
2.49211e-18
5.98138e-18
2.75206e-18
1.32875e-18
1.05723e-18
8.25545e-19
6.80295e-19
5.66992e-19
4.70685e-19
4.19345e-19
4.20139e-19
3.98878e-19
3.58164e-19
2.98529e-19
2.60253e-19
2.24475e-19
2.12935e-19
1.83662e-19
1.71914e-19
1.54857e-19
1.45007e-19
1.17148e-19
1.22009e-19
9.26771e-20
9.81955e-20
8.03094e-20
8.03248e-20
6.76133e-20
6.59556e-20
5.31573e-20
5.68168e-20
4.11792e-20
4.78019e-20
3.6791e-20
3.37608e-20
4.29659e-20
1.70715e-20
4.61516e-20
2.09554e-20
2.34147e-20
5.24391e-20
2.47465e-22
6.1888e-20
2.76046e-20
3.26596e-20
8.15336e-20
2.42037e-20
8.94969e-20
8.48305e-20
6.85783e-20
1.39773e-19
1.22588e-19
1.47484e-19
2.27657e-19
2.32614e-19
3.29291e-19
4.35087e-19
5.37299e-19
2.79244e-18
2.19375e-18
2.1754e-18
5.15556e-18
2.55293e-18
1.13973e-18
9.4007e-19
7.31442e-19
6.11791e-19
5.15857e-19
4.36338e-19
3.93364e-19
3.96315e-19
3.77831e-19
3.41544e-19
2.86233e-19
2.50884e-19
2.17154e-19
2.0648e-19
1.78365e-19
1.67033e-19
1.50482e-19
1.41789e-19
1.14557e-19
1.19124e-19
9.11729e-20
9.59231e-20
7.90843e-20
7.87225e-20
6.65696e-20
6.47116e-20
5.25529e-20
5.57952e-20
4.08685e-20
4.68948e-20
3.66545e-20
3.28456e-20
4.25348e-20
1.69349e-20
4.48241e-20
2.16101e-20
2.20006e-20
5.41411e-20
6.77295e-23
6.10613e-20
2.84221e-20
2.97418e-20
8.01574e-20
2.24266e-20
8.49358e-20
8.23357e-20
6.27326e-20
1.32894e-19
1.14908e-19
1.34362e-19
2.12163e-19
2.09156e-19
2.96996e-19
3.83201e-19
4.65806e-19
2.42461e-18
1.73126e-18
1.84633e-18
4.30434e-18
2.32878e-18
9.67542e-19
8.36594e-19
6.487e-19
5.51398e-19
4.69886e-19
4.04961e-19
3.6966e-19
3.74356e-19
3.58271e-19
3.25978e-19
2.74664e-19
2.42002e-19
2.10262e-19
2.00349e-19
1.73349e-19
1.62373e-19
1.46296e-19
1.38657e-19
1.12122e-19
1.16295e-19
8.97908e-20
9.3715e-20
7.79217e-20
7.71726e-20
6.55506e-20
6.34752e-20
5.19642e-20
5.47383e-20
4.05828e-20
4.59667e-20
3.65094e-20
3.1954e-20
4.20336e-20
1.68452e-20
4.34064e-20
2.21926e-20
2.0619e-20
5.50022e-20
8.83713e-28
5.97546e-20
2.91e-20
2.67958e-20
7.85329e-20
2.07689e-20
8.00934e-20
7.98331e-20
5.68614e-20
1.2588e-19
1.07424e-19
1.21556e-19
1.9714e-19
1.87418e-19
2.6662e-19
3.3774e-19
4.00618e-19
2.06021e-18
1.3284e-18
1.52942e-18
3.50322e-18
2.0841e-18
8.17171e-19
7.44256e-19
5.76642e-19
4.98402e-19
4.28843e-19
3.76346e-19
3.48064e-19
3.54195e-19
3.40183e-19
3.11462e-19
2.63816e-19
2.33608e-19
2.03799e-19
1.94556e-19
1.68623e-19
1.57953e-19
1.42332e-19
1.35621e-19
1.09853e-19
1.13549e-19
8.85189e-20
9.15923e-20
7.68245e-20
7.56893e-20
6.45745e-20
6.22657e-20
5.14024e-20
5.36721e-20
4.03233e-20
4.50409e-20
3.63638e-20
3.11016e-20
4.14969e-20
1.67841e-20
4.19826e-20
2.26301e-20
1.93999e-20
5.30253e-20
6.15846e-23
5.62336e-20
2.95239e-20
2.39388e-20
7.67522e-20
1.93127e-20
7.51409e-20
7.74391e-20
5.11791e-20
1.18955e-19
1.00396e-19
1.09432e-19
1.82973e-19
1.67894e-19
2.38744e-19
2.98763e-19
3.42432e-19
1.72534e-18
1.0103e-18
1.24775e-18
2.80249e-18
1.8282e-18
6.91345e-19
6.61194e-19
5.14327e-19
4.5203e-19
3.92407e-19
3.50264e-19
3.28371e-19
3.35714e-19
3.23504e-19
2.97959e-19
2.53674e-19
2.25685e-19
1.97753e-19
1.89097e-19
1.64183e-19
1.53774e-19
1.38608e-19
1.32689e-19
1.07751e-19
1.109e-19
8.7345e-20
8.95611e-20
7.57919e-20
7.42801e-20
6.36528e-20
6.1098e-20
5.08745e-20
5.26194e-20
4.00887e-20
4.41385e-20
3.62211e-20
3.03058e-20
4.09423e-20
1.67673e-20
4.0571e-20
2.29934e-20
1.82774e-20
5.04579e-20
2.48212e-22
5.23799e-20
2.98925e-20
2.12242e-20
7.48852e-20
1.81044e-20
7.02072e-20
7.52214e-20
4.58275e-20
1.12275e-19
9.39677e-20
9.81966e-20
1.6985e-19
1.50728e-19
2.13524e-19
2.65753e-19
2.9163e-19
1.43653e-18
7.83583e-19
1.02005e-18
2.22524e-18
1.57329e-18
5.89565e-19
5.86288e-19
4.60706e-19
4.11508e-19
3.60196e-19
3.2649e-19
3.10363e-19
3.18772e-19
3.08147e-19
2.85411e-19
2.4419e-19
2.18202e-19
1.92101e-19
1.83961e-19
1.60013e-19
1.49828e-19
1.35127e-19
1.29865e-19
1.05809e-19
1.0836e-19
8.62582e-20
8.76249e-20
7.4822e-20
7.29484e-20
6.27912e-20
5.99829e-20
5.03842e-20
5.15971e-20
3.98775e-20
4.32748e-20
3.60845e-20
2.95771e-20
4.03841e-20
1.68068e-20
3.91836e-20
2.33552e-20
1.71977e-20
4.86617e-20
6.08772e-22
4.93409e-20
3.03351e-20
1.86908e-20
7.29748e-20
1.71699e-20
6.53814e-20
7.32114e-20
4.08911e-20
1.05897e-19
8.81989e-20
8.79281e-20
1.57813e-19
1.35833e-19
1.90796e-19
2.37859e-19
2.48308e-19
1.20136e-18
6.39985e-19
8.56729e-19
1.77107e-18
1.33072e-18
5.08844e-19
5.18949e-19
4.14635e-19
3.76134e-19
3.31795e-19
3.04816e-19
2.93833e-19
3.03212e-19
2.94011e-19
2.73749e-19
2.35312e-19
2.11127e-19
1.86816e-19
1.79135e-19
1.56098e-19
1.46103e-19
1.31883e-19
1.2715e-19
1.04015e-19
1.05936e-19
8.52485e-20
8.57837e-20
7.3912e-20
7.16944e-20
6.19922e-20
5.89266e-20
4.9933e-20
5.06158e-20
3.9689e-20
4.24593e-20
3.59583e-20
2.89156e-20
3.98383e-20
1.68915e-20
3.78522e-20
2.37113e-20
1.62001e-20
4.73346e-20
1.09454e-21
4.67292e-20
3.08308e-20
1.6383e-20
7.10507e-20
1.65061e-20
6.07241e-20
7.14096e-20
3.6411e-20
9.98631e-20
8.30951e-20
7.86259e-20
1.46824e-19
1.22977e-19
1.70342e-19
2.14169e-19
2.1231e-19
1.01863e-18
5.62309e-19
7.61689e-19
1.42562e-18
1.1103e-18
4.44496e-19
4.58876e-19
3.75053e-19
3.45278e-19
3.06802e-19
2.85058e-19
2.78593e-19
2.88886e-19
2.80995e-19
2.62905e-19
2.26988e-19
2.04427e-19
1.8187e-19
1.74596e-19
1.52415e-19
1.42582e-19
1.28867e-19
1.24543e-19
1.02359e-19
1.03631e-19
8.4307e-20
8.40359e-20
7.30577e-20
7.05163e-20
6.12548e-20
5.79331e-20
4.952e-20
4.96819e-20
3.95215e-20
4.16979e-20
3.58438e-20
2.83217e-20
3.93124e-20
1.70164e-20
3.65911e-20
2.40524e-20
1.53202e-20
4.62409e-20
1.65464e-21
4.43488e-20
3.13547e-20
1.43169e-20
6.91347e-20
1.60975e-20
5.62739e-20
6.9801e-20
3.24016e-20
9.41784e-20
7.86163e-20
7.02423e-20
1.36799e-19
1.11904e-19
1.51848e-19
1.93925e-19
1.83174e-19
8.82171e-19
5.29752e-19
7.32552e-19
1.16563e-18
9.19817e-19
3.91349e-19
4.0586e-19
3.40969e-19
3.18395e-19
2.84836e-19
2.67063e-19
2.64487e-19
2.75657e-19
2.69e-19
2.52813e-19
2.19169e-19
1.98071e-19
1.77235e-19
1.70327e-19
1.48948e-19
1.3925e-19
1.26062e-19
1.22042e-19
1.00827e-19
1.01445e-19
8.34256e-20
8.23785e-20
7.22545e-20
6.94116e-20
6.05768e-20
5.70047e-20
4.91435e-20
4.87997e-20
3.93729e-20
4.09943e-20
3.57406e-20
2.7796e-20
3.88091e-20
1.71808e-20
3.54006e-20
2.43825e-20
1.45636e-20
4.52626e-20
2.27216e-21
4.21371e-20
3.19079e-20
1.24889e-20
6.72393e-20
1.59231e-20
5.20551e-20
6.83611e-20
2.88578e-20
8.88269e-20
7.47108e-20
6.27058e-20
1.27649e-19
1.02367e-19
1.35062e-19
1.76442e-19
1.60236e-19
7.8275e-19
5.21743e-19
7.62382e-19
9.66377e-19
7.64251e-19
3.44812e-19
3.59655e-19
3.11571e-19
2.95026e-19
2.65552e-19
2.50695e-19
2.51384e-19
2.63401e-19
2.57932e-19
2.43411e-19
2.11806e-19
1.92028e-19
1.72882e-19
1.66307e-19
1.45677e-19
1.36093e-19
1.23453e-19
1.19642e-19
9.94057e-20
9.93773e-20
8.25969e-20
8.08075e-20
7.14979e-20
6.83767e-20
5.99551e-20
5.61421e-20
4.88015e-20
4.79699e-20
3.92412e-20
4.03496e-20
3.5648e-20
2.73374e-20
3.83306e-20
1.73823e-20
3.42821e-20
2.47066e-20
1.39231e-20
4.43347e-20
2.94159e-21
4.00689e-20
3.24858e-20
1.08932e-20
6.53724e-20
1.59564e-20
4.80861e-20
6.70612e-20
2.57643e-20
8.37897e-20
7.13184e-20
5.59467e-20
1.19274e-19
9.41463e-20
1.19754e-19
1.61211e-19
1.42893e-19
7.10246e-19
5.19668e-19
8.40583e-19
8.04066e-19
6.45285e-19
3.01457e-19
3.19786e-19
2.86187e-19
2.74787e-19
2.48654e-19
2.35835e-19
2.39177e-19
2.52008e-19
2.47705e-19
2.3464e-19
2.04854e-19
1.86269e-19
1.68785e-19
1.62517e-19
1.42585e-19
1.33095e-19
1.21025e-19
1.17339e-19
9.8085e-20
9.74231e-20
8.18157e-20
7.93175e-20
7.07839e-20
6.74078e-20
5.93873e-20
5.53452e-20
4.84918e-20
4.71922e-20
3.9125e-20
3.97639e-20
3.55656e-20
2.69441e-20
3.78788e-20
1.76164e-20
3.32389e-20
2.50251e-20
1.33917e-20
4.34457e-20
3.6571e-21
3.81345e-20
3.30778e-20
9.52234e-21
6.35475e-20
1.61699e-20
4.43813e-20
6.58814e-20
2.30997e-20
7.90596e-20
6.83839e-20
4.99077e-20
1.11609e-19
8.70795e-20
1.05753e-19
1.47837e-19
1.30597e-19
6.54321e-19
5.08668e-19
4.52524e-18
5.53153e-18
5.14449e-18
4.16487e-18
2.9826e-18
2.13317e-18
1.59764e-18
1.18473e-18
8.80671e-19
7.23668e-19
6.74649e-19
6.09578e-19
5.19301e-19
4.15725e-19
3.47073e-19
2.91841e-19
2.67589e-19
2.29346e-19
2.13117e-19
1.89277e-19
1.70571e-19
1.40907e-19
1.42548e-19
1.07348e-19
1.13407e-19
8.90728e-20
9.00819e-20
7.29774e-20
7.22103e-20
5.66506e-20
5.96782e-20
4.35368e-20
4.97643e-20
3.59623e-20
3.81693e-20
3.77213e-20
2.06721e-20
4.2124e-20
1.47399e-20
2.72467e-20
3.47376e-20
3.979e-21
5.34128e-20
1.30113e-20
3.89911e-20
5.88962e-20
2.31286e-20
8.0662e-20
6.28859e-20
6.73429e-20
1.21537e-19
1.06715e-19
1.55811e-19
2.24924e-19
2.80346e-19
4.16455e-19
6.69422e-19
1.19303e-18
2.84019e-18
3.03189e-18
4.74595e-18
5.66018e-18
5.28039e-18
4.26662e-18
3.02944e-18
2.16047e-18
1.61559e-18
1.1962e-18
8.87045e-19
7.27477e-19
6.77829e-19
6.12388e-19
5.21341e-19
4.1706e-19
3.47981e-19
2.9255e-19
2.68258e-19
2.29892e-19
2.13498e-19
1.89774e-19
1.70974e-19
1.41068e-19
1.42884e-19
1.0762e-19
1.13533e-19
8.93607e-20
9.02126e-20
7.31959e-20
7.23665e-20
5.67862e-20
5.98776e-20
4.36329e-20
4.99565e-20
3.61494e-20
3.82204e-20
3.82062e-20
2.05308e-20
4.26929e-20
1.49971e-20
2.72421e-20
3.58001e-20
3.68335e-21
5.44774e-20
1.37427e-20
3.91803e-20
6.09908e-20
2.35632e-20
8.26065e-20
6.54876e-20
6.91151e-20
1.25803e-19
1.11218e-19
1.61456e-19
2.34349e-19
2.92363e-19
4.34245e-19
6.98982e-19
1.23748e-18
2.96761e-18
3.10784e-18
4.90547e-18
5.76116e-18
5.32878e-18
4.29576e-18
3.03855e-18
2.16813e-18
1.62409e-18
1.20322e-18
8.91313e-19
7.30177e-19
6.8069e-19
6.151e-19
5.23386e-19
4.18291e-19
3.48864e-19
2.93214e-19
2.69092e-19
2.30458e-19
2.13947e-19
1.90365e-19
1.71502e-19
1.41163e-19
1.4344e-19
1.07833e-19
1.1384e-19
8.9653e-20
9.04826e-20
7.34452e-20
7.26688e-20
5.69308e-20
6.02634e-20
4.37302e-20
5.03345e-20
3.64151e-20
3.83721e-20
3.89733e-20
2.03521e-20
4.36736e-20
1.53794e-20
2.74037e-20
3.74514e-20
3.34689e-21
5.62834e-20
1.48633e-20
3.97898e-20
6.4192e-20
2.45007e-20
8.57968e-20
6.95691e-20
7.21528e-20
1.32414e-19
1.18171e-19
1.69975e-19
2.47779e-19
3.0869e-19
4.55927e-19
7.31416e-19
1.28516e-18
3.08954e-18
3.18511e-18
4.86947e-18
5.69388e-18
5.22274e-18
4.18817e-18
2.98185e-18
2.13702e-18
1.60959e-18
1.19649e-18
8.87385e-19
7.27735e-19
6.79958e-19
6.15203e-19
5.23511e-19
4.1823e-19
3.4881e-19
2.93193e-19
2.69443e-19
2.30618e-19
2.14015e-19
1.90721e-19
1.7186e-19
1.41062e-19
1.43883e-19
1.07963e-19
1.14069e-19
8.99249e-20
9.07333e-20
7.36965e-20
7.2965e-20
5.70823e-20
6.06832e-20
4.38262e-20
5.07721e-20
3.67176e-20
3.85377e-20
3.98854e-20
2.01374e-20
4.48495e-20
1.58493e-20
2.76145e-20
3.94228e-20
3.00452e-21
5.83915e-20
1.62647e-20
4.05064e-20
6.79416e-20
2.56937e-20
8.94372e-20
7.43659e-20
7.5617e-20
1.39749e-19
1.25962e-19
1.7882e-19
2.61557e-19
3.24241e-19
4.73993e-19
7.5428e-19
1.29678e-18
3.15722e-18
3.16458e-18
4.65089e-18
5.52683e-18
4.98573e-18
3.94963e-18
2.864e-18
2.06697e-18
1.56918e-18
1.17304e-18
8.72572e-19
7.17698e-19
6.73188e-19
6.10522e-19
5.20185e-19
4.1584e-19
3.47081e-19
2.91905e-19
2.68749e-19
2.29943e-19
2.13338e-19
1.90459e-19
1.71744e-19
1.40605e-19
1.43948e-19
1.0788e-19
1.14093e-19
9.00462e-20
9.08637e-20
7.38618e-20
7.31682e-20
5.71793e-20
6.10508e-20
4.38846e-20
5.11786e-20
3.70017e-20
3.86572e-20
4.08062e-20
1.98949e-20
4.60114e-20
1.63519e-20
2.77937e-20
4.14046e-20
2.7008e-21
6.03953e-20
1.7765e-20
4.11291e-20
7.1619e-20
2.69449e-20
9.27573e-20
7.90695e-20
7.88217e-20
1.46382e-19
1.33166e-19
1.86121e-19
2.72748e-19
3.35928e-19
4.84518e-19
7.66094e-19
1.27103e-18
3.19166e-18
3.08497e-18
4.38726e-18
5.44592e-18
4.69703e-18
3.64053e-18
2.71001e-18
1.97155e-18
1.50838e-18
1.13505e-18
8.47941e-19
7.00235e-19
6.60008e-19
6.00487e-19
5.12863e-19
4.10665e-19
3.43342e-19
2.89074e-19
2.66745e-19
2.28214e-19
2.11721e-19
1.89348e-19
1.7095e-19
1.39672e-19
1.43478e-19
1.07453e-19
1.13825e-19
8.99209e-20
9.08051e-20
7.38785e-20
7.32132e-20
5.71765e-20
6.12972e-20
4.38652e-20
5.14807e-20
3.72206e-20
3.86799e-20
4.16325e-20
1.96269e-20
4.70387e-20
1.68266e-20
2.79139e-20
4.31871e-20
2.4569e-21
6.20717e-20
1.9178e-20
4.15873e-20
7.47472e-20
2.81066e-20
9.54095e-20
8.3068e-20
8.1491e-20
1.51523e-19
1.39053e-19
1.91356e-19
2.80676e-19
3.43286e-19
4.88852e-19
7.6917e-19
1.22246e-18
3.24334e-18
3.03438e-18
4.13183e-18
5.5597e-18
4.402e-18
3.30595e-18
2.53267e-18
1.85819e-18
1.43162e-18
1.08546e-18
8.15102e-19
6.76463e-19
6.41129e-19
5.85481e-19
5.01709e-19
4.02787e-19
3.3764e-19
2.8474e-19
2.63426e-19
2.25406e-19
2.0917e-19
1.8734e-19
1.69429e-19
1.38224e-19
1.42408e-19
1.06607e-19
1.13207e-19
8.95089e-20
9.04905e-20
7.37184e-20
7.3057e-20
5.70482e-20
6.13762e-20
4.37527e-20
5.16322e-20
3.735e-20
3.8583e-20
4.23043e-20
1.93328e-20
4.78527e-20
1.72295e-20
2.79786e-20
4.46658e-20
2.27004e-21
6.33721e-20
2.03781e-20
4.19072e-20
7.71978e-20
2.90699e-20
9.73931e-20
8.61308e-20
8.36126e-20
1.5518e-19
1.43421e-19
1.94723e-19
2.85503e-19
3.46643e-19
4.88646e-19
7.64941e-19
1.15951e-18
3.32999e-18
3.0753e-18
3.90528e-18
5.89164e-18
4.11951e-18
2.97597e-18
2.33658e-18
1.7309e-18
1.34216e-18
1.02646e-18
7.75787e-19
6.47701e-19
6.17641e-19
5.66412e-19
4.87336e-19
3.92551e-19
3.30203e-19
2.79058e-19
2.58926e-19
2.21649e-19
2.05804e-19
1.84532e-19
1.67251e-19
1.36291e-19
1.40772e-19
1.05351e-19
1.12219e-19
8.88192e-20
8.98999e-20
7.33835e-20
7.26914e-20
5.67946e-20
6.12754e-20
4.35521e-20
5.16141e-20
3.73928e-20
3.83609e-20
4.28073e-20
1.90183e-20
4.84615e-20
1.75578e-20
2.79911e-20
4.587e-20
2.11763e-21
6.43643e-20
2.13559e-20
4.21187e-20
7.90611e-20
2.97912e-20
9.89299e-20
8.83284e-20
8.52576e-20
1.57696e-19
1.46435e-19
1.96547e-19
2.87817e-19
3.46397e-19
4.85174e-19
7.53636e-19
1.08882e-18
3.44641e-18
3.21495e-18
3.71277e-18
6.37503e-18
3.85892e-18
2.67283e-18
2.12773e-18
1.59414e-18
1.24375e-18
9.60749e-19
7.32027e-19
6.1542e-19
5.90844e-19
5.44318e-19
4.70531e-19
3.80488e-19
3.21363e-19
2.72265e-19
2.5344e-19
2.17112e-19
2.01787e-19
1.81088e-19
1.6455e-19
1.33957e-19
1.38668e-19
1.0375e-19
1.10869e-19
8.78886e-20
8.90369e-20
7.28916e-20
7.21282e-20
5.6436e-20
6.10092e-20
4.32822e-20
5.14353e-20
3.73714e-20
3.80174e-20
4.31704e-20
1.86909e-20
4.88831e-20
1.78464e-20
2.79323e-20
4.68965e-20
1.96262e-21
6.51225e-20
2.2183e-20
4.21726e-20
8.05758e-20
3.02129e-20
1.00098e-19
8.98471e-20
8.63277e-20
1.59286e-19
1.48075e-19
1.9675e-19
2.87851e-19
3.42509e-19
4.78233e-19
7.34566e-19
1.01521e-18
3.56871e-18
3.40357e-18
3.54855e-18
6.88619e-18
3.62722e-18
2.40482e-18
1.91535e-18
1.45274e-18
1.14071e-18
8.91293e-19
6.85848e-19
5.81164e-19
5.6198e-19
5.20249e-19
4.5213e-19
3.67186e-19
3.11548e-19
2.64663e-19
2.47206e-19
2.11969e-19
1.97277e-19
1.77177e-19
1.61502e-19
1.31332e-19
1.36224e-19
1.01911e-19
1.09189e-19
8.67819e-20
8.79255e-20
7.22649e-20
7.1389e-20
5.59994e-20
6.05976e-20
4.2965e-20
5.11097e-20
3.73147e-20
3.75547e-20
4.34237e-20
1.83575e-20
4.91131e-20
1.81579e-20
2.77508e-20
4.7835e-20
1.77013e-21
6.56536e-20
2.29615e-20
4.1914e-20
8.18463e-20
3.02597e-20
1.00741e-19
9.07645e-20
8.64925e-20
1.59766e-19
1.48174e-19
1.94814e-19
2.85182e-19
3.34162e-19
4.66459e-19
7.04299e-19
9.39058e-19
3.6619e-18
3.54825e-18
3.39344e-18
7.25671e-18
3.42673e-18
2.16574e-18
1.70942e-18
1.31195e-18
1.03741e-18
8.20952e-19
6.39239e-19
5.46363e-19
5.3223e-19
4.95204e-19
4.32891e-19
3.5321e-19
3.01179e-19
2.56579e-19
2.40473e-19
2.06427e-19
1.92403e-19
1.72938e-19
1.58262e-19
1.28525e-19
1.33552e-19
9.99595e-20
1.07237e-19
8.55513e-20
8.66058e-20
7.15175e-20
7.04995e-20
5.55091e-20
6.00576e-20
4.26216e-20
5.0649e-20
3.72432e-20
3.69706e-20
4.35835e-20
1.80246e-20
4.91153e-20
1.85327e-20
2.73535e-20
4.8708e-20
1.51899e-21
6.58162e-20
2.37497e-20
4.11708e-20
8.27991e-20
2.98527e-20
1.00548e-19
9.09919e-20
8.54108e-20
1.5879e-19
1.46388e-19
1.90094e-19
2.79215e-19
3.20804e-19
4.48531e-19
6.62227e-19
8.59747e-19
3.68184e-18
3.56706e-18
3.22634e-18
7.37101e-18
3.25253e-18
1.94605e-18
1.5177e-18
1.17613e-18
9.37484e-19
7.52064e-19
5.93723e-19
5.12178e-19
5.0257e-19
4.69994e-19
4.13441e-19
3.39035e-19
2.90609e-19
2.48291e-19
2.33474e-19
2.00659e-19
1.87296e-19
1.68487e-19
1.54931e-19
1.25635e-19
1.3074e-19
9.80039e-20
1.05084e-19
8.42508e-20
8.51253e-20
7.06629e-20
6.94833e-20
5.4979e-20
5.93977e-20
4.22669e-20
5.00664e-20
3.71661e-20
3.6266e-20
4.364e-20
1.77002e-20
4.88452e-20
1.8984e-20
2.66911e-20
4.947e-20
1.21261e-21
6.54838e-20
2.45397e-20
3.98132e-20
8.33035e-20
2.89638e-20
9.92987e-20
9.04486e-20
8.29335e-20
1.56133e-19
1.42616e-19
1.82497e-19
2.69841e-19
3.02672e-19
4.24291e-19
6.10194e-19
7.7804e-19
3.60236e-18
3.41712e-18
3.02634e-18
7.17556e-18
3.09135e-18
1.73585e-18
1.34465e-18
1.0486e-18
8.43808e-19
6.86328e-19
5.50354e-19
4.79464e-19
4.73766e-19
4.45273e-19
3.94282e-19
3.25005e-19
2.80112e-19
2.40033e-19
2.26414e-19
1.94835e-19
1.82089e-19
1.63927e-19
1.51577e-19
1.22742e-19
1.2785e-19
9.61219e-20
1.02813e-19
8.29254e-20
8.35429e-20
6.97195e-20
6.83664e-20
5.44161e-20
5.86233e-20
4.19131e-20
4.93701e-20
3.70815e-20
3.54544e-20
4.35754e-20
1.73968e-20
4.827e-20
1.94972e-20
2.57632e-20
5.00473e-20
8.77743e-22
6.45874e-20
2.53009e-20
3.78654e-20
8.32688e-20
2.76445e-20
9.69522e-20
8.91382e-20
7.91107e-20
1.51868e-19
1.3709e-19
1.72367e-19
2.57554e-19
2.80862e-19
3.94996e-19
5.51908e-19
6.95501e-19
3.41587e-18
3.10391e-18
2.78342e-18
6.68874e-18
2.92878e-18
1.53017e-18
1.19168e-18
9.31371e-19
7.58011e-19
6.24891e-19
5.09763e-19
4.48776e-19
4.46339e-19
4.21522e-19
3.7577e-19
3.11409e-19
2.6989e-19
2.31989e-19
2.19454e-19
1.891e-19
1.76904e-19
1.5935e-19
1.48239e-19
1.19909e-19
1.24927e-19
9.4357e-20
1.00491e-19
8.16113e-20
8.19123e-20
6.87121e-20
6.71755e-20
5.38283e-20
5.7744e-20
4.15699e-20
4.85765e-20
3.69838e-20
3.45668e-20
4.33811e-20
1.71291e-20
4.74005e-20
2.00462e-20
2.46183e-20
5.03911e-20
5.55062e-22
6.31659e-20
2.60132e-20
3.54364e-20
8.26945e-20
2.60167e-20
9.36434e-20
8.72153e-20
7.42408e-20
1.46318e-19
1.30284e-19
1.60443e-19
2.43232e-19
2.56965e-19
3.62652e-19
4.92235e-19
6.14591e-19
3.13829e-18
2.67589e-18
2.49757e-18
5.98286e-18
2.75176e-18
1.32997e-18
1.05773e-18
8.25516e-19
6.80784e-19
5.68416e-19
4.72246e-19
4.20395e-19
4.20646e-19
3.99038e-19
3.58136e-19
2.98421e-19
2.60065e-19
2.24275e-19
2.1271e-19
1.83554e-19
1.71836e-19
1.54839e-19
1.44947e-19
1.17182e-19
1.22006e-19
9.27248e-20
9.81726e-20
8.03346e-20
8.02756e-20
6.76711e-20
6.59413e-20
5.32276e-20
5.67779e-20
4.12443e-20
4.77082e-20
3.68698e-20
3.36416e-20
4.30627e-20
1.69097e-20
4.62852e-20
2.06046e-20
2.33292e-20
5.04874e-20
2.87079e-22
6.13006e-20
2.66786e-20
3.26837e-20
8.16567e-20
2.42372e-20
8.9572e-20
8.48947e-20
6.86946e-20
1.39893e-19
1.22768e-19
1.47549e-19
2.27864e-19
2.32622e-19
3.29379e-19
4.3515e-19
5.37574e-19
2.7972e-18
2.19784e-18
2.18061e-18
5.15739e-18
2.55276e-18
1.14056e-18
9.40397e-19
7.31353e-19
6.12159e-19
5.17163e-19
4.37832e-19
3.94381e-19
3.96806e-19
3.77983e-19
3.4151e-19
2.86125e-19
2.50698e-19
2.16957e-19
2.06254e-19
1.78258e-19
1.6695e-19
1.50466e-19
1.41725e-19
1.14591e-19
1.19118e-19
9.12233e-20
9.58965e-20
7.91113e-20
7.86677e-20
6.66288e-20
6.46912e-20
5.26276e-20
5.57504e-20
4.09398e-20
4.67941e-20
3.67403e-20
3.27161e-20
4.26425e-20
1.67471e-20
4.49925e-20
2.11538e-20
2.19752e-20
5.0344e-20
1.09297e-22
5.91244e-20
2.73114e-20
2.97669e-20