/*--------------------------------*- C++ -*----------------------------------*\
| =========                 |                                                 |
| \\      /  F ield         | OpenFOAM: The Open Source CFD Toolbox           |
|  \\    /   O peration     | Version:  2312                                  |
|   \\  /    A nd           | Website:  www.openfoam.com                      |
|    \\/     M anipulation  |                                                 |
\*---------------------------------------------------------------------------*/
FoamFile
{
    version     2.0;
    format      ascii;
    arch        "LSB;label=32;scalar=64";
    class       volScalarField;
    location    "400";
    object      nut;
}
// * * * * * * * * * * * * * * * * * * * * * * * * * * * * * * * * * * * * * //

dimensions      [0 2 -1 0 0 0 0];

internalField   nonuniform List<scalar> 
330000
(
8.83529e-23
1.10552e-23
5.55494e-25
1.53092e-26
1.7006e-27
1.05171e-27
5.74336e-27
4.06206e-27
6.15376e-27
4.40271e-27
5.85419e-27
6.34251e-27
7.78639e-27
8.1385e-27
9.32606e-27
1.13087e-26
1.15808e-26
1.1703e-26
1.32744e-26
1.50893e-26
1.63794e-26
1.71445e-26
1.9383e-26
2.11804e-26
2.34933e-26
2.56252e-26
2.79748e-26
2.89038e-26
3.2894e-26
3.49381e-26
3.95628e-26
4.22033e-26
4.66756e-26
4.79016e-26
5.38317e-26
5.75043e-26
6.31475e-26
6.60475e-26
7.25505e-26
7.16811e-26
8.10015e-26
8.08861e-26
9.0713e-26
9.06258e-26
9.84908e-26
9.05145e-26
9.89384e-26
9.21515e-26
9.47002e-26
7.96453e-26
7.56927e-26
5.6735e-26
3.73472e-26
1.54216e-26
1.91085e-27
5.83436e-29
2.95777e-26
1.16794e-24
1.31702e-23
7.73744e-23
9.52874e-23
3.08602e-23
2.46281e-24
1.48479e-26
5.75219e-28
3.97667e-27
7.72931e-27
1.05364e-26
1.0708e-26
9.99575e-27
1.04908e-26
1.40347e-26
1.4995e-26
1.71997e-26
1.79855e-26
2.37653e-26
2.27657e-26
2.43111e-26
2.58253e-26
3.11405e-26
3.2156e-26
3.51754e-26
3.79496e-26
4.32903e-26
4.61383e-26
5.19395e-26
5.51514e-26
5.83085e-26
6.43591e-26
7.03344e-26
7.76004e-26
8.40158e-26
9.19041e-26
9.45807e-26
1.05123e-25
1.13316e-25
1.22003e-25
1.30328e-25
1.40368e-25
1.40624e-25
1.54331e-25
1.58212e-25
1.71354e-25
1.75387e-25
1.85765e-25
1.71896e-25
1.82563e-25
1.72154e-25
1.72525e-25
1.42135e-25
1.32151e-25
9.49047e-26
6.19062e-26
1.84452e-26
1.16131e-27
2.05933e-27
9.39968e-26
2.70622e-24
3.79165e-23
1.19799e-22
1.69729e-22
4.77951e-23
2.72251e-24
3.30049e-26
1.00426e-27
6.43356e-27
1.08198e-26
1.48144e-26
1.535e-26
1.353e-26
1.5407e-26
1.90806e-26
2.2151e-26
2.31106e-26
2.65205e-26
3.19753e-26
3.27272e-26
3.38165e-26
3.71835e-26
4.29567e-26
4.58005e-26
4.91756e-26
5.39232e-26
6.05542e-26
6.55387e-26
7.27089e-26
7.80344e-26
8.20849e-26
9.06617e-26
9.94766e-26
1.09769e-25
1.18059e-25
1.29568e-25
1.33531e-25
1.48353e-25
1.5951e-25
1.71646e-25
1.84866e-25
1.97514e-25
1.99753e-25
2.16384e-25
2.25814e-25
2.41424e-25
2.48814e-25
2.60861e-25
2.45717e-25
2.5727e-25
2.46354e-25
2.43774e-25
2.04011e-25
1.87992e-25
1.3626e-25
8.8036e-26
2.7109e-26
1.56524e-27
1.9029e-27
1.47177e-25
3.90354e-24
4.91683e-23
1.67127e-22
1.99294e-22
4.79687e-23
3.2098e-24
3.19226e-26
1.33722e-27
5.6927e-27
1.18497e-26
1.37265e-26
1.6257e-26
1.26426e-26
1.65868e-26
1.81083e-26
2.33611e-26
2.20058e-26
2.79148e-26
3.05344e-26
3.39583e-26
3.30686e-26
3.81907e-26
4.2128e-26
4.67279e-26
4.88204e-26
5.49454e-26
6.01618e-26
6.64666e-26
7.24815e-26
7.89581e-26
8.2179e-26
9.16591e-26
9.99516e-26
1.10726e-25
1.18322e-25
1.30535e-25
1.34346e-25
1.49941e-25
1.59835e-25
1.7304e-25
1.86592e-25
1.98942e-25
2.01921e-25
2.17986e-25
2.28973e-25
2.42894e-25
2.52207e-25
2.62442e-25
2.50696e-25
2.6041e-25
2.51608e-25
2.46897e-25
2.09737e-25
1.92519e-25
1.41182e-25
9.19322e-26
2.84631e-26
2.01759e-27
1.45102e-27
1.34782e-25
3.84973e-24
6.10707e-23
1.97168e-22
2.47166e-22
5.61176e-23
4.62106e-24
3.12899e-26
1.39157e-27
5.70241e-27
1.1662e-26
1.3677e-26
1.62428e-26
1.24356e-26
1.68407e-26
1.75437e-26
2.36224e-26
2.11082e-26
2.83314e-26
2.91996e-26
3.45674e-26
3.19987e-26
3.82878e-26
4.09017e-26
4.68599e-26
4.77222e-26
5.47893e-26
5.89442e-26
6.6125e-26
7.10878e-26
7.84795e-26
8.07923e-26
9.09349e-26
9.85515e-26
1.09425e-25
1.16468e-25
1.29202e-25
1.32403e-25
1.48214e-25
1.5716e-25
1.71323e-25
1.84145e-25
1.96461e-25
1.99366e-25
2.15023e-25
2.26621e-25
2.38837e-25
2.49533e-25
2.58518e-25
2.48746e-25
2.56341e-25
2.49723e-25
2.4286e-25
2.08276e-25
1.8975e-25
1.40392e-25
9.06833e-26
2.79326e-26
2.13663e-27
1.33687e-27
1.33417e-25
4.14258e-24
7.971e-23
2.08911e-22
3.32273e-22
6.79543e-23
7.63438e-24
3.0543e-26
1.50452e-27
5.87654e-27
1.14852e-26
1.41742e-26
1.63522e-26
1.2706e-26
1.72435e-26
1.76377e-26
2.41269e-26
2.10663e-26
2.91838e-26
2.89211e-26
3.59622e-26
3.17657e-26
3.92866e-26
4.08423e-26
4.81876e-26
4.78495e-26
5.60507e-26
5.92338e-26
6.74522e-26
7.15148e-26
8.00412e-26
8.13865e-26
9.26545e-26
9.94742e-26
1.10908e-25
1.17534e-25
1.31161e-25
1.33753e-25
1.50282e-25
1.58492e-25
1.7415e-25
1.85953e-25
1.99103e-25
2.01403e-25
2.17888e-25
2.29274e-25
2.40955e-25
2.52575e-25
2.61237e-25
2.52298e-25
2.58756e-25
2.53069e-25
2.44501e-25
2.11209e-25
1.9107e-25
1.42158e-25
9.08536e-26
2.79773e-26
2.26387e-27
1.40877e-27
1.39098e-25
4.81422e-24
1.11198e-22
2.21307e-22
4.65992e-22
8.01476e-23
1.27515e-23
3.10689e-26
1.90938e-27
5.91389e-27
1.1442e-26
1.4799e-26
1.66231e-26
1.31614e-26
1.77108e-26
1.80162e-26
2.47563e-26
2.13849e-26
3.02076e-26
2.91928e-26
3.76707e-26
3.18759e-26
4.0735e-26
4.12767e-26
5.00787e-26
4.8424e-26
5.79724e-26
6.01077e-26
6.95967e-26
7.2676e-26
8.25332e-26
8.27995e-26
9.55068e-26
1.01247e-25
1.13723e-25
1.19868e-25
1.34664e-25
1.36468e-25
1.54057e-25
1.61623e-25
1.79124e-25
1.89566e-25
2.0416e-25
2.05496e-25
2.23559e-25
2.33939e-25
2.46246e-25
2.58316e-25
2.67349e-25
2.58362e-25
2.64322e-25
2.5904e-25
2.49258e-25
2.16381e-25
1.94726e-25
1.45695e-25
9.23221e-26
2.88272e-26
2.47652e-27
1.63037e-27
1.51401e-25
5.90154e-24
1.55286e-22
2.33328e-22
6.5223e-22
9.07712e-23
2.03481e-23
3.53423e-26
2.84417e-27
5.80702e-27
1.14412e-26
1.537e-26
1.6909e-26
1.3684e-26
1.81157e-26
1.84738e-26
2.52757e-26
2.18776e-26
3.11305e-26
2.96793e-26
3.92659e-26
3.20338e-26
4.22498e-26
4.17897e-26
5.20243e-26
4.9021e-26
6.00424e-26
6.09983e-26
7.18637e-26
7.38879e-26
8.51942e-26
8.42078e-26
9.85855e-26
1.02994e-25
1.16824e-25
1.22265e-25
1.38399e-25
1.3929e-25
1.58226e-25
1.64995e-25
1.84389e-25
1.93223e-25
2.09738e-25
2.0959e-25
2.29887e-25
2.38546e-25
2.52319e-25
2.64093e-25
2.74157e-25
2.6438e-25
2.70816e-25
2.6488e-25
2.54698e-25
2.21764e-25
1.99001e-25
1.49414e-25
9.42879e-26
3.0005e-26
2.72478e-27
2.21385e-27
1.74009e-25
7.52002e-24
2.10056e-22
2.42361e-22
8.89007e-22
9.87066e-23
3.05402e-23
4.57451e-26
4.61235e-27
5.59563e-27
1.1483e-26
1.58156e-26
1.72466e-26
1.42267e-26
1.84743e-26
1.90126e-26
2.5775e-26
2.24951e-26
3.19881e-26
3.03738e-26
4.07233e-26
3.23127e-26
4.37921e-26
4.23958e-26
5.39845e-26
4.96565e-26
6.21856e-26
6.19106e-26
7.42655e-26
7.51328e-26
8.7942e-26
8.5669e-26
1.01807e-25
1.04682e-25
1.20186e-25
1.24712e-25
1.42354e-25
1.42169e-25
1.62633e-25
1.68504e-25
1.89888e-25
1.96925e-25
2.15618e-25
2.13791e-25
2.36607e-25
2.42992e-25
2.59043e-25
2.69891e-25
2.81481e-25
2.70334e-25
2.77688e-25
2.70656e-25
2.607e-25
2.27033e-25
2.03648e-25
1.5327e-25
9.67185e-26
3.14244e-26
3.05009e-27
3.6107e-27
2.12625e-25
9.72411e-24
2.73332e-22
2.49006e-22
1.17222e-21
1.04201e-22
4.3149e-23
6.47797e-26
7.48364e-27
5.43492e-27
1.15526e-26
1.61317e-26
1.76268e-26
1.47626e-26
1.88297e-26
1.96046e-26
2.62439e-26
2.32472e-26
3.27989e-26
3.12268e-26
4.20271e-26
3.27341e-26
4.53436e-26
4.31069e-26
5.59382e-26
5.03909e-26
6.44257e-26
6.28929e-26
7.67615e-26
7.64514e-26
9.08244e-26
8.71874e-26
1.05186e-25
1.06443e-25
1.23824e-25
1.27213e-25
1.4654e-25
1.45186e-25
1.6741e-25
1.72181e-25
1.95558e-25
2.0077e-25
2.21888e-25
2.18074e-25
2.43744e-25
2.47508e-25
2.66352e-25
2.75616e-25
2.8926e-25
2.76213e-25
2.85204e-25
2.76221e-25
2.67141e-25
2.32252e-25
2.0871e-25
1.57062e-25
9.9508e-26
3.29128e-26
3.50793e-27
6.56962e-27
2.73661e-25
1.25591e-23
3.40741e-22
2.53539e-22
1.49102e-21
1.07233e-22
5.81653e-23
9.39662e-26
1.15977e-26
5.36412e-27
1.17019e-26
1.6314e-26
1.8103e-26
1.52655e-26
1.92212e-26
2.02593e-26
2.67872e-26
2.40869e-26
3.3628e-26
3.22509e-26
4.32593e-26
3.33534e-26
4.69178e-26
4.39736e-26
5.79313e-26
5.12722e-26
6.67579e-26
6.40125e-26
7.94423e-26
7.79051e-26
9.38641e-26
8.88953e-26
1.08778e-25
1.08352e-25
1.27814e-25
1.29897e-25
1.5111e-25
1.48429e-25
1.72567e-25
1.76116e-25
2.01626e-25
2.04941e-25
2.28594e-25
2.22737e-25
2.51378e-25
2.52248e-25
2.74405e-25
2.81566e-25
2.97733e-25
2.82269e-25
2.93221e-25
2.81963e-25
2.74279e-25
2.37417e-25
2.14244e-25
1.60971e-25
1.02697e-25
3.45704e-26
4.28268e-27
1.21856e-26
3.61221e-25
1.59669e-23
4.09376e-22
2.58393e-22
1.837e-21
1.08604e-22
7.52284e-23
1.35246e-25
1.68394e-26
5.46074e-27
1.18964e-26
1.64226e-26
1.86368e-26
1.57269e-26
1.96744e-26
2.09326e-26
2.73692e-26
2.50098e-26
3.44837e-26
3.33762e-26
4.44121e-26
3.41323e-26
4.84824e-26
4.49755e-26
5.99218e-26
5.23091e-26
6.91674e-26
6.52687e-26
8.22219e-26
7.94946e-26
9.70476e-26
9.07266e-26
1.12536e-25
1.1045e-25
1.32082e-25
1.3271e-25
1.55966e-25
1.51872e-25
1.78101e-25
1.80248e-25
2.07949e-25
2.09392e-25
2.35666e-25
2.27594e-25
2.59379e-25
2.57258e-25
2.8296e-25
2.87561e-25
3.06628e-25
2.88345e-25
3.01791e-25
2.87594e-25
2.81777e-25
2.42538e-25
2.20158e-25
1.64834e-25
1.06172e-25
3.63821e-26
5.55067e-27
2.17505e-26
4.78589e-25
1.98649e-23
4.74999e-22
2.6375e-22
2.19703e-21
1.0845e-22
9.40352e-23
1.90583e-25
2.30368e-26
5.68578e-27
1.21666e-26
1.64856e-26
1.92635e-26
1.61482e-26
2.02032e-26
2.16296e-26
2.80622e-26
2.59718e-26
3.54027e-26
3.46036e-26
4.55661e-26
3.50787e-26
5.00554e-26
4.61345e-26
6.1948e-26
5.35143e-26
7.16379e-26
6.66928e-26
8.51527e-26
8.1245e-26
1.00363e-25
9.27669e-26
1.16489e-25
1.12749e-25
1.36635e-25
1.35728e-25
1.6118e-25
1.55541e-25
1.83959e-25
1.84609e-25
2.14668e-25
2.14167e-25
2.43071e-25
2.32816e-25
2.6777e-25
2.62534e-25
2.9203e-25
2.93754e-25
3.16044e-25
2.94557e-25
3.10684e-25
2.93322e-25
2.89764e-25
2.47533e-25
2.26398e-25
1.68742e-25
1.09978e-25
3.85555e-26
7.606e-27
3.65686e-26
6.26448e-25
2.40712e-23
5.35473e-22
2.7171e-22
2.56378e-21
1.07549e-22
1.14163e-22
2.62062e-25
2.98838e-26
6.05002e-27
1.24614e-26
1.65478e-26
1.99659e-26
1.65347e-26
2.08279e-26
2.23193e-26
2.88294e-26
2.6972e-26
3.63944e-26
3.58767e-26
4.67341e-26
3.61465e-26
5.16372e-26
4.74269e-26
6.39882e-26
5.48849e-26
7.41741e-26
6.82787e-26
8.81524e-26
8.31578e-26
1.03822e-25
9.49645e-26
1.20596e-25
1.1527e-25
1.41404e-25
1.38919e-25
1.66658e-25
1.5942e-25
1.9015e-25
1.8916e-25
2.21628e-25
2.19207e-25
2.50791e-25
2.3825e-25
2.76434e-25
2.68078e-25
3.01387e-25
3.0002e-25
3.25754e-25
3.00794e-25
3.1995e-25
2.98924e-25
2.97899e-25
2.52442e-25
2.32854e-25
1.72579e-25
1.14154e-25
4.11892e-26
1.07155e-26
5.79197e-26
8.05753e-25
2.84559e-23
5.87537e-22
2.82066e-22
2.92245e-21
1.05989e-22
1.35353e-22
3.52733e-25
3.72219e-26
6.49729e-27
1.2809e-26
1.66369e-26
2.07711e-26
1.69084e-26
2.15427e-26
2.30248e-26
2.97299e-26
2.79804e-26
3.74853e-26
3.72126e-26
4.79827e-26
3.73323e-26
5.32643e-26
4.8866e-26
6.6092e-26
5.64186e-26
7.6774e-26
7.00502e-26
9.12913e-26
8.52491e-26
1.07407e-25
9.73975e-26
1.24892e-25
1.18013e-25
1.46411e-25
1.42355e-25
1.72459e-25
1.63528e-25
1.96624e-25
1.93956e-25
2.28976e-25
2.24531e-25
2.58789e-25
2.44042e-25
2.85415e-25
2.7387e-25
3.11087e-25
3.06494e-25
3.35847e-25
3.07125e-25
3.29369e-25
3.04607e-25
3.06351e-25
2.57188e-25
2.39527e-25
1.76498e-25
1.18802e-25
4.45163e-26
1.527e-26
8.69623e-26
1.01636e-24
3.28304e-23
6.30451e-22
2.96852e-22
3.26715e-21
1.0455e-22
1.56992e-22
4.66153e-25
4.48562e-26
7.04031e-27
1.31499e-26
1.6803e-26
2.16339e-26
1.72891e-26
2.23525e-26
2.37329e-26
3.07147e-26
2.90151e-26
3.86877e-26
3.85812e-26
4.92983e-26
3.8594e-26
5.49496e-26
5.04244e-26
6.82434e-26
5.81047e-26
7.94552e-26
7.19939e-26
9.451e-26
8.75287e-26
1.1113e-25
1.00002e-25
1.2933e-25
1.20998e-25
1.51619e-25
1.46007e-25
1.78486e-25
1.67849e-25
2.03388e-25
1.98975e-25
2.36565e-25
2.30113e-25
2.67055e-25
2.50021e-25
2.9458e-25
2.79928e-25
3.20995e-25
3.13097e-25
3.46077e-25
3.13442e-25
3.39003e-25
3.1018e-25
3.14795e-25
2.61873e-25
2.46398e-25
1.80541e-25
1.24006e-25
4.86463e-26
2.16081e-26
1.25144e-25
1.2594e-24
3.70781e-23
6.62195e-22
3.15174e-22
3.58397e-21
1.0321e-22
1.78616e-22
6.06898e-25
5.28647e-26
7.61124e-27
1.35188e-26
1.70442e-26
2.25758e-26
1.76975e-26
2.32419e-26
2.44698e-26
3.18322e-26
3.00607e-26
4.00076e-26
3.99986e-26
5.07288e-26
3.99359e-26
5.67278e-26
5.21037e-26
7.04942e-26
5.9936e-26
8.22232e-26
7.41158e-26
9.78783e-26
8.99945e-26
1.14971e-25
1.02842e-25
1.33951e-25
1.24211e-25
1.5704e-25
1.49918e-25
1.84788e-25
1.72406e-25
2.10396e-25
2.04248e-25
2.44505e-25
2.35947e-25
2.75534e-25
2.56309e-25
3.0399e-25
2.86199e-25
3.31135e-25
3.19896e-25
3.56513e-25
3.19824e-25
3.4864e-25
3.1579e-25
3.23419e-25
2.66446e-25
2.53458e-25
1.84832e-25
1.2987e-25
5.37973e-26
3.02413e-26
1.73887e-25
1.53866e-24
4.09958e-23
6.82486e-22
3.39361e-22
3.87134e-21
1.02512e-22
1.99476e-22
7.78997e-25
6.12207e-26
8.20639e-27
1.38759e-26
1.73539e-26
2.35895e-26
1.81332e-26
2.42253e-26
2.52234e-26
3.30395e-26
3.1139e-26
4.1448e-26
4.14377e-26
5.2273e-26
4.13365e-26
5.86139e-26
5.38775e-26
7.28408e-26
6.19034e-26
8.51083e-26
7.63949e-26
1.01336e-25
9.26474e-26
1.18974e-25
1.05864e-25
1.3872e-25
1.27658e-25
1.6264e-25
1.54059e-25
1.91297e-25
1.77199e-25
2.17668e-25
2.09738e-25
2.52627e-25
2.42018e-25
2.84267e-25
2.62774e-25
3.13538e-25
2.92679e-25
3.41361e-25
3.26801e-25
3.67007e-25
3.26217e-25
3.58369e-25
3.21278e-25
3.31944e-25
2.71015e-25
2.6067e-25
1.8936e-25
1.36542e-25
6.01081e-26
4.16478e-26
2.35537e-25
1.85727e-24
4.44519e-23
6.90126e-22
3.69037e-22
4.11485e-21
1.02534e-22
2.1909e-22
9.86683e-25
6.98794e-26
8.77677e-27
1.4264e-26
1.77304e-26
2.46923e-26
1.86115e-26
2.52817e-26
2.60271e-26
3.43766e-26
3.22394e-26
4.30082e-26
4.29266e-26
5.39569e-26
4.28032e-26
6.06287e-26
5.57538e-26
7.5327e-26
6.39942e-26
8.81157e-26
7.88381e-26
1.04966e-25
9.54701e-26
1.23111e-25
1.09118e-25
1.4368e-25
1.31325e-25
1.68441e-25
1.58459e-25
1.98059e-25
1.82226e-25
2.25157e-25
2.1548e-25
2.61055e-25
2.48299e-25
2.93173e-25
2.69516e-25
3.23287e-25
2.9932e-25
3.51729e-25
3.3385e-25
3.77611e-25
3.3263e-25
3.67997e-25
3.26801e-25
3.40578e-25
2.755e-25
2.6808e-25
1.94245e-25
1.44104e-25
6.78113e-26
5.65417e-26
3.12206e-25
2.22307e-24
4.72778e-23
6.86222e-22
4.0644e-22
4.31613e-21
1.04113e-22
2.36699e-22
1.23444e-24
7.86333e-26
9.34598e-27
1.46389e-26
1.81944e-26
2.58469e-26
1.91348e-26
2.64245e-26
2.68752e-26
3.57928e-26
3.33902e-26
4.47047e-26
4.44638e-26
5.57511e-26
4.43213e-26
6.27813e-26
5.77184e-26
7.7938e-26
6.62018e-26
9.1276e-26
8.14309e-26
1.08727e-25
9.84744e-26
1.27426e-25
1.12541e-25
1.4879e-25
1.35224e-25
1.74448e-25
1.63093e-25
2.05006e-25
1.87474e-25
2.32889e-25
2.21463e-25
2.69652e-25
2.54813e-25
3.02291e-25
2.76394e-25
3.33104e-25
3.06158e-25
3.6219e-25
3.41009e-25
3.88149e-25
3.38982e-25
3.77642e-25
3.32243e-25
3.49035e-25
2.8003e-25
2.75737e-25
1.996e-25
1.52654e-25
7.71056e-26
7.5588e-26
4.07551e-25
2.6394e-24
4.94195e-23
6.71138e-22
4.49815e-22
4.46446e-21
1.07058e-22
2.51792e-22
1.52629e-24
8.76122e-26
9.82925e-27
1.50441e-26
1.87353e-26
2.70728e-26
1.97147e-26
2.76339e-26
2.77895e-26
3.73323e-26
3.45853e-26
4.65208e-26
4.60683e-26
5.7681e-26
4.59093e-26
6.50808e-26
5.97791e-26
8.07142e-26
6.85221e-26
9.45874e-26
8.41727e-26
1.12692e-25
1.01638e-25
1.31887e-25
1.16178e-25
1.54104e-25
1.39333e-25
1.80664e-25
1.67974e-25
2.12191e-25
1.92948e-25
2.40816e-25
2.27688e-25
2.78528e-25
2.6152e-25
3.11529e-25
2.83503e-25
3.43075e-25
3.13123e-25
3.72743e-25
3.48267e-25
3.98687e-25
3.45319e-25
3.87107e-25
3.37689e-25
3.57548e-25
2.84531e-25
2.83625e-25
2.05479e-25
1.6228e-25
8.82665e-26
9.9797e-26
5.24752e-25
3.12255e-24
5.07399e-23
6.46126e-22
5.02118e-22
4.56921e-21
1.11653e-22
2.63773e-22
1.86656e-24
9.69319e-26
1.02014e-26
1.54559e-26
1.93277e-26
2.83874e-26
2.03345e-26
2.89429e-26
2.87493e-26
3.89632e-26
3.58464e-26
4.84639e-26
4.77217e-26
5.9751e-26
4.75674e-26
6.75336e-26
6.1925e-26
8.36495e-26
7.09597e-26
9.80813e-26
8.70462e-26
1.16804e-25
1.04973e-25
1.36565e-25
1.1998e-25
1.59599e-25
1.43657e-25
1.87081e-25
1.73076e-25
2.19581e-25
1.98656e-25
2.48979e-25
2.34112e-25
2.87528e-25
2.68446e-25
3.20976e-25
2.90739e-25
3.53102e-25
3.2022e-25
3.83286e-25
3.55564e-25
4.09159e-25
3.51623e-25
3.96514e-25
3.43009e-25
3.65874e-25
2.89123e-25
2.91709e-25
2.11869e-25
1.73177e-25
1.01563e-25
1.30137e-25
6.69254e-25
3.67834e-24
5.12211e-23
6.12028e-22
5.63096e-22
4.6204e-21
1.17896e-22
2.72324e-22
2.25846e-24
1.06343e-25
1.04176e-26
1.59016e-26
1.99857e-26
2.97954e-26
2.10085e-26
3.03228e-26
2.97844e-26
4.0716e-26
3.71636e-26
5.05175e-26
4.94523e-26
6.19655e-26
4.93043e-26
7.01365e-26
6.41733e-26
8.67658e-26
7.35066e-26
1.01747e-25
9.00624e-26
1.21137e-25
1.08445e-25
1.41411e-25
1.23986e-25
1.65319e-25
1.48172e-25
1.93707e-25
1.78402e-25
2.27212e-25
2.04565e-25
2.57328e-25
2.40753e-25
2.96774e-25
2.7551e-25
3.3051e-25
2.98162e-25
3.63254e-25
3.27376e-25
3.93834e-25
3.62861e-25
4.19586e-25
3.57827e-25
4.05689e-25
3.48284e-25
3.74224e-25
2.93656e-25
3.00037e-25
2.18804e-25
1.85432e-25
1.17287e-25
1.67924e-25
8.45154e-25
4.32784e-24
5.08251e-23
5.71079e-22
6.3487e-22
4.62954e-21
1.26811e-22
2.77066e-22
2.70983e-24
1.15459e-25
1.05191e-26
1.63419e-26
2.07318e-26
3.12672e-26
2.17338e-26
3.18059e-26
3.08864e-26
4.25523e-26
3.85581e-26
5.27216e-26
5.12708e-26
6.42961e-26
5.11165e-26
7.29048e-26
6.65266e-26
9.00422e-26
7.61704e-26
1.05615e-25
9.32211e-26
1.25648e-25
1.12088e-25
1.46492e-25
1.28146e-25
1.71223e-25
1.52899e-25
2.00579e-25
1.83949e-25
2.35036e-25
2.10672e-25
2.65916e-25
2.4761e-25
3.06149e-25
2.82775e-25
3.40224e-25
3.05671e-25
3.7339e-25
3.34643e-25
4.04408e-25
3.70193e-25
4.2982e-25
3.63885e-25
4.14782e-25
3.53462e-25
3.823e-25
2.98267e-25
3.08678e-25
2.26459e-25
1.99139e-25
1.35801e-25
2.14364e-25
1.05992e-24
5.07973e-24
4.96448e-23
5.25249e-22
7.14223e-22
4.59101e-21
1.37827e-22
2.7777e-22
3.22081e-24
1.24465e-25
1.04249e-26
1.68105e-26
2.15729e-26
3.28113e-26
2.25294e-26
3.33612e-26
3.20742e-26
4.45132e-26
4.0025e-26
5.50436e-26
5.31894e-26
6.67616e-26
5.30222e-26
7.583e-26
6.89959e-26
9.35065e-26
7.89534e-26
1.09666e-25
9.65265e-26
1.30404e-25
1.15873e-25
1.51749e-25
1.325e-25
1.7737e-25
1.57813e-25
2.0768e-25
1.89708e-25
2.43098e-25
2.16963e-25
2.74686e-25
2.54666e-25
3.15765e-25
2.90159e-25
3.49985e-25
3.13317e-25
3.83606e-25
3.41934e-25
4.14956e-25
3.77477e-25
4.39911e-25
3.6979e-25
4.23585e-25
3.58538e-25
3.90355e-25
3.0283e-25
3.17595e-25
2.34798e-25
2.14411e-25
1.57425e-25
2.71182e-25
1.31886e-24
5.96681e-24
4.76905e-23
4.76152e-22
8.04647e-22
4.52441e-21
1.50866e-22
2.74432e-22
3.79556e-24
1.33809e-25
1.01137e-26
1.731e-26
2.24652e-26
3.44768e-26
2.33724e-26
3.50441e-26
3.33196e-26
4.65876e-26
4.15814e-26
5.75079e-26
5.5184e-26
6.939e-26
5.5031e-26
7.89267e-26
7.15772e-26
9.71593e-26
8.18738e-26
1.13933e-25
9.99715e-26
1.35342e-25
1.19838e-25
1.57272e-25
1.37016e-25
1.83736e-25
1.62928e-25
2.15017e-25
1.95671e-25
2.5139e-25
2.23469e-25
2.83688e-25
2.61878e-25
3.25481e-25
2.97729e-25
3.59926e-25
3.2103e-25
3.9381e-25
3.49262e-25
4.25402e-25
3.84694e-25
4.49847e-25
3.75577e-25
4.32219e-25
3.63417e-25
3.98162e-25
3.07487e-25
3.26729e-25
2.43808e-25
2.31497e-25
1.82575e-25
3.39997e-25
1.63181e-24
6.99043e-24
4.50972e-23
4.2533e-22
9.06421e-22
4.42376e-21
1.65689e-22
2.67115e-22
4.43345e-24
1.42922e-25
9.58873e-27
1.78436e-26
2.34482e-26
3.62421e-26
2.42874e-26
3.68042e-26
3.46578e-26
4.87876e-26
4.3219e-26
6.00809e-26
5.72825e-26
7.21698e-26
5.71423e-26
8.21768e-26
7.4287e-26
1.01005e-25
8.49221e-26
1.18388e-25
1.03571e-25
1.40523e-25
1.23937e-25
1.62978e-25
1.41724e-25
1.90353e-25
1.68218e-25
2.22565e-25
2.01822e-25
2.59917e-25
2.3013e-25
2.9286e-25
2.69248e-25
3.354e-25
3.05344e-25
3.69871e-25
3.28812e-25
4.04055e-25
3.56519e-25
4.35707e-25
3.91725e-25
4.596e-25
3.81088e-25
4.40506e-25
3.68089e-25
4.0591e-25
3.11997e-25
3.36124e-25
2.53419e-25
2.50485e-25
2.115e-25
4.22775e-25
2.00474e-24
8.19099e-24
4.19468e-23
3.74706e-22
1.02092e-21
4.30592e-21
1.83651e-22
2.56124e-22
5.14987e-24
1.51104e-25
8.93562e-27
1.83857e-26
2.45429e-26
3.80838e-26
2.52708e-26
3.86947e-26
3.60847e-26
5.109e-26
4.49542e-26
6.28361e-26
5.95069e-26
7.50755e-26
5.9358e-26
8.56193e-26
7.71395e-26
1.05029e-25
8.81157e-26
1.23073e-25
1.07339e-25
1.45904e-25
1.28228e-25
1.68957e-25
1.466e-25
1.97174e-25
1.73715e-25
2.30393e-25
2.08189e-25
2.6864e-25
2.36964e-25
3.0227e-25
2.76797e-25
3.45407e-25
3.13113e-25
3.79964e-25
3.36611e-25
4.14186e-25
3.63774e-25
4.45952e-25
3.9869e-25
4.69015e-25
3.8633e-25
4.48609e-25
3.72583e-25
4.13272e-25
3.16531e-25
3.45857e-25
2.63885e-25
2.71386e-25
2.44715e-25
5.21216e-25
2.44851e-24
9.57706e-24
3.84118e-23
3.26336e-22
1.143e-21
4.169e-21
2.03484e-22
2.4162e-22
5.93355e-24
1.58578e-25
8.11877e-27
1.89608e-26
2.57731e-26
3.9993e-26
2.63528e-26
4.06637e-26
3.76228e-26
5.35243e-26
4.67884e-26
6.57184e-26
6.18634e-26
7.81235e-26
6.16928e-26
8.92304e-26
8.01391e-26
1.09251e-25
9.14555e-26
1.27954e-25
1.11278e-25
1.51546e-25
1.32674e-25
1.75117e-25
1.51673e-25
2.04251e-25
1.79396e-25
2.38445e-25
2.14743e-25
2.77584e-25
2.43943e-25
3.11835e-25
2.84486e-25
3.55605e-25
3.20908e-25
3.90011e-25
3.44425e-25
4.24296e-25
3.70914e-25
4.56021e-25
4.05422e-25
4.78118e-25
3.91239e-25
4.56297e-25
3.76803e-25
4.20505e-25
3.20896e-25
3.5586e-25
2.75046e-25
2.94318e-25
2.82426e-25
6.3759e-25
2.96892e-24
1.11969e-23
3.4599e-23
2.81066e-22
1.27651e-21
4.03889e-21
2.2441e-22
2.24308e-22
6.7849e-24
1.66207e-25
7.14578e-27
1.9616e-26
2.70614e-26
4.20667e-26
2.74997e-26
4.27971e-26
3.92349e-26
5.61084e-26
4.87359e-26
6.87722e-26
6.43159e-26
8.13751e-26
6.41645e-26
9.30387e-26
8.32832e-26
1.13692e-25
9.49682e-26
1.33074e-25
1.15385e-25
1.5739e-25
1.37335e-25
1.81568e-25
1.56931e-25
2.11562e-25
1.85289e-25
2.4674e-25
2.215e-25
2.86756e-25
2.51124e-25
3.21603e-25
2.92286e-25
3.65859e-25
3.28843e-25
4.00174e-25
3.52225e-25
4.34289e-25
3.77981e-25
4.65851e-25
4.11951e-25
4.86942e-25
3.95915e-25
4.63661e-25
3.80707e-25
4.274e-25
3.2528e-25
3.66009e-25
2.86875e-25
3.19543e-25
3.25136e-25
7.73882e-25
3.57821e-24
1.30379e-23
3.07157e-23
2.39848e-22
1.4235e-21
3.91612e-21
2.45596e-22
2.04602e-22
7.69459e-24
1.73014e-25
6.08057e-27
2.0335e-26
2.84708e-26
4.42521e-26
2.87461e-26
4.50149e-26
4.09656e-26
5.88242e-26
5.07944e-26
7.19401e-26
6.69025e-26
8.48002e-26
6.67641e-26
9.70111e-26
8.65868e-26
1.18342e-25
9.86365e-26
1.38393e-25
1.19676e-25
1.63486e-25
1.42147e-25
1.88201e-25
1.62387e-25
2.19125e-25
1.91356e-25
2.55219e-25
2.2842e-25
2.96131e-25
2.58421e-25
3.3149e-25
3.00178e-25
3.76238e-25
3.3672e-25
4.10233e-25
3.59943e-25
4.44202e-25
3.84811e-25
4.75355e-25
4.18072e-25
4.95422e-25
4.00107e-25
4.70535e-25
3.84184e-25
4.34112e-25
3.29339e-25
3.76344e-25
2.99166e-25
3.47068e-25
3.72804e-25
9.31868e-25
4.27848e-24
1.51195e-23
2.68514e-23
2.03502e-22
1.58442e-21
3.79916e-21
2.6911e-22
1.83394e-22
8.68977e-24
1.77883e-25
5.03872e-27
2.11047e-26
3.0024e-26
4.65296e-26
3.00852e-26
4.73991e-26
4.28144e-26
6.16731e-26
5.29747e-26
7.53392e-26
6.96559e-26
8.8368e-26
6.94945e-26
1.01221e-25
9.00745e-26
1.2319e-25
1.02484e-25
1.43972e-25
1.2417e-25
1.69796e-25
1.4719e-25
1.95124e-25
1.68041e-25
2.26885e-25
1.97641e-25
2.63979e-25
2.35566e-25
3.05663e-25
2.65873e-25
3.41574e-25
3.08209e-25
3.8662e-25
3.447e-25
4.20339e-25
3.67597e-25
4.53843e-25
3.91507e-25
4.84654e-25
4.24016e-25
5.03352e-25
4.03889e-25
4.77063e-25
3.8737e-25
4.40259e-25
3.33289e-25
3.8692e-25
3.12247e-25
3.76702e-25
4.25909e-25
1.11291e-24
5.0764e-24
1.74095e-23
2.3143e-23
1.73191e-22
1.75102e-21
3.68222e-21
2.93127e-22
1.61063e-22
9.73817e-24
1.81104e-25
4.02898e-27
2.19484e-26
3.17627e-26
4.88706e-26
3.15602e-26
4.9872e-26
4.48086e-26
6.4664e-26
5.52868e-26
7.88846e-26
7.25803e-26
9.2095e-26
7.23719e-26
1.05623e-25
9.3743e-26
1.28257e-25
1.06508e-25
1.49762e-25
1.28864e-25
1.7638e-25
1.52407e-25
2.02222e-25
1.73903e-25
2.34893e-25
2.04112e-25
2.72929e-25
2.42879e-25
3.15357e-25
2.73432e-25
3.51739e-25
3.16316e-25
3.97091e-25
3.52605e-25
4.30262e-25
3.75116e-25
4.63304e-25
3.97918e-25
4.9358e-25
4.29515e-25
5.10753e-25
4.07137e-25
4.83008e-25
3.90067e-25
4.46104e-25
3.3686e-25
3.97621e-25
3.25801e-25
4.08472e-25
4.84256e-25
1.31863e-24
5.97433e-24
1.9994e-23
1.96843e-23
1.48717e-22
1.92652e-21
3.61851e-21
3.15293e-22
1.38664e-22
1.0832e-23
1.83939e-25
3.07431e-27
2.29617e-26
3.35688e-26
5.14346e-26
3.31211e-26
5.25613e-26
4.68942e-26
6.78593e-26
5.77362e-26
8.26444e-26
7.56093e-26
9.60892e-26
7.5418e-26
1.10262e-25
9.75818e-26
1.33585e-25
1.10739e-25
1.55821e-25
1.33757e-25
1.83187e-25
1.57876e-25
2.0962e-25
1.79976e-25
2.43125e-25
2.10816e-25
2.82093e-25
2.50393e-25
3.2524e-25
2.81181e-25
3.62027e-25
3.2448e-25
4.07524e-25
3.60585e-25
4.40157e-25
3.82529e-25
4.72471e-25
4.04146e-25
5.02042e-25
4.34655e-25
5.17687e-25
4.1002e-25
4.88396e-25
3.92303e-25
4.51438e-25
3.40301e-25
4.08206e-25
3.39739e-25
4.42604e-25
5.48133e-25
1.54995e-24
6.97638e-24
2.28241e-23
1.66468e-23
1.3015e-22
2.11873e-21
3.60563e-21
3.34941e-22
1.16679e-22
1.19482e-23
1.85235e-25
2.24709e-27
2.41305e-26
3.55256e-26
5.41392e-26
3.48157e-26
5.53512e-26
4.91295e-26
7.11993e-26
6.03336e-26
8.65319e-26
7.88092e-26
1.00301e-25
7.86224e-26
1.15087e-25
1.01612e-25
1.39158e-25
1.15152e-25
1.62098e-25
1.38859e-25
1.9026e-25
1.63512e-25
2.17207e-25
1.86245e-25
2.51602e-25
2.17685e-25
2.91393e-25
2.58036e-25
3.35264e-25
2.89001e-25
3.72333e-25
3.32663e-25
4.17952e-25
3.68399e-25
4.49814e-25
3.89678e-25
4.8139e-25
4.09939e-25
5.09956e-25
4.39142e-25
5.2409e-25
4.12204e-25
4.93107e-25
3.93859e-25
4.56398e-25
3.43153e-25
4.1872e-25
3.53716e-25
4.78865e-25
6.16875e-25
1.80621e-24
8.07208e-24
2.58764e-23
1.40313e-23
1.1746e-22
2.32427e-21
3.63273e-21
3.5457e-22
9.60265e-23
1.31273e-23
1.83402e-25
1.62177e-27
2.54447e-26
3.76641e-26
5.69586e-26
3.66288e-26
5.83623e-26
5.15134e-26
7.47248e-26
6.30736e-26
9.07271e-26
8.22134e-26
1.04674e-25
8.19741e-26
1.2022e-25
1.05862e-25
1.44954e-25
1.19769e-25
1.68679e-25
1.44189e-25
1.97565e-25
1.6941e-25
2.2508e-25
1.92734e-25
2.60249e-25
2.24772e-25
3.0095e-25
2.65905e-25
3.45361e-25
2.96938e-25
3.8275e-25
3.40921e-25
4.28241e-25
3.76249e-25
4.59306e-25
3.96668e-25
4.89789e-25
4.15455e-25
5.17438e-25
4.43331e-25
5.29632e-25
4.13821e-25
4.97221e-25
3.94985e-25
4.60505e-25
3.45679e-25
4.29176e-25
3.68079e-25
5.16716e-25
6.90427e-25
2.08705e-24
9.25301e-24
2.90869e-23
1.18843e-23
1.11298e-22
2.53348e-21
3.70968e-21
3.71562e-22
7.69862e-23
1.43123e-23
1.78579e-25
1.19594e-27
2.69464e-26
4.00488e-26
5.98462e-26
3.86247e-26
6.1485e-26
5.40839e-26
7.84131e-26
6.59828e-26
9.5103e-26
8.58367e-26
1.09242e-25
8.55015e-26
1.2559e-25
1.10325e-25
1.51011e-25
1.24582e-25
1.75505e-25
1.49738e-25
2.05169e-25
1.75493e-25
2.33138e-25
1.9942e-25
2.69134e-25
2.32026e-25
3.10654e-25
2.73903e-25
3.55539e-25
3.04926e-25
3.93134e-25
3.49173e-25
4.38468e-25
3.83908e-25
4.68449e-25
4.03338e-25
4.97803e-25
4.20489e-25
5.24314e-25
4.46857e-25
5.34395e-25
4.14694e-25
5.00539e-25
3.95384e-25
4.6405e-25
3.47537e-25
4.39402e-25
3.82367e-25
5.55941e-25
7.67832e-25
2.39042e-24
1.05031e-23
3.24514e-23
1.02348e-23
1.11588e-22
2.75004e-21
3.85608e-21
3.83639e-22
6.0278e-23
1.54819e-23
1.73426e-25
9.51154e-28
2.87775e-26
4.252e-26
6.30235e-26
4.07331e-26
6.48985e-26
5.67584e-26
8.23871e-26
6.90441e-26
9.9756e-26
8.95483e-26
1.1417e-25
8.92182e-26
1.31255e-25
1.14962e-25
1.57394e-25
1.29622e-25
1.82644e-25
1.55496e-25
2.13025e-25
1.81835e-25
2.41498e-25
2.06321e-25
2.78224e-25
2.39509e-25
3.20511e-25
2.82062e-25
3.65833e-25
3.13054e-25
4.03514e-25
3.57393e-25
4.48506e-25
3.91528e-25
4.77334e-25
4.09785e-25
5.05265e-25
4.25213e-25
5.30396e-25
4.49841e-25
5.38423e-25
4.15054e-25
5.02979e-25
3.95153e-25
4.66806e-25
3.49029e-25
4.48983e-25
3.96354e-25
5.96674e-25
8.48636e-25
2.7142e-24
1.18048e-23
3.58304e-23
9.19387e-24
1.1858e-22
2.98419e-21
4.08231e-21
3.90858e-22
4.60597e-23
1.66006e-23
1.67598e-25
9.17934e-28
3.09771e-26
4.5168e-26
6.63989e-26
4.30165e-26
6.84548e-26
5.96152e-26
8.65443e-26
7.22896e-26
1.04576e-25
9.34619e-26
1.19392e-25
9.31254e-26
1.37158e-25
1.19809e-25
1.6409e-25
1.34849e-25
1.90049e-25
1.61467e-25
2.2119e-25
1.88336e-25
2.50083e-25
2.13382e-25
2.87564e-25
2.47115e-25
3.30464e-25
2.90286e-25
3.76196e-25
3.21181e-25
4.13781e-25
3.65524e-25
4.58372e-25
3.98849e-25
4.85831e-25
4.15754e-25
5.12269e-25
4.2929e-25
5.3568e-25
4.51932e-25
5.41701e-25
4.14522e-25
5.04506e-25
3.93996e-25
4.68914e-25
3.49628e-25
4.57986e-25
4.09614e-25
6.38244e-25
9.3142e-25
3.05255e-24
1.31334e-23
3.91916e-23
8.70086e-24
1.33072e-22
3.22835e-21
4.3911e-21
3.95091e-22
3.4644e-23
1.77187e-23
1.57253e-25
1.17568e-27
3.35165e-26
4.80432e-26
6.99112e-26
4.54511e-26
7.23085e-26
6.26498e-26
9.09668e-26
7.56871e-26
1.09819e-25
9.75967e-26
1.24802e-25
9.71785e-26
1.43466e-25
1.24893e-25
1.71046e-25
1.40285e-25
1.97825e-25
1.67655e-25
2.29622e-25
1.95088e-25
2.5894e-25
2.20643e-25
2.9704e-25
2.54893e-25
3.40638e-25
2.98667e-25
3.86514e-25
3.29327e-25
4.24036e-25
3.73606e-25
4.67915e-25
4.06077e-25
4.93834e-25
4.21429e-25
5.18424e-25
4.32915e-25
5.40237e-25
4.53559e-25
5.43711e-25
4.13259e-25
5.051e-25
3.92242e-25
4.69782e-25
3.4959e-25
4.66423e-25
4.22364e-25
6.7972e-25
1.01477e-24
3.40219e-24
1.44523e-23
4.24167e-23
8.80542e-24
1.5684e-22
3.4764e-21
4.80018e-21
3.94766e-22
2.59104e-23
1.87636e-23
1.43903e-25
1.85352e-27
3.65043e-26
5.12325e-26
7.35199e-26
4.81234e-26
7.63281e-26
6.59139e-26
9.56047e-26
7.92883e-26
1.15316e-25
1.01981e-25
1.3048e-25
1.01426e-25
1.50102e-25
1.30193e-25
1.78348e-25
1.45903e-25
2.05916e-25
1.74048e-25
2.38413e-25
2.01989e-25
2.68033e-25
2.2804e-25
3.06763e-25
2.62771e-25
3.50923e-25
3.07085e-25
3.96833e-25
3.37417e-25
4.34114e-25
3.81555e-25
4.77195e-25
4.12957e-25
5.01307e-25
4.26563e-25
5.23934e-25
4.35861e-25
5.43912e-25
4.54301e-25
5.44678e-25
4.11077e-25
5.04636e-25
3.89556e-25
4.6974e-25
3.48604e-25