/*--------------------------------*- C++ -*----------------------------------*\
| =========                 |                                                 |
| \\      /  F ield         | OpenFOAM: The Open Source CFD Toolbox           |
|  \\    /   O peration     | Version:  2312                                  |
|   \\  /    A nd           | Website:  www.openfoam.com                      |
|    \\/     M anipulation  |                                                 |
\*---------------------------------------------------------------------------*/
FoamFile
{
    version     2.0;
    format      ascii;
    arch        "LSB;label=32;scalar=64";
    class       volScalarField;
    location    "400";
    object      p;
}
// * * * * * * * * * * * * * * * * * * * * * * * * * * * * * * * * * * * * * //

dimensions      [0 2 -2 0 0 0 0];

internalField   nonuniform List<scalar> 
330000
(
-7.30503e-09
-9.62649e-10
-3.78322e-09
-2.65099e-09
-1.68441e-09
-1.26164e-09
-4.3752e-10
-4.31981e-10
2.53761e-10
7.67847e-11
5.35175e-10
1.92218e-10
6.59096e-10
2.58971e-10
7.31561e-10
2.99127e-10
8.54962e-10
4.0769e-10
9.28088e-10
4.15355e-10
9.76396e-10
4.1895e-10
9.72915e-10
3.61775e-10
9.65961e-10
3.36316e-10
9.91158e-10
3.2244e-10
9.81377e-10
2.54331e-10
9.62256e-10
2.095e-10
9.81213e-10
1.86596e-10
9.6151e-10
1.11547e-10
9.55796e-10
9.71479e-11
1.0026e-09
1.11733e-10
1.02311e-09
8.46779e-11
1.04414e-09
1.05185e-10
1.137e-09
1.82599e-10
1.162e-09
1.7625e-10
1.15964e-09
2.11409e-10
1.1176e-09
2.64504e-10
1.08344e-09
4.60831e-10
8.02819e-10
6.43105e-10
1.66288e-10
8.28322e-10
-2.07492e-09
5.43738e-09
-7.24886e-09
-9.67679e-10
-3.79551e-09
-2.65566e-09
-1.6865e-09
-1.26148e-09
-4.3855e-10
-4.31952e-10
2.52907e-10
7.67892e-11
5.34485e-10
1.92324e-10
6.58429e-10
2.59127e-10
7.3094e-10
2.99364e-10
8.5435e-10
4.08004e-10
9.27416e-10
4.15708e-10
9.75724e-10
4.19358e-10
9.7226e-10
3.62296e-10
9.65271e-10
3.36878e-10
9.90404e-10
3.23035e-10
9.80632e-10
2.55063e-10
9.61444e-10
2.10261e-10
9.80331e-10
1.87407e-10
9.60601e-10
1.12491e-10
9.54815e-10
9.81417e-11
1.0015e-09
1.12761e-10
1.02198e-09
8.58862e-11
1.04289e-09
1.06409e-10
1.13562e-09
1.83909e-10
1.16055e-09
1.77757e-10
1.15808e-09
2.13079e-10
1.11596e-09
2.66314e-10
1.08187e-09
4.62975e-10
8.01438e-10
6.4599e-10
1.66747e-10
8.26459e-10
-2.09314e-09
5.42566e-09
-7.18938e-09
-9.76322e-10
-3.8127e-09
-2.66181e-09
-1.68843e-09
-1.2609e-09
-4.3902e-10
-4.32068e-10
2.52384e-10
7.63636e-11
5.34211e-10
1.9203e-10
6.58179e-10
2.58815e-10
7.30812e-10
2.99099e-10
8.54198e-10
4.07785e-10
9.27233e-10
4.15485e-10
9.75554e-10
4.19148e-10
9.72198e-10
3.62221e-10
9.65209e-10
3.36782e-10
9.90269e-10
3.22917e-10
9.80596e-10
2.55109e-10
9.61383e-10
2.10263e-10
9.80188e-10
1.87393e-10
9.60523e-10
1.12635e-10
9.54691e-10
9.82625e-11
1.00122e-09
1.12861e-10
1.02176e-09
8.62283e-11
1.04258e-09
1.06682e-10
1.13514e-09
1.84233e-10
1.16003e-09
1.78369e-10
1.1574e-09
2.13917e-10
1.1152e-09
2.67423e-10
1.08102e-09
4.64778e-10
8.00583e-10
6.49339e-10
1.68008e-10
8.25583e-10
-2.12816e-09
5.43303e-09
-7.12715e-09
-9.94898e-10
-3.83198e-09
-2.67023e-09
-1.68993e-09
-1.25935e-09
-4.38903e-10
-4.31792e-10
2.52051e-10
7.60221e-11
5.34171e-10
1.91766e-10
6.58097e-10
2.58457e-10
7.30884e-10
2.9877e-10
8.54166e-10
4.07464e-10
9.27184e-10
4.15136e-10
9.7549e-10
4.18776e-10
9.7231e-10
3.62034e-10
9.65323e-10
3.36532e-10
9.90268e-10
3.22599e-10
9.80762e-10
2.55014e-10
9.61535e-10
2.10074e-10
9.80212e-10
1.87141e-10
9.60687e-10
1.12599e-10
9.54805e-10
9.81506e-11
1.00114e-09
1.12676e-10
1.02181e-09
8.63695e-11
1.04255e-09
1.0667e-10
1.13487e-09
1.84214e-10
1.15981e-09
1.78699e-10
1.15702e-09
2.1445e-10
1.11483e-09
2.68201e-10
1.08063e-09
4.66255e-10
8.00579e-10
6.52451e-10
1.71875e-10
8.2168e-10
-2.17371e-09
5.45778e-09
-7.06427e-09
-1.02051e-09
-3.85156e-09
-2.68112e-09
-1.69112e-09
-1.25685e-09
-4.38357e-10
-4.3111e-10
2.51764e-10
7.58028e-11
5.34213e-10
1.91627e-10
6.58037e-10
2.5818e-10
7.31e-10
2.98519e-10
8.54095e-10
4.07193e-10
9.27101e-10
4.14821e-10
9.75356e-10
4.18421e-10
9.72403e-10
3.61919e-10
9.65416e-10
3.36331e-10
9.9019e-10
3.22293e-10
9.809e-10
2.55001e-10
9.6166e-10
2.0993e-10
9.80159e-10
1.86907e-10
9.60825e-10
1.12647e-10
9.54884e-10
9.80899e-11
1.00096e-09
1.12497e-10
1.02181e-09
8.66091e-11
1.04249e-09
1.06687e-10
1.13449e-09
1.84174e-10
1.15954e-09
1.79059e-10
1.1566e-09
2.14985e-10
1.11454e-09
2.68916e-10
1.08047e-09
4.67562e-10
8.01351e-10
6.55172e-10
1.78784e-10
8.1401e-10
-2.2244e-09
5.4934e-09
-7.00584e-09
-1.04883e-09
-3.86971e-09
-2.69437e-09
-1.69207e-09
-1.25355e-09
-4.37461e-10
-4.30125e-10
2.51469e-10
7.56564e-11
5.34287e-10
1.91577e-10
6.57972e-10
2.57967e-10
7.31131e-10
2.98331e-10
8.53968e-10
4.06967e-10
9.26967e-10
4.14537e-10
9.75138e-10
4.18085e-10
9.72458e-10
3.61876e-10
9.65471e-10
3.36184e-10
9.90021e-10
3.22006e-10
9.80993e-10
2.55077e-10
9.61743e-10
2.09844e-10
9.80013e-10
1.86709e-10
9.60915e-10
1.12793e-10
9.54909e-10
9.81005e-11
1.00065e-09
1.12347e-10
1.02175e-09
8.69665e-11
1.04237e-09
1.06757e-10
1.13397e-09
1.84151e-10
1.15919e-09
1.79484e-10
1.15611e-09
2.15572e-10
1.11428e-09
2.69621e-10
1.08046e-09
4.68751e-10
8.02837e-10
6.57421e-10
1.8893e-10
8.02216e-10
-2.27625e-09
5.53589e-09
-6.95822e-09
-1.07634e-09
-3.88431e-09
-2.70967e-09
-1.69274e-09
-1.24954e-09
-4.36254e-10
-4.28931e-10
2.51138e-10
7.55338e-11
5.34365e-10
1.9157e-10
6.57891e-10
2.57787e-10
7.31269e-10
2.98176e-10
8.53786e-10
4.06767e-10
9.26791e-10
4.14262e-10
9.74847e-10
4.1775e-10
9.72482e-10
3.61884e-10
9.655e-10
3.36071e-10
9.89777e-10
3.21723e-10
9.8105e-10
2.55219e-10
9.61797e-10
2.09795e-10
9.79796e-10
1.86534e-10
9.6097e-10
1.13015e-10
9.54896e-10
9.81653e-11
1.00025e-09
1.12213e-10
1.02162e-09
8.74217e-11
1.04219e-09
1.06866e-10
1.13333e-09
1.84142e-10
1.15875e-09
1.79967e-10
1.15555e-09
2.16214e-10
1.11402e-09
2.70325e-10
1.08055e-09
4.69827e-10
8.05017e-10
6.59049e-10
2.0257e-10
7.85711e-10
-2.32527e-09
5.58276e-09
-6.92764e-09
-1.10063e-09
-3.8931e-09
-2.72659e-09
-1.69304e-09
-1.24488e-09
-4.34763e-10
-4.27603e-10
2.5074e-10
7.53968e-11
5.34418e-10
1.91576e-10
6.57778e-10
2.5762e-10
7.31399e-10
2.98035e-10
8.5354e-10
4.06581e-10
9.26566e-10
4.13984e-10
9.74479e-10
4.17412e-10
9.72467e-10
3.61933e-10
9.65498e-10
3.35988e-10
9.89459e-10
3.21442e-10
9.81066e-10
2.55422e-10
9.61819e-10
2.09781e-10
9.79506e-10
1.86385e-10
9.60984e-10
1.13311e-10
9.54841e-10
9.82869e-11
9.99753e-10
1.12104e-10
1.02143e-09
8.79751e-11
1.04197e-09
1.07022e-10
1.13256e-09
1.84166e-10
1.15821e-09
1.80522e-10
1.1549e-09
2.16933e-10
1.11375e-09
2.71054e-10
1.08072e-09
4.70793e-10
8.07891e-10
6.59853e-10
2.20058e-10
7.63726e-10
-2.3676e-09
5.63232e-09
-6.91964e-09
-1.12015e-09
-3.89394e-09
-2.74461e-09
-1.69286e-09
-1.23959e-09
-4.32998e-10
-4.26195e-10
2.50249e-10
7.52148e-11
5.34416e-10
1.9157e-10
6.57613e-10
2.57452e-10
7.315e-10
2.97899e-10
8.53216e-10
4.06405e-10
9.26284e-10
4.13699e-10
9.74028e-10
4.17071e-10
9.72404e-10
3.6202e-10
9.65456e-10
3.35935e-10
9.89059e-10
3.2117e-10
9.81029e-10
2.55687e-10
9.61799e-10
2.09807e-10
9.79137e-10
1.86275e-10
9.60946e-10
1.13689e-10
9.54731e-10
9.8477e-11
9.99146e-10
1.12037e-10
1.02115e-09
8.86381e-11
1.04166e-09
1.07243e-10
1.13164e-09
1.8425e-10
1.15754e-09
1.81174e-10
1.15412e-09
2.17762e-10
1.1134e-09
2.71839e-10
1.08091e-09
4.71644e-10
8.11483e-10
6.59587e-10
2.41801e-10
7.35407e-10
-2.39993e-09
5.68363e-09
-6.939e-09
-1.13407e-09
-3.885e-09
-2.76317e-09
-1.69207e-09
-1.23367e-09
-4.30962e-10
-4.24747e-10
2.49645e-10
7.49621e-11
5.34333e-10
1.9153e-10
6.57375e-10
2.57271e-10
7.31553e-10
2.97755e-10
8.528e-10
4.06231e-10
9.25935e-10
4.13404e-10
9.73483e-10
4.16728e-10
9.72279e-10
3.62144e-10
9.65361e-10
3.35914e-10
9.88572e-10
3.20913e-10
9.80926e-10
2.56015e-10
9.61725e-10
2.0988e-10
9.7868e-10
1.86214e-10
9.60842e-10
1.14157e-10
9.54553e-10
9.87492e-11
9.98419e-10
1.12032e-10
1.02077e-09
8.94236e-11
1.04125e-09
1.07551e-10
1.13055e-09
1.84426e-10
1.15671e-09
1.81953e-10
1.15316e-09
2.18731e-10
1.11294e-09
2.72707e-10
1.08109e-09
4.72357e-10
8.15839e-10
6.57978e-10
2.68226e-10
6.99954e-10
-2.41954e-09
5.73633e-09
-6.98954e-09
-1.14216e-09
-3.86442e-09
-2.78172e-09
-1.69054e-09
-1.22711e-09
-4.28643e-10
-4.23288e-10
2.48914e-10
7.46193e-11
5.34148e-10
1.91439e-10
6.57049e-10
2.57064e-10
7.3154e-10
2.97596e-10
8.52278e-10
4.06053e-10
9.25507e-10
4.13095e-10
9.72836e-10
4.16383e-10
9.72081e-10
3.62302e-10
9.65204e-10
3.35927e-10
9.8799e-10
3.20676e-10
9.80747e-10
2.56409e-10
9.61586e-10
2.10007e-10
9.78125e-10
1.86215e-10
9.60657e-10
1.14722e-10
9.54291e-10
9.91162e-11
9.97561e-10
1.12105e-10
1.02025e-09
9.03446e-11
1.04072e-09
1.07967e-10
1.12925e-09
1.8472e-10
1.15568e-09
1.82883e-10
1.15201e-09
2.19869e-10
1.11233e-09
2.73677e-10
1.08123e-09
4.72894e-10
8.21033e-10
6.54735e-10
2.99752e-10
6.56599e-10
-2.42447e-09
5.7906e-09
-7.0742e-09
-1.14465e-09
-3.83091e-09
-2.7997e-09
-1.68817e-09
-1.21986e-09
-4.26028e-10
-4.21832e-10
2.4805e-10
7.4173e-11
5.33844e-10
1.91284e-10
6.56621e-10
2.56823e-10
7.31445e-10
2.97415e-10
8.51639e-10
4.05865e-10
9.24991e-10
4.12769e-10
9.7208e-10
4.16035e-10
9.71798e-10
3.62493e-10
9.64972e-10
3.35976e-10
9.87306e-10
3.20464e-10
9.80478e-10
2.56871e-10
9.61371e-10
2.10194e-10
9.77463e-10
1.86287e-10
9.60378e-10
1.15394e-10
9.53931e-10
9.95913e-11
9.96559e-10
1.12277e-10
1.0196e-09
9.14141e-11
1.04004e-09
1.08513e-10
1.12773e-09
1.85158e-10
1.15442e-09
1.83988e-10
1.15063e-09
2.21199e-10
1.11153e-09
2.74759e-10
1.08134e-09
4.73199e-10
8.2715e-10
6.49562e-10
3.36753e-10
6.04797e-10
-2.41338e-09
5.84694e-09
-7.19499e-09
-1.14218e-09
-3.78335e-09
-2.81659e-09
-1.68488e-09
-1.2119e-09
-4.23098e-10
-4.20384e-10
2.47053e-10
7.36153e-11
5.33409e-10
1.91055e-10
6.5608e-10
2.56542e-10
7.31256e-10
2.97206e-10
8.50874e-10
4.05662e-10
9.24377e-10
4.12424e-10
9.71206e-10
4.15686e-10
9.7142e-10
3.62714e-10
9.64657e-10
3.36061e-10
9.86513e-10
3.20283e-10
9.80108e-10
2.57402e-10
9.61068e-10
2.10449e-10
9.76684e-10
1.86444e-10
9.59991e-10
1.16182e-10
9.53459e-10
1.00188e-10
9.95401e-10
1.12564e-10
1.01877e-09
9.26455e-11
1.0392e-09
1.09208e-10
1.12597e-09
1.85766e-10
1.15291e-09
1.85289e-10
1.14898e-09
2.22739e-10
1.11052e-09
2.75954e-10
1.0814e-09
4.73206e-10
8.34289e-10
6.42182e-10
3.79532e-10
5.44143e-10
-2.38554e-09
5.90609e-09
-7.35303e-09
-1.13565e-09
-3.72086e-09
-2.8319e-09
-1.68062e-09
-1.2032e-09
-4.19839e-10
-4.18945e-10
2.45925e-10
7.2943e-11
5.32834e-10
1.90746e-10
6.55417e-10
2.56218e-10
7.3096e-10
2.96968e-10
8.49973e-10
4.0544e-10
9.23656e-10
4.12058e-10
9.70207e-10
4.15335e-10
9.70937e-10
3.62966e-10
9.64248e-10
3.36187e-10
9.85604e-10
3.2014e-10
9.79626e-10
2.58007e-10
9.60665e-10
2.10779e-10
9.75778e-10
1.86694e-10
9.59483e-10
1.17095e-10
9.5286e-10
1.00919e-10
9.94075e-10
1.12983e-10
1.01776e-09
9.40517e-11
1.03816e-09
1.10073e-10
1.12394e-09
1.86564e-10
1.15111e-09
1.86804e-10
1.14706e-09
2.24502e-10
1.10928e-09
2.77254e-10
1.08144e-09
4.72842e-10
8.42543e-10
6.32345e-10
4.28303e-10
4.74446e-10
-2.34076e-09
5.96885e-09
-7.54858e-09
-1.12618e-09
-3.64283e-09
-2.84518e-09
-1.67538e-09
-1.19375e-09
-4.16244e-10
-4.17512e-10
2.44668e-10
7.21553e-11
5.32112e-10
1.90354e-10
6.54626e-10
2.55848e-10
7.30548e-10
2.96697e-10
8.4893e-10
4.05197e-10
9.2282e-10
4.11672e-10
9.69075e-10
4.14985e-10
9.70337e-10
3.63248e-10
9.63733e-10
3.36357e-10
9.84571e-10
3.20039e-10
9.7902e-10
2.58689e-10
9.60151e-10
2.11192e-10
9.74735e-10
1.87049e-10
9.5884e-10
1.18142e-10
9.52118e-10
1.01799e-10
9.92566e-10
1.13551e-10
1.01654e-09
9.56448e-11
1.03691e-09
1.11125e-10
1.12161e-09
1.87572e-10
1.14901e-09
1.88545e-10
1.14482e-09
2.26494e-10
1.10779e-09
2.78646e-10
1.08147e-09
4.72034e-10
8.51998e-10
6.19846e-10
4.83186e-10
3.95701e-10
-2.27936e-09
6.03605e-09
-7.78119e-09
-1.11501e-09
-3.54887e-09
-2.85601e-09
-1.66916e-09
-1.18353e-09
-4.12308e-10
-4.16084e-10
2.43286e-10
7.12529e-11
5.31238e-10
1.89879e-10
6.537e-10
2.55433e-10
7.30012e-10
2.96396e-10
8.47738e-10
4.0493e-10
9.2186e-10
4.11266e-10
9.67805e-10
4.14638e-10
9.69613e-10
3.63561e-10
9.63104e-10
3.36572e-10
9.83408e-10
3.19988e-10
9.78279e-10
2.59451e-10
9.59515e-10
2.11697e-10
9.73546e-10
1.87518e-10
9.58049e-10
1.19333e-10
9.51221e-10
1.02838e-10
9.90865e-10
1.14284e-10
1.01511e-09
9.74361e-11
1.03543e-09
1.1238e-10
1.11899e-09
1.88804e-10
1.14659e-09
1.90524e-10
1.14227e-09
2.28718e-10
1.10606e-09
2.80113e-10
1.08151e-09
4.70713e-10
8.62726e-10
6.04524e-10
5.44189e-10
3.08116e-10
-2.20202e-09
6.10847e-09
-8.04971e-09
-1.10354e-09
-3.43884e-09
-2.86398e-09
-1.66199e-09
-1.17256e-09
-4.08035e-10
-4.14656e-10
2.41779e-10
7.02372e-11
5.30207e-10
1.89321e-10
6.52635e-10
2.54974e-10
7.29344e-10
2.96063e-10
8.46392e-10
4.04638e-10
9.20771e-10
4.10842e-10
9.6639e-10
4.14295e-10
9.68755e-10
3.63906e-10
9.62353e-10
3.36838e-10
9.82108e-10
3.19991e-10
9.77395e-10
2.60297e-10
9.58745e-10
2.123e-10
9.72201e-10
1.88112e-10
9.57099e-10
1.20676e-10
9.50156e-10
1.04048e-10
9.8896e-10
1.15195e-10
1.01344e-09
9.94359e-11
1.03369e-09
1.13853e-10
1.11604e-09
1.90275e-10
1.14383e-09
1.92747e-10
1.13938e-09
2.31173e-10
1.10407e-09
2.81635e-10
1.08158e-09
4.68819e-10
8.74777e-10
5.86275e-10
6.11214e-10
2.12055e-10
-2.10975e-09
6.18681e-09
-8.3524e-09
-1.09321e-09
-3.31279e-09
-2.86872e-09
-1.65391e-09
-1.16085e-09
-4.03433e-10
-4.13228e-10
2.4015e-10
6.91104e-11
5.29017e-10
1.8868e-10
6.51428e-10
2.54473e-10
7.28539e-10
2.95703e-10
8.44889e-10
4.04322e-10
9.19545e-10
4.10403e-10
9.64826e-10
4.13959e-10
9.67756e-10
3.64284e-10
9.61469e-10
3.37157e-10
9.80665e-10
3.20055e-10
9.76358e-10
2.61231e-10
9.57832e-10
2.13009e-10
9.70691e-10
1.8884e-10
9.55977e-10
1.22179e-10
9.48909e-10
1.05441e-10
9.86841e-10
1.16298e-10
1.01151e-09
1.01653e-10
1.0317e-09
1.15557e-10
1.11276e-09
1.91993e-10
1.14072e-09
1.9522e-10
1.13616e-09
2.33856e-10
1.10182e-09
2.83194e-10
1.0817e-09
4.66301e-10
8.88178e-10
5.65048e-10
6.8405e-10
1.08074e-10
-2.00381e-09
6.27164e-09
-8.68687e-09
-1.08543e-09
-3.17104e-09
-2.86989e-09
-1.64498e-09
-1.14842e-09
-3.98517e-10
-4.11796e-10
2.38399e-10
6.78738e-11
5.27662e-10
1.8796e-10
6.50075e-10
2.53932e-10
7.27592e-10
2.95316e-10
8.43225e-10
4.03982e-10
9.18178e-10
4.0995e-10
9.63107e-10
4.13633e-10
9.66609e-10
3.64697e-10
9.60445e-10
3.37534e-10
9.79073e-10
3.20186e-10
9.7516e-10
2.62257e-10
9.56767e-10
2.13832e-10
9.69008e-10
1.89708e-10
9.54674e-10
1.23851e-10
9.47471e-10
1.07026e-10
9.84499e-10
1.17604e-10
1.00933e-09
1.04095e-10
1.02942e-09
1.17501e-10
1.10914e-09
1.93968e-10
1.13725e-09
1.97944e-10
1.13259e-09
2.36761e-10
1.09932e-09
2.84773e-10
1.08189e-09
4.63124e-10
9.02932e-10
5.40852e-10
7.62396e-10
-3.10969e-12
-1.88577e-09
6.36332e-09
-9.05029e-09
-1.0816e-09
-3.01407e-09
-2.86718e-09
-1.63525e-09
-1.13532e-09
-3.93303e-10
-4.10362e-10
2.36523e-10
6.65287e-11
5.26141e-10
1.87161e-10
6.48572e-10
2.53354e-10
7.26498e-10
2.94905e-10
8.41397e-10
4.03618e-10
9.16664e-10
4.09487e-10
9.6123e-10
4.1332e-10
9.65307e-10
3.65147e-10
9.59275e-10
3.37971e-10
9.77327e-10
3.2039e-10
9.73793e-10
2.6338e-10
9.55539e-10
2.14775e-10
9.67145e-10
1.90726e-10
9.5318e-10
1.25696e-10
9.45831e-10
1.0881e-10
9.81925e-10
1.19123e-10
1.00687e-09
1.06769e-10
1.02685e-09
1.19695e-10
1.10517e-09
1.96204e-10
1.13341e-09
2.00919e-10
1.12867e-09
2.39884e-10
1.09657e-09
2.86357e-10
1.08214e-09
4.59263e-10
9.19016e-10
5.13747e-10
8.45872e-10
-1.20613e-10
-1.7573e-09
6.462e-09
-9.43941e-09
-1.08311e-09
-2.84258e-09
-2.86031e-09
-1.6248e-09
-1.12159e-09
-3.87811e-10
-4.08923e-10
2.34522e-10
6.50763e-11
5.24448e-10
1.86285e-10
6.46918e-10
2.5274e-10
7.25253e-10
2.94474e-10
8.39404e-10
4.03232e-10
9.15e-10
4.09017e-10
9.59192e-10
4.13024e-10
9.63847e-10
3.65636e-10
9.57953e-10
3.38473e-10
9.75422e-10
3.20671e-10
9.72251e-10
2.64602e-10
9.54143e-10
2.15844e-10
9.65095e-10
1.919e-10
9.51488e-10
1.27723e-10
9.43981e-10
1.10802e-10
9.79114e-10
1.20863e-10
1.00414e-09
1.09679e-10
1.02399e-09
1.22146e-10
1.10084e-09
1.98706e-10
1.12919e-09
2.04147e-10
1.1244e-09
2.43216e-10
1.09355e-09
2.87932e-10
1.08248e-09
4.54709e-10
9.36381e-10
4.83847e-10
9.33936e-10
-2.43462e-10
-1.62021e-09
6.56771e-09
-9.85065e-09
-1.09126e-09
-2.65745e-09
-2.84901e-09
-1.61369e-09
-1.10727e-09
-3.82062e-10
-4.07478e-10
2.32394e-10
6.35185e-11
5.22582e-10
1.85336e-10
6.45108e-10
2.52094e-10
7.23854e-10
2.94024e-10
8.37244e-10
4.02824e-10
9.13181e-10
4.08542e-10
9.56989e-10
4.12746e-10
9.62222e-10
3.66167e-10
9.56471e-10
3.39042e-10
9.73354e-10
3.21035e-10
9.70529e-10
2.65927e-10
9.5257e-10
2.17046e-10
9.62853e-10
1.93235e-10
9.49591e-10
1.29935e-10
9.41912e-10
1.13007e-10
9.7606e-10
1.22834e-10
1.00112e-09
1.12831e-10
1.02081e-09
1.2486e-10
1.09615e-09
2.01476e-10
1.1246e-09
2.07625e-10
1.11978e-09
2.46752e-10
1.09029e-09
2.89491e-10
1.08288e-09
4.49468e-10
9.54953e-10
4.5132e-10
1.02601e-09
-3.70549e-10
-1.47632e-09
6.68021e-09
-1.028e-08
-1.10719e-09
-2.45974e-09
-2.83307e-09
-1.60199e-09
-1.09245e-09
-3.76081e-10
-4.06023e-10
2.30139e-10
6.18569e-11
5.20539e-10
1.84314e-10
6.43142e-10
2.51418e-10
7.22299e-10
2.93558e-10
8.34916e-10
4.02396e-10
9.11205e-10
4.08067e-10
9.5462e-10
4.12491e-10
9.60429e-10
3.6674e-10
9.54826e-10
3.39683e-10
9.71121e-10
3.21486e-10
9.68621e-10
2.67359e-10
9.50815e-10
2.18384e-10
9.60413e-10
1.94737e-10
9.47482e-10
1.32338e-10
9.39618e-10
1.15432e-10
9.72758e-10
1.25039e-10
9.97805e-10
1.16226e-10
1.01732e-09
1.27841e-10
1.09109e-09
2.04515e-10
1.11964e-09
2.11352e-10
1.1148e-09
2.50487e-10
1.08677e-09
2.9103e-10
1.08334e-09
4.4356e-10
9.74632e-10
4.16386e-10
1.12143e-09
-5.00662e-10
-1.32757e-09
6.799e-09
-1.07234e-08
-1.13187e-09
-2.25065e-09
-2.81232e-09
-1.58977e-09
-1.07718e-09
-3.69894e-10
-4.04559e-10
2.27755e-10
6.00938e-11
5.18317e-10
1.83223e-10
6.41017e-10
2.50714e-10
7.20584e-10
2.93079e-10
8.32418e-10
4.01949e-10
9.09069e-10
4.07594e-10
9.52082e-10
4.1226e-10
9.58465e-10
3.67359e-10
9.53012e-10
3.40397e-10
9.68718e-10
3.22029e-10
9.66523e-10
2.689e-10
9.48873e-10
2.19865e-10
9.57772e-10
1.96411e-10
9.45158e-10
1.34935e-10
9.37094e-10
1.18079e-10
9.69204e-10
1.27486e-10
9.94196e-10
1.19867e-10
1.01351e-09
1.31093e-10
1.08567e-09
2.07824e-10
1.11429e-09
2.15324e-10
1.10947e-09
2.54414e-10
1.08298e-09
2.92545e-10
1.08384e-09
4.37017e-10
9.95293e-10
3.79312e-10
1.21947e-09
-6.32493e-10
-1.17588e-09
6.92332e-09
-1.11764e-08
-1.16623e-09
-2.03154e-09
-2.78661e-09
-1.57709e-09
-1.06154e-09
-3.63525e-10
-4.03081e-10
2.25244e-10
5.82317e-11
5.15916e-10
1.82065e-10
6.38731e-10
2.49985e-10
7.18709e-10
2.92589e-10
8.2975e-10
4.01484e-10
9.0677e-10
4.07126e-10
9.49373e-10
4.12057e-10
9.56327e-10
3.68026e-10
9.51027e-10
3.41187e-10
9.66143e-10
3.22667e-10
9.64233e-10
2.70552e-10
9.46738e-10
2.21492e-10
9.54926e-10
1.98259e-10
9.42612e-10
1.3773e-10
9.34335e-10
1.20952e-10
9.65396e-10
1.30177e-10
9.90289e-10
1.23756e-10
1.00938e-09
1.34619e-10
1.07988e-09
2.11403e-10
1.10856e-09
2.19539e-10
1.10378e-09
2.58528e-10
1.07894e-09
2.9404e-10
1.08436e-09
4.29888e-10
1.01679e-09
3.40409e-10
1.31932e-09
-7.64728e-10
-1.02308e-09
7.05229e-09
-1.16348e-08
-1.21105e-09
-1.80386e-09
-2.75579e-09
-1.56399e-09
-1.04561e-09
-3.57003e-10
-4.01584e-10
2.22607e-10
5.62748e-11
5.13335e-10
1.80844e-10
6.36285e-10
2.49232e-10
7.16671e-10
2.92091e-10
8.26913e-10
4.01001e-10
9.04306e-10
4.06665e-10
9.46493e-10
4.11884e-10
9.54013e-10
3.68741e-10
9.48868e-10
3.42055e-10
9.63395e-10
3.23404e-10
9.61748e-10
2.72319e-10
9.44407e-10
2.23268e-10
9.51873e-10
2.00286e-10
9.39844e-10
1.40724e-10
9.31338e-10
1.24054e-10
9.61332e-10
1.33117e-10
9.86081e-10
1.27893e-10
1.00492e-09
1.38418e-10
1.07373e-09
2.15248e-10
1.10246e-09
2.23994e-10
1.09775e-09
2.62824e-10
1.07464e-09
2.9552e-10
1.08487e-09
4.22235e-10
1.03895e-09
3.00023e-10
1.42011e-09
-8.96005e-10
-8.70934e-10
7.18484e-09
-1.20939e-08
-1.26684e-09
-1.56919e-09
-2.7198e-09
-1.55053e-09
-1.02949e-09
-3.50356e-10
-4.00063e-10
2.19845e-10
5.42269e-11
5.10574e-10
1.79563e-10
6.33678e-10
2.4846e-10
7.14471e-10
2.91586e-10
8.23907e-10
4.00502e-10
9.01676e-10
4.06216e-10
9.43441e-10
4.11742e-10
9.51521e-10
3.69507e-10
9.46531e-10
3.43004e-10
9.60472e-10
3.24243e-10
9.59066e-10
2.74201e-10
9.41877e-10
2.25196e-10
9.48611e-10
2.02492e-10
9.36849e-10
1.4392e-10
9.28099e-10
1.27386e-10
9.5701e-10
1.36308e-10
9.81573e-10
1.32279e-10
1.00013e-09
1.42493e-10
1.06722e-09
2.19358e-10
1.09598e-09
2.28685e-10
1.09136e-09
2.673e-10
1.07006e-09
2.96997e-10
1.08534e-09
4.1413e-10
1.06158e-09
2.58541e-10
1.52096e-09
-1.02492e-09
-7.21149e-10
7.31959e-09
-1.25493e-08
-1.33393e-09
-1.32915e-09
-2.67861e-09
-1.53674e-09
-1.01325e-09
-3.43612e-10
-3.98514e-10
2.16961e-10
5.20928e-11
5.07635e-10
1.78226e-10
6.30911e-10
2.47671e-10
7.1211e-10
2.91078e-10
8.20732e-10
3.99988e-10
8.9888e-10
4.0578e-10
9.40215e-10
4.11635e-10
9.48851e-10
3.70325e-10
9.44015e-10
3.44034e-10
9.57373e-10
3.25187e-10
9.56185e-10
2.762e-10
9.39146e-10
2.27279e-10
9.45138e-10
2.04881e-10
9.33627e-10
1.47319e-10
9.24618e-10
1.30948e-10
9.52431e-10
1.3975e-10
9.76764e-10
1.36912e-10
9.95006e-10
1.46841e-10
1.06034e-09
2.2373e-10
1.08913e-09
2.33608e-10
1.08462e-09
2.71951e-10
1.06521e-09
2.9848e-10
1.0857e-09
4.0566e-10
1.08447e-09
2.16373e-10
1.62095e-09
-1.15004e-09
-5.7532e-10
7.45499e-09
-1.29967e-08
-1.41261e-09
-1.08546e-09
-2.63218e-09
-1.52264e-09
-9.97e-10
-3.36797e-10
-3.96929e-10
2.1396e-10
4.98778e-11
5.04519e-10
1.76837e-10
6.27985e-10
2.46867e-10
7.09587e-10
2.90568e-10
8.1739e-10
3.9946e-10
8.95916e-10
4.0536e-10
9.36818e-10
4.11564e-10
9.46001e-10
3.71197e-10
9.41318e-10
3.45147e-10
9.54097e-10
3.26238e-10
9.53105e-10
2.78318e-10
9.36212e-10
2.29518e-10
9.41454e-10
2.07453e-10
9.30177e-10
1.50921e-10
9.20892e-10
1.34741e-10
9.47595e-10
1.43445e-10
9.71655e-10
1.41791e-10
9.89559e-10
1.51462e-10
1.05311e-09
2.28359e-10
1.08191e-09
2.38759e-10
1.07754e-09
2.76776e-10
1.06007e-09
2.99988e-10
1.08593e-09
3.96919e-10
1.10741e-09
1.73955e-10
1.71914e-09
-1.27004e-09
-4.34877e-10
7.58946e-09
-1.34317e-08
-1.50301e-09
-8.39838e-10
-2.5805e-09
-1.50824e-09
-9.80817e-10
-3.29939e-10
-3.95299e-10
2.10848e-10
4.7589e-11
5.0123e-10
1.75402e-10
6.24902e-10
2.46053e-10
7.06904e-10
2.9006e-10
8.13881e-10
3.9892e-10
8.92784e-10
4.04958e-10
9.33248e-10
4.11531e-10
9.42972e-10
3.72124e-10
9.3844e-10
3.46344e-10
9.50645e-10
3.27398e-10
9.49826e-10
2.80556e-10
9.33073e-10
2.31915e-10
9.37559e-10
2.10208e-10
9.26499e-10
1.54727e-10
9.16922e-10
1.38764e-10
9.42503e-10
1.47393e-10
9.6625e-10
1.46914e-10
9.83785e-10
1.56354e-10
1.04552e-09
2.33241e-10
1.07433e-09
2.44133e-10
1.07011e-09
2.8177e-10
1.05464e-09
3.01541e-10
1.08596e-09
3.88013e-10
1.13015e-09
1.31737e-10
1.81457e-09
-1.3836e-09
-3.01066e-10
7.72131e-09
-1.38501e-08
-1.60499e-09
-5.9406e-10
-2.52363e-09
-1.49353e-09
-9.648e-10
-3.23065e-10
-3.93615e-10
2.07631e-10
4.5233e-11
4.97772e-10
1.73925e-10
6.21665e-10
2.45231e-10
7.04063e-10
2.89555e-10
8.10209e-10
3.98367e-10
8.89485e-10
4.04577e-10
9.29506e-10
4.11537e-10
9.39763e-10
3.73108e-10
9.35381e-10
3.47625e-10
9.47017e-10
3.28668e-10
9.46348e-10
2.82913e-10
9.29729e-10
2.34471e-10
9.33453e-10
2.13148e-10
9.22593e-10
1.58735e-10
9.12709e-10
1.43014e-10
9.37156e-10
1.51592e-10
9.60549e-10
1.52278e-10
9.77686e-10
1.61512e-10
1.03759e-09
2.38372e-10
1.06639e-09
2.49726e-10
1.06235e-09
2.86935e-10
1.0489e-09
3.03159e-10
1.08573e-09
3.79054e-10
1.15244e-09
9.01853e-11
1.9063e-09
-1.48942e-09
-1.75048e-10
7.84865e-09
-1.42481e-08
-1.7182e-09
-3.49858e-10
-2.46165e-09
-1.47852e-09
-9.49043e-10
-3.16202e-10
-3.91869e-10
2.04315e-10
4.28173e-11
4.94149e-10
1.72412e-10
6.18276e-10
2.44405e-10
7.01067e-10
2.89056e-10
8.06374e-10
3.97805e-10
8.86019e-10
4.04219e-10
9.25594e-10
4.11584e-10
9.36376e-10
3.74148e-10
9.32139e-10
3.48991e-10
9.43212e-10
3.30051e-10
9.42672e-10
2.85391e-10
9.26181e-10
2.37185e-10
9.29137e-10
2.1627e-10
9.1846e-10
1.62946e-10
9.08253e-10
1.47491e-10
9.31557e-10
1.56041e-10
9.54557e-10
1.57879e-10
9.71267e-10
1.66934e-10
1.02932e-09
2.43744e-10
1.0581e-09
2.55533e-10
1.05424e-09
2.92269e-10
1.04286e-09
3.04867e-10
1.08519e-09
3.70159e-10
1.17404e-09
4.97633e-11
1.99346e-09
-1.58627e-09
-5.78199e-11
7.96944e-09
-1.46223e-08
-1.84236e-09
-1.08967e-10
-2.39463e-09
-1.46316e-09
-9.33629e-10
-3.09372e-10
-3.90048e-10
2.0091e-10
4.035e-11
4.90368e-10
1.70867e-10
6.1474e-10
2.43579e-10
6.9792e-10
2.88566e-10
8.0238e-10
3.97234e-10
8.82388e-10
4.03887e-10
9.21513e-10
4.11673e-10
9.32812e-10
3.75247e-10
9.28718e-10
3.50443e-10
9.39233e-10
3.31547e-10
9.38799e-10
2.8799e-10
9.2243e-10
2.40057e-10
9.24613e-10
2.19575e-10
9.14102e-10
1.67357e-10
9.03556e-10
1.52191e-10
9.25709e-10
1.60737e-10
9.48278e-10
1.63715e-10
9.64532e-10
1.72614e-10
1.02071e-09
2.49352e-10
1.04947e-09
2.61548e-10
1.0458e-09
2.9777e-10
1.03648e-09
3.06692e-10
1.08426e-09
3.6145e-10
1.19469e-09
1.09307e-11
2.07509e-09
-1.67303e-09
4.98232e-11
8.08184e-09
-1.49686e-08
-1.97712e-09
1.26932e-10
-2.32268e-09
-1.44741e-09
-9.18636e-10
-3.02598e-10
-3.88139e-10
1.97426e-10
3.78409e-11
4.86434e-10
1.69298e-10
6.11062e-10
2.42757e-10
6.94625e-10
2.88088e-10
7.98229e-10
3.96655e-10
8.78592e-10
4.03584e-10
9.17265e-10
4.11806e-10
9.29072e-10
3.76405e-10
9.25116e-10
3.5198e-10
9.35081e-10
3.33156e-10
9.34731e-10
2.90708e-10
9.18475e-10
2.43088e-10
9.19882e-10
2.23061e-10
9.09521e-10
1.71967e-10
8.98621e-10
1.5711e-10
9.19616e-10
1.65678e-10
9.41717e-10
1.6978e-10
9.57487e-10
1.78548e-10
1.01177e-09
2.55188e-10
1.04049e-09
2.67767e-10
1.03702e-09
3.03439e-10
1.02977e-09
3.08662e-10
1.08287e-09
3.53051e-10
1.21413e-09
-2.58618e-11
2.15035e-09
-1.7487e-09
1.47279e-10
8.18403e-09
-1.52843e-08
-2.12186e-09
3.56214e-10
-2.24592e-09
-1.43123e-09
-9.04145e-10
-2.95901e-10
-3.86128e-10
1.93873e-10
3.52993e-11
4.82356e-10
1.6771e-10
6.07246e-10
2.41943e-10
6.91187e-10
2.87625e-10
7.93924e-10
3.96069e-10
8.74635e-10
4.0331e-10
9.1285e-10
4.11984e-10
9.25158e-10
3.77624e-10
9.21336e-10
3.53602e-10
9.30756e-10
3.3488e-10
9.3047e-10
2.93547e-10
9.1432e-10
2.46276e-10
9.14948e-10
2.26726e-10
9.04719e-10
1.76773e-10
8.93451e-10
1.62245e-10
9.1328e-10
1.7086e-10
9.34879e-10
1.76069e-10
9.50136e-10
1.84729e-10
1.00252e-09
2.61246e-10
1.03119e-09
2.74185e-10
1.02791e-09
3.09278e-10
1.02271e-09
3.10807e-10
1.08097e-09
3.45089e-10
1.23211e-09
-6.01733e-11
2.21844e-09
-1.81231e-09
2.3405e-10
8.27406e-09
-1.55666e-08
-2.2758e-09
5.77343e-10
-2.16452e-09
-1.41455e-09
-8.90233e-10
-2.893e-10
-3.84003e-10
1.90263e-10
3.27351e-11
4.78141e-10
1.66109e-10
6.03298e-10
2.41141e-10
6.87611e-10
2.8718e-10
7.89468e-10
3.95479e-10
8.70517e-10
4.03068e-10
9.08273e-10
4.12207e-10
9.21072e-10
3.78903e-10
9.1738e-10
3.5531e-10
9.26263e-10
3.36718e-10
9.26018e-10
2.96505e-10
9.09967e-10
2.49621e-10
9.09812e-10
2.30567e-10
8.99701e-10
1.81772e-10
8.88049e-10
1.67592e-10
9.06708e-10
1.76279e-10
9.2777e-10
1.82577e-10
9.42488e-10
1.91152e-10
9.9295e-10
2.67518e-10
1.02156e-09
2.80796e-10
1.01847e-09
3.15285e-10
1.01529e-09
3.13155e-10
1.07847e-09
3.37685e-10
1.24837e-09
-9.15838e-11
2.27861e-09
-1.86302e-09
3.09778e-10
8.34996e-09
-1.58128e-08
-2.43825e-09
7.88867e-10
-2.07863e-09
-1.39731e-09
-8.76961e-10
-2.82813e-10
-3.81748e-10
1.86609e-10
3.01587e-11
4.73799e-10
1.64503e-10
5.99223e-10
2.40355e-10
6.83901e-10
2.86755e-10
7.84864e-10
3.94884e-10
8.66242e-10
4.02861e-10
9.03534e-10
4.12477e-10
9.16816e-10
3.80244e-10
9.13249e-10
3.57101e-10
9.21602e-10
3.3867e-10
9.21378e-10
2.9958e-10
9.05418e-10
2.53119e-10
9.04478e-10
2.34583e-10
8.94469e-10
1.86962e-10
8.8242e-10
1.73145e-10
8.99903e-10
1.8193e-10
9.20396e-10
1.89298e-10
9.3455e-10
1.97808e-10
9.83078e-10
2.73996e-10
1.01162e-09
2.87594e-10
1.00871e-09
3.21462e-10
1.00749e-09
3.15738e-10
1.07531e-09
3.30959e-10
1.2627e-09
-1.19701e-10
2.33017e-09
-1.90012e-09
3.74301e-10
8.41002e-09
-1.60211e-08
-2.60848e-09
9.89445e-10
-1.98841e-09
-1.3794e-09
-8.64378e-10
-2.76449e-10
-3.79344e-10
1.82926e-10
2.75821e-11
4.69339e-10
1.62898e-10
5.95029e-10
2.3959e-10
6.80065e-10
2.86356e-10
7.80117e-10
3.94287e-10
8.61812e-10
4.02691e-10
8.98637e-10
4.12794e-10
9.12394e-10
3.81647e-10
9.08947e-10
3.58976e-10
9.16777e-10
3.40737e-10
9.16554e-10
3.02773e-10
9.00676e-10
2.56771e-10
8.98949e-10
2.38769e-10
8.89028e-10
1.92338e-10
8.76569e-10
1.789e-10
8.92872e-10
1.87809e-10
9.12763e-10
1.96225e-10
9.26329e-10
2.04693e-10
9.72911e-10
2.8067e-10
1.00137e-09
2.94574e-10
9.98626e-10
3.27809e-10
9.99292e-10
3.18584e-10
1.07141e-09
3.25027e-10
1.27486e-09
-1.44167e-10
2.37249e-09
-1.92306e-09
4.27622e-10
8.45263e-09
-1.61895e-08
-2.78563e-09
1.17787e-09
-1.89403e-09
-1.3608e-09
-8.52536e-10
-2.7022e-10
-3.76775e-10
1.79229e-10
2.50167e-11
4.64772e-10
1.61302e-10
5.90723e-10
2.3885e-10
6.76108e-10
2.85985e-10
7.75229e-10
3.93687e-10
8.5723e-10
4.0256e-10
8.93584e-10
4.13159e-10
9.07808e-10
3.83112e-10
9.04477e-10
3.60935e-10
9.11791e-10
3.42916e-10
9.11548e-10
3.06081e-10
8.95745e-10
2.60574e-10
8.93229e-10
2.43122e-10
8.83382e-10
1.97898e-10
8.70499e-10
1.84851e-10
8.85619e-10
1.93908e-10
9.0488e-10
2.03352e-10
9.17835e-10
2.11797e-10
9.62458e-10
2.87532e-10
9.90816e-10
3.0173e-10
9.88221e-10
3.34326e-10
9.90695e-10
3.21725e-10
1.06671e-09
3.19996e-10
1.28464e-09
-1.64659e-10
2.40504e-09
-1.93132e-09
4.6983e-10
8.47619e-09
-1.63166e-08
-2.96875e-09
1.35304e-09
-1.79569e-09
-1.34134e-09
-8.41481e-10
-2.64136e-10
-3.74024e-10
1.75533e-10
2.24745e-11
4.60109e-10
1.59722e-10
5.86312e-10
2.3814e-10
6.72037e-10
2.85646e-10
7.70203e-10
3.93087e-10
8.525e-10
4.02469e-10
8.88378e-10
4.13573e-10
9.03061e-10
3.8464e-10
8.9984e-10
3.62975e-10
9.06646e-10
3.45209e-10
9.06365e-10
3.09502e-10
8.90631e-10
2.64525e-10
8.87321e-10
2.47639e-10
8.77536e-10
2.03637e-10
8.64218e-10
1.90992e-10
8.78151e-10
2.00223e-10
8.96753e-10
2.1067e-10
9.09077e-10
2.19113e-10
9.51726e-10
2.94573e-10
9.79977e-10
3.09056e-10
9.77497e-10
3.41015e-10
9.81683e-10
3.25186e-10
1.06115e-09
3.15966e-10
1.29185e-09
-1.80891e-10
2.42734e-09
-1.92455e-09
5.01098e-10
8.47924e-09
-1.64015e-08
-3.15701e-09
1.51404e-09
-1.69358e-09
-1.32097e-09
-8.3124e-10
-2.582e-10
-3.71071e-10
1.71854e-10
1.99674e-11
4.55363e-10
1.58166e-10
5.81804e-10
2.37465e-10
6.67859e-10