/*--------------------------------*- C++ -*----------------------------------*\
| =========                 |                                                 |
| \\      /  F ield         | OpenFOAM: The Open Source CFD Toolbox           |
|  \\    /   O peration     | Version:  2312                                  |
|   \\  /    A nd           | Website:  www.openfoam.com                      |
|    \\/     M anipulation  |                                                 |
\*---------------------------------------------------------------------------*/
FoamFile
{
    version     2.0;
    format      ascii;
    arch        "LSB;label=32;scalar=64";
    class       volScalarField;
    location    "400";
    object      pMean;
}
// * * * * * * * * * * * * * * * * * * * * * * * * * * * * * * * * * * * * * //

dimensions      [0 2 -2 0 0 0 0];

internalField   nonuniform List<scalar> 
330000
(
-1.17134e-08
-3.15652e-09
-7.23273e-09
-5.65679e-09
-3.78761e-09
-2.74694e-09
-1.43738e-09
-1.12651e-09
-1.95982e-10
-2.28574e-10
4.01792e-10
1.25004e-10
7.34451e-10
3.44046e-10
9.42799e-10
4.729e-10
1.1556e-09
6.30557e-10
1.29878e-09
6.76605e-10
1.41013e-09
7.10146e-10
1.4678e-09
6.79958e-10
1.52401e-09
6.79143e-10
1.6145e-09
6.86796e-10
1.67552e-09
6.44894e-10
1.73436e-09
6.27177e-10
1.83577e-09
6.27018e-10
1.90413e-09
5.73102e-10
1.98885e-09
5.70149e-10
2.12315e-09
5.81973e-10
2.23715e-09
5.5358e-10
2.36056e-09
5.69387e-10
2.56075e-09
6.38022e-10
2.72506e-09
6.52554e-10
2.90278e-09
7.30854e-10
3.093e-09
8.73975e-10
3.32898e-09
1.20807e-09
3.37678e-09
1.75367e-09
3.11542e-09
2.87322e-09
-3.61418e-09
1.39799e-08
-1.16106e-08
-3.14689e-09
-7.24685e-09
-5.6644e-09
-3.79075e-09
-2.74782e-09
-1.43928e-09
-1.12757e-09
-1.97609e-10
-2.2954e-10
4.00481e-10
1.24304e-10
7.33286e-10
3.43517e-10
9.41791e-10
4.72552e-10
1.15468e-09
6.30366e-10
1.29784e-09
6.76521e-10
1.40922e-09
7.10178e-10
1.46693e-09
6.80159e-10
1.52312e-09
6.79434e-10
1.61354e-09
6.87175e-10
1.67456e-09
6.45465e-10
1.73331e-09
6.27827e-10
1.83462e-09
6.2778e-10
1.90292e-09
5.74075e-10
1.98753e-09
5.71255e-10
2.12166e-09
5.83221e-10
2.23555e-09
5.55133e-10
2.35875e-09
5.71099e-10
2.55869e-09
6.40009e-10
2.72274e-09
6.5498e-10
2.90011e-09
7.33794e-10
3.08991e-09
8.77609e-10
3.32538e-09
1.21307e-09
3.37206e-09
1.76132e-09
3.11203e-09
2.88679e-09
-3.65462e-09
1.39356e-08
-1.15054e-08
-3.14458e-09
-7.2643e-09
-5.67303e-09
-3.79346e-09
-2.74814e-09
-1.44064e-09
-1.1289e-09
-1.98997e-10
-2.31149e-10
3.9952e-10
1.23001e-10
7.32502e-10
3.42314e-10
9.41283e-10
4.71491e-10
1.15427e-09
6.29411e-10
1.29748e-09
6.75607e-10
1.40895e-09
7.09312e-10
1.46683e-09
6.79457e-10
1.52308e-09
6.78716e-10
1.61348e-09
6.86452e-10
1.67464e-09
6.44919e-10
1.7334e-09
6.27232e-10
1.83466e-09
6.27168e-10
1.90307e-09
5.73624e-10
1.98767e-09
5.7078e-10
2.1217e-09
5.82753e-10
2.23566e-09
5.54933e-10
2.35877e-09
5.70862e-10
2.55855e-09
6.39902e-10
2.7225e-09
6.55286e-10
2.89958e-09
7.34561e-10
3.08901e-09
8.79114e-10
3.32382e-09
1.21631e-09
3.36888e-09
1.76783e-09
3.1097e-09
2.90502e-09
-3.72643e-09
1.39256e-08
-1.14024e-08
-3.16289e-09
-7.27856e-09
-5.68211e-09
-3.79505e-09
-2.74686e-09
-1.44121e-09
-1.12974e-09
-2.00181e-10
-2.32662e-10
3.98781e-10
1.21728e-10
7.31865e-10
3.41045e-10
9.40967e-10
4.70344e-10
1.15398e-09
6.28322e-10
1.29726e-09
6.74529e-10
1.40879e-09
7.08245e-10
1.46693e-09
6.78598e-10
1.52324e-09
6.7779e-10
1.61361e-09
6.85467e-10
1.67498e-09
6.44163e-10
1.73377e-09
6.26364e-10
1.83496e-09
6.26225e-10
1.90356e-09
5.72897e-10
1.98816e-09
5.69956e-10
2.12207e-09
5.81861e-10
2.23619e-09
5.54365e-10
2.35924e-09
5.70156e-10
2.55879e-09
6.39256e-10
2.7227e-09
6.55083e-10
2.8995e-09
7.34773e-10
3.0886e-09
8.80033e-10
3.32272e-09
1.219e-09
3.36615e-09
1.77317e-09
3.11045e-09
2.91723e-09
-3.81173e-09
1.39474e-08
-1.13116e-08
-3.19768e-09
-7.28387e-09
-5.69033e-09
-3.7951e-09
-2.74378e-09
-1.44106e-09
-1.13006e-09
-2.01355e-10
-2.341e-10
3.98039e-10
1.20531e-10
7.31162e-10
3.39807e-10
9.40618e-10
4.6924e-10
1.15358e-09
6.27254e-10
1.29693e-09
6.73468e-10
1.4085e-09
7.07185e-10
1.46695e-09
6.77816e-10
1.52333e-09
6.7692e-10
1.6136e-09
6.84511e-10
1.67523e-09
6.43519e-10
1.73404e-09
6.2558e-10
1.83511e-09
6.25347e-10
1.90395e-09
5.72313e-10
1.98854e-09
5.69245e-10
2.12226e-09
5.81053e-10
2.23657e-09
5.53985e-10
2.35953e-09
5.69585e-10
2.55877e-09
6.38729e-10
2.72264e-09
6.55092e-10
2.89907e-09
7.35235e-10
3.08779e-09
8.81266e-10
3.32103e-09
1.22213e-09
3.36274e-09
1.77821e-09
3.11408e-09
2.9195e-09
-3.89489e-09
1.39895e-08
-1.12447e-08
-3.24245e-09
-7.27593e-09
-5.69652e-09
-3.79311e-09
-2.73871e-09
-1.44014e-09
-1.12994e-09
-2.02572e-10
-2.35546e-10
3.97207e-10
1.19319e-10
7.3032e-10
3.38532e-10
9.40164e-10
4.68119e-10
1.15303e-09
6.26166e-10
1.29646e-09
6.72388e-10
1.40804e-09
7.0611e-10
1.46685e-09
6.77087e-10
1.52331e-09
6.76094e-10
1.61343e-09
6.83579e-10
1.67536e-09
6.42984e-10
1.7342e-09
6.24884e-10
1.83509e-09
6.24549e-10
1.9042e-09
5.71883e-10
1.98876e-09
5.68674e-10
2.12222e-09
5.80359e-10
2.23674e-09
5.53828e-10
2.35959e-09
5.69203e-10
2.5584e-09
6.38401e-10
2.72219e-09
6.55412e-10
2.89815e-09
7.36101e-10
3.08633e-09
8.83052e-10
3.31837e-09
1.22607e-09
3.35804e-09
1.78329e-09
3.12032e-09
2.90964e-09
-3.96663e-09
1.40451e-08
-1.12122e-08
-3.29171e-09
-7.25112e-09
-5.69978e-09
-3.78865e-09
-2.73145e-09
-1.43827e-09
-1.12936e-09
-2.03793e-10
-2.37017e-10
3.96268e-10
1.18039e-10
7.29317e-10
3.37166e-10
9.3958e-10
4.66922e-10
1.15229e-09
6.25009e-10
1.29584e-09
6.7124e-10
1.40741e-09
7.04977e-10
1.46663e-09
6.76368e-10
1.52317e-09
6.75275e-10
1.6131e-09
6.82636e-10
1.67537e-09
6.42518e-10
1.73424e-09
6.24239e-10
1.83491e-09
6.23802e-10
1.90432e-09
5.71573e-10
1.98884e-09
5.68213e-10
2.12197e-09
5.79758e-10
2.2367e-09
5.53868e-10
2.35942e-09
5.68995e-10
2.55767e-09
6.38281e-10
2.72133e-09
6.56061e-10
2.89666e-09
7.37433e-10
3.08409e-09
8.85513e-10
3.31449e-09
1.23101e-09
3.35176e-09
1.78846e-09
3.12917e-09
2.88602e-09
-4.0201e-09
1.41094e-08
-1.1222e-08
-3.34126e-09
-7.20629e-09
-5.69947e-09
-3.78141e-09
-2.72182e-09
-1.43529e-09
-1.12825e-09
-2.04944e-10
-2.38483e-10
3.95237e-10
1.16681e-10
7.28151e-10
3.35691e-10
9.38845e-10
4.65624e-10
1.15136e-09
6.23763e-10
1.29504e-09
6.70002e-10
1.40658e-09
7.03771e-10
1.46627e-09
6.75638e-10
1.5229e-09
6.74446e-10
1.61261e-09
6.81672e-10
1.67525e-09
6.42107e-10
1.73416e-09
6.2364e-10
1.83456e-09
6.23108e-10
1.90429e-09
5.71381e-10
1.98876e-09
5.67868e-10
2.12147e-09
5.79265e-10
2.23642e-09
5.5412e-10
2.35897e-09
5.68993e-10
2.55653e-09
6.38423e-10
2.71995e-09
6.57112e-10
2.89448e-09
7.39342e-10
3.0809e-09
8.88806e-10
3.30915e-09
1.23712e-09
3.34368e-09
1.79356e-09
3.14079e-09
2.84754e-09
-4.04994e-09
1.41783e-08
-1.12798e-08
-3.38777e-09
-7.13894e-09
-5.69517e-09
-3.77124e-09
-2.70976e-09
-1.43108e-09
-1.12658e-09
-2.05956e-10
-2.39899e-10
3.94149e-10
1.15262e-10
7.26835e-10
3.34111e-10
9.37957e-10
4.64219e-10
1.15022e-09
6.22421e-10
1.29406e-09
6.68665e-10
1.40555e-09
7.02486e-10
1.46574e-09
6.74888e-10
1.52249e-09
6.73604e-10
1.61193e-09
6.80691e-10
1.67497e-09
6.41752e-10
1.73393e-09
6.2309e-10
1.83402e-09
6.22479e-10
1.90408e-09
5.71318e-10
1.98849e-09
5.67662e-10
2.12071e-09
5.78915e-10
2.23585e-09
5.5462e-10
2.35819e-09
5.69252e-10
2.55489e-09
6.38909e-10
2.71796e-09
6.58663e-10
2.89148e-09
7.4196e-10
3.07655e-09
8.93093e-10
3.30211e-09
1.2445e-09
3.33371e-09
1.79836e-09
3.15548e-09
2.79352e-09
-4.05241e-09
1.42479e-08
-1.13896e-08
-3.42889e-09
-7.04711e-09
-5.68648e-09
-3.75812e-09
-2.69524e-09
-1.42559e-09
-1.12431e-09
-2.06773e-10
-2.41224e-10
3.93043e-10
1.13808e-10
7.25395e-10
3.32446e-10
9.36922e-10
4.62716e-10
1.14886e-09
6.20987e-10
1.29289e-09
6.67229e-10
1.40431e-09
7.01125e-10
1.46504e-09
6.74116e-10
1.52192e-09
6.72751e-10
1.61105e-09
6.79699e-10
1.67452e-09
6.41455e-10
1.73353e-09
6.226e-10
1.83327e-09
6.21935e-10
1.90367e-09
5.71403e-10
1.98798e-09
5.67625e-10
2.11963e-09
5.78749e-10
2.23493e-09
5.55413e-10
2.357e-09
5.69837e-10
2.55267e-09
6.39826e-10
2.71525e-09
6.60818e-10
2.88751e-09
7.45419e-10
3.07089e-09
8.98514e-10
3.29322e-09
1.2532e-09
3.32187e-09
1.80254e-09
3.17356e-09
2.72366e-09
-4.02498e-09
1.43154e-08
-1.15537e-08
-3.4633e-09
-6.9294e-09
-5.67312e-09
-3.74208e-09
-2.67833e-09
-1.41881e-09
-1.12147e-09
-2.07359e-10
-2.42428e-10
3.91951e-10
1.12347e-10
7.23861e-10
3.3072e-10
9.3576e-10
4.61129e-10
1.14731e-09
6.19474e-10
1.29156e-09
6.65705e-10
1.40286e-09
6.99695e-10
1.46415e-09
6.73326e-10
1.52118e-09
6.71894e-10
1.60997e-09
6.78705e-10
1.67387e-09
6.41222e-10
1.73294e-09
6.22183e-10
1.83228e-09
6.21496e-10
1.90301e-09
5.71655e-10
1.9872e-09
5.67785e-10
2.11819e-09
5.78809e-10
2.23361e-09
5.56543e-10
2.35533e-09
5.70814e-10
2.54979e-09
6.41261e-10
2.71171e-09
6.63675e-10
2.88245e-09
7.49835e-10
3.06377e-09
9.05171e-10
3.28236e-09
1.26321e-09
3.3083e-09
1.8057e-09
3.19542e-09
2.63795e-09
-3.96651e-09
1.43789e-08
-1.17726e-08
-3.49058e-09
-6.78504e-09
-5.65482e-09
-3.72325e-09
-2.65911e-09
-1.41078e-09
-1.11808e-09
-2.07704e-10
-2.43501e-10
3.90896e-10
1.10898e-10
7.22257e-10
3.28956e-10
9.34488e-10
4.59481e-10
1.14558e-09
6.17897e-10
1.29005e-09
6.64106e-10
1.40122e-09
6.9821e-10
1.46309e-09
6.72525e-10
1.52026e-09
6.71044e-10
1.60868e-09
6.77726e-10
1.67301e-09
6.41067e-10
1.73214e-09
6.21858e-10
1.83103e-09
6.21187e-10
1.90209e-09
5.72099e-10
1.98612e-09
5.68179e-10
2.11636e-09
5.79142e-10
2.23182e-09
5.58062e-10
2.35312e-09
5.72248e-10
2.54616e-09
6.43297e-10
2.70725e-09
6.67324e-10
2.87618e-09
7.55298e-10
3.05508e-09
9.13122e-10
3.26951e-09
1.27443e-09
3.29323e-09
1.80745e-09
3.22138e-09
2.53677e-09
-3.87692e-09
1.44371e-08
-1.20453e-08
-3.51106e-09
-6.6139e-09
-5.63139e-09
-3.70179e-09
-2.63771e-09
-1.40155e-09
-1.11419e-09
-2.07815e-10
-2.44447e-10
3.89886e-10
1.09472e-10
7.20602e-10
3.27175e-10
9.33121e-10
4.57792e-10
1.14369e-09
6.16276e-10
1.2884e-09
6.62451e-10
1.39938e-09
6.96689e-10
1.46185e-09
6.71729e-10
1.51917e-09
6.70218e-10
1.60718e-09
6.76781e-10
1.67194e-09
6.41004e-10
1.73112e-09
6.21646e-10
1.82951e-09
6.21034e-10
1.90086e-09
5.72765e-10
1.9847e-09
5.68844e-10
2.1141e-09
5.79795e-10
2.22953e-09
5.60017e-10
2.35031e-09
5.74205e-10
2.54173e-09
6.46006e-10
2.70178e-09
6.71838e-10
2.86864e-09
7.61873e-10
3.04477e-09
9.22378e-10
3.2547e-09
1.28671e-09
3.27691e-09
1.80738e-09
3.25163e-09
2.42083e-09
-3.7572e-09
1.44897e-08
-1.23692e-08
-3.52557e-09
-6.4163e-09
-5.60267e-09
-3.67793e-09
-2.6143e-09
-1.3912e-09
-1.10986e-09
-2.0772e-10
-2.45283e-10
3.88913e-10
1.08072e-10
7.18902e-10
3.25392e-10
9.3167e-10
4.5608e-10
1.14164e-09
6.14626e-10
1.28661e-09
6.6076e-10
1.39736e-09
6.95153e-10
1.46043e-09
6.70955e-10
1.51789e-09
6.69437e-10
1.60545e-09
6.75893e-10
1.67063e-09
6.41054e-10
1.72987e-09
6.21572e-10
1.82769e-09
6.21068e-10
1.89932e-09
5.73682e-10
1.98291e-09
5.69818e-10
2.11137e-09
5.80813e-10
2.22668e-09
5.62454e-10
2.34684e-09
5.76741e-10
2.53642e-09
6.49449e-10
2.69524e-09
6.77271e-10
2.85976e-09
7.69594e-10
3.03282e-09
9.32912e-10
3.23801e-09
1.29988e-09
3.25963e-09
1.80521e-09
3.28618e-09
2.29124e-09
-3.6092e-09
1.45363e-08
-1.27402e-08
-3.53524e-09
-6.1931e-09
-5.56857e-09
-3.65195e-09
-2.58905e-09
-1.37985e-09
-1.10518e-09
-2.07458e-10
-2.4604e-10
3.8796e-10
1.06688e-10
7.17157e-10
3.23611e-10
9.30137e-10
4.54357e-10
1.13944e-09
6.12964e-10
1.28468e-09
6.59051e-10
1.39517e-09
6.9362e-10
1.45883e-09
6.70221e-10
1.51644e-09
6.6872e-10
1.60351e-09
6.75084e-10
1.66908e-09
6.41239e-10
1.72837e-09
6.21664e-10
1.82556e-09
6.2132e-10
1.89743e-09
5.74882e-10
1.98071e-09
5.71138e-10
2.10814e-09
5.82241e-10
2.22323e-09
5.65416e-10
2.34267e-09
5.79904e-10
2.53019e-09
6.53674e-10
2.68761e-09
6.83656e-10
2.84952e-09
7.78469e-10
3.01925e-09
9.44668e-10
3.21955e-09
1.31376e-09
3.24167e-09
1.80071e-09
3.32485e-09
2.14947e-09
-3.43554e-09
1.45769e-08
-1.31534e-08
-3.54143e-09
-5.9455e-09
-5.52901e-09
-3.6241e-09
-2.56218e-09
-1.3676e-09
-1.10022e-09
-2.07079e-10
-2.46755e-10
3.87e-10
1.05307e-10
7.15353e-10
3.21834e-10
9.28517e-10
4.52632e-10
1.13711e-09
6.11299e-10
1.28263e-09
6.57341e-10
1.39281e-09
6.9211e-10
1.45706e-09
6.69544e-10
1.5148e-09
6.6809e-10
1.60136e-09
6.74381e-10
1.66729e-09
6.41579e-10
1.7266e-09
6.21949e-10
1.82311e-09
6.21819e-10
1.89517e-09
5.76393e-10
1.9781e-09
5.72836e-10
2.10439e-09
5.84115e-10
2.21915e-09
5.68934e-10
2.33777e-09
5.83731e-10
2.52303e-09
6.58711e-10
2.67884e-09
6.91009e-10
2.83793e-09
7.88482e-10
3.00409e-09
9.57571e-10
3.19945e-09
1.32817e-09
3.22324e-09
1.79379e-09
3.36728e-09
1.99732e-09
-3.23937e-09
1.46113e-08
-1.36028e-08
-3.54572e-09
-5.67518e-09
-5.48393e-09
-3.59467e-09
-2.5339e-09
-1.35459e-09
-1.09506e-09
-2.06637e-10
-2.47467e-10
3.86e-10
1.03908e-10
7.13476e-10
3.20054e-10
9.26801e-10
4.50907e-10
1.13463e-09
6.09637e-10
1.28044e-09
6.55643e-10
1.39028e-09
6.90639e-10
1.45512e-09
6.6894e-10
1.51298e-09
6.67565e-10
1.59897e-09
6.73805e-10
1.66524e-09
6.42096e-10
1.72456e-09
6.22449e-10
1.82033e-09
6.2259e-10
1.89254e-09
5.78242e-10
1.97504e-09
5.74944e-10
2.1001e-09
5.86466e-10
2.21443e-09
5.73037e-10
2.33211e-09
5.8825e-10
2.51491e-09
6.64578e-10
2.66895e-09
6.99331e-10
2.825e-09
7.99606e-10
2.9874e-09
9.71539e-10
3.17784e-09
1.34295e-09
3.20452e-09
1.78444e-09
3.41293e-09
1.83679e-09
-3.02419e-09
1.46393e-08
-1.40815e-08
-3.54973e-09
-5.38414e-09
-5.43328e-09
-3.56392e-09
-2.5044e-09
-1.34091e-09
-1.08977e-09
-2.06185e-10
-2.48217e-10
3.84925e-10
1.02471e-10
7.11503e-10
3.18263e-10
9.24973e-10
4.49181e-10
1.13201e-09
6.07983e-10
1.27812e-09
6.53966e-10
1.38758e-09
6.89219e-10
1.45299e-09
6.68424e-10
1.51097e-09
6.67162e-10
1.59637e-09
6.73375e-10
1.66293e-09
6.42808e-10
1.72225e-09
6.23189e-10
1.8172e-09
6.23659e-10
1.88951e-09
5.80452e-10
1.97153e-09
5.77483e-10
2.09525e-09
5.89321e-10
2.20904e-09
5.77741e-10
2.32568e-09
5.93478e-10
2.50583e-09
6.71283e-10
2.65794e-09
7.0861e-10
2.81075e-09
8.118e-10
2.96925e-09
9.86488e-10
3.15485e-09
1.35798e-09
3.18566e-09
1.77277e-09
3.46109e-09
1.67006e-09
-2.79372e-09
1.46605e-08
-1.45822e-08
-3.55496e-09
-5.07472e-09
-5.37709e-09
-3.53209e-09
-2.47391e-09
-1.3267e-09
-1.08443e-09
-2.05775e-10
-2.49043e-10
3.8374e-10
1.00974e-10
7.09412e-10
3.16451e-10
9.23019e-10
4.47453e-10
1.12923e-09
6.06337e-10
1.27566e-09
6.52318e-10
1.38471e-09
6.8786e-10
1.45069e-09
6.68005e-10
1.50876e-09
6.66896e-10
1.59354e-09
6.7311e-10
1.66036e-09
6.4373e-10
1.71964e-09
6.24187e-10
1.81372e-09
6.25043e-10
1.88608e-09
5.83038e-10
1.96755e-09
5.80473e-10
2.08985e-09
5.92697e-10
2.20299e-09
5.83059e-10
2.31848e-09
5.99424e-10
2.4958e-09
6.78824e-10
2.64582e-09
7.18828e-10
2.79524e-09
8.25021e-10
2.94972e-09
1.00234e-09
3.13058e-09
1.37316e-09
3.16672e-09
1.75899e-09
3.51094e-09
1.49946e-09
-2.55186e-09
1.46745e-08
-1.50974e-08
-3.56278e-09
-4.7495e-09
-5.31541e-09
-3.49943e-09
-2.44263e-09
-1.31205e-09
-1.07908e-09
-2.05451e-10
-2.49979e-10
3.8241e-10
9.93969e-11
7.07181e-10
3.14608e-10
9.2092e-10
4.45718e-10
1.12628e-09
6.04696e-10
1.27304e-09
6.50703e-10
1.38166e-09
6.86571e-10
1.44819e-09
6.67693e-10
1.50636e-09
6.66778e-10
1.59047e-09
6.73024e-10
1.65751e-09
6.44874e-10
1.71674e-09
6.25457e-10
1.80989e-09
6.26758e-10
1.88224e-09
5.86016e-10
1.9631e-09
5.83928e-10
2.0839e-09
5.96608e-10
2.19627e-09
5.88996e-10
2.31051e-09
6.06093e-10
2.48483e-09
6.87193e-10
2.63263e-09
7.29962e-10
2.7785e-09
8.39221e-10
2.92886e-09
1.01901e-09
3.10515e-09
1.38841e-09
3.14773e-09
1.74334e-09
3.56155e-09
1.32743e-09
-2.30246e-09
1.46805e-08
-1.56192e-08
-3.57458e-09
-4.41129e-09
-5.24832e-09
-3.46613e-09
-2.41076e-09
-1.29706e-09
-1.07378e-09
-2.05254e-10
-2.51053e-10
3.80908e-10
9.77237e-11
7.0479e-10
3.12723e-10
9.1866e-10
4.43971e-10
1.12315e-09
6.03059e-10
1.27026e-09
6.49124e-10
1.37842e-09
6.85355e-10
1.44549e-09
6.67492e-10
1.50374e-09
6.66816e-10
1.58718e-09
6.73126e-10
1.65439e-09
6.46249e-10
1.71353e-09
6.27011e-10
1.8057e-09
6.28814e-10
1.87799e-09
5.89395e-10
1.95818e-09
5.87855e-10
2.07738e-09
6.01061e-10
2.18889e-09
5.95553e-10
2.30178e-09
6.1348e-10
2.47295e-09
6.96375e-10
2.61839e-09
7.41983e-10
2.76059e-09
8.54352e-10
2.90676e-09
1.03644e-09
3.07865e-09
1.40368e-09
3.1287e-09
1.72618e-09
3.61194e-09
1.15633e-09
-2.04925e-09
1.46775e-08
-1.61402e-08
-3.59154e-09
-4.063e-09
-5.17593e-09
-3.43236e-09
-2.3785e-09
-1.28183e-09
-1.06855e-09
-2.05216e-10
-2.52288e-10
3.79206e-10
9.59405e-11
7.02219e-10
3.10789e-10
9.16225e-10
4.42208e-10
1.11984e-09
6.01423e-10
1.2673e-09
6.47583e-10
1.375e-09
6.84216e-10
1.44259e-09
6.67407e-10
1.50091e-09
6.67016e-10
1.58364e-09
6.73425e-10
1.65098e-09
6.47862e-10
1.71003e-09
6.28858e-10
1.80115e-09
6.31219e-10
1.87333e-09
5.9318e-10
1.95278e-09
5.92259e-10
2.07032e-09
6.0606e-10
2.18086e-09
6.02727e-10
2.2923e-09
6.21581e-10
2.46016e-09
7.06354e-10
2.60314e-09
7.54862e-10
2.74154e-09
8.70365e-10
2.88349e-09
1.05456e-09
3.05117e-09
1.41893e-09
3.10957e-09
1.70789e-09
3.66102e-09
9.88509e-10
-1.79569e-09
1.46647e-08
-1.66525e-08
-3.61453e-09
-3.7077e-09
-5.0984e-09
-3.3983e-09
-2.34605e-09
-1.26643e-09
-1.06343e-09
-2.05362e-10
-2.53701e-10
3.77285e-10
9.40367e-11
6.99454e-10
3.08798e-10
9.13601e-10
4.40424e-10
1.11633e-09
5.99783e-10
1.26417e-09
6.46081e-10
1.37137e-09
6.83157e-10
1.43948e-09
6.6744e-10
1.49786e-09
6.67382e-10
1.57986e-09
6.73927e-10
1.6473e-09
6.49716e-10
1.70621e-09
6.31003e-10
1.79624e-09
6.33978e-10
1.86826e-09
5.97374e-10
1.94691e-09
5.97143e-10
2.06271e-09
6.11604e-10
2.17218e-09
6.10511e-10
2.28208e-09
6.30384e-10
2.44651e-09
7.17108e-10
2.58691e-09
7.68566e-10
2.72142e-09
8.87211e-10
2.8591e-09
1.07331e-09
3.02277e-09
1.43416e-09
3.09026e-09
1.68888e-09
3.70774e-09
8.2627e-10
-1.54506e-09
1.46409e-08
-1.7149e-08
-3.64416e-09
-3.34843e-09
-5.01598e-09
-3.36408e-09
-2.31359e-09
-1.25095e-09
-1.05844e-09
-2.05715e-10
-2.55303e-10
3.75127e-10
9.20056e-11
6.96482e-10
3.06745e-10
9.10778e-10
4.38618e-10
1.11263e-09
5.98139e-10
1.26084e-09
6.44618e-10
1.36754e-09
6.82178e-10
1.43616e-09
6.67592e-10
1.49458e-09
6.67916e-10
1.57585e-09
6.74635e-10
1.64332e-09
6.51813e-10
1.70209e-09
6.33449e-10
1.79097e-09
6.37092e-10
1.86277e-09
6.01976e-10
1.94058e-09
6.02502e-10
2.05456e-09
6.17692e-10
2.16286e-09
6.18895e-10
2.27114e-09
6.39876e-10
2.43201e-09
7.28616e-10
2.56973e-09
7.8306e-10
2.70026e-09
9.0484e-10
2.83368e-09
1.09263e-09
2.99351e-09
1.44937e-09
3.07068e-09
1.66962e-09
3.75104e-09
6.71813e-10
-1.30033e-09
1.46045e-08
-1.7623e-08
-3.68095e-09
-2.98823e-09
-4.92888e-09
-3.32981e-09
-2.28129e-09
-1.23546e-09
-1.05359e-09
-2.06287e-10
-2.57103e-10
3.72721e-10
8.98437e-11
6.93294e-10
3.0463e-10
9.07747e-10
4.36788e-10
1.10871e-09
5.96487e-10
1.25731e-09
6.43195e-10
1.36351e-09
6.8128e-10
1.43262e-09
6.67864e-10
1.49107e-09
6.68617e-10
1.57158e-09
6.75552e-10
1.63907e-09
6.54153e-10
1.69765e-09
6.36196e-10
1.78535e-09
6.4056e-10
1.85689e-09
6.06985e-10
1.93378e-09
6.08335e-10
2.0459e-09
6.24316e-10
2.15293e-09
6.27868e-10
2.25949e-09
6.50042e-10
2.4167e-09
7.4085e-10
2.55165e-09
7.9831e-10
2.67814e-09
9.23203e-10
2.80728e-09
1.11247e-09
2.96346e-09
1.46457e-09
3.05069e-09
1.65056e-09
3.78985e-09
5.27122e-10
-1.06407e-09
1.45544e-08
-1.80682e-08
-3.72521e-09
-2.63005e-09
-4.83733e-09
-3.29555e-09
-2.24934e-09
-1.22002e-09
-1.04888e-09
-2.07088e-10
-2.59101e-10
3.70057e-10
8.75508e-11
6.89884e-10
3.0245e-10
9.04502e-10
4.34933e-10
1.10459e-09
5.94825e-10
1.25359e-09
6.41813e-10
1.35926e-09
6.80463e-10
1.42885e-09
6.68255e-10
1.48733e-09
6.69487e-10
1.56707e-09
6.76678e-10
1.63452e-09
6.56735e-10
1.6929e-09
6.39244e-10
1.77938e-09
6.4438e-10
1.8506e-09
6.12397e-10
1.92653e-09
6.14633e-10
2.03671e-09
6.3147e-10
2.1424e-09
6.37417e-10
2.24716e-09
6.60864e-10
2.4006e-09
7.53784e-10
2.53271e-09
8.14277e-10
2.65509e-09
9.4225e-10
2.77996e-09
1.13279e-09
2.93265e-09
1.47979e-09
3.03016e-09
1.63218e-09
3.82317e-09
3.93969e-10
-8.38402e-10
1.44891e-08
-1.84791e-08
-3.77693e-09
-2.27674e-09
-4.74164e-09
-3.26138e-09
-2.21789e-09
-1.2047e-09
-1.04432e-09
-2.08123e-10
-2.61296e-10
3.67132e-10
8.51285e-11
6.86249e-10
3.00207e-10
9.01039e-10
4.33054e-10
1.10025e-09
5.93155e-10
1.24965e-09
6.40472e-10
1.3548e-09
6.79727e-10
1.42486e-09
6.68765e-10
1.48336e-09
6.70525e-10
1.56231e-09
6.78013e-10
1.6297e-09
6.59557e-10
1.68784e-09
6.42591e-10
1.77306e-09
6.48548e-10
1.84391e-09
6.18205e-10
1.91883e-09
6.2139e-10
2.02702e-09
6.39144e-10
2.13127e-09
6.47526e-10
2.23416e-09
6.72323e-10
2.38375e-09
7.67389e-10
2.51294e-09
8.30925e-10
2.63116e-09
9.61931e-10
2.75179e-09
1.15353e-09
2.90112e-09
1.49508e-09
3.00893e-09
1.61493e-09
3.85007e-09
2.73978e-10
-6.25126e-10
1.44073e-08
-1.88508e-08
-3.83582e-09
-1.93097e-09
-4.64214e-09
-3.22734e-09
-2.1871e-09
-1.18956e-09
-1.0399e-09
-2.09394e-10
-2.63685e-10
3.63943e-10
8.2581e-11
6.82385e-10
2.97903e-10
8.97357e-10
4.31153e-10
1.0957e-09
5.91475e-10
1.24551e-09
6.39174e-10
1.35012e-09
6.79074e-10
1.42064e-09
6.69392e-10
1.47914e-09
6.71729e-10
1.55731e-09
6.79557e-10
1.62458e-09
6.62617e-10
1.68248e-09
6.46235e-10
1.76639e-09
6.53061e-10
1.83684e-09
6.24404e-10
1.91069e-09
6.28596e-10
2.01685e-09
6.47327e-10
2.11958e-09
6.58178e-10
2.22051e-09
6.84397e-10
2.36617e-09
7.81635e-10
2.49239e-09
8.48212e-10
2.60642e-09
9.82196e-10
2.72282e-09
1.17466e-09
2.86892e-09
1.51047e-09
2.98683e-09
1.59926e-09
3.86969e-09
1.68547e-10
-4.257e-10
1.43075e-08
-1.91789e-08
-3.9016e-09
-1.59521e-09
-4.53913e-09
-3.19344e-09
-2.1571e-09
-1.17464e-09
-1.03562e-09
-2.10898e-10
-2.66259e-10
3.6049e-10
7.99146e-11
6.78296e-10
2.95544e-10
8.93456e-10
4.29232e-10
1.09093e-09
5.89788e-10
1.24115e-09
6.37919e-10
1.34523e-09
6.78502e-10
1.4162e-09
6.70136e-10
1.47469e-09
6.73097e-10
1.55207e-09
6.81308e-10
1.61919e-09
6.6591e-10
1.6768e-09
6.5017e-10
1.75938e-09
6.57911e-10
1.82938e-09
6.30985e-10
1.90212e-09
6.3624e-10
2.00619e-09
6.56007e-10
2.10734e-09
6.69356e-10
2.20624e-09
6.97061e-10
2.3479e-09
7.96488e-10
2.47109e-09
8.66098e-10
2.58091e-09
1.003e-09
2.69312e-09
1.19614e-09
2.83605e-09
1.52601e-09
2.96372e-09
1.58559e-09
3.88127e-09
7.87898e-11
-2.41095e-10
1.41886e-08
-1.94602e-08
-3.97386e-09
-1.27171e-09
-4.43289e-09
-3.15965e-09
-2.12802e-09
-1.15999e-09
-1.03146e-09
-2.12628e-10
-2.6901e-10
3.56778e-10
7.71373e-11
6.73983e-10
2.93134e-10
8.89337e-10
4.27296e-10
1.08596e-09
5.88093e-10
1.23658e-09
6.36711e-10
1.34013e-09
6.78012e-10
1.41152e-09
6.70997e-10
1.47001e-09
6.74627e-10
1.54657e-09
6.83264e-10
1.61351e-09
6.69432e-10
1.67082e-09
6.54392e-10
1.75204e-09
6.63092e-10
1.82154e-09
6.37939e-10
1.89313e-09
6.4431e-10
1.99508e-09
6.65169e-10
2.09456e-09
6.81039e-10
2.19136e-09
7.10293e-10
2.32897e-09
8.11916e-10
2.44908e-09
8.84543e-10
2.55468e-09
1.02428e-09
2.66273e-09
1.21792e-09
2.80255e-09
1.54175e-09
2.93944e-09
1.57431e-09
3.88415e-09
5.55097e-12
-7.1895e-11
1.40494e-08
-1.9692e-08
-4.05194e-09
-9.62478e-10
-4.32377e-09
-3.12596e-09
-2.09998e-09
-1.14565e-09
-1.0274e-09
-2.14578e-10
-2.71923e-10
3.52811e-10
7.42578e-11
6.69451e-10
2.90679e-10
8.85004e-10
4.25348e-10
1.08078e-09
5.86395e-10
1.2318e-09
6.35551e-10
1.33481e-09
6.77606e-10
1.40663e-09
6.71974e-10
1.46508e-09
6.76317e-10
1.54084e-09
6.85423e-10
1.60756e-09
6.73181e-10
1.66454e-09
6.58896e-10
1.74438e-09
6.68597e-10
1.81333e-09
6.45258e-10
1.88372e-09
6.52794e-10
1.98351e-09
6.74799e-10
2.08126e-09
6.93209e-10
2.17591e-09
7.24065e-10
2.30942e-09
8.27884e-10
2.42642e-09
9.03504e-10
2.52779e-09
1.046e-09
2.6317e-09
1.23998e-09
2.76842e-09
1.55775e-09
2.91382e-09
1.56574e-09
3.8778e-09
-5.05351e-11
8.1632e-11
1.38889e-08
-1.98723e-08
-4.13505e-09
-6.69248e-10
-4.21209e-09
-3.09235e-09
-2.07306e-09
-1.13167e-09
-1.02344e-09
-2.16738e-10
-2.74988e-10
3.48597e-10
7.1286e-11
6.64704e-10
2.88188e-10
8.8046e-10
4.23393e-10
1.07539e-09
5.84695e-10
1.22681e-09
6.34441e-10
1.32928e-09
6.77283e-10
1.4015e-09
6.73065e-10
1.45992e-09
6.78165e-10
1.53487e-09
6.87784e-10
1.60134e-09
6.7715e-10
1.65796e-09
6.63676e-10
1.73639e-09
6.74419e-10
1.80477e-09
6.5293e-10
1.87392e-09
6.61677e-10
1.97151e-09
6.8488e-10
2.06747e-09
7.05842e-10
2.15991e-09
7.3835e-10
2.28927e-09
8.44358e-10
2.40314e-09
9.22938e-10
2.50028e-09
1.06811e-09
2.6001e-09
1.26227e-09
2.7337e-09
1.57405e-09
2.88674e-09
1.56019e-09
3.86182e-09
-8.90877e-11
2.19459e-10
1.37064e-08
-2e-08
-4.22244e-09
-3.93486e-10
-4.09816e-09
-3.05874e-09
-2.04736e-09
-1.11807e-09
-1.01955e-09
-2.19096e-10
-2.78188e-10
3.44143e-10
6.82328e-11
6.5975e-10
2.85666e-10
8.75712e-10
4.21437e-10
1.0698e-09
5.82996e-10
1.22161e-09
6.33385e-10
1.32354e-09
6.77045e-10
1.39616e-09
6.7427e-10
1.45453e-09
6.80168e-10
1.52867e-09
6.90342e-10
1.59485e-09
6.81336e-10
1.65109e-09
6.68725e-10
1.72809e-09
6.80548e-10
1.79585e-09
6.60945e-10
1.86372e-09
6.70945e-10
1.9591e-09
6.95397e-10
2.05321e-09
7.18917e-10
2.14339e-09
7.5312e-10
2.26857e-09
8.61301e-10
2.37928e-09
9.42804e-10
2.47221e-09
1.09056e-09
2.56797e-09
1.28477e-09
2.69838e-09
1.5907e-09
2.85807e-09
1.55791e-09
3.83591e-09
-1.09971e-10
3.41968e-10
1.35011e-08
-2.00745e-08
-4.31337e-09
-1.36385e-10
-3.98223e-09
-3.02507e-09
-2.02293e-09
-1.10488e-09
-1.0157e-09
-2.21636e-10
-2.81506e-10
3.3946e-10
6.51102e-11
6.54596e-10
2.83123e-10
8.70765e-10
4.19485e-10
1.06402e-09
5.81302e-10
1.21621e-09
6.32385e-10
1.31759e-09
6.76893e-10
1.39059e-09
6.7559e-10
1.44891e-09
6.82324e-10
1.52223e-09
6.93096e-10
1.5881e-09
6.85732e-10
1.64393e-09
6.74038e-10
1.71948e-09
6.86975e-10
1.7866e-09
6.69291e-10
1.85316e-09
6.80583e-10
1.94628e-09
7.0633e-10
2.0385e-09
7.32411e-10
2.12636e-09
7.68346e-10
2.24735e-09
8.78677e-10
2.35489e-09
9.63059e-10
2.44362e-09
1.1133e-09
2.53535e-09
1.30745e-09
2.66248e-09
1.60773e-09
2.82769e-09
1.55908e-09
3.7999e-09
-1.13318e-10
4.49806e-10
1.32728e-08
-2.00963e-08
-4.40698e-09
1.01161e-10
-3.8646e-09
-2.99125e-09
-1.99982e-09
-1.09211e-09
-1.01189e-09
-2.24343e-10
-2.84927e-10
3.34559e-10
6.19299e-11
6.4925e-10
2.80567e-10
8.65626e-10
4.17543e-10
1.05804e-09
5.79616e-10
1.2106e-09
6.31443e-10
1.31145e-09
6.76827e-10
1.38482e-09
6.77022e-10
1.44307e-09
6.8463e-10
1.51557e-09
6.96042e-10
1.58109e-09
6.90335e-10
1.63649e-09
6.79605e-10
1.71058e-09
6.93692e-10
1.77701e-09
6.77957e-10
1.84223e-09
6.90575e-10
1.93308e-09
7.17663e-10
2.02335e-09
7.463e-10
2.10886e-09
7.84e-10
2.22564e-09
8.96451e-10
2.33e-09
9.83662e-10
2.41457e-09
1.13629e-09
2.50229e-09
1.33027e-09
2.62601e-09
1.62518e-09
2.79552e-09
1.56384e-09
3.75376e-09
-9.94427e-11
5.43832e-10
1.30214e-08
-2.0066e-08
-4.50238e-09
3.18504e-10
-3.74553e-09
-2.95723e-09
-1.97808e-09
-1.0798e-09
-1.00808e-09
-2.27202e-10
-2.88432e-10
3.29452e-10
5.87036e-11
6.43721e-10
2.78006e-10
8.60304e-10
4.15616e-10
1.05188e-09
5.77942e-10
1.2048e-09
6.30563e-10
1.3051e-09
6.76847e-10
1.37883e-09
6.78566e-10
1.437e-09
6.87083e-10
1.50868e-09
6.99177e-10
1.57383e-09
6.95138e-10
1.62878e-09
6.85421e-10
1.70139e-09
7.00688e-10
1.76711e-09
6.8693e-10
1.83095e-09
7.00905e-10
1.91952e-09
7.29375e-10
2.0078e-09
7.60562e-10
2.09092e-09
8.0005e-10
2.20348e-09
9.14585e-10
2.30466e-09
1.00457e-09
2.38509e-09
1.15948e-09
2.46884e-09
1.3532e-09
2.58898e-09
1.64307e-09
2.76148e-09
1.57228e-09
3.69758e-09
-6.88822e-11
6.24998e-10
1.27468e-08
-1.9985e-08
-4.59875e-09
5.15289e-10
-3.62524e-09
-2.92291e-09
-1.95772e-09
-1.06794e-09
-1.00424e-09
-2.30195e-10
-2.92004e-10
3.24152e-10
5.5444e-11
6.38019e-10
2.75449e-10
8.54805e-10
4.13712e-10
1.04553e-09
5.76283e-10
1.1988e-09
6.29748e-10
1.29856e-09
6.76956e-10
1.37263e-09
6.80222e-10
1.43072e-09
6.8968e-10
1.50158e-09
7.02497e-10
1.56633e-09
7.00135e-10
1.62081e-09
6.91477e-10
1.69193e-09
7.07953e-10
1.75689e-09
6.96198e-10
1.81934e-09
7.11556e-10
1.9056e-09
7.41448e-10
1.99186e-09
7.75171e-10
2.07256e-09
8.16467e-10
2.18091e-09
9.33045e-10
2.27891e-09
1.02574e-09
2.35523e-09
1.18283e-09
2.43503e-09
1.37623e-09
2.5514e-09
1.66143e-09
2.72552e-09
1.5844e-09
3.63157e-09
-2.23331e-11
6.94537e-10
1.24494e-08
-1.98555e-08
-4.69539e-09
6.91392e-10
-3.50393e-09
-2.88819e-09
-1.93874e-09
-1.05654e-09
-1.00036e-09
-2.33301e-10
-2.95623e-10
3.18672e-10
5.21643e-11
6.32153e-10
2.72904e-10
8.4914e-10
4.11837e-10
1.03902e-09
5.74643e-10
1.19261e-09
6.29e-10
1.29184e-09
6.77152e-10
1.36623e-09
6.81988e-10
1.42423e-09
6.92418e-10
1.49427e-09
7.05998e-10
1.55859e-09
7.05321e-10
1.61258e-09
6.97765e-10
1.68219e-09
7.15477e-10
1.74639e-09
7.05748e-10
1.80741e-09
7.22511e-10
1.89136e-09
7.53863e-10
1.97556e-09
7.90102e-10
2.05381e-09
8.33222e-10
2.15795e-09
9.51793e-10
2.25279e-09
1.04714e-09
2.32504e-09
1.2063e-09
2.40091e-09
1.3993e-09
2.51329e-09
1.68025e-09
2.68762e-09
1.60019e-09
3.55603e-09
3.93101e-11
7.53811e-10
1.21297e-08
-1.96798e-08
-4.79154e-09
8.46972e-10
-3.38179e-09
-2.85299e-09
-1.92113e-09
-1.0456e-09
-9.96412e-10
-2.36503e-10
-2.9927e-10
3.13027e-10
4.88765e-11
6.26135e-10
2.70381e-10
8.43316e-10
4.09997e-10
1.03233e-09
5.73023e-10
1.18624e-09
6.28323e-10
1.28493e-09
6.77437e-10
1.35964e-09
6.83863e-10
1.41753e-09
6.95294e-10
1.48675e-09
7.09676e-10
1.55062e-09
7.10688e-10
1.6041e-09
7.04277e-10
1.6722e-09
7.23249e-10
1.7356e-09
7.15566e-10
1.79518e-09
7.33754e-10
1.87681e-09
7.66598e-10
1.95892e-09
8.05333e-10
2.03471e-09
8.50285e-10
2.13464e-09
9.70795e-10
2.22634e-09
1.06873e-09
2.29456e-09
1.22985e-09
2.36652e-09
1.42241e-09
2.47466e-09
1.69954e-09
2.64776e-09
1.61954e-09
3.47136e-09
1.1502e-10
8.04276e-10
1.17886e-08
-1.94607e-08
-4.88655e-09
9.82383e-10
-3.25898e-09
-2.81723e-09
-1.90488e-09
-1.03511e-09
-9.92362e-10
-2.3978e-10
-3.02927e-10
3.07232e-10
4.55928e-11
6.19973e-10
2.67887e-10
8.37344e-10
4.08197e-10
1.02548e-09
5.71428e-10
1.1797e-09
6.27717e-10
1.27784e-09
6.77811e-10
1.35286e-09
6.85847e-10
1.41063e-09
6.98305e-10
1.47904e-09
7.13526e-10
1.54243e-09
7.16232e-10
1.59538e-09
7.11004e-10
1.66196e-09
7.31259e-10
1.72455e-09
7.25639e-10
1.78266e-09
7.45266e-10
1.86196e-09
7.79634e-10
1.94196e-09
8.20838e-10
2.01527e-09
8.67627e-10
2.11101e-09
9.90017e-10
2.19959e-09
1.09047e-09
2.26382e-09
1.25344e-09
2.33189e-09
1.44552e-09
2.43553e-09
1.71929e-09
2.60596e-09
1.64234e-09
3.3781e-09
2.03615e-10
8.47367e-10
1.1427e-08
-1.92015e-08
-4.97977e-09
1.09822e-09
-3.13564e-09
-2.78083e-09
-1.88994e-09
-1.02507e-09
-9.88189e-10
-2.43112e-10
-3.06576e-10