/*--------------------------------*- C++ -*----------------------------------*\
| =========                 |                                                 |
| \\      /  F ield         | OpenFOAM: The Open Source CFD Toolbox           |
|  \\    /   O peration     | Version:  2312                                  |
|   \\  /    A nd           | Website:  www.openfoam.com                      |
|    \\/     M anipulation  |                                                 |
\*---------------------------------------------------------------------------*/
FoamFile
{
    version     2.0;
    format      ascii;
    arch        "LSB;label=32;scalar=64";
    class       volScalarField;
    location    "400";
    object      pPrime2Mean;
}
// * * * * * * * * * * * * * * * * * * * * * * * * * * * * * * * * * * * * * //

dimensions      [0 4 -4 0 0 0 0];

internalField   nonuniform List<scalar> 
330000
(
2.37355e-16
9.70855e-17
5.37637e-17
4.77374e-17
5.31715e-17
5.16719e-17
4.9976e-17
4.49338e-17
4.31562e-17
3.97156e-17
3.86246e-17
3.60652e-17
3.57793e-17
3.35067e-17
3.32611e-17
3.09885e-17
3.11199e-17
2.94379e-17
2.89062e-17
2.80595e-17
2.71701e-17
2.63822e-17
2.61049e-17
2.43138e-17
2.5371e-17
2.27154e-17
2.44889e-17
2.17648e-17
2.32977e-17
2.11324e-17
2.2089e-17
2.06129e-17
2.10243e-17
2.01435e-17
2.00546e-17
1.98001e-17
1.92835e-17
1.94205e-17
1.87511e-17
1.89573e-17
1.84357e-17
1.87251e-17
1.8279e-17
1.86742e-17
1.82571e-17
1.85244e-17
1.87029e-17
1.90075e-17
1.94663e-17
2.04875e-17
2.06782e-17
2.21775e-17
2.62066e-17
1.86367e-17
4.24085e-17
1.58329e-17
6.18847e-17
4.72667e-17
1.52006e-17
1.63803e-16
2.35552e-16
9.66616e-17
5.36695e-17
4.7704e-17
5.31584e-17
5.16829e-17
4.99812e-17
4.49418e-17
4.31554e-17
3.97159e-17
3.8621e-17
3.60637e-17
3.5776e-17
3.35061e-17
3.32589e-17
3.09887e-17
3.11185e-17
2.94387e-17
2.89056e-17
2.80599e-17
2.71704e-17
2.63831e-17
2.61047e-17
2.43157e-17
2.53695e-17
2.27182e-17
2.44867e-17
2.17673e-17
2.32961e-17
2.11336e-17
2.20882e-17
2.06129e-17
2.10242e-17
2.01424e-17
2.0055e-17
1.97977e-17
1.92845e-17
1.94169e-17
1.87524e-17
1.89528e-17
1.84369e-17
1.87199e-17
1.82798e-17
1.86686e-17
1.82577e-17
1.85182e-17
1.87036e-17
1.90011e-17
1.94662e-17
2.04816e-17
2.06815e-17
2.21653e-17
2.62254e-17
1.86135e-17
4.24328e-17
1.58423e-17
6.17971e-17
4.75056e-17
1.53224e-17
1.62938e-16
2.33762e-16
9.63692e-17
5.34879e-17
4.76329e-17
5.31564e-17
5.17124e-17
4.99997e-17
4.49578e-17
4.31595e-17
3.97187e-17
3.86219e-17
3.60645e-17
3.57768e-17
3.35072e-17
3.32604e-17
3.09898e-17
3.112e-17
2.9441e-17
2.89068e-17
2.80627e-17
2.71722e-17
2.63856e-17
2.61074e-17
2.43178e-17
2.53721e-17
2.27204e-17
2.44889e-17
2.17696e-17
2.32986e-17
2.11356e-17
2.20911e-17
2.06143e-17
2.10273e-17
2.01435e-17
2.00585e-17
1.97982e-17
1.92885e-17
1.94168e-17
1.87573e-17
1.89524e-17
1.84424e-17
1.87192e-17
1.82859e-17
1.86689e-17
1.82654e-17
1.85185e-17
1.87137e-17
1.90033e-17
1.94771e-17
2.04889e-17
2.06981e-17
2.21694e-17
2.62714e-17
1.85972e-17
4.25153e-17
1.58572e-17
6.17133e-17
4.78545e-17
1.55773e-17
1.62447e-16
2.31751e-16
9.62357e-17
5.31573e-17
4.74705e-17
5.31384e-17
5.17428e-17
5.0018e-17
4.49757e-17
4.31641e-17
3.97232e-17
3.86257e-17
3.60678e-17
3.578e-17
3.35098e-17
3.32638e-17
3.09917e-17
3.11224e-17
2.94444e-17
2.89086e-17
2.80669e-17
2.71747e-17
2.63889e-17
2.61116e-17
2.432e-17
2.53766e-17
2.27225e-17
2.44927e-17
2.17722e-17
2.33024e-17
2.1138e-17
2.2095e-17
2.06165e-17
2.10312e-17
2.01455e-17
2.00627e-17
1.97999e-17
1.92933e-17
1.94181e-17
1.87631e-17
1.89535e-17
1.84488e-17
1.87203e-17
1.82927e-17
1.86714e-17
1.82741e-17
1.85212e-17
1.87251e-17
1.90078e-17
1.94893e-17
2.04999e-17
2.0714e-17
2.21783e-17
2.63159e-17
1.85845e-17
4.25789e-17
1.58775e-17
6.15211e-17
4.82063e-17
1.59274e-17
1.62202e-16
2.29314e-16
9.61772e-17
5.26027e-17
4.71443e-17
5.30515e-17
5.17371e-17
5.00121e-17
4.49818e-17
4.31605e-17
3.9724e-17
3.86273e-17
3.60696e-17
3.57816e-17
3.35111e-17
3.32658e-17
3.09923e-17
3.11233e-17
2.94472e-17
2.89092e-17
2.8071e-17
2.71767e-17
2.63918e-17
2.61162e-17
2.43217e-17
2.53816e-17
2.27245e-17
2.44966e-17
2.17748e-17
2.33063e-17
2.11406e-17
2.2099e-17
2.06188e-17
2.10352e-17
2.01477e-17
2.00668e-17
1.98017e-17
1.9298e-17
1.94194e-17
1.87688e-17
1.89547e-17
1.8455e-17
1.87213e-17
1.82989e-17
1.86742e-17
1.82822e-17
1.85238e-17
1.87358e-17
1.90114e-17
1.95002e-17
2.05089e-17
2.07267e-17
2.21831e-17
2.635e-17
1.85689e-17
4.25879e-17
1.59105e-17
6.11346e-17
4.84808e-17
1.63293e-17
1.62006e-16
2.26472e-16
9.60417e-17
5.17979e-17
4.66124e-17
5.28524e-17
5.16627e-17
4.99597e-17
4.49616e-17
4.31394e-17
3.97143e-17
3.86214e-17
3.60654e-17
3.57776e-17
3.35077e-17
3.32635e-17
3.09892e-17
3.11202e-17
2.94475e-17
2.89071e-17
2.80733e-17
2.71769e-17
2.63933e-17
2.612e-17
2.43224e-17
2.5386e-17
2.27256e-17
2.45001e-17
2.1777e-17
2.33099e-17
2.11429e-17
2.21029e-17
2.06207e-17
2.1039e-17
2.01495e-17
2.00709e-17
1.98031e-17
1.93026e-17
1.94203e-17
1.87744e-17
1.89555e-17
1.8461e-17
1.87218e-17
1.83045e-17
1.86767e-17
1.82894e-17
1.85256e-17
1.87453e-17
1.90127e-17
1.95099e-17
2.05126e-17
2.0737e-17
2.21778e-17
2.63721e-17
1.85456e-17
4.25216e-17
1.59633e-17
6.05032e-17
4.86251e-17
1.67326e-17
1.61621e-16
2.23428e-16
9.56102e-17
5.07523e-17
4.58682e-17
5.25183e-17
5.14981e-17
4.98434e-17
4.49022e-17
4.3092e-17
3.96876e-17
3.86025e-17
3.60508e-17
3.57644e-17
3.34964e-17
3.3254e-17
3.09799e-17
3.11111e-17
2.94435e-17
2.89006e-17
2.80724e-17
2.71742e-17
2.63923e-17
2.61219e-17
2.43212e-17
2.53893e-17
2.27254e-17
2.45027e-17
2.17781e-17
2.3313e-17
2.11441e-17
2.21064e-17
2.06218e-17
2.10426e-17
2.01507e-17
2.00748e-17
1.98039e-17
1.93071e-17
1.94205e-17
1.87799e-17
1.89556e-17
1.84665e-17
1.87216e-17
1.83092e-17
1.86786e-17
1.82953e-17
1.85261e-17
1.87534e-17
1.90106e-17
1.95182e-17
2.05083e-17
2.07449e-17
2.21575e-17
2.63798e-17
1.85113e-17
4.23638e-17
1.60419e-17
5.95947e-17
4.8616e-17
1.70868e-17
1.60738e-16
2.20474e-16
9.4691e-17
4.94883e-17
4.49333e-17
5.20442e-17
5.12331e-17
4.96525e-17
4.47938e-17
4.30107e-17
3.96379e-17
3.85659e-17
3.60219e-17
3.57384e-17
3.34747e-17
3.32347e-17
3.09626e-17
3.10939e-17
2.94334e-17
2.88881e-17
2.80668e-17
2.71671e-17
2.63879e-17
2.6121e-17
2.43173e-17
2.53907e-17
2.27231e-17
2.45039e-17
2.17773e-17
2.33153e-17
2.11437e-17
2.21095e-17
2.06214e-17
2.10458e-17
2.01506e-17
2.00783e-17
1.98035e-17
1.93113e-17
1.94196e-17
1.8785e-17
1.89548e-17
1.84714e-17
1.87203e-17
1.83126e-17
1.86796e-17
1.82994e-17
1.85246e-17
1.87594e-17
1.90039e-17
1.95243e-17
2.04939e-17
2.07493e-17
2.21189e-17
2.63699e-17
1.84651e-17
4.21035e-17
1.61508e-17
5.83966e-17
4.84596e-17
1.73497e-17
1.59065e-16
2.1792e-16
9.31518e-17
4.80317e-17
4.38464e-17
5.1439e-17
5.08688e-17
4.93835e-17
4.4631e-17
4.28903e-17
3.95608e-17
3.85078e-17
3.59757e-17
3.56971e-17
3.34404e-17
3.32037e-17
3.09357e-17
3.10671e-17
2.9416e-17
2.88684e-17
2.80554e-17
2.71546e-17
2.63789e-17
2.61162e-17
2.43101e-17
2.53892e-17
2.27179e-17
2.45032e-17
2.1774e-17
2.33164e-17
2.11411e-17
2.21118e-17
2.06191e-17
2.10483e-17
2.01489e-17
2.00813e-17
1.98016e-17
1.9315e-17
1.94172e-17
1.87897e-17
1.89525e-17
1.84754e-17
1.87176e-17
1.83145e-17
1.8679e-17
1.83014e-17
1.85206e-17
1.87629e-17
1.89916e-17
1.95273e-17
2.04684e-17
2.07488e-17
2.20612e-17
2.63387e-17
1.8409e-17
4.17369e-17
1.62928e-17
5.69194e-17
4.81908e-17
1.74937e-17
1.56386e-16
2.16054e-16
9.09553e-17
4.64091e-17
4.26492e-17
5.07204e-17
5.04143e-17
4.90394e-17
4.44128e-17
4.27285e-17
3.94539e-17
3.84258e-17
3.59103e-17
3.56387e-17
3.33921e-17
3.31598e-17
3.08982e-17
3.10295e-17
2.93902e-17
2.88406e-17
2.80371e-17
2.71359e-17
2.63647e-17
2.61067e-17
2.42988e-17
2.53844e-17
2.27093e-17
2.45001e-17
2.17676e-17
2.3316e-17
2.11357e-17
2.21129e-17
2.06145e-17
2.10499e-17
2.01451e-17
2.00836e-17
1.97978e-17
1.93181e-17
1.9413e-17
1.87935e-17
1.89486e-17
1.84783e-17
1.87132e-17
1.83145e-17
1.86767e-17
1.83008e-17
1.85134e-17
1.87634e-17
1.89735e-17
1.95261e-17
2.04322e-17
2.07414e-17
2.19858e-17
2.62836e-17
1.83473e-17
4.1268e-17
1.64691e-17
5.51951e-17
4.78604e-17
1.75047e-17
1.52624e-16
2.15108e-16
8.81535e-17
4.46526e-17
4.13838e-17
4.99105e-17
4.98836e-17
4.86281e-17
4.41417e-17
4.25257e-17
3.93165e-17
3.83191e-17
3.58248e-17
3.55623e-17
3.3329e-17
3.3102e-17
3.08497e-17
3.09807e-17
2.93555e-17
2.88041e-17
2.80113e-17
2.71103e-17
2.63446e-17
2.60919e-17
2.4283e-17
2.53756e-17
2.26968e-17
2.44942e-17
2.17576e-17
2.33137e-17
2.11272e-17
2.21127e-17
2.06071e-17
2.10503e-17
2.0139e-17
2.00849e-17
1.97919e-17
1.93202e-17
1.94067e-17
1.87964e-17
1.89427e-17
1.84798e-17
1.87069e-17
1.83123e-17
1.86724e-17
1.82975e-17
1.8503e-17
1.87603e-17
1.89501e-17
1.95198e-17
2.03864e-17
2.07259e-17
2.18962e-17
2.62029e-17
1.82849e-17
4.07074e-17
1.66794e-17
5.32701e-17
4.75242e-17
1.73811e-17
1.47844e-16
2.15249e-16
8.48532e-17
4.27967e-17
4.00841e-17
4.90299e-17
4.92921e-17
4.81599e-17
4.38231e-17
4.22842e-17
3.91495e-17
3.81879e-17
3.57195e-17
3.54677e-17
3.32512e-17
3.30301e-17
3.07899e-17
3.09202e-17
2.93119e-17
2.87586e-17
2.79777e-17
2.70775e-17
2.63182e-17
2.60715e-17
2.42623e-17
2.53625e-17
2.268e-17
2.44853e-17
2.17436e-17
2.33093e-17
2.11151e-17
2.21109e-17
2.05967e-17
2.10492e-17
2.01304e-17
2.00848e-17
1.97837e-17
1.93212e-17
1.93983e-17
1.87979e-17
1.89349e-17
1.84796e-17
1.86988e-17
1.83076e-17
1.86659e-17
1.82911e-17
1.84896e-17
1.87535e-17
1.89219e-17
1.95076e-17
2.03331e-17
2.0701e-17
2.17965e-17
2.60968e-17
1.82269e-17
4.00697e-17
1.69223e-17
5.11979e-17
4.72318e-17
1.71289e-17
1.42212e-16
2.16572e-16
8.11829e-17
4.08779e-17
3.87776e-17
4.80973e-17
4.86544e-17
4.76456e-17
4.34633e-17
4.20078e-17
3.89548e-17
3.80333e-17
3.5595e-17
3.53556e-17
3.3159e-17
3.29445e-17
3.07193e-17
3.08485e-17
2.92592e-17
2.87043e-17
2.79362e-17
2.70375e-17
2.62854e-17
2.60452e-17
2.42363e-17
2.5345e-17
2.26587e-17
2.4473e-17
2.17255e-17
2.33024e-17
2.10994e-17
2.21071e-17
2.05832e-17
2.10464e-17
2.01192e-17
2.00832e-17
1.97732e-17
1.93207e-17
1.93876e-17
1.87979e-17
1.89251e-17
1.84774e-17
1.86888e-17
1.83004e-17
1.86574e-17
1.82817e-17
1.84732e-17
1.87426e-17
1.889e-17
1.94892e-17
2.02743e-17
2.06665e-17
2.16909e-17
2.59663e-17
1.8177e-17
3.93713e-17
1.71955e-17
4.90294e-17
4.70205e-17
1.67619e-17
1.35945e-16
2.19107e-16
7.72669e-17
3.89332e-17
3.74851e-17
4.71281e-17
4.79827e-17
4.70952e-17
4.30688e-17
4.17004e-17
3.87347e-17
3.78569e-17
3.54528e-17
3.52268e-17
3.3053e-17
3.28455e-17
3.06381e-17
3.07658e-17
2.91979e-17
2.86415e-17
2.7887e-17
2.69905e-17
2.62461e-17
2.60132e-17
2.42051e-17
2.53228e-17
2.26328e-17
2.44572e-17
2.17032e-17
2.32929e-17
2.10801e-17
2.21011e-17
2.05666e-17
2.10416e-17
2.01054e-17
2.00798e-17
1.97603e-17
1.93185e-17
1.93748e-17
1.87962e-17
1.89134e-17
1.8473e-17
1.86771e-17
1.82906e-17
1.86469e-17
1.82693e-17
1.84545e-17
1.87276e-17
1.88554e-17
1.94645e-17
2.02116e-17
2.06222e-17
2.15828e-17
2.58132e-17
1.81373e-17
3.86277e-17
1.74964e-17
4.681e-17
4.69132e-17
1.6299e-17
1.29275e-16
2.22816e-16
7.32174e-17
3.69994e-17
3.62216e-17
4.61345e-17
4.72868e-17
4.65175e-17
4.2646e-17
4.13664e-17
3.84919e-17
3.76604e-17
3.5294e-17
3.50824e-17
3.29343e-17
3.27341e-17
3.05471e-17
3.06728e-17
2.91282e-17
2.85706e-17
2.78302e-17
2.69367e-17
2.62004e-17
2.59755e-17
2.41687e-17
2.5296e-17
2.26022e-17
2.44379e-17
2.16768e-17
2.32805e-17
2.10572e-17
2.20926e-17
2.0547e-17
2.10345e-17
2.0089e-17
2.00744e-17
1.97452e-17
1.93144e-17
1.93599e-17
1.87925e-17
1.89e-17
1.84665e-17
1.86637e-17
1.82781e-17
1.86346e-17
1.8254e-17
1.84337e-17
1.87087e-17
1.88186e-17
1.94339e-17
2.01467e-17
2.05686e-17
2.14751e-17
2.56401e-17
1.8109e-17
3.78531e-17
1.78225e-17
4.45777e-17
4.69204e-17
1.57652e-17
1.22421e-16
2.27609e-16
6.91258e-17
3.51104e-17
3.4997e-17
4.51259e-17
4.65742e-17
4.59194e-17
4.22001e-17
4.10096e-17
3.82289e-17
3.74458e-17
3.51201e-17
3.49238e-17
3.28038e-17
3.26109e-17
3.04468e-17
3.05702e-17
2.90506e-17
2.84922e-17
2.77662e-17
2.68767e-17
2.61484e-17
2.59324e-17
2.4127e-17
2.52648e-17
2.25673e-17
2.44148e-17
2.16465e-17
2.3265e-17
2.1031e-17
2.20814e-17
2.05247e-17
2.10249e-17
2.00704e-17
2.00668e-17
1.9728e-17
1.93082e-17
1.93431e-17
1.87867e-17
1.8885e-17
1.84576e-17
1.86489e-17
1.82632e-17
1.86206e-17
1.82358e-17
1.84111e-17
1.86861e-17
1.87802e-17
1.93978e-17
2.00804e-17
2.05061e-17
2.13694e-17
2.54495e-17
1.8092e-17
3.7059e-17
1.81709e-17
4.23634e-17
4.70423e-17
1.51871e-17
1.15571e-16
2.3335e-16
6.50661e-17
3.32973e-17
3.38175e-17
4.41095e-17
4.58505e-17
4.53065e-17
4.17356e-17
4.06334e-17
3.79479e-17
3.72146e-17
3.49324e-17
3.47522e-17
3.26623e-17
3.2477e-17
3.03378e-17
3.04586e-17
2.89656e-17
2.84068e-17
2.76952e-17
2.68109e-17
2.60903e-17
2.58844e-17
2.40804e-17
2.52292e-17
2.25281e-17
2.4388e-17
2.16126e-17
2.32463e-17
2.10017e-17
2.20674e-17
2.04997e-17
2.10127e-17
2.00495e-17
2.00567e-17
1.97089e-17
1.92999e-17
1.93246e-17
1.87788e-17
1.88684e-17
1.84465e-17
1.86326e-17
1.82458e-17
1.8605e-17
1.8215e-17
1.83869e-17
1.866e-17
1.87405e-17
1.93567e-17
2.00134e-17
2.04356e-17
2.1267e-17
2.52441e-17
1.80856e-17
3.62548e-17
1.85389e-17
4.01909e-17
4.72719e-17
1.4593e-17
1.08883e-16
2.39864e-16
6.10942e-17
3.15872e-17
3.26866e-17
4.30913e-17
4.51197e-17
4.46833e-17
4.12564e-17
4.0241e-17
3.7651e-17
3.69686e-17
3.47321e-17
3.45687e-17
3.25109e-17
3.23333e-17
3.02208e-17
3.03388e-17
2.88735e-17
2.83151e-17
2.76178e-17
2.67399e-17
2.60265e-17
2.58317e-17
2.4029e-17
2.51895e-17
2.2485e-17
2.43574e-17
2.15754e-17
2.32241e-17
2.09697e-17
2.20504e-17
2.04724e-17
2.09978e-17
2.00267e-17
2.00443e-17
1.96881e-17
1.92893e-17
1.93044e-17
1.87688e-17
1.88504e-17
1.84331e-17
1.86149e-17
1.82261e-17
1.85878e-17
1.81917e-17
1.83612e-17
1.86307e-17
1.86996e-17
1.93111e-17
1.9946e-17
2.03576e-17
2.11681e-17
2.50263e-17
1.80888e-17
3.54479e-17
1.89234e-17
3.80791e-17
4.7596e-17
1.4009e-17
1.02481e-16
2.46943e-16
5.72536e-17
3.00036e-17
3.16058e-17
4.20755e-17
4.43847e-17
4.4053e-17
4.07656e-17
3.98351e-17
3.73402e-17
3.67091e-17
3.45202e-17
3.43743e-17
3.23504e-17
3.21807e-17
3.00964e-17
3.02115e-17
2.87748e-17
2.82176e-17
2.75341e-17
2.66641e-17
2.5957e-17
2.57749e-17
2.3973e-17
2.51458e-17
2.24384e-17
2.43229e-17
2.15353e-17
2.31984e-17
2.09353e-17
2.20302e-17
2.04431e-17
2.09801e-17
2.00022e-17
2.00293e-17
1.96656e-17
1.92765e-17
1.92826e-17
1.87566e-17
1.88309e-17
1.84175e-17
1.85958e-17
1.82042e-17
1.85689e-17
1.81661e-17
1.83341e-17
1.85985e-17
1.86575e-17
1.92614e-17
1.98784e-17
2.0273e-17
2.10728e-17
2.47982e-17
1.81001e-17
3.46439e-17
1.93213e-17
3.60425e-17
4.79966e-17
1.34588e-17
9.64575e-17
2.54353e-16
5.35758e-17
2.85649e-17
3.05753e-17
4.10655e-17
4.36475e-17
4.34183e-17
4.02657e-17
3.94178e-17
3.70171e-17
3.64375e-17
3.42979e-17
3.41702e-17
3.21815e-17
3.20201e-17
2.99653e-17
3.00775e-17
2.86698e-17
2.81148e-17
2.74446e-17
2.6584e-17
2.58822e-17
2.57143e-17
2.39127e-17
2.50983e-17
2.23886e-17
2.42846e-17
2.14929e-17
2.31691e-17
2.08989e-17
2.20069e-17
2.0412e-17
2.09595e-17
1.9976e-17
2.00118e-17
1.96416e-17
1.92614e-17
1.92594e-17
1.87423e-17
1.88101e-17
1.83998e-17
1.85753e-17
1.81803e-17
1.85483e-17
1.81384e-17
1.83054e-17
1.85636e-17
1.8614e-17
1.9208e-17
1.98105e-17
2.01824e-17
2.09807e-17
2.4562e-17
1.81179e-17
3.38471e-17
1.97291e-17
3.40922e-17
4.84521e-17
1.29614e-17
9.08737e-17
2.61844e-16
5.0084e-17
2.72829e-17
2.95942e-17
4.00643e-17
4.29095e-17
4.27812e-17
3.97591e-17
3.89915e-17
3.66834e-17
3.61553e-17
3.4066e-17
3.39572e-17
3.2005e-17
3.18521e-17
2.98279e-17
2.99375e-17
2.85591e-17
2.80072e-17
2.73496e-17
2.65002e-17
2.58024e-17
2.56502e-17
2.38485e-17
2.50471e-17
2.23359e-17
2.42425e-17
2.14483e-17
2.31361e-17
2.08608e-17
2.19803e-17
2.03793e-17
2.09361e-17
1.99484e-17
1.99918e-17
1.96161e-17
1.92441e-17
1.92347e-17
1.87259e-17
1.87878e-17
1.83801e-17
1.85531e-17
1.81545e-17
1.85259e-17
1.81086e-17
1.8275e-17
1.85263e-17
1.85691e-17
1.91511e-17
1.97422e-17
2.00863e-17
2.08913e-17
2.43193e-17
1.81409e-17
3.3061e-17
2.01433e-17
3.22361e-17
4.89388e-17
1.25312e-17
8.57668e-17
2.69164e-16
4.67936e-17
2.61638e-17
2.86612e-17
3.90744e-17
4.21718e-17
4.21434e-17
3.92475e-17
3.85579e-17
3.63407e-17
3.58637e-17
3.38255e-17
3.37363e-17
3.18215e-17
3.16778e-17
2.96848e-17
2.9792e-17
2.84431e-17
2.78953e-17
2.72493e-17
2.64131e-17
2.57178e-17
2.5583e-17
2.37806e-17
2.49925e-17
2.22808e-17
2.41965e-17
2.14021e-17
2.30993e-17
2.08212e-17
2.19504e-17
2.03453e-17
2.09098e-17
1.99195e-17
1.99693e-17
1.95893e-17
1.92246e-17
1.92086e-17
1.87075e-17
1.8764e-17
1.83586e-17
1.85294e-17
1.81269e-17
1.85017e-17
1.80768e-17
1.82429e-17
1.84867e-17
1.85227e-17
1.9091e-17
1.96735e-17
1.99852e-17
2.0804e-17
2.40718e-17
1.81675e-17
3.22879e-17
2.05599e-17
3.04797e-17
4.9432e-17
1.21776e-17
8.11512e-17
2.76055e-16
4.37149e-17
2.52084e-17
2.7775e-17
3.8098e-17
4.14352e-17
4.15062e-17
3.87327e-17
3.81189e-17
3.59903e-17
3.55638e-17
3.35773e-17
3.35083e-17
3.16317e-17
3.14977e-17
2.95365e-17
2.96416e-17
2.83221e-17
2.77797e-17
2.71443e-17
2.63232e-17
2.56287e-17
2.5513e-17
2.37093e-17
2.49345e-17
2.22237e-17
2.41468e-17
2.13545e-17
2.30589e-17
2.07805e-17
2.19174e-17
2.03101e-17
2.08808e-17
1.98893e-17
1.99444e-17
1.95611e-17
1.9203e-17
1.9181e-17
1.86872e-17
1.87388e-17
1.83353e-17
1.8504e-17
1.80976e-17
1.84755e-17
1.80433e-17
1.82089e-17
1.84449e-17
1.84747e-17
1.90278e-17
1.96043e-17
1.98798e-17
2.0718e-17
2.38208e-17
1.81964e-17
3.15298e-17
2.0975e-17
2.88263e-17
4.99054e-17
1.19059e-17
7.70214e-17
2.82275e-16
4.08536e-17
2.44115e-17
2.69341e-17
3.71368e-17
4.07004e-17
4.08706e-17
3.8216e-17
3.76758e-17
3.56337e-17
3.52571e-17
3.33223e-17
3.3274e-17
3.14363e-17
3.13125e-17
2.93837e-17
2.94871e-17
2.81965e-17
2.76607e-17
2.70347e-17
2.62308e-17
2.55355e-17
2.54406e-17
2.3635e-17
2.48733e-17
2.21648e-17
2.40933e-17
2.13058e-17
2.30148e-17
2.0739e-17
2.18811e-17
2.02739e-17
2.0849e-17
1.9858e-17
1.99172e-17
1.95317e-17
1.91794e-17
1.91521e-17
1.8665e-17
1.8712e-17
1.83102e-17
1.84768e-17
1.80667e-17
1.84472e-17
1.80081e-17
1.8173e-17
1.8401e-17
1.84251e-17
1.89616e-17
1.95344e-17
1.97704e-17
2.06327e-17
2.35678e-17
1.82263e-17
3.07882e-17
2.13845e-17
2.72774e-17
5.03333e-17
1.17176e-17
7.33555e-17
2.87603e-16
3.82123e-17
2.37633e-17
2.61368e-17
3.6193e-17
3.99681e-17
4.02377e-17
3.76989e-17
3.72303e-17
3.52722e-17
3.49445e-17
3.30614e-17
3.30342e-17
3.12358e-17
3.1123e-17
2.92267e-17
2.93289e-17
2.80669e-17
2.75389e-17
2.69209e-17
2.61363e-17
2.54385e-17
2.53659e-17
2.3558e-17
2.4809e-17
2.21045e-17
2.40362e-17
2.12564e-17
2.29671e-17
2.06967e-17
2.18417e-17
2.02368e-17
2.08146e-17
1.98257e-17
1.98878e-17
1.95011e-17
1.91538e-17
1.91217e-17
1.86412e-17
1.86836e-17
1.82835e-17
1.84479e-17
1.80342e-17
1.84168e-17
1.79714e-17
1.81351e-17
1.83551e-17
1.83739e-17
1.88924e-17
1.94638e-17
1.96577e-17
2.05475e-17
2.33138e-17
1.82564e-17
3.00644e-17
2.17842e-17
2.58331e-17
5.0692e-17
1.16117e-17
7.01185e-17
2.91848e-16
3.5791e-17
2.32493e-17
2.53817e-17
3.52685e-17
3.9239e-17
3.96082e-17
3.71825e-17
3.67836e-17
3.49071e-17
3.46273e-17
3.27954e-17
3.27898e-17
3.10309e-17
3.09297e-17
2.90663e-17
2.91676e-17
2.79337e-17
2.74145e-17
2.68034e-17
2.604e-17
2.53379e-17
2.52892e-17
2.34788e-17
2.47418e-17
2.20431e-17
2.39755e-17
2.12065e-17
2.2916e-17
2.06539e-17
2.17994e-17
2.0199e-17
2.07778e-17
1.97924e-17
1.98562e-17
1.94692e-17
1.91264e-17
1.90899e-17
1.86156e-17
1.86536e-17
1.82553e-17
1.84172e-17
1.80003e-17
1.83843e-17
1.79331e-17
1.80951e-17
1.83071e-17
1.83212e-17
1.88203e-17
1.93923e-17
1.95422e-17
2.04617e-17
2.30599e-17
1.82857e-17
2.93593e-17
2.21699e-17
2.44921e-17
5.09604e-17
1.15854e-17
6.72674e-17
2.94855e-16
3.35872e-17
2.28528e-17
2.46676e-17
3.43649e-17
3.85141e-17
3.89831e-17
3.66679e-17
3.63369e-17
3.45397e-17
3.43067e-17
3.25253e-17
3.25414e-17
3.08222e-17
3.07332e-17
2.89027e-17
2.90038e-17
2.77973e-17
2.72881e-17
2.66824e-17
2.59423e-17
2.52342e-17
2.52107e-17
2.33976e-17
2.46718e-17
2.1981e-17
2.39114e-17
2.11562e-17
2.28615e-17
2.06107e-17
2.17542e-17
2.01606e-17
2.07385e-17
1.97582e-17
1.98226e-17
1.94362e-17
1.90973e-17
1.90567e-17
1.85886e-17
1.86221e-17
1.82257e-17
1.83847e-17
1.7965e-17
1.83496e-17
1.78934e-17
1.80532e-17
1.82572e-17
1.82671e-17
1.87455e-17
1.932e-17
1.94245e-17
2.0375e-17
2.2807e-17
1.83134e-17
2.86737e-17
2.25377e-17
2.32522e-17
5.11198e-17
1.16348e-17
6.47508e-17
2.96505e-16
3.15969e-17
2.25554e-17
2.39933e-17
3.3484e-17
3.77942e-17
3.83632e-17
3.61562e-17
3.58913e-17
3.4171e-17
3.39837e-17
3.22521e-17
3.22898e-17
3.06102e-17
3.05341e-17
2.87366e-17
2.88379e-17
2.76581e-17
2.71601e-17
2.65584e-17
2.58435e-17
2.51277e-17
2.51307e-17
2.33148e-17
2.45992e-17
2.19183e-17
2.38441e-17
2.11059e-17
2.28039e-17
2.05674e-17
2.17063e-17
2.01217e-17
2.06971e-17
1.97232e-17
1.97872e-17
1.9402e-17
1.90665e-17
1.90222e-17
1.85601e-17
1.8589e-17
1.81947e-17
1.83504e-17
1.79285e-17
1.83128e-17
1.78525e-17
1.80093e-17
1.82054e-17
1.82118e-17
1.86683e-17
1.92467e-17
1.93052e-17
2.0287e-17
2.25561e-17
1.83392e-17
2.80085e-17
2.28839e-17
2.21107e-17
5.11547e-17
1.17558e-17
6.25136e-17
2.9672e-16
2.98144e-17
2.23375e-17
2.33575e-17
3.26274e-17
3.70802e-17
3.77493e-17
3.56482e-17
3.54477e-17
3.38021e-17
3.36592e-17
3.19765e-17
3.20357e-17
3.03955e-17
3.03329e-17
2.85685e-17
2.86704e-17
2.75166e-17
2.70308e-17
2.64316e-17
2.57437e-17
2.50187e-17
2.50492e-17
2.32307e-17
2.45241e-17
2.18554e-17
2.37738e-17
2.10555e-17
2.27433e-17
2.05239e-17
2.16558e-17
2.00823e-17
2.06535e-17
1.96874e-17
1.975e-17
1.93668e-17
1.90343e-17
1.89864e-17
1.85303e-17
1.85544e-17
1.81625e-17
1.83145e-17
1.78909e-17
1.82739e-17
1.78105e-17
1.79638e-17
1.81519e-17
1.81554e-17
1.85887e-17
1.91726e-17
1.91849e-17
2.01975e-17
2.23078e-17
1.83626e-17
2.73645e-17
2.3205e-17
2.10642e-17
5.10546e-17
1.19443e-17
6.04999e-17
2.9547e-16
2.82327e-17
2.21795e-17
2.27592e-17
3.17968e-17
3.63734e-17
3.71421e-17
3.51451e-17
3.50072e-17
3.3434e-17
3.33344e-17
3.16994e-17
3.17799e-17
3.01788e-17
3.01301e-17
2.83987e-17
2.85017e-17
2.73731e-17
2.69006e-17
2.63025e-17
2.56433e-17
2.49077e-17
2.49664e-17
2.31457e-17
2.44467e-17
2.17925e-17
2.37006e-17
2.10053e-17
2.26799e-17
2.04804e-17
2.1603e-17
2.00427e-17
2.06081e-17
1.9651e-17
1.97113e-17
1.93306e-17
1.90008e-17
1.89493e-17
1.84993e-17
1.85184e-17
1.81292e-17
1.8277e-17
1.78524e-17
1.82331e-17
1.77674e-17
1.79166e-17
1.80966e-17
1.80982e-17
1.85072e-17
1.90976e-17
1.90643e-17
2.01065e-17
2.20629e-17
1.83831e-17
2.67422e-17
2.34978e-17
2.01092e-17
5.0813e-17
1.21964e-17
5.86558e-17
2.92768e-16
2.68433e-17
2.20635e-17
2.21975e-17
3.09933e-17
3.56748e-17
3.65426e-17
3.46475e-17
3.45705e-17
3.30676e-17
3.301e-17
3.14217e-17
3.15231e-17
2.99606e-17
2.99261e-17
2.82277e-17
2.83323e-17
2.72282e-17
2.67698e-17
2.61715e-17
2.55425e-17
2.4795e-17
2.48825e-17
2.30601e-17
2.43673e-17
2.17297e-17
2.36249e-17
2.09555e-17
2.26141e-17
2.04371e-17
2.1548e-17
2.00028e-17
2.05609e-17
1.9614e-17
1.96711e-17
1.92935e-17
1.89661e-17
1.89111e-17
1.84673e-17
1.84811e-17
1.80949e-17
1.82381e-17
1.7813e-17
1.81905e-17
1.77236e-17
1.78682e-17
1.80399e-17
1.80405e-17
1.84241e-17
1.90218e-17
1.89439e-17
2.0014e-17
2.1822e-17
1.84007e-17
2.61425e-17
2.37595e-17
1.92419e-17
5.04273e-17
1.25085e-17
5.69291e-17
2.88659e-16
2.56365e-17
2.19734e-17
2.16714e-17
3.02184e-17
3.49857e-17
3.59515e-17
3.41564e-17
3.41383e-17
3.27037e-17
3.26869e-17
3.11441e-17
3.12658e-17
2.97414e-17
2.97214e-17
2.8056e-17
2.81625e-17
2.70821e-17
2.66387e-17
2.6039e-17
2.54413e-17
2.4681e-17
2.47976e-17
2.29741e-17
2.42859e-17
2.16673e-17
2.35469e-17
2.0906e-17
2.2546e-17
2.03939e-17
2.14911e-17
1.99628e-17
2.05121e-17
1.95765e-17
1.96298e-17
1.92555e-17
1.89304e-17
1.88719e-17
1.84343e-17
1.84427e-17
1.80597e-17
1.81978e-17
1.77729e-17
1.81462e-17
1.7679e-17
1.78186e-17
1.79818e-17
1.79823e-17
1.83398e-17
1.89453e-17
1.88243e-17
1.99203e-17
2.15859e-17
1.84151e-17
2.5566e-17
2.3988e-17
1.84585e-17
4.98983e-17
1.28772e-17
5.52725e-17
2.83226e-16
2.4601e-17
2.18947e-17
2.118e-17
2.94728e-17
3.43071e-17
3.53696e-17
3.36725e-17
3.37113e-17
3.2343e-17
3.23658e-17
3.08674e-17
3.10089e-17
2.95218e-17
2.95165e-17
2.78838e-17
2.79927e-17
2.69352e-17
2.65077e-17
2.59052e-17
2.53401e-17
2.4566e-17
2.47118e-17
2.2888e-17
2.42029e-17
2.16054e-17
2.34667e-17
2.0857e-17
2.24758e-17
2.0351e-17
2.14323e-17
1.99228e-17
2.04619e-17
1.95386e-17
1.95873e-17
1.92168e-17
1.88938e-17
1.88317e-17
1.84005e-17
1.84033e-17
1.80238e-17
1.81563e-17
1.77324e-17
1.81006e-17
1.76339e-17
1.77682e-17
1.79225e-17
1.7924e-17
1.82547e-17
1.88684e-17
1.87061e-17
1.98254e-17
2.13551e-17
1.84261e-17
2.50135e-17
2.41814e-17
1.77553e-17
4.9231e-17
1.32989e-17
5.36439e-17
2.76579e-16
2.3725e-17
2.18156e-17
2.07223e-17
2.87574e-17
3.36402e-17
3.47978e-17
3.31965e-17
3.32901e-17
3.19862e-17
3.20474e-17
3.05921e-17
3.07527e-17
2.93023e-17
2.93117e-17
2.77116e-17
2.78232e-17
2.67879e-17
2.6377e-17
2.57706e-17
2.5239e-17
2.44503e-17
2.46253e-17
2.28021e-17
2.41183e-17
2.15441e-17
2.33848e-17
2.08085e-17
2.24038e-17
2.03084e-17
2.1372e-17
1.98829e-17
2.04105e-17
1.95004e-17
1.95439e-17
1.91775e-17
1.88564e-17
1.87908e-17
1.8366e-17
1.8363e-17
1.79874e-17
1.81139e-17
1.76916e-17
1.80537e-17
1.75884e-17
1.77173e-17
1.78623e-17
1.78658e-17
1.81691e-17
1.87912e-17
1.85898e-17
1.97298e-17
2.11301e-17
1.84336e-17
2.44854e-17
2.43383e-17
1.71288e-17
4.84337e-17
1.37698e-17
5.2009e-17
2.68857e-16
2.29956e-17
2.17272e-17
2.02974e-17
2.80729e-17
3.29861e-17
3.42367e-17
3.27291e-17
3.28752e-17
3.16337e-17
3.17322e-17
3.0319e-17
3.04978e-17
2.90834e-17
2.91074e-17
2.75397e-17
2.76543e-17
2.66405e-17
2.62468e-17
2.56355e-17
2.5138e-17
2.43343e-17
2.45381e-17
2.27166e-17
2.40324e-17
2.14836e-17
2.33013e-17
2.07608e-17
2.23303e-17
2.02663e-17
2.13103e-17
1.9843e-17
2.03581e-17
1.94619e-17
1.94997e-17
1.91377e-17
1.88185e-17
1.87493e-17
1.83309e-17
1.83219e-17
1.79505e-17
1.80706e-17
1.76505e-17
1.80058e-17
1.75427e-17
1.76661e-17
1.78015e-17
1.78079e-17
1.80837e-17
1.87138e-17
1.84757e-17
1.96336e-17
2.09114e-17
1.84375e-17
2.39823e-17
2.44579e-17
1.65754e-17
4.75166e-17
1.42851e-17
5.03397e-17
2.60209e-16
2.23993e-17
2.1623e-17
1.99045e-17
2.74197e-17
3.23459e-17
3.3687e-17
3.2271e-17
3.24671e-17
3.12861e-17
3.14207e-17
3.00484e-17
3.02448e-17
2.88656e-17
2.89041e-17
2.73684e-17
2.74862e-17
2.64931e-17
2.61173e-17
2.55003e-17
2.50374e-17
2.42183e-17
2.44505e-17
2.26316e-17
2.39454e-17
2.1424e-17
2.32165e-17
2.07137e-17
2.22554e-17
2.02246e-17
2.12475e-17
1.98034e-17
2.03048e-17
1.94234e-17
1.9455e-17
1.90976e-17
1.87801e-17
1.87073e-17
1.82955e-17
1.82803e-17
1.79134e-17
1.80266e-17
1.76095e-17
1.79572e-17
1.7497e-17
1.76149e-17
1.77402e-17
1.77505e-17
1.79987e-17
1.86366e-17
1.83644e-17
1.95374e-17
2.06996e-17
1.84376e-17
2.35046e-17
2.45396e-17
1.60918e-17
4.64919e-17
1.48394e-17
4.86159e-17
2.50796e-16
2.19217e-17
2.14989e-17
1.95426e-17
2.67979e-17
3.17205e-17
3.31494e-17
3.18226e-17
3.20662e-17
3.09438e-17
3.11133e-17
2.97809e-17
2.99941e-17
2.86493e-17
2.87019e-17
2.71979e-17
2.73193e-17
2.63462e-17
2.59888e-17
2.53652e-17
2.49372e-17
2.41026e-17
2.43625e-17
2.25473e-17
2.38576e-17
2.13652e-17
2.31306e-17
2.06674e-17
2.21795e-17
2.01835e-17
2.11836e-17
1.9764e-17
2.02508e-17
1.93848e-17
1.94098e-17
1.90571e-17
1.87413e-17
1.86649e-17
1.82598e-17
1.82383e-17
1.78761e-17
1.79822e-17
1.75686e-17
1.79082e-17
1.74513e-17
1.7564e-17
1.76789e-17
1.76938e-17
1.79147e-17
1.85597e-17
1.82561e-17
1.94413e-17
2.04949e-17
1.84338e-17
2.30526e-17
2.45835e-17
1.56748e-17
4.53732e-17
1.54261e-17
4.68229e-17
2.40784e-16
2.15483e-17
2.13523e-17
1.92108e-17
2.62076e-17
3.11108e-17
3.26244e-17
3.13845e-17
3.16729e-17
3.06072e-17
3.08105e-17
2.95169e-17
2.9746e-17
2.84348e-17
2.85012e-17
2.70287e-17
2.71536e-17
2.61999e-17
2.58613e-17
2.52306e-17
2.48375e-17
2.39873e-17
2.42742e-17
2.24639e-17
2.37689e-17
2.13075e-17
2.30438e-17
2.06219e-17
2.21028e-17
2.01429e-17
2.11191e-17
1.97249e-17
2.01963e-17
1.93463e-17
1.93643e-17
1.90165e-17
1.87024e-17
1.86223e-17
1.82239e-17
1.8196e-17
1.78389e-17
1.79374e-17
1.7528e-17
1.78588e-17
1.74059e-17
1.75135e-17
1.76176e-17
1.76379e-17
1.78318e-17
1.84834e-17
1.81511e-17
1.93458e-17
2.02978e-17
1.8426e-17
2.26265e-17
2.45901e-17
1.53212e-17
4.41751e-17
1.60377e-17
4.49544e-17
2.30341e-16
2.12645e-17
2.11832e-17
1.89083e-17
2.56486e-17
3.05176e-17
3.21127e-17
3.09572e-17
3.12875e-17
3.02765e-17
3.05124e-17
2.92567e-17
2.95009e-17
2.82225e-17
2.83024e-17
2.68608e-17
2.69895e-17
2.60544e-17
2.5735e-17
2.50966e-17
2.47385e-17
2.38728e-17
2.41858e-17
2.23815e-17
2.36798e-17
2.12508e-17
2.29565e-17
2.05773e-17
2.20253e-17
2.0103e-17
2.10539e-17
1.96863e-17
2.01415e-17
1.93079e-17
1.93186e-17
1.89759e-17
1.86634e-17
1.85797e-17
1.8188e-17
1.81536e-17
1.78018e-17
1.78926e-17
1.74877e-17
1.78094e-17
1.7361e-17
1.74637e-17
1.75568e-17
1.75831e-17
1.77506e-17
1.84079e-17
1.80496e-17
1.92511e-17
2.01086e-17
1.8414e-17
2.22264e-17
2.45601e-17
1.5028e-17
4.29121e-17
1.66649e-17
4.30096e-17
2.19627e-16
2.10562e-17
2.0993e-17
1.86341e-17
2.51206e-17
2.99415e-17
3.16146e-17
3.0541e-17
3.09103e-17
2.99521e-17
3.02195e-17
2.90006e-17
2.9259e-17
2.80126e-17
2.81056e-17
2.66945e-17
2.6827e-17
2.591e-17
2.56101e-17
2.49636e-17
2.46401e-17
2.37593e-17
2.40973e-17
2.23002e-17
2.35903e-17
2.11951e-17
2.28687e-17
2.05335e-17
2.19475e-17
2.00638e-17
2.09883e-17
1.96481e-17
2.00864e-17
1.92698e-17
1.92728e-17
1.89353e-17
1.86244e-17
1.85371e-17
1.81522e-17
1.81112e-17
1.7765e-17
1.78478e-17
1.7448e-17
1.77602e-17
1.73165e-17
1.74148e-17
1.74966e-17
1.75293e-17
1.76712e-17
1.83335e-17
1.79519e-17
1.91575e-17
1.99276e-17
1.83978e-17
2.18521e-17
2.44946e-17
1.47922e-17
4.15984e-17
1.72976e-17
4.09944e-17
2.08793e-16
2.09086e-17
2.07837e-17
1.83875e-17
2.46233e-17
2.93831e-17
3.11305e-17
3.01362e-17
3.05416e-17
2.9634e-17
2.99318e-17
2.87488e-17
2.90207e-17
2.78056e-17
2.7911e-17
2.653e-17
2.66662e-17
2.57667e-17
2.54865e-17
2.48317e-17
2.45424e-17
2.36469e-17
2.40088e-17
2.22202e-17
2.35005e-17
2.11406e-17
2.27807e-17
2.04907e-17
2.18693e-17
2.00253e-17
2.09225e-17
1.96104e-17
2.00312e-17
1.92319e-17
1.92271e-17
1.8895e-17
1.85855e-17
1.84947e-17
1.81166e-17
1.8069e-17
1.77286e-17
1.78032e-17
1.74089e-17
1.77114e-17