/*--------------------------------*- C++ -*----------------------------------*\
| =========                 |                                                 |
| \\      /  F ield         | OpenFOAM: The Open Source CFD Toolbox           |
|  \\    /   O peration     | Version:  2312                                  |
|   \\  /    A nd           | Website:  www.openfoam.com                      |
|    \\/     M anipulation  |                                                 |
\*---------------------------------------------------------------------------*/
FoamFile
{
    version     2.0;
    format      ascii;
    arch        "LSB;label=32;scalar=64";
    class       volScalarField;
    location    "900";
    object      k;
}
// * * * * * * * * * * * * * * * * * * * * * * * * * * * * * * * * * * * * * //

dimensions      [0 2 -2 0 0 0 0];

internalField   nonuniform List<scalar> 
144000
(
7.14829e-06
7.14721e-06
7.15035e-06
7.14714e-06
7.17581e-06
7.14774e-06
7.17771e-06
7.17351e-06
7.17632e-06
7.15009e-06
7.14903e-06
7.1485e-06
7.15087e-06
7.14903e-06
7.1755e-06
7.17422e-06
7.1484e-06
7.15007e-06
7.14976e-06
7.17543e-06
7.17356e-06
7.15027e-06
7.14966e-06
7.17729e-06
7.15011e-06
7.14832e-06
7.17518e-06
7.14933e-06
7.14824e-06
7.17309e-06
7.14475e-06
7.17739e-06
7.15013e-06
7.17785e-06
7.17424e-06
7.17809e-06
7.15237e-06
7.17865e-06
7.15147e-06
7.15092e-06
7.17746e-06
7.14639e-06
7.1512e-06
7.1494e-06
7.17769e-06
7.17471e-06
7.14901e-06
7.15271e-06
7.1489e-06
7.1507e-06
7.14695e-06
7.17333e-06
7.14729e-06
7.15272e-06
7.17455e-06
7.17595e-06
7.14828e-06
7.15077e-06
7.14759e-06
7.14695e-06
1.51808e-05
1.51796e-05
1.51839e-05
1.51827e-05
1.51629e-05
1.51753e-05
1.51653e-05
1.51544e-05
1.51535e-05
1.51728e-05
1.51804e-05
1.51804e-05
1.51836e-05
1.51832e-05
1.51663e-05
1.51553e-05
1.51712e-05
1.51803e-05
1.51844e-05
1.51662e-05
1.51513e-05
1.51706e-05
1.51818e-05
1.5164e-05
1.51767e-05
1.51826e-05
1.51631e-05
1.51761e-05
1.51822e-05
1.51615e-05
1.51714e-05
1.516e-05
1.51763e-05
1.51651e-05
1.51549e-05
1.51549e-05
1.51768e-05
1.51643e-05
1.51761e-05
1.51836e-05
1.51662e-05
1.51732e-05
1.51822e-05
1.51828e-05
1.51678e-05
1.51561e-05
1.5171e-05
1.5184e-05
1.5183e-05
1.51856e-05
1.51838e-05
1.51613e-05
1.51712e-05
1.51854e-05
1.51654e-05
1.51564e-05
1.51716e-05
1.51804e-05
1.51815e-05
1.51802e-05
1.88196e-05
1.88182e-05
1.88209e-05
1.88228e-05
1.87971e-05
1.88104e-05
1.87971e-05
1.87853e-05
1.87789e-05
1.88011e-05
1.88155e-05
1.8817e-05
1.88199e-05
1.88215e-05
1.88021e-05
1.87856e-05
1.88025e-05
1.88138e-05
1.88218e-05
1.88026e-05
1.87808e-05
1.87986e-05
1.88163e-05
1.87951e-05
1.88087e-05
1.88204e-05
1.87968e-05
1.88096e-05
1.88203e-05
1.8797e-05
1.88084e-05
1.87895e-05
1.88082e-05
1.87959e-05
1.87848e-05
1.87791e-05
1.88048e-05
1.87925e-05
1.88063e-05
1.88185e-05
1.87987e-05
1.88087e-05
1.88169e-05
1.88202e-05
1.88016e-05
1.87863e-05
1.88012e-05
1.88166e-05
1.88203e-05
1.8823e-05
1.88251e-05
1.87979e-05
1.88053e-05
1.88196e-05
1.88009e-05
1.87853e-05
1.8803e-05
1.88136e-05
1.88196e-05
1.88193e-05
2.04528e-05
2.04517e-05
2.04523e-05
2.04559e-05
2.04356e-05
2.04432e-05
2.04331e-05
2.04239e-05
2.04138e-05
2.04284e-05
2.04445e-05
2.04481e-05
2.04502e-05
2.04534e-05
2.04403e-05
2.04233e-05
2.04335e-05
2.04426e-05
2.04521e-05
2.04407e-05
2.04197e-05
2.04281e-05
2.04451e-05
2.04301e-05
2.04379e-05
2.04514e-05
2.04341e-05
2.04405e-05
2.04519e-05
2.04355e-05
2.04432e-05
2.0426e-05
2.04381e-05
2.04303e-05
2.04223e-05
2.04129e-05
2.04315e-05
2.04248e-05
2.04342e-05
2.04473e-05
2.04339e-05
2.04411e-05
2.04466e-05
2.04517e-05
2.04384e-05
2.04236e-05
2.04317e-05
2.0444e-05
2.04509e-05
2.04531e-05
2.04583e-05
2.04383e-05
2.04397e-05
2.04483e-05
2.04384e-05
2.04221e-05
2.04337e-05
2.04423e-05
2.04508e-05
2.04517e-05
2.1094e-05
2.10935e-05
2.10925e-05
2.10962e-05
2.10828e-05
2.1086e-05
2.10788e-05
2.10734e-05
2.10625e-05
2.10693e-05
2.10823e-05
2.10877e-05
2.10891e-05
2.1093e-05
2.10861e-05
2.10723e-05
2.10766e-05
2.10819e-05
2.10903e-05
2.10853e-05
2.10707e-05
2.10722e-05
2.1083e-05
2.1075e-05
2.10785e-05
2.10897e-05
2.108e-05
2.10824e-05
2.1091e-05
2.1082e-05
2.10872e-05
2.10741e-05
2.10796e-05
2.10749e-05
2.10706e-05
2.10608e-05
2.10713e-05
2.10682e-05
2.10736e-05
2.10849e-05
2.10779e-05
2.10829e-05
2.10857e-05
2.10913e-05
2.10836e-05
2.10719e-05
2.10749e-05
2.10817e-05
2.10894e-05
2.10913e-05
2.10975e-05
2.10864e-05
2.10843e-05
2.10876e-05
2.10834e-05
2.1071e-05
2.10765e-05
2.10815e-05
2.10897e-05
2.10915e-05
2.12308e-05
2.12311e-05
2.12295e-05
2.12324e-05
2.12246e-05
2.12255e-05
2.12203e-05
2.12174e-05
2.12088e-05
2.12106e-05
2.12177e-05
2.12239e-05
2.12249e-05
2.12286e-05
2.12255e-05
2.12168e-05
2.12177e-05
2.12197e-05
2.12253e-05
2.12239e-05
2.12166e-05
2.12142e-05
2.12197e-05
2.12159e-05
2.12172e-05
2.12247e-05
2.12207e-05
2.12213e-05
2.12268e-05
2.12226e-05
2.12267e-05
2.12179e-05
2.12194e-05
2.1216e-05
2.1214e-05
2.12063e-05
2.12108e-05
2.1209e-05
2.1212e-05
2.12199e-05
2.12172e-05
2.12211e-05
2.12224e-05
2.12271e-05
2.12234e-05
2.12157e-05
2.12163e-05
2.12185e-05
2.12246e-05
2.12262e-05
2.1232e-05
2.12275e-05
2.12251e-05
2.12249e-05
2.12233e-05
2.12154e-05
2.12173e-05
2.12194e-05
2.12251e-05
2.12272e-05
2.11054e-05
2.11068e-05
2.11052e-05
2.11071e-05
2.11029e-05
2.1103e-05
2.10992e-05
2.10977e-05
2.10922e-05
2.10913e-05
2.10939e-05
2.10991e-05
2.10999e-05
2.11028e-05
2.11018e-05
2.10975e-05
2.10971e-05
2.10973e-05
2.10999e-05
2.10999e-05
2.10978e-05
2.10944e-05
2.10966e-05
2.10948e-05
2.1095e-05
2.10992e-05
2.10983e-05
2.10984e-05
2.11017e-05
2.11001e-05
2.11035e-05
2.10984e-05
2.10981e-05
2.1095e-05
2.10943e-05
2.10893e-05
2.10904e-05
2.10886e-05
2.10901e-05
2.10949e-05
2.10942e-05
2.10976e-05
2.10981e-05
2.11016e-05
2.11001e-05
2.10961e-05
2.10959e-05
2.10959e-05
2.10992e-05
2.11004e-05
2.1105e-05
2.1104e-05
2.11033e-05
2.11014e-05
2.11008e-05
2.10963e-05
2.10967e-05
2.1097e-05
2.11e-05
2.11017e-05
2.08403e-05
2.08423e-05
2.08411e-05
2.08422e-05
2.084e-05
2.084e-05
2.08372e-05
2.08365e-05
2.08337e-05
2.08315e-05
2.08321e-05
2.0835e-05
2.08356e-05
2.08377e-05
2.08376e-05
2.08361e-05
2.08356e-05
2.0835e-05
2.08358e-05
2.08362e-05
2.0836e-05
2.08341e-05
2.08343e-05
2.08333e-05
2.0833e-05
2.08348e-05
2.08353e-05
2.08354e-05
2.08372e-05
2.08368e-05
2.08396e-05
2.08371e-05
2.08364e-05
2.08336e-05
2.08335e-05
2.08306e-05
2.08303e-05
2.08283e-05
2.08289e-05
2.08313e-05
2.08312e-05
2.0834e-05
2.08343e-05
2.08367e-05
2.08362e-05
2.08346e-05
2.08345e-05
2.08336e-05
2.08353e-05
2.08359e-05
2.08388e-05
2.08392e-05
2.08401e-05
2.08382e-05
2.08379e-05
2.08355e-05
2.08354e-05
2.08349e-05
2.08361e-05
2.08373e-05
2.04977e-05
2.04996e-05
2.04988e-05
2.04993e-05
2.04982e-05
2.04983e-05
2.04963e-05
2.0496e-05
2.04948e-05
2.04928e-05
2.04924e-05
2.04938e-05
2.04939e-05
2.04952e-05
2.04954e-05
2.04951e-05
2.0495e-05
2.04943e-05
2.04944e-05
2.04944e-05
2.0495e-05
2.04942e-05
2.04938e-05
2.04929e-05
2.04927e-05
2.04932e-05
2.04939e-05
2.0494e-05
2.0495e-05
2.0495e-05
2.04972e-05
2.04961e-05
2.04958e-05
2.04936e-05
2.04937e-05
2.04921e-05
2.04915e-05
2.04894e-05
2.04895e-05
2.04904e-05
2.04903e-05
2.04925e-05
2.04926e-05
2.04941e-05
2.04941e-05
2.04938e-05
2.04941e-05
2.04931e-05
2.04939e-05
2.0494e-05
2.04955e-05
2.04962e-05
2.04979e-05
2.04964e-05
2.04963e-05
2.04952e-05
2.04951e-05
2.04945e-05
2.04948e-05
2.04954e-05
2.01091e-05
2.01104e-05
2.01099e-05
2.01102e-05
2.01096e-05
2.01098e-05
2.01084e-05
2.01083e-05
2.01078e-05
2.01067e-05
2.01057e-05
2.01063e-05
2.01062e-05
2.01067e-05
2.01068e-05
2.0107e-05
2.01073e-05
2.01069e-05
2.01065e-05
2.01062e-05
2.0107e-05
2.01069e-05
2.01065e-05
2.01056e-05
2.01056e-05
2.01055e-05
2.01059e-05
2.0106e-05
2.01065e-05
2.01066e-05
2.01083e-05
2.01079e-05
2.01078e-05
2.01064e-05
2.01066e-05
2.01058e-05
2.01053e-05
2.01035e-05
2.01033e-05
2.01034e-05
2.0103e-05
2.01046e-05
2.01046e-05
2.01055e-05
2.01056e-05
2.01058e-05
2.01065e-05
2.01057e-05
2.01061e-05
2.0106e-05
2.01066e-05
2.01071e-05
2.01089e-05
2.01078e-05
2.01079e-05
2.01075e-05
2.01075e-05
2.01071e-05
2.0107e-05
2.01073e-05
1.96907e-05
1.96915e-05
1.96911e-05
1.96912e-05
1.96908e-05
1.9691e-05
1.969e-05
1.96901e-05
1.969e-05
1.96895e-05
1.96885e-05
1.96888e-05
1.96885e-05
1.96886e-05
1.96885e-05
1.96887e-05
1.96891e-05
1.96889e-05
1.96886e-05
1.96881e-05
1.96888e-05
1.96888e-05
1.96886e-05
1.9688e-05
1.96881e-05
1.96878e-05
1.96879e-05
1.9688e-05
1.96881e-05
1.96882e-05
1.96894e-05
1.96893e-05
1.96895e-05
1.96886e-05
1.96888e-05
1.96885e-05
1.96881e-05
1.96868e-05
1.96866e-05
1.96864e-05
1.96857e-05
1.96868e-05
1.96867e-05
1.96872e-05
1.96872e-05
1.96875e-05
1.96883e-05
1.96878e-05
1.96881e-05
1.96879e-05
1.96881e-05
1.96883e-05
1.96897e-05
1.96891e-05
1.96893e-05
1.96892e-05
1.96894e-05
1.96891e-05
1.9689e-05
1.96891e-05
1.9251e-05
1.92513e-05
1.92511e-05
1.9251e-05
1.92507e-05
1.92509e-05
1.92502e-05
1.92504e-05
1.92503e-05
1.92501e-05
1.92495e-05
1.92496e-05
1.92493e-05
1.92492e-05
1.9249e-05
1.92491e-05
1.92495e-05
1.92494e-05
1.92491e-05
1.92486e-05
1.92491e-05
1.92493e-05
1.92492e-05
1.92488e-05
1.92489e-05
1.92486e-05
1.92485e-05
1.92486e-05
1.92485e-05
1.92486e-05
1.92494e-05
1.92494e-05
1.92496e-05
1.9249e-05
1.92493e-05
1.92492e-05
1.9249e-05
1.92481e-05
1.92479e-05
1.92477e-05
1.9247e-05
1.92477e-05
1.92476e-05
1.92478e-05
1.92478e-05
1.92479e-05
1.92487e-05
1.92484e-05
1.92486e-05
1.92484e-05
1.92485e-05
1.92485e-05
1.92495e-05
1.92491e-05
1.92492e-05
1.92493e-05
1.92496e-05
1.92495e-05
1.92494e-05
1.92495e-05
1.87948e-05
1.87949e-05
1.87946e-05
1.87945e-05
1.87941e-05
1.87943e-05
1.87938e-05
1.8794e-05
1.8794e-05
1.8794e-05
1.87937e-05
1.87937e-05
1.87934e-05
1.87933e-05
1.8793e-05
1.8793e-05
1.87934e-05
1.87933e-05
1.87931e-05
1.87926e-05
1.87929e-05
1.87931e-05
1.87931e-05
1.87928e-05
1.8793e-05
1.87928e-05
1.87926e-05
1.87927e-05
1.87925e-05
1.87925e-05
1.87931e-05
1.8793e-05
1.87932e-05
1.87929e-05
1.87932e-05
1.87931e-05
1.87931e-05
1.87925e-05
1.87924e-05
1.87922e-05
1.87916e-05
1.8792e-05
1.87919e-05
1.8792e-05
1.87919e-05
1.8792e-05
1.87926e-05
1.87924e-05
1.87925e-05
1.87924e-05
1.87924e-05
1.87924e-05
1.87931e-05
1.87928e-05
1.87928e-05
1.87929e-05
1.87932e-05
1.87932e-05
1.87932e-05
1.87933e-05
1.8325e-05
1.8325e-05
1.83247e-05
1.83246e-05
1.83242e-05
1.83243e-05
1.8324e-05
1.83241e-05
1.83241e-05
1.83241e-05
1.8324e-05
1.83241e-05
1.83239e-05
1.83237e-05
1.83234e-05
1.83234e-05
1.83237e-05
1.83236e-05
1.83234e-05
1.8323e-05
1.83233e-05
1.83235e-05
1.83234e-05
1.83233e-05
1.83234e-05
1.83233e-05
1.83231e-05
1.83231e-05
1.8323e-05
1.83229e-05
1.83233e-05
1.83233e-05
1.83234e-05
1.83231e-05
1.83234e-05
1.83234e-05
1.83234e-05
1.83231e-05
1.8323e-05
1.83229e-05
1.83224e-05
1.83228e-05
1.83227e-05
1.83226e-05
1.83225e-05
1.83225e-05
1.8323e-05
1.83229e-05
1.83229e-05
1.83228e-05
1.83228e-05
1.83227e-05
1.83232e-05
1.8323e-05
1.83229e-05
1.83231e-05
1.83233e-05
1.83233e-05
1.83234e-05
1.83234e-05
1.78435e-05
1.78435e-05
1.78433e-05
1.78431e-05
1.78427e-05
1.78428e-05
1.78425e-05
1.78426e-05
1.78426e-05
1.78426e-05
1.78426e-05
1.78427e-05
1.78426e-05
1.78424e-05
1.78422e-05
1.78421e-05
1.78424e-05
1.78423e-05
1.78421e-05
1.78418e-05
1.7842e-05
1.78422e-05
1.78422e-05
1.7842e-05
1.78421e-05
1.78421e-05
1.78419e-05
1.78419e-05
1.78418e-05
1.78417e-05
1.7842e-05
1.78419e-05
1.7842e-05
1.78418e-05
1.7842e-05
1.7842e-05
1.78421e-05
1.78419e-05
1.78419e-05
1.78419e-05
1.78415e-05
1.78418e-05
1.78417e-05
1.78416e-05
1.78414e-05
1.78415e-05
1.78418e-05
1.78417e-05
1.78417e-05
1.78417e-05
1.78415e-05
1.78415e-05
1.78419e-05
1.78417e-05
1.78416e-05
1.78417e-05
1.78419e-05
1.78419e-05
1.78419e-05
1.7842e-05
1.7352e-05
1.7352e-05
1.73518e-05
1.73516e-05
1.73512e-05
1.73512e-05
1.7351e-05
1.73511e-05
1.73511e-05
1.73511e-05
1.73511e-05
1.73512e-05
1.73511e-05
1.7351e-05
1.73508e-05
1.73508e-05
1.73509e-05
1.73509e-05
1.73508e-05
1.73505e-05
1.73507e-05
1.73508e-05
1.73508e-05
1.73507e-05
1.73508e-05
1.73507e-05
1.73506e-05
1.73506e-05
1.73505e-05
1.73503e-05
1.73506e-05
1.73505e-05
1.73506e-05
1.73504e-05
1.73506e-05
1.73506e-05
1.73506e-05
1.73505e-05
1.73506e-05
1.73506e-05
1.73503e-05
1.73505e-05
1.73505e-05
1.73504e-05
1.73502e-05
1.73502e-05
1.73505e-05
1.73504e-05
1.73504e-05
1.73504e-05
1.73502e-05
1.73502e-05
1.73505e-05
1.73504e-05
1.73502e-05
1.73503e-05
1.73504e-05
1.73504e-05
1.73505e-05
1.73505e-05
1.68516e-05
1.68516e-05
1.68515e-05
1.68513e-05
1.68509e-05
1.68509e-05
1.68507e-05
1.68508e-05
1.68508e-05
1.68508e-05
1.68508e-05
1.68509e-05
1.68509e-05
1.68507e-05
1.68506e-05
1.68506e-05
1.68507e-05
1.68507e-05
1.68506e-05
1.68503e-05
1.68505e-05
1.68506e-05
1.68506e-05
1.68505e-05
1.68506e-05
1.68506e-05
1.68504e-05
1.68505e-05
1.68504e-05
1.68502e-05
1.68504e-05
1.68503e-05
1.68504e-05
1.68502e-05
1.68504e-05
1.68504e-05
1.68504e-05
1.68503e-05
1.68504e-05
1.68504e-05
1.68502e-05
1.68504e-05
1.68504e-05
1.68503e-05
1.68501e-05
1.68501e-05
1.68504e-05
1.68503e-05
1.68503e-05
1.68502e-05
1.68501e-05
1.685e-05
1.68503e-05
1.68502e-05
1.68501e-05
1.68501e-05
1.68502e-05
1.68502e-05
1.68503e-05
1.68503e-05
1.63438e-05
1.63438e-05
1.63436e-05
1.63435e-05
1.63431e-05
1.63431e-05
1.63429e-05
1.63429e-05
1.6343e-05
1.6343e-05
1.6343e-05
1.63431e-05
1.6343e-05
1.63429e-05
1.63428e-05
1.63428e-05
1.63429e-05
1.63429e-05
1.63428e-05
1.63426e-05
1.63427e-05
1.63428e-05
1.63428e-05
1.63428e-05
1.63428e-05
1.63428e-05
1.63427e-05
1.63427e-05
1.63426e-05
1.63424e-05
1.63426e-05
1.63426e-05
1.63426e-05
1.63425e-05
1.63426e-05
1.63426e-05
1.63426e-05
1.63426e-05
1.63426e-05
1.63426e-05
1.63425e-05
1.63427e-05
1.63426e-05
1.63426e-05
1.63425e-05
1.63425e-05
1.63427e-05
1.63426e-05
1.63426e-05
1.63425e-05
1.63424e-05
1.63423e-05
1.63426e-05
1.63425e-05
1.63424e-05
1.63424e-05
1.63425e-05
1.63425e-05
1.63425e-05
1.63425e-05
1.58297e-05
1.58297e-05
1.58295e-05
1.58294e-05
1.58291e-05
1.5829e-05
1.58289e-05
1.58288e-05
1.58289e-05
1.58289e-05
1.58289e-05
1.5829e-05
1.5829e-05
1.58289e-05
1.58288e-05
1.58287e-05
1.58289e-05
1.58288e-05
1.58288e-05
1.58286e-05
1.58287e-05
1.58288e-05
1.58288e-05
1.58288e-05
1.58288e-05
1.58288e-05
1.58287e-05
1.58287e-05
1.58285e-05
1.58284e-05
1.58285e-05
1.58285e-05
1.58286e-05
1.58285e-05
1.58286e-05
1.58286e-05
1.58286e-05
1.58286e-05
1.58286e-05
1.58286e-05
1.58285e-05
1.58286e-05
1.58286e-05
1.58286e-05
1.58285e-05
1.58285e-05
1.58287e-05
1.58287e-05
1.58286e-05
1.58285e-05
1.58284e-05
1.58284e-05
1.58285e-05
1.58285e-05
1.58284e-05
1.58285e-05
1.58285e-05
1.58285e-05
1.58285e-05
1.58285e-05
1.53108e-05
1.53107e-05
1.53106e-05
1.53105e-05
1.53102e-05
1.53102e-05
1.531e-05
1.531e-05
1.531e-05
1.53101e-05
1.53101e-05
1.53101e-05
1.53101e-05
1.531e-05
1.53099e-05
1.53099e-05
1.531e-05
1.531e-05
1.53099e-05
1.53098e-05
1.53099e-05
1.531e-05
1.531e-05
1.53099e-05
1.531e-05
1.531e-05
1.53099e-05
1.53099e-05
1.53097e-05
1.53096e-05
1.53097e-05
1.53097e-05
1.53098e-05
1.53097e-05
1.53097e-05
1.53097e-05
1.53098e-05
1.53098e-05
1.53097e-05
1.53098e-05
1.53097e-05
1.53098e-05
1.53098e-05
1.53098e-05
1.53098e-05
1.53097e-05
1.53099e-05
1.53099e-05
1.53098e-05
1.53097e-05
1.53096e-05
1.53096e-05
1.53097e-05
1.53097e-05
1.53096e-05
1.53097e-05
1.53097e-05
1.53097e-05
1.53097e-05
1.53097e-05
1.47889e-05
1.47888e-05
1.47887e-05
1.47886e-05
1.47884e-05
1.47883e-05
1.47882e-05
1.47882e-05
1.47882e-05
1.47882e-05
1.47882e-05
1.47883e-05
1.47882e-05
1.47882e-05
1.47881e-05
1.47881e-05
1.47881e-05
1.47881e-05
1.47881e-05
1.4788e-05
1.47881e-05
1.47881e-05
1.47881e-05
1.47881e-05
1.47881e-05
1.47881e-05
1.47881e-05
1.4788e-05
1.47879e-05
1.47878e-05
1.47879e-05
1.47879e-05
1.47879e-05
1.47879e-05
1.47879e-05
1.47879e-05
1.47879e-05
1.47879e-05
1.47879e-05
1.47879e-05
1.47879e-05
1.4788e-05
1.4788e-05
1.4788e-05
1.4788e-05
1.4788e-05
1.47881e-05
1.47881e-05
1.4788e-05
1.4788e-05
1.47879e-05
1.47878e-05
1.47879e-05
1.47879e-05
1.47879e-05
1.47879e-05
1.47879e-05
1.47879e-05
1.47879e-05
1.47879e-05
1.42664e-05
1.42664e-05
1.42663e-05
1.42662e-05
1.4266e-05
1.42659e-05
1.42658e-05
1.42657e-05
1.42658e-05
1.42658e-05
1.42658e-05
1.42658e-05
1.42658e-05
1.42658e-05
1.42657e-05
1.42657e-05
1.42657e-05
1.42657e-05
1.42657e-05
1.42656e-05
1.42657e-05
1.42657e-05
1.42657e-05
1.42657e-05
1.42657e-05
1.42657e-05
1.42657e-05
1.42656e-05
1.42655e-05
1.42654e-05
1.42655e-05
1.42655e-05
1.42655e-05
1.42655e-05
1.42655e-05
1.42655e-05
1.42655e-05
1.42655e-05
1.42655e-05
1.42656e-05
1.42655e-05
1.42656e-05
1.42656e-05
1.42656e-05
1.42656e-05
1.42656e-05
1.42657e-05
1.42657e-05
1.42657e-05
1.42656e-05
1.42655e-05
1.42654e-05
1.42655e-05
1.42655e-05
1.42655e-05
1.42655e-05
1.42655e-05
1.42655e-05
1.42655e-05
1.42655e-05
1.37469e-05
1.37468e-05
1.37468e-05
1.37467e-05
1.37465e-05
1.37465e-05
1.37464e-05
1.37463e-05
1.37463e-05
1.37463e-05
1.37463e-05
1.37464e-05
1.37464e-05
1.37464e-05
1.37463e-05
1.37462e-05
1.37463e-05
1.37463e-05
1.37463e-05
1.37462e-05
1.37462e-05
1.37463e-05
1.37463e-05
1.37463e-05
1.37463e-05
1.37463e-05
1.37463e-05
1.37462e-05
1.37461e-05
1.3746e-05
1.37461e-05
1.37461e-05
1.37461e-05
1.37461e-05
1.37461e-05
1.37461e-05
1.37461e-05
1.37461e-05
1.37461e-05
1.37461e-05
1.37461e-05
1.37461e-05
1.37461e-05
1.37461e-05
1.37462e-05
1.37462e-05
1.37462e-05
1.37462e-05
1.37462e-05
1.37462e-05
1.37461e-05
1.3746e-05
1.37461e-05
1.37461e-05
1.37461e-05
1.37461e-05
1.37461e-05
1.37461e-05
1.37461e-05
1.37461e-05
1.32359e-05
1.32359e-05
1.32358e-05
1.32358e-05
1.32356e-05
1.32356e-05
1.32355e-05
1.32354e-05
1.32355e-05
1.32355e-05
1.32355e-05
1.32355e-05
1.32355e-05
1.32355e-05
1.32354e-05
1.32354e-05
1.32354e-05
1.32354e-05
1.32354e-05
1.32354e-05
1.32354e-05
1.32354e-05
1.32354e-05
1.32354e-05
1.32354e-05
1.32354e-05
1.32354e-05
1.32354e-05
1.32353e-05
1.32352e-05
1.32352e-05
1.32352e-05
1.32353e-05
1.32352e-05
1.32352e-05
1.32353e-05
1.32353e-05
1.32353e-05
1.32352e-05
1.32353e-05
1.32353e-05
1.32353e-05
1.32353e-05
1.32353e-05
1.32353e-05
1.32353e-05
1.32354e-05
1.32354e-05
1.32354e-05
1.32353e-05
1.32353e-05
1.32352e-05
1.32353e-05
1.32353e-05
1.32353e-05
1.32353e-05
1.32353e-05
1.32353e-05
1.32353e-05
1.32353e-05
1.27429e-05
1.27429e-05
1.27428e-05
1.27428e-05
1.27426e-05
1.27426e-05
1.27425e-05
1.27425e-05
1.27425e-05
1.27425e-05
1.27425e-05
1.27425e-05
1.27425e-05
1.27425e-05
1.27425e-05
1.27425e-05
1.27425e-05
1.27425e-05
1.27425e-05
1.27424e-05
1.27424e-05
1.27425e-05
1.27425e-05
1.27425e-05
1.27425e-05
1.27425e-05
1.27424e-05
1.27424e-05
1.27424e-05
1.27423e-05
1.27423e-05
1.27423e-05
1.27423e-05
1.27423e-05
1.27423e-05
1.27423e-05
1.27423e-05
1.27423e-05
1.27423e-05
1.27424e-05
1.27423e-05
1.27424e-05
1.27424e-05
1.27424e-05
1.27424e-05
1.27424e-05
1.27424e-05
1.27424e-05
1.27424e-05
1.27424e-05
1.27424e-05
1.27423e-05
1.27424e-05
1.27424e-05
1.27423e-05
1.27424e-05
1.27424e-05
1.27424e-05
1.27424e-05
1.27424e-05
7.17591e-06
7.1484e-06
7.15147e-06
7.14677e-06
7.14813e-06
7.14724e-06
7.17528e-06
7.17419e-06
7.15312e-06
7.14971e-06
7.17732e-06
7.14932e-06
7.17798e-06
7.17541e-06
7.15224e-06
7.15086e-06
7.17684e-06
7.15096e-06
7.15021e-06
7.17675e-06
7.17352e-06
7.17878e-06
7.15039e-06
7.15107e-06
7.14924e-06
7.14626e-06
7.14862e-06
7.14633e-06
7.17625e-06
7.14592e-06
7.17505e-06
7.14892e-06
7.14932e-06
7.17547e-06
7.17646e-06
7.15107e-06
7.15385e-06
7.14723e-06
7.17759e-06
7.14576e-06
7.17993e-06
7.14761e-06
7.17914e-06
7.14621e-06
7.14849e-06
7.14782e-06
7.14674e-06
7.14698e-06
7.14909e-06
7.15045e-06
7.17354e-06
7.17628e-06
7.14878e-06
7.1785e-06
7.14949e-06
7.15261e-06
7.17673e-06
7.17869e-06
7.15136e-06
7.17819e-06
1.51569e-05
1.51713e-05
1.51841e-05
1.51825e-05
1.51813e-05
1.51819e-05
1.51656e-05
1.5151e-05
1.51738e-05
1.51834e-05
1.51646e-05
1.51774e-05
1.51666e-05
1.51548e-05
1.51744e-05
1.51843e-05
1.51642e-05
1.51776e-05
1.51851e-05
1.51678e-05
1.51534e-05
1.51546e-05
1.51736e-05
1.51822e-05
1.5184e-05
1.51814e-05
1.51818e-05
1.5181e-05
1.51638e-05
1.51738e-05
1.51593e-05
1.51725e-05
1.51823e-05
1.51643e-05
1.51541e-05
1.51715e-05
1.51867e-05
1.51831e-05
1.51652e-05
1.5174e-05
1.51638e-05
1.51747e-05
1.51649e-05
1.51735e-05
1.51794e-05
1.51804e-05
1.518e-05
1.51803e-05
1.51815e-05
1.51864e-05
1.51652e-05
1.51543e-05
1.51733e-05
1.51634e-05
1.51737e-05
1.51856e-05
1.51668e-05
1.51585e-05
1.51775e-05
1.51662e-05
1.8786e-05
1.8802e-05
1.88179e-05
1.88227e-05
1.88207e-05
1.88216e-05
1.88027e-05
1.87797e-05
1.88e-05
1.88187e-05
1.87964e-05
1.88113e-05
1.87988e-05
1.87831e-05
1.88019e-05
1.88196e-05
1.87964e-05
1.88095e-05
1.8822e-05
1.88035e-05
1.8785e-05
1.87784e-05
1.88016e-05
1.88154e-05
1.88215e-05
1.88222e-05
1.88209e-05
1.88212e-05
1.87977e-05
1.88105e-05
1.87912e-05
1.88041e-05
1.88184e-05
1.87989e-05
1.87815e-05
1.87985e-05
1.88185e-05
1.88223e-05
1.87985e-05
1.88105e-05
1.87928e-05
1.88084e-05
1.87941e-05
1.88082e-05
1.88155e-05
1.88184e-05
1.8819e-05
1.88197e-05
1.8819e-05
1.88243e-05
1.88035e-05
1.87826e-05
1.88046e-05
1.87921e-05
1.88046e-05
1.88198e-05
1.8801e-05
1.87855e-05
1.88081e-05
1.87967e-05
2.04221e-05
2.04322e-05
2.04453e-05
2.0455e-05
2.04541e-05
2.04551e-05
2.04426e-05
2.04189e-05
2.04279e-05
2.0447e-05
2.04317e-05
2.04419e-05
2.04343e-05
2.04198e-05
2.04295e-05
2.04482e-05
2.04321e-05
2.04391e-05
2.04518e-05
2.04407e-05
2.04253e-05
2.04126e-05
2.04287e-05
2.04429e-05
2.04511e-05
2.04557e-05
2.04543e-05
2.04552e-05
2.04358e-05
2.04444e-05
2.0429e-05
2.04352e-05
2.04484e-05
2.04366e-05
2.04183e-05
2.0427e-05
2.04433e-05
2.04537e-05
2.04351e-05
2.04438e-05
2.0428e-05
2.04394e-05
2.0428e-05
2.04395e-05
2.04463e-05
2.04506e-05
2.04518e-05
2.04534e-05
2.04516e-05
2.04554e-05
2.04434e-05
2.04205e-05
2.0435e-05
2.0426e-05
2.0434e-05
2.0448e-05
2.04374e-05
2.04207e-05
2.04366e-05
2.04303e-05
2.10694e-05
2.10745e-05
2.10825e-05
2.10936e-05
2.10945e-05
2.1096e-05
2.10892e-05
2.10713e-05
2.10717e-05
2.10839e-05
2.10763e-05
2.10825e-05
2.10786e-05
2.10686e-05
2.10716e-05
2.1085e-05
2.10769e-05
2.108e-05
2.10894e-05
2.10848e-05
2.10759e-05
2.10615e-05
2.10695e-05
2.10804e-05
2.10881e-05
2.10954e-05
2.10951e-05
2.10966e-05
2.10831e-05
2.10876e-05
2.10772e-05
2.10788e-05
2.10871e-05
2.10819e-05
2.10681e-05
2.10703e-05
2.10785e-05
2.10918e-05
2.10803e-05
2.10862e-05
2.10743e-05
2.10812e-05
2.10728e-05
2.10805e-05
2.1086e-05
2.10907e-05
2.10924e-05
2.10947e-05
2.10928e-05
2.10946e-05
2.10891e-05
2.10713e-05
2.10777e-05
2.10714e-05
2.10754e-05
2.10853e-05
2.10812e-05
2.10684e-05
2.10769e-05
2.10738e-05
2.12124e-05
2.1215e-05
2.12187e-05
2.12276e-05
2.12303e-05
2.12323e-05
2.12292e-05
2.12191e-05
2.12137e-05
2.12202e-05
2.12168e-05
2.12205e-05
2.12186e-05
2.12131e-05
2.12124e-05
2.12201e-05
2.12171e-05
2.12184e-05
2.12243e-05
2.1223e-05
2.12196e-05
2.12084e-05
2.12107e-05
2.12165e-05
2.12222e-05
2.12303e-05
2.12309e-05
2.12334e-05
2.12249e-05
2.12271e-05
2.12208e-05
2.12198e-05
2.12238e-05
2.1222e-05
2.12139e-05
2.12126e-05
2.12148e-05
2.12254e-05
2.122e-05
2.12245e-05
2.12165e-05
2.12204e-05
2.12143e-05
2.1219e-05
2.12226e-05
2.1227e-05
2.12288e-05
2.12316e-05
2.12304e-05
2.12305e-05
2.12285e-05
2.12173e-05
2.12186e-05
2.12137e-05
2.12153e-05
2.12206e-05
2.12198e-05
2.12123e-05
2.12157e-05
2.12137e-05
2.10927e-05
2.10942e-05
2.10954e-05
2.11006e-05
2.11041e-05
2.11067e-05
2.11055e-05
2.11015e-05
2.10946e-05
2.10971e-05
2.10953e-05
2.10975e-05
2.10963e-05
2.10943e-05
2.1092e-05
2.10957e-05
2.10951e-05
2.10957e-05
2.10989e-05
2.10988e-05
2.10985e-05
2.10921e-05
2.10914e-05
2.10933e-05
2.10966e-05
2.11034e-05
2.11047e-05
2.11079e-05
2.11032e-05
2.11042e-05
2.11009e-05
2.10989e-05
2.11002e-05
2.10997e-05
2.10958e-05
2.10936e-05
2.10924e-05
2.1099e-05
2.10969e-05
2.11008e-05
2.10958e-05
2.10982e-05
2.10938e-05
2.10964e-05
2.10984e-05
2.1102e-05
2.11036e-05
2.11064e-05
2.11062e-05
2.11054e-05
2.11048e-05
2.10989e-05
2.10982e-05
2.10939e-05
2.10944e-05
2.10961e-05
2.10967e-05
2.10927e-05
2.10937e-05
2.10923e-05
2.08317e-05
2.0833e-05
2.0833e-05
2.08354e-05
2.08383e-05
2.0841e-05
2.08408e-05
2.08399e-05
2.08352e-05
2.08351e-05
2.08336e-05
2.08348e-05
2.08337e-05
2.08335e-05
2.08316e-05
2.08327e-05
2.08328e-05
2.08331e-05
2.08346e-05
2.08347e-05
2.08358e-05
2.08329e-05
2.08313e-05
2.08317e-05
2.0833e-05
2.08373e-05
2.08388e-05
2.08422e-05
2.084e-05
2.08407e-05
2.08391e-05
2.08375e-05
2.08372e-05
2.0837e-05
2.08354e-05
2.0834e-05
2.0831e-05
2.08347e-05
2.08338e-05
2.0837e-05
2.08341e-05
2.08358e-05
2.08327e-05
2.08342e-05
2.08351e-05
2.08374e-05
2.08389e-05
2.08411e-05
2.08416e-05
2.08407e-05
2.08407e-05
2.08381e-05
2.08371e-05
2.08333e-05
2.08334e-05
2.08331e-05
2.08337e-05
2.08318e-05
2.08319e-05
2.08306e-05
2.04918e-05
2.04928e-05
2.04924e-05
2.04934e-05
2.04951e-05
2.04975e-05
2.04976e-05
2.04982e-05
2.04959e-05
2.0495e-05
2.04933e-05
2.0494e-05
2.04929e-05
2.04933e-05
2.04923e-05
2.0492e-05
2.04921e-05
2.04922e-05
2.04928e-05
2.04928e-05
2.04943e-05
2.04933e-05
2.04921e-05
2.04918e-05
2.04922e-05
2.04943e-05
2.04956e-05
2.04984e-05
2.04977e-05
2.04985e-05
2.04978e-05
2.0497e-05
2.0496e-05
2.0496e-05
2.04953e-05
2.04947e-05
2.04917e-05
2.04934e-05
2.04928e-05
2.04951e-05
2.04935e-05
2.04948e-05
2.04927e-05
2.04936e-05
2.0494e-05
2.04951e-05
2.04964e-05
2.04978e-05
2.04989e-05
2.04981e-05
2.04982e-05
2.04974e-05
2.04967e-05
2.04938e-05
2.04937e-05
2.04926e-05
2.04928e-05
2.04919e-05
2.04917e-05
2.04904e-05
2.0105e-05
2.01057e-05
2.01051e-05
2.01055e-05
2.01063e-05
2.0108e-05
2.01081e-05
2.01093e-05
2.01084e-05
2.01076e-05
2.01061e-05
2.01065e-05
2.01055e-05
2.0106e-05
2.01056e-05
2.01047e-05
2.01048e-05
2.01048e-05
2.01049e-05
2.01047e-05
2.0106e-05
2.01058e-05
2.01053e-05
2.01048e-05
2.0105e-05
2.01059e-05
2.01066e-05
2.01086e-05
2.01086e-05
2.01095e-05
2.01091e-05
2.01091e-05
2.01083e-05
2.01081e-05
2.01078e-05
2.01076e-05
2.01055e-05
2.0106e-05
2.01054e-05
2.01069e-05
2.0106e-05
2.0107e-05
2.01057e-05
2.01063e-05
2.01064e-05
2.01068e-05
2.01078e-05
2.01085e-05
2.01097e-05
2.01092e-05
2.01093e-05
2.01092e-05
2.01089e-05
2.01069e-05
2.01069e-05
2.01057e-05
2.01054e-05
2.01048e-05
2.01046e-05
2.01035e-05
1.96877e-05
1.96881e-05
1.96876e-05
1.96877e-05
1.96879e-05
1.96889e-05
1.96889e-05
1.96902e-05
1.96899e-05
1.96895e-05
1.96884e-05
1.96886e-05
1.96879e-05
1.96882e-05
1.96881e-05
1.96873e-05
1.96872e-05
1.96871e-05
1.9687e-05
1.96866e-05
1.96875e-05
1.96876e-05
1.96876e-05
1.96874e-05
1.96874e-05
1.96877e-05
1.96881e-05
1.96893e-05
1.96894e-05
1.96903e-05
1.96902e-05
1.96905e-05
1.969e-05
1.96899e-05
1.96897e-05
1.96899e-05
1.96884e-05
1.96885e-05
1.96878e-05
1.96888e-05
1.96881e-05
1.96889e-05
1.9688e-05
1.96885e-05
1.96885e-05
1.96887e-05
1.96893e-05
1.96897e-05
1.96905e-05
1.96902e-05
1.96903e-05
1.96905e-05
1.96905e-05
1.96893e-05
1.96893e-05
1.96884e-05
1.96879e-05
1.96873e-05
1.96871e-05
1.96862e-05
1.92488e-05
1.9249e-05
1.92485e-05
1.92484e-05
1.92485e-05
1.92489e-05
1.92489e-05
1.92498e-05
1.92498e-05
1.92496e-05
1.9249e-05
1.92492e-05
1.92486e-05
1.92489e-05
1.92488e-05
1.92482e-05
1.92481e-05
1.92479e-05
1.92477e-05
1.92472e-05
1.92479e-05
1.9248e-05
1.92482e-05
1.92481e-05
1.92482e-05
1.92482e-05
1.92484e-05
1.92491e-05
1.92491e-05
1.925e-05
1.925e-05
1.92504e-05
1.925e-05
1.92501e-05
1.92501e-05
1.92503e-05
1.92493e-05
1.92492e-05
1.92487e-05
1.92493e-05
1.92488e-05
1.92494e-05
1.92488e-05
1.92492e-05
1.92492e-05
1.92492e-05
1.92496e-05
1.92498e-05
1.92503e-05
1.92501e-05
1.92501e-05
1.92503e-05
1.92505e-05
1.92498e-05
1.92499e-05
1.92493e-05
1.92487e-05
1.92483e-05
1.92481e-05
1.92473e-05
1.87932e-05
1.87933e-05
1.87929e-05
1.87927e-05
1.87926e-05
1.87928e-05
1.87927e-05
1.87933e-05
1.87933e-05
1.87932e-05
1.87929e-05
1.87931e-05
1.87927e-05
1.87929e-05
1.87929e-05
1.87924e-05
1.87923e-05
1.87921e-05
1.87919e-05
1.87914e-05
1.87919e-05
1.8792e-05
1.87922e-05
1.87922e-05
1.87922e-05
1.87922e-05
1.87924e-05
1.87927e-05
1.87927e-05
1.87933e-05
1.87933e-05
1.87938e-05
1.87936e-05
1.87937e-05
1.87937e-05
1.8794e-05
1.87933e-05
1.87933e-05
1.87929e-05
1.87933e-05
1.87929e-05
1.87933e-05
1.87929e-05
1.87932e-05
1.87932e-05
1.87932e-05
1.87935e-05
1.87935e-05
1.87938e-05
1.87937e-05
1.87936e-05
1.87938e-05
1.87941e-05
1.87936e-05
1.87938e-05
1.87934e-05
1.87929e-05
1.87925e-05
1.87924e-05
1.87918e-05
1.83239e-05
1.83239e-05
1.83236e-05
1.83233e-05
1.83231e-05
1.83232e-05
1.8323e-05
1.83234e-05
1.83234e-05
1.83234e-05
1.83231e-05
1.83233e-05
1.8323e-05
1.83231e-05
1.83232e-05
1.83229e-05
1.83228e-05
1.83226e-05
1.83224e-05
1.8322e-05
1.83223e-05
1.83224e-05
1.83225e-05
1.83225e-05
1.83226e-05
1.83226e-05
1.83227e-05
1.83229e-05
1.83229e-05
1.83234e-05
1.83233e-05
1.83237e-05
1.83236e-05
1.83237e-05
1.83238e-05
1.8324e-05
1.83236e-05
1.83235e-05
1.83233e-05
1.83236e-05
1.83234e-05
1.83237e-05
1.83234e-05
1.83236e-05
1.83236e-05
1.83236e-05
1.83238e-05
1.83238e-05
1.83239e-05
1.83238e-05
1.83237e-05
1.83238e-05
1.83241e-05
1.83237e-05
1.8324e-05
1.83237e-05
1.83233e-05
1.83231e-05
1.83229e-05
1.83225e-05
1.78428e-05
1.78428e-05
1.78426e-05
1.78423e-05
1.7842e-05
1.7842e-05
1.78418e-05
1.78421e-05
1.78421e-05
1.7842e-05
1.78418e-05
1.78419e-05
1.78418e-05
1.78418e-05
1.78419e-05
1.78417e-05
1.78416e-05
1.78415e-05
1.78413e-05
1.78409e-05
1.78412e-05
1.78412e-05
1.78413e-05
1.78413e-05
1.78414e-05
1.78414e-05
1.78414e-05
1.78416e-05
1.78415e-05
1.78419e-05
1.78419e-05
1.78422e-05
1.78421e-05
1.78422e-05
1.78422e-05
1.78425e-05
1.78422e-05
1.78421e-05
1.7842e-05
1.78422e-05
1.78421e-05
1.78424e-05
1.78422e-05
1.78423e-05
1.78423e-05
1.78423e-05
1.78424e-05
1.78424e-05
1.78425e-05
1.78424e-05
1.78422e-05
1.78424e-05
1.78426e-05
1.78423e-05
1.78425e-05
1.78424e-05
1.78421e-05
1.78419e-05
1.78418e-05
1.78415e-05
1.73516e-05
1.73516e-05
1.73514e-05
1.73511e-05
1.73508e-05
1.73507e-05
1.73505e-05
1.73507e-05
1.73507e-05
1.73506e-05
1.73504e-05
1.73505e-05
1.73504e-05
1.73504e-05
1.73506e-05
1.73503e-05
1.73503e-05
1.73501e-05
1.735e-05
1.73497e-05
1.73499e-05
1.73499e-05
1.735e-05
1.735e-05
1.735e-05
1.735e-05
1.73501e-05
1.73502e-05
1.73501e-05
1.73504e-05
1.73504e-05
1.73507e-05
1.73506e-05
1.73506e-05
1.73507e-05
1.73509e-05
1.73507e-05
1.73506e-05
1.73505e-05
1.73507e-05
1.73507e-05
1.73509e-05
1.73508e-05
1.73509e-05
1.73509e-05
1.73509e-05