/*--------------------------------*- C++ -*----------------------------------*\
| =========                 |                                                 |
| \\      /  F ield         | OpenFOAM: The Open Source CFD Toolbox           |
|  \\    /   O peration     | Version:  2312                                  |
|   \\  /    A nd           | Website:  www.openfoam.com                      |
|    \\/     M anipulation  |                                                 |
\*---------------------------------------------------------------------------*/
FoamFile
{
    version     2.0;
    format      ascii;
    arch        "LSB;label=32;scalar=64";
    class       volScalarField;
    location    "900";
    object      k_0;
}
// * * * * * * * * * * * * * * * * * * * * * * * * * * * * * * * * * * * * * //

dimensions      [0 2 -2 0 0 0 0];

internalField   nonuniform List<scalar> 
144000
(
7.14934e-06
7.14825e-06
7.1514e-06
7.14818e-06
7.17686e-06
7.14878e-06
7.17876e-06
7.17456e-06
7.17737e-06
7.15114e-06
7.15008e-06
7.14955e-06
7.15192e-06
7.15007e-06
7.17655e-06
7.17527e-06
7.14944e-06
7.15112e-06
7.15081e-06
7.17648e-06
7.17461e-06
7.15132e-06
7.1507e-06
7.17834e-06
7.15116e-06
7.14937e-06
7.17623e-06
7.15038e-06
7.14929e-06
7.17414e-06
7.1458e-06
7.17844e-06
7.15117e-06
7.1789e-06
7.17529e-06
7.17914e-06
7.15342e-06
7.1797e-06
7.15252e-06
7.15197e-06
7.17851e-06
7.14744e-06
7.15225e-06
7.15045e-06
7.17874e-06
7.17576e-06
7.15005e-06
7.15375e-06
7.14995e-06
7.15174e-06
7.148e-06
7.17438e-06
7.14834e-06
7.15376e-06
7.1756e-06
7.177e-06
7.14933e-06
7.15182e-06
7.14864e-06
7.148e-06
1.51828e-05
1.51817e-05
1.5186e-05
1.51847e-05
1.5165e-05
1.51774e-05
1.51673e-05
1.51565e-05
1.51555e-05
1.51749e-05
1.51824e-05
1.51824e-05
1.51857e-05
1.51853e-05
1.51684e-05
1.51573e-05
1.51733e-05
1.51823e-05
1.51865e-05
1.51683e-05
1.51533e-05
1.51726e-05
1.51838e-05
1.51661e-05
1.51788e-05
1.51846e-05
1.51652e-05
1.51782e-05
1.51842e-05
1.51636e-05
1.51734e-05
1.51621e-05
1.51784e-05
1.51672e-05
1.5157e-05
1.51569e-05
1.51789e-05
1.51663e-05
1.51782e-05
1.51857e-05
1.51683e-05
1.51753e-05
1.51843e-05
1.51849e-05
1.51698e-05
1.51582e-05
1.5173e-05
1.5186e-05
1.51851e-05
1.51877e-05
1.51859e-05
1.51633e-05
1.51732e-05
1.51875e-05
1.51674e-05
1.51584e-05
1.51736e-05
1.51825e-05
1.51835e-05
1.51823e-05
1.8822e-05
1.88206e-05
1.88233e-05
1.88253e-05
1.87995e-05
1.88129e-05
1.87995e-05
1.87877e-05
1.87813e-05
1.88035e-05
1.88179e-05
1.88194e-05
1.88223e-05
1.88239e-05
1.88045e-05
1.8788e-05
1.8805e-05
1.88162e-05
1.88242e-05
1.8805e-05
1.87832e-05
1.8801e-05
1.88188e-05
1.87975e-05
1.88111e-05
1.88229e-05
1.87993e-05
1.8812e-05
1.88228e-05
1.87994e-05
1.88108e-05
1.87919e-05
1.88106e-05
1.87983e-05
1.87873e-05
1.87815e-05
1.88073e-05
1.87949e-05
1.88087e-05
1.8821e-05
1.88011e-05
1.88111e-05
1.88193e-05
1.88227e-05
1.88041e-05
1.87887e-05
1.88037e-05
1.88191e-05
1.88228e-05
1.88254e-05
1.88275e-05
1.88003e-05
1.88077e-05
1.8822e-05
1.88033e-05
1.87878e-05
1.88054e-05
1.8816e-05
1.8822e-05
1.88217e-05
2.04554e-05
2.04542e-05
2.04548e-05
2.04585e-05
2.04381e-05
2.04457e-05
2.04356e-05
2.04264e-05
2.04163e-05
2.0431e-05
2.0447e-05
2.04507e-05
2.04528e-05
2.0456e-05
2.04429e-05
2.04259e-05
2.0436e-05
2.04452e-05
2.04546e-05
2.04433e-05
2.04222e-05
2.04306e-05
2.04476e-05
2.04327e-05
2.04405e-05
2.04539e-05
2.04366e-05
2.0443e-05
2.04544e-05
2.04381e-05
2.04458e-05
2.04285e-05
2.04406e-05
2.04329e-05
2.04248e-05
2.04154e-05
2.04341e-05
2.04274e-05
2.04367e-05
2.04499e-05
2.04365e-05
2.04436e-05
2.04491e-05
2.04542e-05
2.04409e-05
2.04262e-05
2.04343e-05
2.04465e-05
2.04535e-05
2.04557e-05
2.04609e-05
2.04408e-05
2.04422e-05
2.04509e-05
2.04409e-05
2.04247e-05
2.04363e-05
2.04449e-05
2.04534e-05
2.04542e-05
2.10966e-05
2.10961e-05
2.1095e-05
2.10987e-05
2.10854e-05
2.10885e-05
2.10814e-05
2.10759e-05
2.10651e-05
2.10719e-05
2.10849e-05
2.10903e-05
2.10917e-05
2.10955e-05
2.10887e-05
2.10748e-05
2.10792e-05
2.10844e-05
2.10929e-05
2.10878e-05
2.10733e-05
2.10748e-05
2.10855e-05
2.10775e-05
2.10811e-05
2.10922e-05
2.10826e-05
2.10849e-05
2.10936e-05
2.10845e-05
2.10897e-05
2.10766e-05
2.10822e-05
2.10775e-05
2.10731e-05
2.10633e-05
2.10739e-05
2.10708e-05
2.10762e-05
2.10875e-05
2.10805e-05
2.10855e-05
2.10883e-05
2.10938e-05
2.10862e-05
2.10745e-05
2.10775e-05
2.10842e-05
2.1092e-05
2.10938e-05
2.11001e-05
2.1089e-05
2.10868e-05
2.10901e-05
2.10859e-05
2.10735e-05
2.10791e-05
2.10841e-05
2.10922e-05
2.10941e-05
2.12333e-05
2.12337e-05
2.1232e-05
2.1235e-05
2.12271e-05
2.1228e-05
2.12228e-05
2.12199e-05
2.12113e-05
2.12131e-05
2.12202e-05
2.12264e-05
2.12275e-05
2.12311e-05
2.12281e-05
2.12193e-05
2.12202e-05
2.12222e-05
2.12279e-05
2.12264e-05
2.12192e-05
2.12168e-05
2.12222e-05
2.12184e-05
2.12197e-05
2.12272e-05
2.12232e-05
2.12238e-05
2.12293e-05
2.12252e-05
2.12292e-05
2.12204e-05
2.12219e-05
2.12185e-05
2.12165e-05
2.12089e-05
2.12134e-05
2.12115e-05
2.12145e-05
2.12224e-05
2.12197e-05
2.12237e-05
2.1225e-05
2.12296e-05
2.12259e-05
2.12182e-05
2.12188e-05
2.1221e-05
2.12271e-05
2.12287e-05
2.12345e-05
2.123e-05
2.12276e-05
2.12274e-05
2.12259e-05
2.12179e-05
2.12198e-05
2.12219e-05
2.12276e-05
2.12298e-05
2.11079e-05
2.11093e-05
2.11077e-05
2.11096e-05
2.11053e-05
2.11055e-05
2.11016e-05
2.11002e-05
2.10947e-05
2.10937e-05
2.10964e-05
2.11015e-05
2.11023e-05
2.11053e-05
2.11043e-05
2.10999e-05
2.10995e-05
2.10997e-05
2.11024e-05
2.11024e-05
2.11002e-05
2.10969e-05
2.1099e-05
2.10973e-05
2.10975e-05
2.11016e-05
2.11007e-05
2.11009e-05
2.11042e-05
2.11026e-05
2.1106e-05
2.11008e-05
2.11005e-05
2.10974e-05
2.10967e-05
2.10917e-05
2.10929e-05
2.10911e-05
2.10926e-05
2.10973e-05
2.10966e-05
2.11e-05
2.11006e-05
2.1104e-05
2.11025e-05
2.10985e-05
2.10983e-05
2.10983e-05
2.11017e-05
2.11029e-05
2.11074e-05
2.11065e-05
2.11058e-05
2.11039e-05
2.11033e-05
2.10987e-05
2.10991e-05
2.10995e-05
2.11024e-05
2.11042e-05
2.08427e-05
2.08447e-05
2.08435e-05
2.08446e-05
2.08423e-05
2.08424e-05
2.08396e-05
2.08389e-05
2.08361e-05
2.08339e-05
2.08345e-05
2.08374e-05
2.0838e-05
2.08401e-05
2.084e-05
2.08385e-05
2.0838e-05
2.08373e-05
2.08382e-05
2.08386e-05
2.08384e-05
2.08364e-05
2.08367e-05
2.08357e-05
2.08354e-05
2.08372e-05
2.08377e-05
2.08377e-05
2.08396e-05
2.08392e-05
2.0842e-05
2.08394e-05
2.08388e-05
2.0836e-05
2.08359e-05
2.0833e-05
2.08327e-05
2.08307e-05
2.08313e-05
2.08336e-05
2.08336e-05
2.08364e-05
2.08367e-05
2.08391e-05
2.08386e-05
2.0837e-05
2.08369e-05
2.0836e-05
2.08377e-05
2.08383e-05
2.08412e-05
2.08416e-05
2.08425e-05
2.08406e-05
2.08403e-05
2.08379e-05
2.08378e-05
2.08373e-05
2.08385e-05
2.08397e-05
2.05e-05
2.05019e-05
2.05011e-05
2.05016e-05
2.05005e-05
2.05006e-05
2.04986e-05
2.04983e-05
2.04971e-05
2.04952e-05
2.04947e-05
2.04961e-05
2.04962e-05
2.04975e-05
2.04977e-05
2.04974e-05
2.04973e-05
2.04967e-05
2.04967e-05
2.04967e-05
2.04973e-05
2.04965e-05
2.04961e-05
2.04952e-05
2.0495e-05
2.04955e-05
2.04962e-05
2.04963e-05
2.04973e-05
2.04973e-05
2.04995e-05
2.04984e-05
2.04981e-05
2.04959e-05
2.0496e-05
2.04944e-05
2.04938e-05
2.04917e-05
2.04918e-05
2.04927e-05
2.04926e-05
2.04948e-05
2.04949e-05
2.04965e-05
2.04964e-05
2.04961e-05
2.04964e-05
2.04954e-05
2.04962e-05
2.04963e-05
2.04978e-05
2.04985e-05
2.05002e-05
2.04987e-05
2.04986e-05
2.04975e-05
2.04974e-05
2.04968e-05
2.04971e-05
2.04977e-05
2.01113e-05
2.01127e-05
2.01122e-05
2.01124e-05
2.01118e-05
2.0112e-05
2.01106e-05
2.01105e-05
2.01101e-05
2.0109e-05
2.0108e-05
2.01086e-05
2.01084e-05
2.01089e-05
2.0109e-05
2.01092e-05
2.01095e-05
2.01091e-05
2.01087e-05
2.01085e-05
2.01093e-05
2.01091e-05
2.01087e-05
2.01078e-05
2.01078e-05
2.01078e-05
2.01081e-05
2.01082e-05
2.01087e-05
2.01088e-05
2.01105e-05
2.01101e-05
2.01101e-05
2.01086e-05
2.01088e-05
2.0108e-05
2.01075e-05
2.01057e-05
2.01055e-05
2.01056e-05
2.01053e-05
2.01068e-05
2.01068e-05
2.01077e-05
2.01078e-05
2.0108e-05
2.01087e-05
2.01079e-05
2.01083e-05
2.01082e-05
2.01088e-05
2.01093e-05
2.01111e-05
2.01101e-05
2.01101e-05
2.01097e-05
2.01097e-05
2.01093e-05
2.01092e-05
2.01095e-05
1.96928e-05
1.96936e-05
1.96932e-05
1.96933e-05
1.96929e-05
1.96931e-05
1.96922e-05
1.96922e-05
1.96921e-05
1.96916e-05
1.96906e-05
1.96909e-05
1.96906e-05
1.96907e-05
1.96906e-05
1.96908e-05
1.96913e-05
1.9691e-05
1.96907e-05
1.96902e-05
1.96909e-05
1.96909e-05
1.96907e-05
1.96901e-05
1.96902e-05
1.96899e-05
1.96901e-05
1.96901e-05
1.96902e-05
1.96903e-05
1.96915e-05
1.96914e-05
1.96916e-05
1.96907e-05
1.96909e-05
1.96906e-05
1.96902e-05
1.96889e-05
1.96887e-05
1.96885e-05
1.96878e-05
1.96889e-05
1.96889e-05
1.96893e-05
1.96894e-05
1.96896e-05
1.96905e-05
1.969e-05
1.96902e-05
1.969e-05
1.96902e-05
1.96905e-05
1.96919e-05
1.96913e-05
1.96914e-05
1.96913e-05
1.96915e-05
1.96913e-05
1.96911e-05
1.96912e-05
1.92531e-05
1.92534e-05
1.92531e-05
1.9253e-05
1.92527e-05
1.92529e-05
1.92522e-05
1.92524e-05
1.92523e-05
1.92522e-05
1.92516e-05
1.92517e-05
1.92513e-05
1.92512e-05
1.9251e-05
1.92511e-05
1.92515e-05
1.92514e-05
1.92511e-05
1.92506e-05
1.92511e-05
1.92513e-05
1.92512e-05
1.92508e-05
1.92509e-05
1.92506e-05
1.92506e-05
1.92506e-05
1.92505e-05
1.92506e-05
1.92514e-05
1.92514e-05
1.92516e-05
1.92511e-05
1.92514e-05
1.92512e-05
1.9251e-05
1.92502e-05
1.925e-05
1.92497e-05
1.9249e-05
1.92497e-05
1.92496e-05
1.92498e-05
1.92498e-05
1.925e-05
1.92507e-05
1.92504e-05
1.92506e-05
1.92504e-05
1.92505e-05
1.92506e-05
1.92516e-05
1.92512e-05
1.92512e-05
1.92513e-05
1.92516e-05
1.92515e-05
1.92514e-05
1.92515e-05
1.87968e-05
1.87968e-05
1.87966e-05
1.87964e-05
1.87961e-05
1.87962e-05
1.87958e-05
1.87959e-05
1.87959e-05
1.87959e-05
1.87956e-05
1.87957e-05
1.87954e-05
1.87952e-05
1.87949e-05
1.8795e-05
1.87953e-05
1.87952e-05
1.8795e-05
1.87945e-05
1.87949e-05
1.87951e-05
1.8795e-05
1.87948e-05
1.87949e-05
1.87947e-05
1.87946e-05
1.87946e-05
1.87945e-05
1.87944e-05
1.8795e-05
1.8795e-05
1.87952e-05
1.87948e-05
1.87951e-05
1.87951e-05
1.8795e-05
1.87944e-05
1.87943e-05
1.87941e-05
1.87935e-05
1.8794e-05
1.87939e-05
1.87939e-05
1.87939e-05
1.87939e-05
1.87945e-05
1.87943e-05
1.87945e-05
1.87943e-05
1.87943e-05
1.87943e-05
1.8795e-05
1.87947e-05
1.87947e-05
1.87948e-05
1.87951e-05
1.87951e-05
1.87951e-05
1.87952e-05
1.83268e-05
1.83268e-05
1.83266e-05
1.83264e-05
1.8326e-05
1.83261e-05
1.83258e-05
1.83259e-05
1.83259e-05
1.83259e-05
1.83258e-05
1.83259e-05
1.83257e-05
1.83255e-05
1.83252e-05
1.83252e-05
1.83255e-05
1.83254e-05
1.83252e-05
1.83248e-05
1.83251e-05
1.83253e-05
1.83253e-05
1.83251e-05
1.83252e-05
1.83251e-05
1.83249e-05
1.83249e-05
1.83248e-05
1.83247e-05
1.83251e-05
1.83251e-05
1.83252e-05
1.83249e-05
1.83252e-05
1.83252e-05
1.83252e-05
1.83249e-05
1.83249e-05
1.83247e-05
1.83243e-05
1.83246e-05
1.83245e-05
1.83244e-05
1.83243e-05
1.83244e-05
1.83248e-05
1.83247e-05
1.83248e-05
1.83246e-05
1.83246e-05
1.83246e-05
1.83251e-05
1.83248e-05
1.83248e-05
1.83249e-05
1.83252e-05
1.83252e-05
1.83252e-05
1.83252e-05
1.78452e-05
1.78452e-05
1.7845e-05
1.78448e-05
1.78444e-05
1.78445e-05
1.78442e-05
1.78443e-05
1.78443e-05
1.78444e-05
1.78443e-05
1.78444e-05
1.78443e-05
1.78441e-05
1.78439e-05
1.78439e-05
1.78441e-05
1.7844e-05
1.78439e-05
1.78435e-05
1.78437e-05
1.78439e-05
1.78439e-05
1.78438e-05
1.78439e-05
1.78438e-05
1.78436e-05
1.78436e-05
1.78435e-05
1.78434e-05
1.78437e-05
1.78436e-05
1.78437e-05
1.78435e-05
1.78437e-05
1.78437e-05
1.78438e-05
1.78436e-05
1.78436e-05
1.78436e-05
1.78432e-05
1.78435e-05
1.78434e-05
1.78433e-05
1.78431e-05
1.78432e-05
1.78435e-05
1.78434e-05
1.78435e-05
1.78434e-05
1.78432e-05
1.78432e-05
1.78436e-05
1.78434e-05
1.78433e-05
1.78434e-05
1.78436e-05
1.78436e-05
1.78436e-05
1.78437e-05
1.73536e-05
1.73536e-05
1.73534e-05
1.73532e-05
1.73528e-05
1.73528e-05
1.73526e-05
1.73527e-05
1.73527e-05
1.73527e-05
1.73527e-05
1.73528e-05
1.73527e-05
1.73526e-05
1.73524e-05
1.73524e-05
1.73525e-05
1.73525e-05
1.73524e-05
1.73521e-05
1.73523e-05
1.73524e-05
1.73524e-05
1.73523e-05
1.73524e-05
1.73523e-05
1.73522e-05
1.73522e-05
1.73521e-05
1.73519e-05
1.73522e-05
1.73521e-05
1.73522e-05
1.7352e-05
1.73522e-05
1.73522e-05
1.73522e-05
1.73521e-05
1.73522e-05
1.73522e-05
1.73519e-05
1.73521e-05
1.73521e-05
1.7352e-05
1.73518e-05
1.73518e-05
1.73521e-05
1.7352e-05
1.7352e-05
1.7352e-05
1.73518e-05
1.73518e-05
1.73521e-05
1.7352e-05
1.73518e-05
1.73519e-05
1.7352e-05
1.7352e-05
1.73521e-05
1.73521e-05
1.68531e-05
1.68531e-05
1.6853e-05
1.68528e-05
1.68524e-05
1.68524e-05
1.68522e-05
1.68523e-05
1.68523e-05
1.68523e-05
1.68523e-05
1.68524e-05
1.68523e-05
1.68522e-05
1.68521e-05
1.6852e-05
1.68522e-05
1.68522e-05
1.68521e-05
1.68518e-05
1.6852e-05
1.68521e-05
1.68521e-05
1.6852e-05
1.68521e-05
1.6852e-05
1.68519e-05
1.68519e-05
1.68518e-05
1.68517e-05
1.68518e-05
1.68518e-05
1.68519e-05
1.68517e-05
1.68518e-05
1.68518e-05
1.68519e-05
1.68518e-05
1.68519e-05
1.68519e-05
1.68517e-05
1.68519e-05
1.68518e-05
1.68518e-05
1.68516e-05
1.68516e-05
1.68519e-05
1.68518e-05
1.68518e-05
1.68517e-05
1.68516e-05
1.68515e-05
1.68518e-05
1.68517e-05
1.68516e-05
1.68516e-05
1.68517e-05
1.68517e-05
1.68518e-05
1.68518e-05
1.63452e-05
1.63451e-05
1.6345e-05
1.63448e-05
1.63445e-05
1.63445e-05
1.63443e-05
1.63443e-05
1.63443e-05
1.63443e-05
1.63443e-05
1.63444e-05
1.63444e-05
1.63443e-05
1.63442e-05
1.63441e-05
1.63443e-05
1.63443e-05
1.63442e-05
1.6344e-05
1.63441e-05
1.63442e-05
1.63442e-05
1.63442e-05
1.63442e-05
1.63442e-05
1.63441e-05
1.63441e-05
1.63439e-05
1.63438e-05
1.6344e-05
1.63439e-05
1.6344e-05
1.63439e-05
1.6344e-05
1.6344e-05
1.6344e-05
1.6344e-05
1.6344e-05
1.6344e-05
1.63439e-05
1.6344e-05
1.6344e-05
1.6344e-05
1.63438e-05
1.63438e-05
1.6344e-05
1.6344e-05
1.6344e-05
1.63439e-05
1.63438e-05
1.63437e-05
1.63439e-05
1.63439e-05
1.63438e-05
1.63438e-05
1.63439e-05
1.63439e-05
1.63439e-05
1.63439e-05
1.58309e-05
1.58309e-05
1.58308e-05
1.58306e-05
1.58303e-05
1.58303e-05
1.58301e-05
1.58301e-05
1.58302e-05
1.58302e-05
1.58302e-05
1.58302e-05
1.58302e-05
1.58301e-05
1.583e-05
1.583e-05
1.58301e-05
1.58301e-05
1.583e-05
1.58299e-05
1.583e-05
1.583e-05
1.58301e-05
1.583e-05
1.58301e-05
1.583e-05
1.583e-05
1.58299e-05
1.58298e-05
1.58297e-05
1.58298e-05
1.58298e-05
1.58299e-05
1.58298e-05
1.58298e-05
1.58298e-05
1.58299e-05
1.58298e-05
1.58298e-05
1.58298e-05
1.58298e-05
1.58299e-05
1.58299e-05
1.58298e-05
1.58298e-05
1.58298e-05
1.58299e-05
1.58299e-05
1.58299e-05
1.58298e-05
1.58297e-05
1.58296e-05
1.58298e-05
1.58298e-05
1.58297e-05
1.58297e-05
1.58297e-05
1.58298e-05
1.58298e-05
1.58298e-05
1.53119e-05
1.53119e-05
1.53118e-05
1.53116e-05
1.53114e-05
1.53113e-05
1.53112e-05
1.53111e-05
1.53112e-05
1.53112e-05
1.53112e-05
1.53113e-05
1.53112e-05
1.53112e-05
1.53111e-05
1.5311e-05
1.53111e-05
1.53111e-05
1.53111e-05
1.5311e-05
1.5311e-05
1.53111e-05
1.53111e-05
1.53111e-05
1.53111e-05
1.53111e-05
1.5311e-05
1.5311e-05
1.53109e-05
1.53108e-05
1.53109e-05
1.53109e-05
1.53109e-05
1.53108e-05
1.53109e-05
1.53109e-05
1.53109e-05
1.53109e-05
1.53109e-05
1.53109e-05
1.53108e-05
1.53109e-05
1.53109e-05
1.53109e-05
1.53109e-05
1.53109e-05
1.5311e-05
1.5311e-05
1.5311e-05
1.53109e-05
1.53108e-05
1.53107e-05
1.53109e-05
1.53109e-05
1.53108e-05
1.53108e-05
1.53108e-05
1.53108e-05
1.53109e-05
1.53109e-05
1.47899e-05
1.47899e-05
1.47898e-05
1.47896e-05
1.47894e-05
1.47894e-05
1.47892e-05
1.47892e-05
1.47892e-05
1.47892e-05
1.47892e-05
1.47893e-05
1.47893e-05
1.47892e-05
1.47891e-05
1.47891e-05
1.47892e-05
1.47892e-05
1.47891e-05
1.47891e-05
1.47891e-05
1.47891e-05
1.47892e-05
1.47891e-05
1.47892e-05
1.47892e-05
1.47891e-05
1.47891e-05
1.47889e-05
1.47888e-05
1.47889e-05
1.47889e-05
1.4789e-05
1.47889e-05
1.47889e-05
1.47889e-05
1.47889e-05
1.47889e-05
1.47889e-05
1.4789e-05
1.47889e-05
1.4789e-05
1.4789e-05
1.4789e-05
1.4789e-05
1.4789e-05
1.47891e-05
1.47891e-05
1.47891e-05
1.4789e-05
1.47889e-05
1.47888e-05
1.4789e-05
1.47889e-05
1.47889e-05
1.47889e-05
1.47889e-05
1.47889e-05
1.47889e-05
1.47889e-05
1.42673e-05
1.42673e-05
1.42672e-05
1.42671e-05
1.42669e-05
1.42668e-05
1.42667e-05
1.42666e-05
1.42667e-05
1.42667e-05
1.42667e-05
1.42667e-05
1.42667e-05
1.42667e-05
1.42666e-05
1.42666e-05
1.42666e-05
1.42666e-05
1.42666e-05
1.42665e-05
1.42666e-05
1.42666e-05
1.42666e-05
1.42666e-05
1.42666e-05
1.42666e-05
1.42666e-05
1.42665e-05
1.42664e-05
1.42663e-05
1.42664e-05
1.42664e-05
1.42664e-05
1.42664e-05
1.42664e-05
1.42664e-05
1.42664e-05
1.42664e-05
1.42664e-05
1.42665e-05
1.42664e-05
1.42665e-05
1.42665e-05
1.42665e-05
1.42665e-05
1.42665e-05
1.42666e-05
1.42666e-05
1.42666e-05
1.42665e-05
1.42664e-05
1.42664e-05
1.42665e-05
1.42664e-05
1.42664e-05
1.42664e-05
1.42664e-05
1.42664e-05
1.42664e-05
1.42665e-05
1.37476e-05
1.37476e-05
1.37476e-05
1.37475e-05
1.37473e-05
1.37472e-05
1.37471e-05
1.37471e-05
1.37471e-05
1.37471e-05
1.37471e-05
1.37472e-05
1.37472e-05
1.37471e-05
1.37471e-05
1.3747e-05
1.37471e-05
1.37471e-05
1.37471e-05
1.3747e-05
1.3747e-05
1.37471e-05
1.37471e-05
1.3747e-05
1.37471e-05
1.37471e-05
1.3747e-05
1.3747e-05
1.37469e-05
1.37468e-05
1.37469e-05
1.37469e-05
1.37469e-05
1.37469e-05
1.37469e-05
1.37469e-05
1.37469e-05
1.37469e-05
1.37469e-05
1.37469e-05
1.37469e-05
1.37469e-05
1.37469e-05
1.37469e-05
1.37469e-05
1.37469e-05
1.3747e-05
1.3747e-05
1.3747e-05
1.3747e-05
1.37469e-05
1.37468e-05
1.37469e-05
1.37469e-05
1.37469e-05
1.37469e-05
1.37469e-05
1.37469e-05
1.37469e-05
1.37469e-05
1.32366e-05
1.32366e-05
1.32365e-05
1.32364e-05
1.32363e-05
1.32362e-05
1.32362e-05
1.32361e-05
1.32361e-05
1.32361e-05
1.32361e-05
1.32362e-05
1.32362e-05
1.32361e-05
1.32361e-05
1.32361e-05
1.32361e-05
1.32361e-05
1.32361e-05
1.3236e-05
1.3236e-05
1.32361e-05
1.32361e-05
1.32361e-05
1.32361e-05
1.32361e-05
1.32361e-05
1.3236e-05
1.3236e-05
1.32359e-05
1.32359e-05
1.32359e-05
1.32359e-05
1.32359e-05
1.32359e-05
1.32359e-05
1.32359e-05
1.32359e-05
1.32359e-05
1.32359e-05
1.32359e-05
1.3236e-05
1.3236e-05
1.3236e-05
1.3236e-05
1.3236e-05
1.3236e-05
1.3236e-05
1.3236e-05
1.3236e-05
1.32359e-05
1.32359e-05
1.3236e-05
1.3236e-05
1.32359e-05
1.32359e-05
1.3236e-05
1.3236e-05
1.3236e-05
1.3236e-05
1.27434e-05
1.27434e-05
1.27434e-05
1.27433e-05
1.27432e-05
1.27432e-05
1.27431e-05
1.27431e-05
1.27431e-05
1.27431e-05
1.27431e-05
1.27431e-05
1.27431e-05
1.27431e-05
1.27431e-05
1.2743e-05
1.2743e-05
1.2743e-05
1.2743e-05
1.2743e-05
1.2743e-05
1.2743e-05
1.2743e-05
1.2743e-05
1.2743e-05
1.2743e-05
1.2743e-05
1.2743e-05
1.27429e-05
1.27428e-05
1.27429e-05
1.27429e-05
1.27429e-05
1.27429e-05
1.27429e-05
1.27429e-05
1.27429e-05
1.27429e-05
1.27429e-05
1.27429e-05
1.27429e-05
1.27429e-05
1.27429e-05
1.27429e-05
1.27429e-05
1.27429e-05
1.2743e-05
1.2743e-05
1.2743e-05
1.27429e-05
1.27429e-05
1.27429e-05
1.27429e-05
1.27429e-05
1.27429e-05
1.27429e-05
1.27429e-05
1.27429e-05
1.27429e-05
1.27429e-05
7.17696e-06
7.14944e-06
7.15251e-06
7.14781e-06
7.14918e-06
7.14829e-06
7.17633e-06
7.17524e-06
7.15416e-06
7.15075e-06
7.17837e-06
7.15036e-06
7.17903e-06
7.17646e-06
7.15329e-06
7.15191e-06
7.17789e-06
7.15201e-06
7.15126e-06
7.1778e-06
7.17457e-06
7.17983e-06
7.15144e-06
7.15211e-06
7.15028e-06
7.14731e-06
7.14966e-06
7.14738e-06
7.1773e-06
7.14697e-06
7.1761e-06
7.14996e-06
7.15037e-06
7.17652e-06
7.17751e-06
7.15211e-06
7.1549e-06
7.14827e-06
7.17864e-06
7.14681e-06
7.18098e-06
7.14866e-06
7.18019e-06
7.14726e-06
7.14954e-06
7.14886e-06
7.14778e-06
7.14803e-06
7.15014e-06
7.15149e-06
7.17459e-06
7.17733e-06
7.14982e-06
7.17955e-06
7.15053e-06
7.15365e-06
7.17778e-06
7.17974e-06
7.1524e-06
7.17924e-06
1.51589e-05
1.51734e-05
1.51861e-05
1.51845e-05
1.51834e-05
1.51839e-05
1.51677e-05
1.5153e-05
1.51759e-05
1.51855e-05
1.51666e-05
1.51794e-05
1.51687e-05
1.51568e-05
1.51764e-05
1.51864e-05
1.51663e-05
1.51796e-05
1.51871e-05
1.51699e-05
1.51555e-05
1.51567e-05
1.51757e-05
1.51843e-05
1.51861e-05
1.51835e-05
1.51839e-05
1.51831e-05
1.51659e-05
1.51759e-05
1.51614e-05
1.51746e-05
1.51843e-05
1.51663e-05
1.51562e-05
1.51735e-05
1.51887e-05
1.51852e-05
1.51673e-05
1.5176e-05
1.51659e-05
1.51768e-05
1.5167e-05
1.51755e-05
1.51815e-05
1.51825e-05
1.51821e-05
1.51823e-05
1.51835e-05
1.51885e-05
1.51672e-05
1.51563e-05
1.51754e-05
1.51655e-05
1.51758e-05
1.51876e-05
1.51689e-05
1.51606e-05
1.51796e-05
1.51683e-05
1.87884e-05
1.88045e-05
1.88203e-05
1.88251e-05
1.88232e-05
1.88241e-05
1.88052e-05
1.87821e-05
1.88024e-05
1.88211e-05
1.87988e-05
1.88137e-05
1.88012e-05
1.87856e-05
1.88043e-05
1.8822e-05
1.87988e-05
1.8812e-05
1.88244e-05
1.88059e-05
1.87874e-05
1.87809e-05
1.8804e-05
1.88178e-05
1.8824e-05
1.88246e-05
1.88234e-05
1.88236e-05
1.88002e-05
1.88129e-05
1.87936e-05
1.88065e-05
1.88208e-05
1.88014e-05
1.87839e-05
1.88009e-05
1.88209e-05
1.88247e-05
1.88009e-05
1.88129e-05
1.87952e-05
1.88108e-05
1.87965e-05
1.88106e-05
1.88179e-05
1.88208e-05
1.88214e-05
1.88221e-05
1.88215e-05
1.88268e-05
1.88059e-05
1.8785e-05
1.8807e-05
1.87945e-05
1.88071e-05
1.88223e-05
1.88035e-05
1.8788e-05
1.88105e-05
1.87992e-05
2.04247e-05
2.04347e-05
2.04478e-05
2.04576e-05
2.04566e-05
2.04576e-05
2.04452e-05
2.04214e-05
2.04305e-05
2.04496e-05
2.04343e-05
2.04444e-05
2.04368e-05
2.04223e-05
2.04321e-05
2.04507e-05
2.04346e-05
2.04417e-05
2.04543e-05
2.04432e-05
2.04278e-05
2.04152e-05
2.04312e-05
2.04454e-05
2.04536e-05
2.04582e-05
2.04569e-05
2.04578e-05
2.04384e-05
2.04469e-05
2.04315e-05
2.04377e-05
2.04509e-05
2.04391e-05
2.04208e-05
2.04295e-05
2.04458e-05
2.04563e-05
2.04377e-05
2.04463e-05
2.04305e-05
2.0442e-05
2.04305e-05
2.0442e-05
2.04489e-05
2.04531e-05
2.04544e-05
2.04559e-05
2.04541e-05
2.0458e-05
2.04459e-05
2.04231e-05
2.04375e-05
2.04285e-05
2.04365e-05
2.04506e-05
2.044e-05
2.04232e-05
2.04391e-05
2.04329e-05
2.10719e-05
2.1077e-05
2.10851e-05
2.10962e-05
2.10971e-05
2.10985e-05
2.10918e-05
2.10738e-05
2.10743e-05
2.10865e-05
2.10789e-05
2.10851e-05
2.10812e-05
2.10711e-05
2.10741e-05
2.10876e-05
2.10795e-05
2.10826e-05
2.10919e-05
2.10873e-05
2.10784e-05
2.10641e-05
2.10721e-05
2.10829e-05
2.10906e-05
2.1098e-05
2.10976e-05
2.10992e-05
2.10856e-05
2.10902e-05
2.10798e-05
2.10813e-05
2.10897e-05
2.10845e-05
2.10707e-05
2.10729e-05
2.1081e-05
2.10943e-05
2.10829e-05
2.10887e-05
2.10768e-05
2.10837e-05
2.10754e-05
2.10831e-05
2.10886e-05
2.10933e-05
2.10949e-05
2.10973e-05
2.10954e-05
2.10971e-05
2.10917e-05
2.10739e-05
2.10802e-05
2.10739e-05
2.1078e-05
2.10879e-05
2.10837e-05
2.1071e-05
2.10794e-05
2.10763e-05
2.12149e-05
2.12175e-05
2.12212e-05
2.12301e-05
2.12328e-05
2.12349e-05
2.12318e-05
2.12216e-05
2.12162e-05
2.12227e-05
2.12193e-05
2.1223e-05
2.12211e-05
2.12157e-05
2.1215e-05
2.12226e-05
2.12196e-05
2.1221e-05
2.12268e-05
2.12255e-05
2.12221e-05
2.12109e-05
2.12132e-05
2.1219e-05
2.12247e-05
2.12328e-05
2.12335e-05
2.1236e-05
2.12275e-05
2.12296e-05
2.12233e-05
2.12223e-05
2.12263e-05
2.12245e-05
2.12164e-05
2.12151e-05
2.12174e-05
2.12279e-05
2.12225e-05
2.1227e-05
2.1219e-05
2.12229e-05
2.12168e-05
2.12215e-05
2.12252e-05
2.12296e-05
2.12313e-05
2.12341e-05
2.12329e-05
2.1233e-05
2.1231e-05
2.12198e-05
2.12212e-05
2.12162e-05
2.12179e-05
2.12231e-05
2.12224e-05
2.12148e-05
2.12182e-05
2.12162e-05
2.10952e-05
2.10967e-05
2.10978e-05
2.11031e-05
2.11066e-05
2.11091e-05
2.1108e-05
2.1104e-05
2.10971e-05
2.10995e-05
2.10977e-05
2.10999e-05
2.10988e-05
2.10967e-05
2.10944e-05
2.10982e-05
2.10975e-05
2.10981e-05
2.11013e-05
2.11012e-05
2.11009e-05
2.10945e-05
2.10939e-05
2.10958e-05
2.10991e-05
2.11058e-05
2.11072e-05
2.11104e-05
2.11057e-05
2.11067e-05
2.11033e-05
2.11013e-05
2.11027e-05
2.11021e-05
2.10982e-05
2.10961e-05
2.10949e-05
2.11015e-05
2.10994e-05
2.11032e-05
2.10983e-05
2.11006e-05
2.10962e-05
2.10989e-05
2.11009e-05
2.11044e-05
2.11061e-05
2.11089e-05
2.11086e-05
2.11078e-05
2.11073e-05
2.11014e-05
2.11007e-05
2.10963e-05
2.10968e-05
2.10985e-05
2.10991e-05
2.10952e-05
2.10962e-05
2.10947e-05
2.08341e-05
2.08354e-05
2.08353e-05
2.08377e-05
2.08407e-05
2.08434e-05
2.08431e-05
2.08423e-05
2.08375e-05
2.08375e-05
2.0836e-05
2.08372e-05
2.08361e-05
2.08359e-05
2.0834e-05
2.08351e-05
2.08351e-05
2.08354e-05
2.0837e-05
2.08371e-05
2.08382e-05
2.08353e-05
2.08337e-05
2.08341e-05
2.08354e-05
2.08396e-05
2.08412e-05
2.08446e-05
2.08424e-05
2.08431e-05
2.08415e-05
2.08398e-05
2.08396e-05
2.08394e-05
2.08378e-05
2.08364e-05
2.08333e-05
2.08371e-05
2.08362e-05
2.08394e-05
2.08365e-05
2.08381e-05
2.08351e-05
2.08366e-05
2.08375e-05
2.08398e-05
2.08412e-05
2.08435e-05
2.0844e-05
2.08431e-05
2.08431e-05
2.08405e-05
2.08395e-05
2.08357e-05
2.08358e-05
2.08355e-05
2.08361e-05
2.08342e-05
2.08343e-05
2.0833e-05
2.04941e-05
2.04951e-05
2.04947e-05
2.04957e-05
2.04974e-05
2.04998e-05
2.04999e-05
2.05005e-05
2.04982e-05
2.04973e-05
2.04956e-05
2.04963e-05
2.04952e-05
2.04956e-05
2.04946e-05
2.04943e-05
2.04944e-05
2.04945e-05
2.04951e-05
2.04951e-05
2.04966e-05
2.04956e-05
2.04944e-05
2.04941e-05
2.04945e-05
2.04966e-05
2.04979e-05
2.05007e-05
2.05e-05
2.05008e-05
2.05001e-05
2.04993e-05
2.04983e-05
2.04983e-05
2.04976e-05
2.0497e-05
2.0494e-05
2.04957e-05
2.04951e-05
2.04974e-05
2.04958e-05
2.04971e-05
2.0495e-05
2.04959e-05
2.04963e-05
2.04974e-05
2.04987e-05
2.05001e-05
2.05012e-05
2.05004e-05
2.05005e-05
2.04997e-05
2.0499e-05
2.04961e-05
2.0496e-05
2.04949e-05
2.04951e-05
2.04942e-05
2.0494e-05
2.04927e-05
2.01072e-05
2.01079e-05
2.01073e-05
2.01077e-05
2.01085e-05
2.01102e-05
2.01103e-05
2.01115e-05
2.01106e-05
2.01099e-05
2.01083e-05
2.01087e-05
2.01077e-05
2.01082e-05
2.01078e-05
2.01069e-05
2.0107e-05
2.0107e-05
2.01071e-05
2.01069e-05
2.01082e-05
2.0108e-05
2.01075e-05
2.01071e-05
2.01072e-05
2.01081e-05
2.01089e-05
2.01108e-05
2.01108e-05
2.01117e-05
2.01114e-05
2.01113e-05
2.01105e-05
2.01104e-05
2.011e-05
2.01099e-05
2.01077e-05
2.01083e-05
2.01076e-05
2.01091e-05
2.01082e-05
2.01092e-05
2.01079e-05
2.01085e-05
2.01086e-05
2.0109e-05
2.011e-05
2.01107e-05
2.01119e-05
2.01114e-05
2.01115e-05
2.01114e-05
2.01111e-05
2.01091e-05
2.01091e-05
2.01079e-05
2.01077e-05
2.0107e-05
2.01068e-05
2.01057e-05
1.96898e-05
1.96902e-05
1.96897e-05
1.96898e-05
1.969e-05
1.9691e-05
1.96911e-05
1.96923e-05
1.9692e-05
1.96916e-05
1.96905e-05
1.96908e-05
1.969e-05
1.96904e-05
1.96902e-05
1.96894e-05
1.96894e-05
1.96892e-05
1.96891e-05
1.96887e-05
1.96897e-05
1.96898e-05
1.96897e-05
1.96895e-05
1.96895e-05
1.96898e-05
1.96902e-05
1.96914e-05
1.96915e-05
1.96924e-05
1.96923e-05
1.96926e-05
1.96921e-05
1.9692e-05
1.96919e-05
1.9692e-05
1.96905e-05
1.96906e-05
1.969e-05
1.96909e-05
1.96903e-05
1.9691e-05
1.96902e-05
1.96906e-05
1.96906e-05
1.96908e-05
1.96914e-05
1.96918e-05
1.96927e-05
1.96924e-05
1.96924e-05
1.96926e-05
1.96926e-05
1.96914e-05
1.96914e-05
1.96905e-05
1.969e-05
1.96894e-05
1.96892e-05
1.96883e-05
1.92508e-05
1.92511e-05
1.92506e-05
1.92505e-05
1.92505e-05
1.92509e-05
1.92509e-05
1.92519e-05
1.92518e-05
1.92516e-05
1.92511e-05
1.92512e-05
1.92506e-05
1.92509e-05
1.92509e-05
1.92502e-05
1.92501e-05
1.92499e-05
1.92497e-05
1.92493e-05
1.92499e-05
1.92501e-05
1.92502e-05
1.92501e-05
1.92502e-05
1.92503e-05
1.92505e-05
1.92511e-05
1.92512e-05
1.9252e-05
1.9252e-05
1.92524e-05
1.92521e-05
1.92521e-05
1.92521e-05
1.92523e-05
1.92513e-05
1.92513e-05
1.92507e-05
1.92513e-05
1.92509e-05
1.92514e-05
1.92508e-05
1.92512e-05
1.92512e-05
1.92513e-05
1.92516e-05
1.92518e-05
1.92523e-05
1.92521e-05
1.92521e-05
1.92524e-05
1.92525e-05
1.92518e-05
1.92519e-05
1.92513e-05
1.92507e-05
1.92503e-05
1.92501e-05
1.92494e-05
1.87952e-05
1.87952e-05
1.87948e-05
1.87946e-05
1.87945e-05
1.87947e-05
1.87946e-05
1.87953e-05
1.87953e-05
1.87952e-05
1.87948e-05
1.8795e-05
1.87946e-05
1.87948e-05
1.87948e-05
1.87943e-05
1.87942e-05
1.8794e-05
1.87938e-05
1.87933e-05
1.87938e-05
1.87939e-05
1.87941e-05
1.87941e-05
1.87941e-05
1.87942e-05
1.87943e-05
1.87946e-05
1.87946e-05
1.87953e-05
1.87953e-05
1.87957e-05
1.87955e-05
1.87956e-05
1.87957e-05
1.87959e-05
1.87953e-05
1.87952e-05
1.87948e-05
1.87952e-05
1.87949e-05
1.87953e-05
1.87949e-05
1.87951e-05
1.87951e-05
1.87951e-05
1.87954e-05
1.87954e-05
1.87957e-05
1.87956e-05
1.87955e-05
1.87957e-05
1.8796e-05
1.87955e-05
1.87957e-05
1.87953e-05
1.87948e-05
1.87944e-05
1.87943e-05
1.87937e-05
1.83257e-05
1.83257e-05
1.83254e-05
1.83251e-05
1.83249e-05
1.8325e-05
1.83248e-05
1.83253e-05
1.83253e-05
1.83252e-05
1.8325e-05
1.83251e-05
1.83249e-05
1.8325e-05
1.8325e-05
1.83247e-05
1.83246e-05
1.83244e-05
1.83242e-05
1.83238e-05
1.83241e-05
1.83242e-05
1.83244e-05
1.83244e-05
1.83244e-05
1.83245e-05
1.83245e-05
1.83247e-05
1.83247e-05
1.83252e-05
1.83252e-05
1.83256e-05
1.83254e-05
1.83255e-05
1.83256e-05
1.83259e-05
1.83254e-05
1.83254e-05
1.83251e-05
1.83254e-05
1.83252e-05
1.83255e-05
1.83252e-05
1.83254e-05
1.83254e-05
1.83254e-05
1.83256e-05
1.83256e-05
1.83258e-05
1.83256e-05
1.83255e-05
1.83256e-05
1.83259e-05
1.83256e-05
1.83258e-05
1.83256e-05
1.83251e-05
1.83249e-05
1.83247e-05
1.83243e-05
1.78445e-05
1.78445e-05
1.78443e-05
1.7844e-05
1.78438e-05
1.78437e-05
1.78435e-05
1.78438e-05
1.78438e-05
1.78437e-05
1.78435e-05
1.78436e-05
1.78435e-05
1.78435e-05
1.78437e-05
1.78434e-05
1.78433e-05
1.78432e-05
1.7843e-05
1.78426e-05
1.78429e-05
1.78429e-05
1.7843e-05
1.7843e-05
1.78431e-05
1.78431e-05
1.78431e-05
1.78433e-05
1.78433e-05
1.78436e-05
1.78436e-05
1.78439e-05
1.78438e-05
1.78439e-05
1.78439e-05
1.78442e-05
1.78439e-05
1.78439e-05
1.78437e-05
1.78439e-05
1.78438e-05
1.78441e-05
1.78439e-05
1.7844e-05
1.7844e-05
1.7844e-05
1.78441e-05
1.78442e-05
1.78443e-05
1.78442e-05
1.7844e-05
1.78441e-05
1.78443e-05
1.78441e-05
1.78443e-05
1.78441e-05
1.78438e-05
1.78436e-05
1.78435e-05
1.78432e-05
1.73532e-05
1.73532e-05
1.7353e-05
1.73527e-05
1.73524e-05
1.73523e-05
1.73521e-05
1.73523e-05
1.73523e-05
1.73522e-05
1.7352e-05
1.73521e-05
1.7352e-05
1.7352e-05
1.73522e-05
1.73519e-05
1.73519e-05
1.73517e-05
1.73516e-05
1.73513e-05
1.73515e-05
1.73515e-05
1.73516e-05
1.73516e-05
1.73516e-05
1.73516e-05
1.73517e-05
1.73518e-05
1.73517e-05
1.7352e-05
1.7352e-05
1.73523e-05
1.73522e-05
1.73522e-05
1.73523e-05
1.73525e-05
1.73523e-05
1.73522e-05
1.73521e-05
1.73523e-05
1.73523e-05
1.73525e-05
1.73524e-05
1.73525e-05
1.73525e-05
1.73525e-05
1.73526e-05
1.73526e-05
1.73527e-05