/*--------------------------------*- C++ -*----------------------------------*\
| =========                 |                                                 |
| \\      /  F ield         | OpenFOAM: The Open Source CFD Toolbox           |
|  \\    /   O peration     | Version:  2312                                  |
|   \\  /    A nd           | Website:  www.openfoam.com                      |
|    \\/     M anipulation  |                                                 |
\*---------------------------------------------------------------------------*/
FoamFile
{
    version     2.0;
    format      ascii;
    arch        "LSB;label=32;scalar=64";
    class       volScalarField;
    location    "900";
    object      nut;
}
// * * * * * * * * * * * * * * * * * * * * * * * * * * * * * * * * * * * * * //

dimensions      [0 2 -1 0 0 0 0];

internalField   nonuniform List<scalar> 
144000
(
7.50848e-06
7.50791e-06
7.50956e-06
7.50787e-06
7.52291e-06
7.50819e-06
7.52391e-06
7.52171e-06
7.52319e-06
7.50942e-06
7.50887e-06
7.50859e-06
7.50983e-06
7.50887e-06
7.52276e-06
7.52208e-06
7.50853e-06
7.50941e-06
7.50925e-06
7.52272e-06
7.52174e-06
7.50952e-06
7.50919e-06
7.52369e-06
7.50943e-06
7.50849e-06
7.52259e-06
7.50902e-06
7.50845e-06
7.52149e-06
7.50662e-06
7.52374e-06
7.50944e-06
7.52399e-06
7.52209e-06
7.52411e-06
7.51062e-06
7.52441e-06
7.51015e-06
7.50986e-06
7.52378e-06
7.50748e-06
7.51001e-06
7.50906e-06
7.5239e-06
7.52234e-06
7.50885e-06
7.5108e-06
7.5088e-06
7.50974e-06
7.50777e-06
7.52161e-06
7.50795e-06
7.5108e-06
7.52226e-06
7.52299e-06
7.50847e-06
7.50978e-06
7.50811e-06
7.50777e-06
1.0942e-05
1.09416e-05
1.09431e-05
1.09427e-05
1.09356e-05
1.09401e-05
1.09364e-05
1.09325e-05
1.09322e-05
1.09392e-05
1.09419e-05
1.09419e-05
1.0943e-05
1.09429e-05
1.09368e-05
1.09328e-05
1.09386e-05
1.09419e-05
1.09433e-05
1.09368e-05
1.09314e-05
1.09383e-05
1.09424e-05
1.0936e-05
1.09406e-05
1.09427e-05
1.09357e-05
1.09404e-05
1.09425e-05
1.09351e-05
1.09386e-05
1.09345e-05
1.09404e-05
1.09364e-05
1.09327e-05
1.09327e-05
1.09406e-05
1.09361e-05
1.09404e-05
1.09431e-05
1.09368e-05
1.09393e-05
1.09425e-05
1.09428e-05
1.09373e-05
1.09331e-05
1.09385e-05
1.09432e-05
1.09428e-05
1.09438e-05
1.09431e-05
1.0935e-05
1.09386e-05
1.09437e-05
1.09365e-05
1.09332e-05
1.09387e-05
1.09419e-05
1.09423e-05
1.09418e-05
1.2183e-05
1.21826e-05
1.21835e-05
1.21841e-05
1.21758e-05
1.21801e-05
1.21758e-05
1.21719e-05
1.21699e-05
1.21771e-05
1.21817e-05
1.21822e-05
1.21831e-05
1.21837e-05
1.21774e-05
1.2172e-05
1.21775e-05
1.21812e-05
1.21837e-05
1.21775e-05
1.21705e-05
1.21762e-05
1.2182e-05
1.21751e-05
1.21795e-05
1.21833e-05
1.21757e-05
1.21798e-05
1.21833e-05
1.21757e-05
1.21794e-05
1.21733e-05
1.21793e-05
1.21754e-05
1.21718e-05
1.21699e-05
1.21783e-05
1.21743e-05
1.21787e-05
1.21827e-05
1.21763e-05
1.21795e-05
1.21822e-05
1.21833e-05
1.21772e-05
1.21723e-05
1.21771e-05
1.21821e-05
1.21833e-05
1.21841e-05
1.21848e-05
1.2176e-05
1.21784e-05
1.2183e-05
1.2177e-05
1.2172e-05
1.21777e-05
1.21811e-05
1.2183e-05
1.21829e-05
1.27007e-05
1.27003e-05
1.27005e-05
1.27017e-05
1.26953e-05
1.26977e-05
1.26946e-05
1.26917e-05
1.26886e-05
1.26931e-05
1.26981e-05
1.26992e-05
1.26999e-05
1.27009e-05
1.26968e-05
1.26915e-05
1.26947e-05
1.26975e-05
1.27005e-05
1.26969e-05
1.26904e-05
1.2693e-05
1.26983e-05
1.26936e-05
1.26961e-05
1.27002e-05
1.26949e-05
1.26969e-05
1.27004e-05
1.26953e-05
1.26977e-05
1.26924e-05
1.26961e-05
1.26937e-05
1.26912e-05
1.26883e-05
1.26941e-05
1.2692e-05
1.26949e-05
1.2699e-05
1.26948e-05
1.2697e-05
1.26988e-05
1.27003e-05
1.26962e-05
1.26916e-05
1.26941e-05
1.26979e-05
1.27001e-05
1.27008e-05
1.27024e-05
1.26962e-05
1.26966e-05
1.26993e-05
1.26962e-05
1.26912e-05
1.26948e-05
1.26974e-05
1.27001e-05
1.27003e-05
1.28982e-05
1.28981e-05
1.28978e-05
1.28989e-05
1.28948e-05
1.28958e-05
1.28936e-05
1.28919e-05
1.28886e-05
1.28907e-05
1.28947e-05
1.28963e-05
1.28967e-05
1.28979e-05
1.28958e-05
1.28916e-05
1.28929e-05
1.28945e-05
1.28971e-05
1.28956e-05
1.28911e-05
1.28916e-05
1.28949e-05
1.28924e-05
1.28935e-05
1.28969e-05
1.2894e-05
1.28947e-05
1.28973e-05
1.28946e-05
1.28962e-05
1.28921e-05
1.28938e-05
1.28924e-05
1.28911e-05
1.28881e-05
1.28913e-05
1.28903e-05
1.2892e-05
1.28955e-05
1.28933e-05
1.28948e-05
1.28957e-05
1.28974e-05
1.28951e-05
1.28915e-05
1.28924e-05
1.28945e-05
1.28968e-05
1.28974e-05
1.28993e-05
1.28959e-05
1.28953e-05
1.28963e-05
1.2895e-05
1.28912e-05
1.28929e-05
1.28944e-05
1.28969e-05
1.28975e-05
1.294e-05
1.29401e-05
1.29396e-05
1.29405e-05
1.29381e-05
1.29384e-05
1.29368e-05
1.29359e-05
1.29333e-05
1.29338e-05
1.2936e-05
1.29379e-05
1.29382e-05
1.29393e-05
1.29384e-05
1.29357e-05
1.2936e-05
1.29366e-05
1.29383e-05
1.29379e-05
1.29357e-05
1.29349e-05
1.29366e-05
1.29355e-05
1.29358e-05
1.29381e-05
1.29369e-05
1.29371e-05
1.29388e-05
1.29375e-05
1.29387e-05
1.29361e-05
1.29365e-05
1.29355e-05
1.29349e-05
1.29325e-05
1.29339e-05
1.29333e-05
1.29343e-05
1.29367e-05
1.29358e-05
1.2937e-05
1.29374e-05
1.29389e-05
1.29377e-05
1.29354e-05
1.29356e-05
1.29362e-05
1.29381e-05
1.29386e-05
1.29404e-05
1.2939e-05
1.29382e-05
1.29382e-05
1.29377e-05
1.29353e-05
1.29359e-05
1.29365e-05
1.29383e-05
1.29389e-05
1.29017e-05
1.29022e-05
1.29017e-05
1.29023e-05
1.29009e-05
1.2901e-05
1.28998e-05
1.28994e-05
1.28977e-05
1.28974e-05
1.28982e-05
1.28998e-05
1.29e-05
1.29009e-05
1.29006e-05
1.28993e-05
1.28992e-05
1.28992e-05
1.29e-05
1.29001e-05
1.28994e-05
1.28984e-05
1.2899e-05
1.28985e-05
1.28986e-05
1.28998e-05
1.28995e-05
1.28996e-05
1.29006e-05
1.29001e-05
1.29011e-05
1.28996e-05
1.28995e-05
1.28985e-05
1.28983e-05
1.28968e-05
1.28971e-05
1.28966e-05
1.2897e-05
1.28985e-05
1.28983e-05
1.28993e-05
1.28995e-05
1.29006e-05
1.29001e-05
1.28989e-05
1.28988e-05
1.28988e-05
1.28998e-05
1.29002e-05
1.29016e-05
1.29013e-05
1.29011e-05
1.29005e-05
1.29003e-05
1.28989e-05
1.28991e-05
1.28992e-05
1.29001e-05
1.29006e-05
1.28204e-05
1.2821e-05
1.28207e-05
1.2821e-05
1.28203e-05
1.28203e-05
1.28195e-05
1.28193e-05
1.28184e-05
1.28177e-05
1.28179e-05
1.28188e-05
1.2819e-05
1.28196e-05
1.28196e-05
1.28191e-05
1.2819e-05
1.28188e-05
1.28191e-05
1.28192e-05
1.28191e-05
1.28185e-05
1.28186e-05
1.28183e-05
1.28182e-05
1.28188e-05
1.28189e-05
1.28189e-05
1.28195e-05
1.28194e-05
1.28202e-05
1.28194e-05
1.28192e-05
1.28184e-05
1.28183e-05
1.28175e-05
1.28174e-05
1.28167e-05
1.28169e-05
1.28177e-05
1.28176e-05
1.28185e-05
1.28186e-05
1.28193e-05
1.28192e-05
1.28187e-05
1.28187e-05
1.28184e-05
1.28189e-05
1.28191e-05
1.282e-05
1.28201e-05
1.28204e-05
1.28198e-05
1.28197e-05
1.2819e-05
1.28189e-05
1.28188e-05
1.28192e-05
1.28195e-05
1.27146e-05
1.27152e-05
1.27149e-05
1.27151e-05
1.27148e-05
1.27148e-05
1.27142e-05
1.27141e-05
1.27137e-05
1.27131e-05
1.2713e-05
1.27134e-05
1.27135e-05
1.27138e-05
1.27139e-05
1.27138e-05
1.27138e-05
1.27136e-05
1.27136e-05
1.27136e-05
1.27138e-05
1.27135e-05
1.27134e-05
1.27131e-05
1.27131e-05
1.27132e-05
1.27134e-05
1.27135e-05
1.27138e-05
1.27138e-05
1.27145e-05
1.27141e-05
1.2714e-05
1.27133e-05
1.27134e-05
1.27129e-05
1.27127e-05
1.27121e-05
1.27121e-05
1.27124e-05
1.27123e-05
1.2713e-05
1.2713e-05
1.27135e-05
1.27135e-05
1.27134e-05
1.27135e-05
1.27132e-05
1.27134e-05
1.27135e-05
1.27139e-05
1.27141e-05
1.27147e-05
1.27142e-05
1.27142e-05
1.27138e-05
1.27138e-05
1.27136e-05
1.27137e-05
1.27139e-05
1.25935e-05
1.25939e-05
1.25938e-05
1.25939e-05
1.25937e-05
1.25937e-05
1.25933e-05
1.25933e-05
1.25931e-05
1.25928e-05
1.25925e-05
1.25927e-05
1.25926e-05
1.25928e-05
1.25928e-05
1.25929e-05
1.25929e-05
1.25928e-05
1.25927e-05
1.25926e-05
1.25929e-05
1.25928e-05
1.25927e-05
1.25924e-05
1.25924e-05
1.25924e-05
1.25925e-05
1.25926e-05
1.25927e-05
1.25927e-05
1.25933e-05
1.25931e-05
1.25931e-05
1.25927e-05
1.25927e-05
1.25925e-05
1.25923e-05
1.25918e-05
1.25917e-05
1.25917e-05
1.25916e-05
1.25921e-05
1.25921e-05
1.25924e-05
1.25924e-05
1.25925e-05
1.25927e-05
1.25925e-05
1.25926e-05
1.25925e-05
1.25927e-05
1.25929e-05
1.25934e-05
1.25931e-05
1.25931e-05
1.2593e-05
1.2593e-05
1.25929e-05
1.25929e-05
1.25929e-05
1.24618e-05
1.24621e-05
1.24619e-05
1.2462e-05
1.24619e-05
1.24619e-05
1.24616e-05
1.24616e-05
1.24616e-05
1.24614e-05
1.24611e-05
1.24612e-05
1.24611e-05
1.24611e-05
1.24611e-05
1.24612e-05
1.24613e-05
1.24612e-05
1.24611e-05
1.2461e-05
1.24612e-05
1.24612e-05
1.24612e-05
1.2461e-05
1.2461e-05
1.24609e-05
1.24609e-05
1.2461e-05
1.2461e-05
1.2461e-05
1.24614e-05
1.24614e-05
1.24614e-05
1.24611e-05
1.24612e-05
1.24611e-05
1.2461e-05
1.24606e-05
1.24605e-05
1.24604e-05
1.24602e-05
1.24606e-05
1.24606e-05
1.24607e-05
1.24607e-05
1.24608e-05
1.24611e-05
1.24609e-05
1.2461e-05
1.24609e-05
1.2461e-05
1.24611e-05
1.24615e-05
1.24613e-05
1.24614e-05
1.24613e-05
1.24614e-05
1.24613e-05
1.24613e-05
1.24613e-05
1.23219e-05
1.2322e-05
1.23219e-05
1.23219e-05
1.23218e-05
1.23218e-05
1.23216e-05
1.23217e-05
1.23217e-05
1.23216e-05
1.23214e-05
1.23215e-05
1.23213e-05
1.23213e-05
1.23212e-05
1.23213e-05
1.23214e-05
1.23214e-05
1.23213e-05
1.23211e-05
1.23213e-05
1.23213e-05
1.23213e-05
1.23212e-05
1.23212e-05
1.23211e-05
1.23211e-05
1.23211e-05
1.23211e-05
1.23211e-05
1.23214e-05
1.23214e-05
1.23214e-05
1.23213e-05
1.23214e-05
1.23213e-05
1.23213e-05
1.2321e-05
1.23209e-05
1.23208e-05
1.23206e-05
1.23208e-05
1.23208e-05
1.23209e-05
1.23209e-05
1.23209e-05
1.23212e-05
1.23211e-05
1.23211e-05
1.23211e-05
1.23211e-05
1.23211e-05
1.23214e-05
1.23213e-05
1.23213e-05
1.23214e-05
1.23214e-05
1.23214e-05
1.23214e-05
1.23214e-05
1.2175e-05
1.2175e-05
1.2175e-05
1.21749e-05
1.21748e-05
1.21749e-05
1.21747e-05
1.21748e-05
1.21748e-05
1.21748e-05
1.21746e-05
1.21747e-05
1.21746e-05
1.21745e-05
1.21744e-05
1.21744e-05
1.21746e-05
1.21745e-05
1.21745e-05
1.21743e-05
1.21744e-05
1.21745e-05
1.21745e-05
1.21744e-05
1.21744e-05
1.21744e-05
1.21743e-05
1.21743e-05
1.21743e-05
1.21743e-05
1.21745e-05
1.21745e-05
1.21745e-05
1.21744e-05
1.21745e-05
1.21745e-05
1.21745e-05
1.21743e-05
1.21742e-05
1.21742e-05
1.2174e-05
1.21741e-05
1.21741e-05
1.21741e-05
1.21741e-05
1.21741e-05
1.21743e-05
1.21742e-05
1.21743e-05
1.21742e-05
1.21742e-05
1.21742e-05
1.21745e-05
1.21744e-05
1.21744e-05
1.21744e-05
1.21745e-05
1.21745e-05
1.21745e-05
1.21745e-05
1.20219e-05
1.20219e-05
1.20218e-05
1.20217e-05
1.20216e-05
1.20217e-05
1.20215e-05
1.20216e-05
1.20216e-05
1.20216e-05
1.20216e-05
1.20216e-05
1.20215e-05
1.20215e-05
1.20214e-05
1.20214e-05
1.20215e-05
1.20214e-05
1.20214e-05
1.20212e-05
1.20213e-05
1.20214e-05
1.20214e-05
1.20213e-05
1.20214e-05
1.20213e-05
1.20213e-05
1.20213e-05
1.20212e-05
1.20212e-05
1.20213e-05
1.20213e-05
1.20214e-05
1.20213e-05
1.20214e-05
1.20214e-05
1.20214e-05
1.20213e-05
1.20212e-05
1.20212e-05
1.2021e-05
1.20212e-05
1.20211e-05
1.20211e-05
1.20211e-05
1.20211e-05
1.20212e-05
1.20212e-05
1.20212e-05
1.20212e-05
1.20212e-05
1.20211e-05
1.20213e-05
1.20212e-05
1.20212e-05
1.20213e-05
1.20213e-05
1.20213e-05
1.20214e-05
1.20214e-05
1.18629e-05
1.18629e-05
1.18628e-05
1.18628e-05
1.18626e-05
1.18627e-05
1.18626e-05
1.18626e-05
1.18626e-05
1.18626e-05
1.18626e-05
1.18626e-05
1.18626e-05
1.18625e-05
1.18625e-05
1.18624e-05
1.18625e-05
1.18625e-05
1.18624e-05
1.18623e-05
1.18624e-05
1.18625e-05
1.18625e-05
1.18624e-05
1.18624e-05
1.18624e-05
1.18624e-05
1.18624e-05
1.18623e-05
1.18623e-05
1.18624e-05
1.18624e-05
1.18624e-05
1.18623e-05
1.18624e-05
1.18624e-05
1.18624e-05
1.18624e-05
1.18624e-05
1.18624e-05
1.18622e-05
1.18623e-05
1.18623e-05
1.18623e-05
1.18622e-05
1.18622e-05
1.18623e-05
1.18623e-05
1.18623e-05
1.18623e-05
1.18622e-05
1.18622e-05
1.18624e-05
1.18623e-05
1.18623e-05
1.18623e-05
1.18624e-05
1.18624e-05
1.18624e-05
1.18624e-05
1.16984e-05
1.16984e-05
1.16983e-05
1.16982e-05
1.16981e-05
1.16981e-05
1.1698e-05
1.16981e-05
1.16981e-05
1.16981e-05
1.16981e-05
1.16981e-05
1.16981e-05
1.1698e-05
1.1698e-05
1.1698e-05
1.1698e-05
1.1698e-05
1.1698e-05
1.16979e-05
1.16979e-05
1.1698e-05
1.1698e-05
1.16979e-05
1.1698e-05
1.16979e-05
1.16979e-05
1.16979e-05
1.16979e-05
1.16978e-05
1.16979e-05
1.16979e-05
1.16979e-05
1.16978e-05
1.16979e-05
1.16979e-05
1.16979e-05
1.16979e-05
1.16979e-05
1.16979e-05
1.16978e-05
1.16979e-05
1.16979e-05
1.16978e-05
1.16978e-05
1.16978e-05
1.16979e-05
1.16978e-05
1.16978e-05
1.16978e-05
1.16978e-05
1.16978e-05
1.16979e-05
1.16978e-05
1.16978e-05
1.16978e-05
1.16978e-05
1.16978e-05
1.16979e-05
1.16979e-05
1.15285e-05
1.15285e-05
1.15284e-05
1.15284e-05
1.15282e-05
1.15282e-05
1.15282e-05
1.15282e-05
1.15282e-05
1.15282e-05
1.15282e-05
1.15282e-05
1.15282e-05
1.15282e-05
1.15281e-05
1.15281e-05
1.15282e-05
1.15281e-05
1.15281e-05
1.1528e-05
1.15281e-05
1.15281e-05
1.15281e-05
1.15281e-05
1.15281e-05
1.15281e-05
1.15281e-05
1.15281e-05
1.1528e-05
1.1528e-05
1.1528e-05
1.1528e-05
1.1528e-05
1.1528e-05
1.1528e-05
1.1528e-05
1.15281e-05
1.1528e-05
1.1528e-05
1.1528e-05
1.1528e-05
1.1528e-05
1.1528e-05
1.1528e-05
1.1528e-05
1.1528e-05
1.1528e-05
1.1528e-05
1.1528e-05
1.1528e-05
1.15279e-05
1.15279e-05
1.1528e-05
1.1528e-05
1.15279e-05
1.1528e-05
1.1528e-05
1.1528e-05
1.1528e-05
1.1528e-05
1.13534e-05
1.13534e-05
1.13534e-05
1.13533e-05
1.13532e-05
1.13532e-05
1.13531e-05
1.13531e-05
1.13531e-05
1.13531e-05
1.13531e-05
1.13532e-05
1.13532e-05
1.13531e-05
1.13531e-05
1.13531e-05
1.13531e-05
1.13531e-05
1.13531e-05
1.1353e-05
1.13531e-05
1.13531e-05
1.13531e-05
1.13531e-05
1.13531e-05
1.13531e-05
1.13531e-05
1.1353e-05
1.1353e-05
1.1353e-05
1.1353e-05
1.1353e-05
1.1353e-05
1.1353e-05
1.1353e-05
1.1353e-05
1.1353e-05
1.1353e-05
1.1353e-05
1.1353e-05
1.1353e-05
1.1353e-05
1.1353e-05
1.1353e-05
1.1353e-05
1.1353e-05
1.1353e-05
1.1353e-05
1.1353e-05
1.1353e-05
1.13529e-05
1.13529e-05
1.1353e-05
1.1353e-05
1.13529e-05
1.1353e-05
1.1353e-05
1.1353e-05
1.1353e-05
1.1353e-05
1.11734e-05
1.11734e-05
1.11734e-05
1.11733e-05
1.11732e-05
1.11732e-05
1.11731e-05
1.11731e-05
1.11732e-05
1.11732e-05
1.11732e-05
1.11732e-05
1.11732e-05
1.11732e-05
1.11731e-05
1.11731e-05
1.11731e-05
1.11731e-05
1.11731e-05
1.11731e-05
1.11731e-05
1.11731e-05
1.11731e-05
1.11731e-05
1.11731e-05
1.11731e-05
1.11731e-05
1.11731e-05
1.1173e-05
1.1173e-05
1.1173e-05
1.1173e-05
1.11731e-05
1.1173e-05
1.1173e-05
1.1173e-05
1.11731e-05
1.1173e-05
1.11731e-05
1.11731e-05
1.1173e-05
1.11731e-05
1.11731e-05
1.11731e-05
1.1173e-05
1.1173e-05
1.11731e-05
1.11731e-05
1.11731e-05
1.1173e-05
1.1173e-05
1.1173e-05
1.1173e-05
1.1173e-05
1.1173e-05
1.1173e-05
1.1173e-05
1.1173e-05
1.1173e-05
1.1173e-05
1.09888e-05
1.09888e-05
1.09887e-05
1.09887e-05
1.09886e-05
1.09886e-05
1.09885e-05
1.09885e-05
1.09885e-05
1.09885e-05
1.09885e-05
1.09885e-05
1.09885e-05
1.09885e-05
1.09885e-05
1.09885e-05
1.09885e-05
1.09885e-05
1.09885e-05
1.09884e-05
1.09885e-05
1.09885e-05
1.09885e-05
1.09885e-05
1.09885e-05
1.09885e-05
1.09885e-05
1.09884e-05
1.09884e-05
1.09884e-05
1.09884e-05
1.09884e-05
1.09884e-05
1.09884e-05
1.09884e-05
1.09884e-05
1.09884e-05
1.09884e-05
1.09884e-05
1.09884e-05
1.09884e-05
1.09884e-05
1.09884e-05
1.09884e-05
1.09884e-05
1.09884e-05
1.09885e-05
1.09885e-05
1.09884e-05
1.09884e-05
1.09884e-05
1.09884e-05
1.09884e-05
1.09884e-05
1.09884e-05
1.09884e-05
1.09884e-05
1.09884e-05
1.09884e-05
1.09884e-05
1.07999e-05
1.07999e-05
1.07998e-05
1.07998e-05
1.07997e-05
1.07997e-05
1.07996e-05
1.07996e-05
1.07996e-05
1.07996e-05
1.07996e-05
1.07996e-05
1.07996e-05
1.07996e-05
1.07996e-05
1.07996e-05
1.07996e-05
1.07996e-05
1.07996e-05
1.07996e-05
1.07996e-05
1.07996e-05
1.07996e-05
1.07996e-05
1.07996e-05
1.07996e-05
1.07996e-05
1.07996e-05
1.07995e-05
1.07995e-05
1.07995e-05
1.07995e-05
1.07995e-05
1.07995e-05
1.07995e-05
1.07995e-05
1.07995e-05
1.07995e-05
1.07995e-05
1.07995e-05
1.07995e-05
1.07995e-05
1.07995e-05
1.07995e-05
1.07995e-05
1.07995e-05
1.07996e-05
1.07996e-05
1.07996e-05
1.07995e-05
1.07995e-05
1.07995e-05
1.07995e-05
1.07995e-05
1.07995e-05
1.07995e-05
1.07995e-05
1.07995e-05
1.07995e-05
1.07995e-05
1.06074e-05
1.06074e-05
1.06073e-05
1.06073e-05
1.06072e-05
1.06072e-05
1.06072e-05
1.06071e-05
1.06071e-05
1.06071e-05
1.06071e-05
1.06072e-05
1.06072e-05
1.06072e-05
1.06071e-05
1.06071e-05
1.06071e-05
1.06071e-05
1.06071e-05
1.06071e-05
1.06071e-05
1.06071e-05
1.06071e-05
1.06071e-05
1.06071e-05
1.06071e-05
1.06071e-05
1.06071e-05
1.06071e-05
1.0607e-05
1.0607e-05
1.0607e-05
1.06071e-05
1.0607e-05
1.0607e-05
1.0607e-05
1.0607e-05
1.0607e-05
1.0607e-05
1.06071e-05
1.0607e-05
1.06071e-05
1.06071e-05
1.06071e-05
1.06071e-05
1.06071e-05
1.06071e-05
1.06071e-05
1.06071e-05
1.06071e-05
1.0607e-05
1.0607e-05
1.06071e-05
1.06071e-05
1.0607e-05
1.0607e-05
1.06071e-05
1.06071e-05
1.06071e-05
1.06071e-05
1.04124e-05
1.04124e-05
1.04124e-05
1.04124e-05
1.04123e-05
1.04123e-05
1.04122e-05
1.04122e-05
1.04122e-05
1.04122e-05
1.04122e-05
1.04123e-05
1.04123e-05
1.04122e-05
1.04122e-05
1.04122e-05
1.04122e-05
1.04122e-05
1.04122e-05
1.04122e-05
1.04122e-05
1.04122e-05
1.04122e-05
1.04122e-05
1.04122e-05
1.04122e-05
1.04122e-05
1.04122e-05
1.04122e-05
1.04121e-05
1.04121e-05
1.04121e-05
1.04122e-05
1.04121e-05
1.04121e-05
1.04121e-05
1.04122e-05
1.04121e-05
1.04121e-05
1.04122e-05
1.04121e-05
1.04122e-05
1.04122e-05
1.04122e-05
1.04122e-05
1.04122e-05
1.04122e-05
1.04122e-05
1.04122e-05
1.04122e-05
1.04122e-05
1.04121e-05
1.04122e-05
1.04122e-05
1.04121e-05
1.04121e-05
1.04122e-05
1.04122e-05
1.04122e-05
1.04122e-05
1.02171e-05
1.02171e-05
1.02171e-05
1.0217e-05
1.0217e-05
1.0217e-05
1.02169e-05
1.02169e-05
1.02169e-05
1.02169e-05
1.02169e-05
1.02169e-05
1.02169e-05
1.02169e-05
1.02169e-05
1.02169e-05
1.02169e-05
1.02169e-05
1.02169e-05
1.02169e-05
1.02169e-05
1.02169e-05
1.02169e-05
1.02169e-05
1.02169e-05
1.02169e-05
1.02169e-05
1.02169e-05
1.02169e-05
1.02168e-05
1.02168e-05
1.02168e-05
1.02168e-05
1.02168e-05
1.02168e-05
1.02168e-05
1.02168e-05
1.02168e-05
1.02168e-05
1.02169e-05
1.02168e-05
1.02169e-05
1.02169e-05
1.02169e-05
1.02169e-05
1.02169e-05
1.02169e-05
1.02169e-05
1.02169e-05
1.02169e-05
1.02169e-05
1.02168e-05
1.02169e-05
1.02169e-05
1.02168e-05
1.02168e-05
1.02169e-05
1.02169e-05
1.02169e-05
1.02169e-05
1.0025e-05
1.0025e-05
1.0025e-05
1.0025e-05
1.00249e-05
1.00249e-05
1.00249e-05
1.00249e-05
1.00249e-05
1.00249e-05
1.00249e-05
1.00249e-05
1.00249e-05
1.00249e-05
1.00249e-05
1.00248e-05
1.00248e-05
1.00248e-05
1.00248e-05
1.00248e-05
1.00248e-05
1.00248e-05
1.00248e-05
1.00248e-05
1.00248e-05
1.00248e-05
1.00248e-05
1.00248e-05
1.00248e-05
1.00248e-05
1.00248e-05
1.00248e-05
1.00248e-05
1.00248e-05
1.00248e-05
1.00248e-05
1.00248e-05
1.00248e-05
1.00248e-05
1.00248e-05
1.00248e-05
1.00248e-05
1.00248e-05
1.00248e-05
1.00248e-05
1.00248e-05
1.00248e-05
1.00248e-05
1.00248e-05
1.00248e-05
1.00248e-05
1.00248e-05
1.00248e-05
1.00248e-05
1.00248e-05
1.00248e-05
1.00248e-05
1.00248e-05
1.00248e-05
1.00248e-05
7.52297e-06
7.50853e-06
7.51015e-06
7.50768e-06
7.50839e-06
7.50793e-06
7.52264e-06
7.52207e-06
7.51101e-06
7.50922e-06
7.52371e-06
7.50902e-06
7.52405e-06
7.52271e-06
7.51055e-06
7.50983e-06
7.52346e-06
7.50988e-06
7.50949e-06
7.52341e-06
7.52171e-06
7.52447e-06
7.50958e-06
7.50994e-06
7.50897e-06
7.50741e-06
7.50865e-06
7.50745e-06
7.52314e-06
7.50723e-06
7.52252e-06
7.50881e-06
7.50902e-06
7.52274e-06
7.52325e-06
7.50994e-06
7.5114e-06
7.50792e-06
7.52385e-06
7.50715e-06
7.52508e-06
7.50812e-06
7.52466e-06
7.50739e-06
7.50858e-06
7.50823e-06
7.50766e-06
7.50779e-06
7.5089e-06
7.50961e-06
7.52173e-06
7.52316e-06
7.50873e-06
7.52433e-06
7.50911e-06
7.51074e-06
7.5234e-06
7.52443e-06
7.51009e-06
7.52416e-06
1.09334e-05
1.09386e-05
1.09432e-05
1.09426e-05
1.09422e-05
1.09424e-05
1.09366e-05
1.09313e-05
1.09395e-05
1.0943e-05
1.09362e-05
1.09408e-05
1.09369e-05
1.09326e-05
1.09397e-05
1.09433e-05
1.09361e-05
1.09409e-05
1.09436e-05
1.09374e-05
1.09322e-05
1.09326e-05
1.09395e-05
1.09426e-05
1.09432e-05
1.09423e-05
1.09424e-05
1.09421e-05
1.09359e-05
1.09395e-05
1.09343e-05
1.09391e-05
1.09426e-05
1.09361e-05
1.09324e-05
1.09387e-05
1.09441e-05
1.09429e-05
1.09364e-05
1.09396e-05
1.09359e-05
1.09399e-05
1.09363e-05
1.09394e-05
1.09415e-05
1.09419e-05
1.09417e-05
1.09418e-05
1.09423e-05
1.09441e-05
1.09364e-05
1.09325e-05
1.09393e-05
1.09358e-05
1.09395e-05
1.09438e-05
1.0937e-05
1.0934e-05
1.09409e-05
1.09368e-05
1.21722e-05
1.21774e-05
1.21825e-05
1.2184e-05
1.21834e-05
1.21837e-05
1.21776e-05
1.21701e-05
1.21767e-05
1.21828e-05
1.21755e-05
1.21803e-05
1.21763e-05
1.21712e-05
1.21773e-05
1.2183e-05
1.21755e-05
1.21798e-05
1.21838e-05
1.21778e-05
1.21718e-05
1.21697e-05
1.21772e-05
1.21817e-05
1.21837e-05
1.21839e-05
1.21835e-05
1.21836e-05
1.2176e-05
1.21801e-05
1.21738e-05
1.2178e-05
1.21826e-05
1.21764e-05
1.21707e-05
1.21762e-05
1.21827e-05
1.21839e-05
1.21762e-05
1.21801e-05
1.21744e-05
1.21794e-05
1.21748e-05
1.21794e-05
1.21817e-05
1.21827e-05
1.21828e-05
1.21831e-05
1.21829e-05
1.21846e-05
1.21778e-05
1.21711e-05
1.21782e-05
1.21741e-05
1.21782e-05
1.21831e-05
1.2177e-05
1.2172e-05
1.21793e-05
1.21756e-05
1.26912e-05
1.26943e-05
1.26984e-05
1.27014e-05
1.27011e-05
1.27014e-05
1.26975e-05
1.26902e-05
1.2693e-05
1.26989e-05
1.26941e-05
1.26973e-05
1.26949e-05
1.26904e-05
1.26935e-05
1.26992e-05
1.26943e-05
1.26964e-05
1.27004e-05
1.26969e-05
1.26921e-05
1.26882e-05
1.26932e-05
1.26976e-05
1.27001e-05
1.27016e-05
1.27012e-05
1.27014e-05
1.26954e-05
1.26981e-05
1.26933e-05
1.26952e-05
1.26993e-05
1.26956e-05
1.269e-05
1.26927e-05
1.26977e-05
1.2701e-05
1.26952e-05
1.26979e-05
1.2693e-05
1.26965e-05
1.2693e-05
1.26965e-05
1.26987e-05
1.27e-05
1.27004e-05
1.27009e-05
1.27003e-05
1.27015e-05
1.26978e-05
1.26907e-05
1.26951e-05
1.26924e-05
1.26948e-05
1.26992e-05
1.26959e-05
1.26907e-05
1.26957e-05
1.26937e-05
1.28907e-05
1.28923e-05
1.28947e-05
1.28981e-05
1.28984e-05
1.28988e-05
1.28968e-05
1.28913e-05
1.28914e-05
1.28951e-05
1.28928e-05
1.28947e-05
1.28935e-05
1.28905e-05
1.28914e-05
1.28955e-05
1.2893e-05
1.2894e-05
1.28968e-05
1.28954e-05
1.28927e-05
1.28883e-05
1.28908e-05
1.28941e-05
1.28964e-05
1.28987e-05
1.28986e-05
1.2899e-05
1.28949e-05
1.28963e-05
1.28931e-05
1.28936e-05
1.28961e-05
1.28945e-05
1.28903e-05
1.2891e-05
1.28935e-05
1.28976e-05
1.2894e-05
1.28958e-05
1.28922e-05
1.28943e-05
1.28918e-05
1.28941e-05
1.28958e-05
1.28972e-05
1.28977e-05
1.28984e-05
1.28979e-05
1.28984e-05
1.28967e-05
1.28913e-05
1.28932e-05
1.28913e-05
1.28925e-05
1.28956e-05
1.28943e-05
1.28904e-05
1.2893e-05
1.2892e-05
1.29344e-05
1.29352e-05
1.29363e-05
1.2939e-05
1.29398e-05
1.29405e-05
1.29395e-05
1.29364e-05
1.29348e-05
1.29368e-05
1.29357e-05
1.29368e-05
1.29363e-05
1.29346e-05
1.29344e-05
1.29367e-05
1.29358e-05
1.29362e-05
1.2938e-05
1.29376e-05
1.29366e-05
1.29332e-05
1.29339e-05
1.29356e-05
1.29374e-05
1.29398e-05
1.294e-05
1.29408e-05
1.29382e-05
1.29389e-05
1.29369e-05
1.29366e-05
1.29379e-05
1.29373e-05
1.29348e-05
1.29345e-05
1.29351e-05
1.29383e-05
1.29367e-05
1.29381e-05
1.29356e-05
1.29368e-05
1.2935e-05
1.29364e-05
1.29375e-05
1.29388e-05
1.29394e-05
1.29402e-05
1.29399e-05
1.29399e-05
1.29393e-05
1.29359e-05
1.29363e-05
1.29348e-05
1.29353e-05
1.29369e-05
1.29367e-05
1.29343e-05
1.29354e-05
1.29348e-05
1.28978e-05
1.28983e-05
1.28987e-05
1.29003e-05
1.29013e-05
1.29021e-05
1.29018e-05
1.29005e-05
1.28984e-05
1.28992e-05
1.28986e-05
1.28993e-05
1.28989e-05
1.28983e-05
1.28976e-05
1.28988e-05
1.28986e-05
1.28987e-05
1.28997e-05
1.28997e-05
1.28996e-05
1.28976e-05
1.28975e-05
1.2898e-05
1.2899e-05
1.29011e-05
1.29015e-05
1.29025e-05
1.29011e-05
1.29014e-05
1.29003e-05
1.28997e-05
1.29001e-05
1.29e-05
1.28988e-05
1.28981e-05
1.28978e-05
1.28998e-05
1.28991e-05
1.29003e-05
1.28988e-05
1.28995e-05
1.28982e-05
1.2899e-05
1.28996e-05
1.29007e-05
1.29012e-05
1.2902e-05
1.2902e-05
1.29017e-05
1.29015e-05
1.28997e-05
1.28995e-05
1.28982e-05
1.28984e-05
1.28989e-05
1.28991e-05
1.28978e-05
1.28981e-05
1.28977e-05
1.28178e-05
1.28182e-05
1.28182e-05
1.28189e-05
1.28198e-05
1.28207e-05
1.28206e-05
1.28203e-05
1.28189e-05
1.28188e-05
1.28184e-05
1.28187e-05
1.28184e-05
1.28183e-05
1.28178e-05
1.28181e-05
1.28181e-05
1.28182e-05
1.28187e-05
1.28187e-05
1.28191e-05
1.28182e-05
1.28177e-05
1.28178e-05
1.28182e-05
1.28195e-05
1.282e-05
1.2821e-05
1.28203e-05
1.28206e-05
1.28201e-05
1.28196e-05
1.28195e-05
1.28194e-05
1.28189e-05
1.28185e-05
1.28176e-05
1.28187e-05
1.28184e-05
1.28194e-05
1.28185e-05
1.2819e-05
1.28181e-05
1.28185e-05
1.28188e-05
1.28195e-05
1.282e-05
1.28207e-05
1.28208e-05
1.28206e-05
1.28205e-05
1.28198e-05
1.28195e-05
1.28183e-05
1.28183e-05
1.28182e-05
1.28184e-05
1.28178e-05
1.28178e-05
1.28175e-05
1.27128e-05
1.27131e-05
1.2713e-05
1.27133e-05
1.27138e-05
1.27146e-05
1.27146e-05
1.27148e-05
1.2714e-05
1.27138e-05
1.27132e-05
1.27135e-05
1.27131e-05
1.27133e-05
1.27129e-05
1.27128e-05
1.27129e-05
1.27129e-05
1.27131e-05
1.27131e-05
1.27136e-05
1.27133e-05
1.27129e-05
1.27128e-05
1.27129e-05
1.27136e-05
1.2714e-05
1.27148e-05
1.27146e-05
1.27149e-05
1.27146e-05
1.27144e-05
1.27141e-05
1.27141e-05
1.27139e-05
1.27137e-05
1.27128e-05
1.27133e-05
1.27131e-05
1.27138e-05
1.27133e-05
1.27137e-05
1.27131e-05
1.27134e-05
1.27135e-05
1.27138e-05
1.27142e-05
1.27147e-05
1.2715e-05
1.27147e-05
1.27148e-05
1.27145e-05
1.27143e-05
1.27134e-05
1.27134e-05
1.2713e-05
1.27131e-05
1.27128e-05
1.27127e-05
1.27124e-05
1.25922e-05
1.25924e-05
1.25923e-05
1.25924e-05
1.25926e-05
1.25932e-05
1.25932e-05
1.25936e-05
1.25933e-05
1.25931e-05
1.25926e-05
1.25927e-05
1.25924e-05
1.25926e-05
1.25924e-05
1.25921e-05
1.25922e-05
1.25922e-05
1.25922e-05
1.25921e-05
1.25925e-05
1.25925e-05
1.25923e-05
1.25922e-05
1.25922e-05
1.25925e-05
1.25927e-05
1.25934e-05
1.25934e-05
1.25936e-05
1.25935e-05
1.25935e-05
1.25933e-05
1.25932e-05
1.25931e-05
1.25931e-05
1.25924e-05
1.25926e-05
1.25924e-05
1.25928e-05
1.25925e-05
1.25929e-05
1.25924e-05
1.25926e-05
1.25927e-05
1.25928e-05
1.25931e-05
1.25933e-05
1.25937e-05
1.25935e-05
1.25936e-05
1.25935e-05
1.25934e-05
1.25928e-05
1.25928e-05
1.25924e-05
1.25924e-05
1.25922e-05
1.25921e-05
1.25918e-05
1.24609e-05
1.2461e-05
1.24608e-05
1.24609e-05
1.24609e-05
1.24612e-05
1.24613e-05
1.24616e-05
1.24616e-05
1.24614e-05
1.24611e-05
1.24612e-05
1.24609e-05
1.2461e-05
1.2461e-05
1.24607e-05
1.24607e-05
1.24607e-05
1.24606e-05
1.24605e-05
1.24608e-05
1.24608e-05
1.24608e-05
1.24608e-05
1.24608e-05
1.24609e-05
1.2461e-05
1.24614e-05
1.24614e-05
1.24617e-05
1.24617e-05
1.24618e-05
1.24616e-05
1.24616e-05
1.24615e-05
1.24616e-05
1.24611e-05
1.24611e-05
1.24609e-05
1.24612e-05
1.2461e-05
1.24612e-05
1.2461e-05
1.24611e-05
1.24611e-05
1.24612e-05
1.24614e-05
1.24615e-05
1.24618e-05
1.24617e-05
1.24617e-05
1.24617e-05
1.24617e-05
1.24614e-05
1.24614e-05
1.24611e-05
1.24609e-05
1.24607e-05
1.24607e-05
1.24604e-05
1.23212e-05
1.23213e-05
1.23211e-05
1.23211e-05
1.23211e-05
1.23212e-05
1.23212e-05
1.23215e-05
1.23215e-05
1.23215e-05
1.23213e-05
1.23213e-05
1.23211e-05
1.23212e-05
1.23212e-05
1.2321e-05
1.2321e-05
1.23209e-05
1.23208e-05
1.23207e-05
1.23209e-05
1.23209e-05
1.2321e-05
1.2321e-05
1.2321e-05
1.2321e-05
1.23211e-05
1.23213e-05
1.23213e-05
1.23216e-05
1.23216e-05
1.23217e-05
1.23216e-05
1.23216e-05
1.23216e-05
1.23217e-05
1.23213e-05
1.23213e-05
1.23212e-05
1.23213e-05
1.23212e-05
1.23214e-05
1.23212e-05
1.23213e-05
1.23213e-05
1.23213e-05
1.23214e-05
1.23215e-05
1.23217e-05
1.23216e-05
1.23216e-05
1.23217e-05
1.23217e-05
1.23215e-05
1.23215e-05
1.23213e-05
1.23212e-05
1.2321e-05
1.2321e-05
1.23207e-05
1.21745e-05
1.21745e-05
1.21744e-05
1.21743e-05
1.21743e-05
1.21744e-05
1.21743e-05
1.21745e-05
1.21745e-05
1.21745e-05
1.21744e-05
1.21745e-05
1.21743e-05
1.21744e-05
1.21744e-05
1.21742e-05
1.21742e-05
1.21741e-05
1.21741e-05
1.21739e-05
1.21741e-05
1.21741e-05
1.21742e-05
1.21742e-05
1.21742e-05
1.21742e-05
1.21742e-05
1.21743e-05
1.21743e-05
1.21745e-05
1.21745e-05
1.21747e-05
1.21746e-05
1.21747e-05
1.21747e-05
1.21748e-05
1.21745e-05
1.21745e-05
1.21744e-05
1.21745e-05
1.21744e-05
1.21745e-05
1.21744e-05
1.21745e-05
1.21745e-05
1.21745e-05
1.21746e-05
1.21746e-05
1.21747e-05
1.21747e-05
1.21746e-05
1.21747e-05
1.21748e-05
1.21746e-05
1.21747e-05
1.21746e-05
1.21744e-05
1.21743e-05
1.21742e-05
1.2174e-05
1.20215e-05
1.20215e-05
1.20214e-05
1.20213e-05
1.20213e-05
1.20213e-05
1.20212e-05
1.20214e-05
1.20214e-05
1.20213e-05
1.20213e-05
1.20213e-05
1.20212e-05
1.20213e-05
1.20213e-05
1.20212e-05
1.20212e-05
1.20211e-05
1.2021e-05
1.20209e-05
1.2021e-05
1.2021e-05
1.20211e-05
1.20211e-05
1.20211e-05
1.20211e-05
1.20211e-05
1.20212e-05
1.20212e-05
1.20214e-05
1.20213e-05
1.20215e-05
1.20214e-05
1.20215e-05
1.20215e-05
1.20216e-05
1.20214e-05
1.20214e-05
1.20213e-05
1.20214e-05
1.20214e-05
1.20215e-05
1.20214e-05
1.20214e-05
1.20214e-05
1.20214e-05
1.20215e-05
1.20215e-05
1.20215e-05
1.20215e-05
1.20214e-05
1.20215e-05
1.20216e-05
1.20215e-05
1.20216e-05
1.20215e-05
1.20213e-05
1.20213e-05
1.20212e-05
1.20211e-05
1.18627e-05
1.18627e-05
1.18626e-05
1.18625e-05
1.18624e-05
1.18624e-05
1.18623e-05
1.18624e-05
1.18624e-05
1.18624e-05
1.18623e-05
1.18624e-05
1.18623e-05
1.18623e-05
1.18624e-05
1.18623e-05
1.18623e-05
1.18622e-05
1.18622e-05
1.1862e-05
1.18621e-05
1.18621e-05
1.18622e-05
1.18622e-05
1.18622e-05
1.18622e-05
1.18622e-05
1.18623e-05
1.18622e-05
1.18624e-05
1.18624e-05
1.18625e-05
1.18624e-05
1.18624e-05
1.18625e-05
1.18626e-05
1.18625e-05
1.18624e-05
1.18624e-05
1.18625e-05
1.18624e-05
1.18625e-05
1.18625e-05
1.18625e-05
1.18625e-05
1.18625e-05
1.18625e-05
1.18625e-05
1.18626e-05
1.18625e-05
1.18625e-05
1.18625e-05
1.18626e-05
1.18625e-05
1.18626e-05
1.18625e-05
1.18624e-05
1.18624e-05
1.18623e-05
1.18622e-05
1.16982e-05
1.16982e-05
1.16982e-05
1.16981e-05
1.1698e-05
1.16979e-05
1.16979e-05
1.16979e-05
1.16979e-05
1.16979e-05
1.16978e-05
1.16979e-05
1.16978e-05
1.16978e-05
1.16979e-05
1.16978e-05
1.16978e-05
1.16977e-05
1.16977e-05
1.16976e-05
1.16977e-05
1.16977e-05
1.16977e-05
1.16977e-05
1.16977e-05
1.16977e-05
1.16977e-05
1.16978e-05
1.16977e-05
1.16978e-05
1.16978e-05
1.16979e-05
1.16979e-05
1.16979e-05
1.16979e-05
1.1698e-05
1.16979e-05
1.16979e-05
1.16979e-05
1.16979e-05
1.16979e-05
1.1698e-05
1.1698e-05
1.1698e-05
1.1698e-05
1.1698e-05