/*--------------------------------*- C++ -*----------------------------------*\
| =========                 |                                                 |
| \\      /  F ield         | OpenFOAM: The Open Source CFD Toolbox           |
|  \\    /   O peration     | Version:  2312                                  |
|   \\  /    A nd           | Website:  www.openfoam.com                      |
|    \\/     M anipulation  |                                                 |
\*---------------------------------------------------------------------------*/
FoamFile
{
    version     2.0;
    format      ascii;
    arch        "LSB;label=32;scalar=64";
    class       volScalarField;
    location    "900";
    object      p;
}
// * * * * * * * * * * * * * * * * * * * * * * * * * * * * * * * * * * * * * //

dimensions      [0 2 -2 0 0 0 0];

internalField   nonuniform List<scalar> 
144000
(
5.70732e-10
-1.43258e-08
-9.42605e-08
-1.24219e-07
3.73195e-08
-1.53911e-08
-4.10436e-08
1.26164e-07
1.50334e-07
3.71744e-08
-6.46642e-09
-3.78124e-09
-6.07931e-08
-9.49314e-08
-1.99301e-08
1.20197e-07
5.01552e-08
-6.63419e-08
-1.28817e-07
6.06082e-09
2.16038e-07
1.02879e-07
-7.17285e-08
4.26598e-08
3.83413e-08
-1.11529e-07
3.96809e-08
-7.75265e-09
-1.15053e-07
6.76617e-08
7.29748e-08
7.38475e-08
1.17176e-08
8.97987e-09
1.69541e-07
1.84065e-07
1.48039e-08
3.39505e-08
1.07753e-07
-7.27538e-08
8.1807e-08
1.27128e-07
1.21504e-09
-3.53804e-08
7.43063e-09
1.80508e-07
9.4179e-08
-5.70466e-08
-5.15767e-08
-8.99427e-08
-1.18823e-07
9.37534e-08
6.59455e-08
-1.50615e-07
-2.78254e-08
1.25461e-07
5.10909e-08
-2.57637e-08
-2.5624e-08
-1.73752e-08
6.3314e-10
-1.39049e-08
-9.32063e-08
-1.13349e-07
3.60524e-08
-1.47604e-08
-3.05121e-08
1.2456e-07
1.38178e-07
2.67521e-08
-5.25188e-09
-3.32738e-09
-6.00582e-08
-8.24506e-08
-1.05722e-08
1.06855e-07
3.94888e-08
-6.4416e-08
-1.16635e-07
1.47627e-08
2.02196e-07
9.36813e-08
-5.85305e-08
4.12493e-08
2.80992e-08
-9.88785e-08
3.82142e-08
-1.82862e-08
-1.03165e-07
6.67224e-08
7.28001e-08
7.37189e-08
1.23005e-08
1.97994e-08
1.67809e-07
1.72906e-07
1.61898e-08
3.28183e-08
9.75628e-08
-6.02366e-08
8.03177e-08
1.15992e-07
2.70614e-09
-2.26744e-08
1.66863e-08
1.67184e-07
8.3934e-08
-5.58499e-08
-5.1122e-08
-8.88678e-08
-1.07861e-07
9.18139e-08
5.56761e-08
-1.37373e-07
-1.85197e-08
1.11848e-07
4.04467e-08
-2.47749e-08
-2.51327e-08
-1.74723e-08
4.50492e-10
-1.34563e-08
-9.13128e-08
-1.09662e-07
3.41446e-08
-1.35613e-08
-2.71032e-08
1.21703e-07
1.32834e-07
2.39393e-08
-3.41555e-09
-2.69899e-09
-5.88296e-08
-7.665e-08
-8.98428e-09
9.97285e-08
3.62284e-08
-6.10036e-08
-1.10854e-07
1.54294e-08
1.94361e-07
9.21631e-08
-5.24688e-08
3.87078e-08
2.55871e-08
-9.34088e-08
3.58468e-08
-2.10557e-08
-9.82268e-08
6.53463e-08
7.2323e-08
7.36132e-08
1.3463e-08
2.3446e-08
1.64755e-07
1.6874e-07
1.83176e-08
3.12337e-08
9.50097e-08
-5.468e-08
7.76801e-08
1.11946e-07
5.36947e-09
-1.66006e-08
1.81284e-08
1.59974e-07
8.10604e-08
-5.39554e-08
-5.04965e-08
-8.67602e-08
-1.04273e-07
8.8509e-08
5.30503e-08
-1.30675e-07
-1.68286e-08
1.0483e-07
3.71703e-08
-2.32393e-08
-2.43531e-08
-1.75645e-08
1.17451e-10
-1.32551e-08
-8.87315e-08
-1.06792e-07
3.16494e-08
-1.18773e-08
-2.48196e-08
1.1732e-07
1.28173e-07
2.2949e-08
-1.32764e-09
-1.96599e-09
-5.70591e-08
-7.18506e-08
-9.2938e-09
9.264e-08
3.43846e-08
-5.67836e-08
-1.05206e-07
1.43098e-08
1.86178e-07
9.22241e-08
-4.68683e-08
3.54921e-08
2.45942e-08
-8.85073e-08
3.26052e-08
-2.1897e-08
-9.38283e-08
6.34736e-08
7.17206e-08
7.34715e-08
1.54826e-08
2.59585e-08
1.60462e-07
1.65263e-07
2.088e-08
2.95564e-08
9.37071e-08
-4.93451e-08
7.41313e-08
1.08907e-07
8.75667e-09
-1.12153e-08
1.78841e-08
1.52532e-07
7.95701e-08
-5.14621e-08
-4.99588e-08
-8.38654e-08
-1.01441e-07
8.38614e-08
5.1378e-08
-1.23934e-07
-1.709e-08
9.80683e-08
3.53739e-08
-2.14275e-08
-2.34511e-08
-1.74905e-08
-2.92583e-10
-1.32741e-08
-8.5488e-08
-1.03478e-07
2.88056e-08
-9.84707e-09
-2.24799e-08
1.11901e-07
1.2306e-07
2.23103e-08
8.99316e-10
-1.03472e-09
-5.47642e-08
-6.67828e-08
-1.00866e-08
8.46615e-08
3.25595e-08
-5.19734e-08
-9.85087e-08
1.29213e-08
1.76777e-07
9.23208e-08
-4.0716e-08
3.17627e-08
2.37484e-08
-8.31041e-08
2.8679e-08
-2.2099e-08
-8.8923e-08
6.11821e-08
7.10234e-08
7.32719e-08
1.8345e-08
2.84918e-08
1.5498e-07
1.61186e-07
2.40235e-08
2.78217e-08
9.23535e-08
-4.31842e-08
6.9858e-08
1.05566e-07
1.25962e-08
-5.35207e-09
1.74343e-08
1.43909e-07
7.80709e-08
-4.84353e-08
-4.94644e-08
-8.02463e-08
-9.80881e-08
7.78482e-08
4.9822e-08
-1.15935e-07
-1.79016e-08
9.04015e-08
3.36504e-08
-1.94535e-08
-2.24582e-08
-1.72213e-08
-7.35129e-10
-1.34331e-08
-8.16895e-08
-9.97924e-08
2.55724e-08
-7.62744e-09
-2.01523e-08
1.05823e-07
1.17654e-07
2.18324e-08
3.09066e-09
1.44316e-10
-5.20346e-08
-6.11562e-08
-1.11306e-08
7.61596e-08
3.06809e-08
-4.68138e-08
-9.10814e-08
1.14996e-08
1.66674e-07
9.23175e-08
-3.42483e-08
2.77471e-08
2.29499e-08
-7.73848e-08
2.43962e-08
-2.17505e-08
-8.36974e-08
5.86e-08
7.02433e-08
7.30295e-08
2.1516e-08
3.09675e-08
1.48793e-07
1.56546e-07
2.77619e-08
2.60805e-08
9.09031e-08
-3.63977e-08
6.51534e-08
1.01948e-07
1.65223e-08
8.33931e-10
1.6998e-08
1.34445e-07
7.64674e-08
-4.50216e-08
-4.89648e-08
-7.60509e-08
-9.42847e-08
7.09862e-08
4.83059e-08
-1.07245e-07
-1.90514e-08
8.20602e-08
3.18777e-08
-1.74432e-08
-2.13632e-08
-1.67829e-08
-1.1831e-09
-1.36601e-08
-7.75086e-08
-9.58927e-08
2.20396e-08
-5.33873e-09
-1.79381e-08
9.93372e-08
1.12172e-07
2.14866e-08
5.05426e-09
1.53708e-09
-4.9009e-08
-5.56418e-08
-1.23313e-08
6.75563e-08
2.87443e-08
-4.15637e-08
-8.33112e-08
1.01649e-08
1.56214e-07
9.20191e-08
-2.77569e-08
2.36949e-08
2.21778e-08
-7.15917e-08
2.00387e-08
-2.08855e-08
-7.83401e-08
5.58248e-08
6.93795e-08
7.27645e-08
2.48613e-08
3.32933e-08
1.42246e-07
1.51478e-07
3.19036e-08
2.44424e-08
8.93615e-08
-2.91879e-08
6.02815e-08
9.82474e-08
2.03837e-08
7.0606e-09
1.66954e-08
1.24584e-07
7.47686e-08
-4.1359e-08
-4.84461e-08
-7.15096e-08
-9.01798e-08
6.37205e-08
4.6826e-08
-9.83978e-08
-2.03855e-08
7.37584e-08
3.00667e-08
-1.55019e-08
-2.02073e-08
-1.62416e-08
-1.63004e-09
-1.3901e-08
-7.31137e-08
-9.18557e-08
1.83765e-08
-3.09654e-09
-1.58297e-08
9.26303e-08
1.0668e-07
2.12538e-08
6.6755e-09
3.06409e-09
-4.58228e-08
-5.04503e-08
-1.35117e-08
5.91335e-08
2.70133e-08
-3.64098e-08
-7.54467e-08
9.01689e-09
1.45712e-07
9.13446e-08
-2.14027e-08
1.98002e-08
2.13677e-08
-6.58413e-08
1.57958e-08
-1.96066e-08
-7.29098e-08
5.29238e-08
6.84143e-08
7.24803e-08
2.83301e-08
3.55029e-08
1.35558e-07
1.46063e-07
3.62369e-08
2.30175e-08
8.76775e-08
-2.16087e-08
5.54717e-08
9.45195e-08
2.40345e-08
1.31568e-08
1.66474e-08
1.14653e-07
7.29345e-08
-3.75291e-08
-4.78867e-08
-6.68476e-08
-8.58576e-08
5.62622e-08
4.5315e-08
-8.96562e-08
-2.17967e-08
6.57465e-08
2.82051e-08
-1.36833e-08
-1.90393e-08
-1.5674e-08
-2.08266e-09
-1.412e-08
-6.8636e-08
-8.77331e-08
1.4714e-08
-9.61822e-10
-1.37958e-08
8.58343e-08
1.01197e-07
2.11326e-08
7.92291e-09
4.65109e-09
-4.25646e-08
-4.56197e-08
-1.45411e-08
5.10931e-08
2.5282e-08
-3.14684e-08
-6.76479e-08
8.09804e-09
1.35406e-07
9.02839e-08
-1.53127e-08
1.61828e-08
2.04791e-08
-6.01783e-08
1.17782e-08
-1.80231e-08
-6.74411e-08
4.99545e-08
6.73274e-08
7.2158e-08
3.18658e-08
3.76877e-08
1.28852e-07
1.40397e-07
4.0584e-08
2.1858e-08
8.57861e-08
-1.38947e-08
5.08816e-08
9.07858e-08
2.73509e-08
1.87894e-08
1.69199e-08
1.04903e-07
7.0933e-08
-3.3579e-08
-4.72466e-08
-6.22335e-08
-8.13885e-08
4.88209e-08
4.37066e-08
-8.11693e-08
-2.30745e-08
5.8092e-08
2.62974e-08
-1.20025e-08
-1.78855e-08
-1.51309e-08
-2.54643e-09
-1.42955e-08
-6.41727e-08
-8.3573e-08
1.1136e-08
1.01669e-09
-1.18178e-08
7.90551e-08
9.57728e-08
2.11231e-08
8.81531e-09
6.24289e-09
-3.92824e-08
-4.11658e-08
-1.53515e-08
4.35691e-08
2.35824e-08
-2.68159e-08
-6.00492e-08
7.41804e-09
1.25458e-07
8.88526e-08
-9.54926e-09
1.29121e-08
1.95218e-08
-5.4628e-08
8.05091e-09
-1.62372e-08
-6.19921e-08
4.69803e-08
6.61094e-08
7.17669e-08
3.53937e-08
3.97794e-08
1.22252e-07
1.34584e-07
4.48018e-08
2.10012e-08
8.36651e-08
-6.61431e-09
4.6627e-08
8.70812e-08
3.02651e-08
2.38601e-08
1.75237e-08
9.55088e-08
6.87534e-08
-2.95523e-08
-4.64815e-08
-5.77782e-08
-7.68377e-08
4.15601e-08
4.195e-08
-7.3041e-08
-2.41524e-08
5.07866e-08
2.43804e-08
-1.04603e-08
-1.67555e-08
-1.46279e-08
-3.02041e-09
-1.44137e-08
-5.9796e-08
-7.94169e-08
7.69819e-09
2.79676e-09
-9.88915e-09
7.23965e-08
9.04818e-08
2.12162e-08
9.39884e-09
7.79118e-09
-3.60008e-08
-3.70945e-08
-1.5912e-08
3.66318e-08
2.19041e-08
-2.25036e-08
-5.27659e-08
6.97594e-09
1.15975e-07
8.70704e-08
-4.15824e-09
1.00436e-08
1.85264e-08
-4.92434e-08
4.6605e-09
-1.43438e-08
-5.66177e-08
4.40703e-08
6.47655e-08
7.12789e-08
3.88239e-08
4.17291e-08
1.15939e-07
1.28713e-07
4.8779e-08
2.05328e-08
8.13244e-08
5.99048e-10
4.28195e-08
8.3446e-08
3.27614e-08
2.83084e-08
1.84347e-08
8.66327e-08
6.63907e-08
-2.5501e-08
-4.55501e-08
-5.3556e-08
-7.22638e-08
3.45977e-08
4.00114e-08
-6.5348e-08
-2.502e-08
4.40237e-08
2.24931e-08
-9.05353e-09
-1.56516e-08
-1.41592e-08
-3.49871e-09
-1.44638e-08
-5.55581e-08
-7.52971e-08
4.44064e-09
4.34286e-09
-8.00939e-09
6.59582e-08
8.53548e-08
2.13874e-08
9.71776e-09
9.25019e-09
-3.27355e-08
-3.33975e-08
-1.62136e-08
3.03116e-08
2.02363e-08
-1.85566e-08
-4.58629e-08
6.76559e-09
1.07023e-07
8.49642e-08
8.299e-10
7.61561e-09
1.74982e-08
-4.40761e-08
1.64761e-09
-1.24224e-08
-5.13488e-08
4.12845e-08
6.3315e-08
7.06752e-08
4.20746e-08
4.35465e-08
1.10003e-07
1.22855e-07
5.24276e-08
2.04895e-08
7.87758e-08
7.53829e-09
3.95446e-08
7.99152e-08
3.48507e-08
3.21076e-08
1.96114e-08
7.83731e-08
6.38419e-08
-2.14835e-08
-4.44184e-08
-4.96186e-08
-6.77196e-08
2.80376e-08
3.7875e-08
-5.81461e-08
-2.56696e-08
3.74368e-08
2.06492e-08
-7.77226e-09
-1.45749e-08
-1.37145e-08
-3.97295e-09
-1.44385e-08
-5.14939e-08
-7.12373e-08
1.39351e-09
5.62887e-09
-6.18137e-09
5.98184e-08
8.0466e-08
2.16096e-08
9.80937e-09
1.05776e-08
-2.95003e-08
-3.00537e-08
-1.62626e-08
2.46185e-08
1.85766e-08
-1.49911e-08
-3.93821e-08
6.77407e-09
9.86457e-08
8.25711e-08
5.39718e-09
5.64476e-09
1.64335e-08
-3.915e-08
-9.3034e-10
-1.05328e-08
-4.62068e-08
3.86518e-08
6.17897e-08
6.99482e-08
4.50884e-08
4.52386e-08
1.04487e-07
1.17069e-07
5.56758e-08
2.08596e-08
7.60502e-08
1.41025e-08
3.68539e-08
7.6517e-08
3.65547e-08
3.52597e-08
2.09999e-08
7.07911e-08
6.1113e-08
-1.75606e-08
-4.30622e-08
-4.5997e-08
-6.32521e-08
2.19596e-08
3.55432e-08
-5.14726e-08
-2.6085e-08
3.15518e-08
1.88388e-08
-6.63549e-09
-1.3529e-08
-1.32845e-08
-4.43285e-09
-1.43346e-08
-4.7625e-08
-6.72537e-08
-1.419e-09
6.6411e-09
-4.41234e-09
5.40253e-08
7.53483e-08
2.18621e-08
9.71771e-09
1.17344e-08
-2.63109e-08
-2.70312e-08
-1.6074e-08
1.95532e-08
1.69274e-08
-1.1812e-08
-3.33494e-08
6.97993e-09
9.0865e-08
7.99369e-08
9.5357e-09
4.12829e-09
1.53356e-08
-3.44793e-08
-3.07448e-09
-8.71361e-09
-4.12122e-08
3.61837e-08
6.02267e-08
6.91001e-08
4.78303e-08
4.68019e-08
9.94076e-08
1.1141e-07
5.84595e-08
2.16052e-08
7.3191e-08
2.02114e-08
3.47617e-08
7.32728e-08
3.79145e-08
3.77877e-08
2.25367e-08
6.39243e-08
5.82217e-08
-1.37903e-08
-4.14707e-08
-4.27029e-08
-5.89013e-08
1.64163e-08
3.3035e-08
-4.53495e-08
-2.62613e-08
2.58502e-08
1.7038e-08
-5.66283e-09
-1.25245e-08
-1.28583e-08
-4.87075e-09
-1.4157e-08
-4.39678e-08
-6.33557e-08
-3.97629e-09
7.38178e-09
-2.71505e-09
4.86132e-08
7.03513e-08
2.21306e-08
9.49385e-09
1.26867e-08
-2.31871e-08
-2.42955e-08
-1.56596e-08
1.50892e-08
1.52942e-08
-9.02274e-09
-2.77773e-08
7.35343e-09
8.36809e-08
7.71137e-08
1.32445e-08
3.04864e-09
1.42171e-08
-3.00819e-08
-4.79653e-09
-6.98602e-09
-3.63823e-08
3.39088e-08
5.86586e-08
6.81394e-08
5.02793e-08
4.82351e-08
9.47612e-08
1.05928e-07
6.06914e-08
2.2661e-08
7.02506e-08
2.58086e-08
3.32519e-08
7.01853e-08
3.89956e-08
3.97376e-08
2.41524e-08
5.77872e-08
5.51977e-08
-1.02254e-08
-3.96498e-08
-3.97374e-08
-5.4699e-08
1.14376e-08
3.03827e-08
-3.97877e-08
-2.62014e-08
2.0874e-08
1.52662e-08
-4.86579e-09
-1.1581e-08
-1.25507e-08
-5.28669e-09
-1.39203e-08
-4.05339e-08
-5.95473e-08
-6.26193e-09
7.86744e-09
-1.10721e-09
4.36011e-08
6.54659e-08
2.23971e-08
9.18052e-09
1.34135e-08
-2.01518e-08
-2.17927e-08
-1.50229e-08
1.12059e-08
1.36874e-08
-6.59475e-09
-2.26643e-08
7.86039e-09
7.7089e-08
7.41534e-08
1.65278e-08
2.37777e-09
1.30975e-08
-2.59724e-08
-6.11504e-09
-5.36172e-09
-3.17309e-08
3.18513e-08
5.71107e-08
6.70775e-08
5.24254e-08
4.95509e-08
9.05307e-08
1.0067e-07
6.26699e-08
2.41569e-08
6.72862e-08
3.08509e-08
3.22876e-08
6.72684e-08
3.98555e-08
4.11741e-08
2.57791e-08
5.23525e-08
5.2078e-08
-6.91222e-09
-3.76198e-08
-3.708e-08
-5.06684e-08
7.03482e-09
2.76298e-08
-3.479e-08
-2.59215e-08
1.63606e-08
1.353e-08
-4.22545e-09
-1.07165e-08
-1.22645e-08
-5.68331e-09
-1.36477e-08
-3.73381e-08
-5.58305e-08
-8.26632e-09
8.11841e-09
3.92884e-10
3.90033e-08
6.07051e-08
2.26385e-08
8.81874e-09
1.39119e-08
-1.72321e-08
-1.94951e-08
-1.41923e-08
7.87792e-09
1.21214e-08
-4.52543e-09
-1.80073e-08
8.46661e-09
7.10757e-08
7.11051e-08
1.93949e-08
2.08045e-09
1.20011e-08
-2.21592e-08
-7.04949e-09
-3.8487e-09
-2.72689e-08
3.0027e-08
5.56024e-08
6.59286e-08
5.42634e-08
5.0734e-08
8.66938e-08
9.56702e-08
6.40976e-08
2.58009e-08
6.43529e-08
3.53099e-08
3.18189e-08
6.45365e-08
4.0533e-08
4.21565e-08
2.73563e-08
4.76703e-08
4.89078e-08
-3.88916e-09
-3.54117e-08
-3.47003e-08
-4.6826e-08
3.20343e-09
2.48302e-08
-3.03494e-08
-2.5446e-08
1.2314e-08
1.18335e-08
-3.74478e-09
-9.94195e-09
-1.19781e-08
-6.04978e-09
-1.33631e-08
-3.43792e-08
-5.22094e-08
-9.98884e-09
8.15323e-09
1.77103e-09
3.48317e-08
5.60765e-08
2.28252e-08
8.4471e-09
1.41815e-08
-1.44547e-08
-1.73785e-08
-1.33289e-08
5.07995e-09
1.06146e-08
-2.75594e-09
-1.38045e-08
9.14052e-09
6.5618e-08
6.80142e-08
2.18603e-08
2.11641e-09
1.0953e-08
-1.86446e-08
-7.62672e-09
-2.45444e-09
-2.30049e-08
2.84446e-08
5.41492e-08
6.4709e-08
5.57932e-08
5.1776e-08
8.32253e-08
9.09616e-08
6.50369e-08
2.76201e-08
6.15002e-08
3.91726e-08
3.1785e-08
6.1993e-08
4.10677e-08
4.27489e-08
2.88326e-08
4.36126e-08
4.57388e-08
-1.18027e-09
-3.30624e-08
-3.25619e-08
-4.31842e-08
-7.48406e-11
2.20417e-08
-2.64066e-08
-2.48083e-08
8.71205e-09
1.01792e-08
-3.40906e-09
-9.26028e-09
-1.16889e-08
-6.39154e-09
-1.30848e-08
-3.16503e-08
-4.86914e-08
-1.14368e-08
7.98899e-09
3.01731e-09
3.10924e-08
5.16087e-08
2.29244e-08
8.09795e-09
1.42324e-08
-1.1844e-08
-1.54201e-08
-1.2318e-08
2.78442e-09
9.18528e-09
-1.26391e-09
-1.00486e-08
9.85364e-09
6.06865e-08
6.49221e-08
2.39438e-08
2.44208e-09
9.975e-09
-1.54252e-08
-7.8784e-09
-1.18165e-09
-1.89462e-08
2.7107e-08
5.2763e-08
6.34364e-08
5.70201e-08
5.27928e-08
8.00946e-08
8.65733e-08
6.55293e-08
2.95565e-08
5.87699e-08
4.24398e-08
3.21182e-08
5.96322e-08
4.14961e-08
4.30169e-08
3.01698e-08
4.02104e-08
4.26251e-08
1.21042e-09
-3.06114e-08
-3.06203e-08
-3.97535e-08
-2.82949e-09
1.93136e-08
-2.29485e-08
-2.40432e-08
5.5224e-09
8.57201e-09
-3.21338e-09
-8.66742e-09
-1.13768e-08
-6.71434e-09
-1.28256e-08
-2.91444e-08
-4.5286e-08
-1.26215e-08
7.6518e-09
4.12337e-09
2.77803e-08
4.73325e-08
2.29141e-08
7.79479e-09
1.40833e-08
-9.42072e-09
-1.36021e-08
-1.12095e-08
9.59784e-10
7.84933e-09
-2.34175e-11
-6.72476e-09
1.05801e-08
5.62469e-08
6.18656e-08
2.56696e-08
3.01404e-09
9.08717e-09
-1.24942e-08
-7.83725e-09
-1.96651e-11
-1.51e-08
2.60098e-08
5.14522e-08
6.21292e-08
5.7951e-08
5.36485e-08
7.72666e-08
8.2525e-08
6.56192e-08
3.15542e-08
5.6197e-08
4.51248e-08
3.27512e-08
5.74599e-08
4.1845e-08
4.30248e-08
3.13347e-08
3.73437e-08
3.96163e-08
3.27692e-09
-2.80968e-08
-2.88321e-08
-3.65407e-08
-5.09999e-09
1.66831e-08
-1.99451e-08
-2.3178e-08
2.70884e-09
7.01777e-09
-3.14195e-09
-8.15744e-09
-1.10336e-08
-7.01181e-09
-1.25929e-08
-2.68546e-08
-4.20029e-08
-1.35559e-08
7.17232e-09
5.08078e-09
2.48725e-08
4.32684e-08
2.27836e-08
7.55111e-09
1.37548e-08
-7.20126e-09
-1.19101e-08
-1.00323e-08
-4.28965e-10
6.62e-09
9.92822e-10
-3.81199e-09
1.12964e-08
5.22605e-08
5.88765e-08
2.70641e-08
3.79698e-09
8.30804e-09
-9.84105e-09
-7.53564e-09
1.01272e-09
-1.14733e-08
2.51425e-08
5.02226e-08
6.08074e-08
5.85994e-08
5.43569e-08
7.47133e-08
7.88259e-08
6.53544e-08
3.35492e-08
5.38104e-08
4.72513e-08
3.36197e-08
5.54801e-08
4.21331e-08
4.2833e-08
3.23133e-08
3.49949e-08
3.67531e-08
5.02113e-09
-2.55556e-08
-2.71594e-08
-3.3548e-08
-6.93429e-09
1.41726e-08
-1.73538e-08
-2.22296e-08
2.321e-10
5.51838e-09
-3.1761e-09
-7.72665e-09
-1.06594e-08
-7.28022e-09
-1.23892e-08
-2.47732e-08
-3.88513e-08
-1.42558e-08
6.58136e-09
5.88482e-09
2.23433e-08
3.93205e-08
2.25264e-08
7.37179e-09
1.32721e-08
-5.19635e-09
-1.03331e-08
-8.8121e-09
-1.41926e-09
5.50994e-09
1.81312e-09
-1.28259e-09
1.19826e-08
4.86845e-08
5.59807e-08
2.81549e-08
4.73147e-09
7.65474e-09
-7.45098e-09
-7.00512e-09
1.96184e-09
-8.07131e-09
2.44875e-08
4.90769e-08
5.94938e-08
5.89861e-08
5.49249e-08
7.24048e-08
7.54749e-08
6.47859e-08
3.5494e-08
5.16302e-08
4.88516e-08
3.46621e-08
5.36897e-08
4.23702e-08
4.24979e-08
3.31019e-08
3.30917e-08
3.40683e-08
6.45976e-09
-2.30242e-08
-2.55714e-08
-3.07733e-08
-8.38447e-09
1.17952e-08
-1.51288e-08
-2.12228e-08
-1.93735e-09
4.07119e-09
-3.29746e-09
-7.37445e-09
-1.02594e-08
-7.51333e-09
-1.22122e-08
-2.28905e-08
-3.58385e-08
-1.47392e-08
5.83855e-09
6.53582e-09
2.01688e-08
3.563e-08
2.21402e-08
7.25572e-09
1.26643e-08
-3.40984e-09
-8.86417e-09
-7.57608e-09
-2.05103e-09
4.53344e-09
2.46682e-09
8.98058e-10
1.26292e-08
4.54721e-08
5.31983e-08
2.89731e-08
5.78496e-09
7.13152e-09
-5.30578e-09
-6.27792e-09
2.838e-09
-4.89535e-09
2.40197e-08
4.80096e-08
5.82141e-08
5.91381e-08
5.53585e-08
7.03106e-08
7.2465e-08
6.3968e-08
3.73469e-08
4.96685e-08
4.99656e-08
3.58192e-08
5.20799e-08
4.25543e-08
4.20711e-08
3.37043e-08
3.15728e-08
3.15884e-08
7.62042e-09
-2.0536e-08
-2.40446e-08
-2.82112e-08
-9.50221e-09
9.57034e-09
-1.32259e-08
-2.01823e-08
-3.82363e-09
2.68549e-09
-3.49006e-09
-7.1033e-09
-9.84577e-09
-7.70376e-09
-1.20572e-08
-2.11954e-08
-3.29696e-08
-1.5025e-08
5.13751e-09
7.03972e-09
1.83205e-08
3.22063e-08
2.16297e-08
7.19764e-09
1.19625e-08
-1.83848e-09
-7.50013e-09
-6.35271e-09
-2.37729e-09
3.70693e-09
2.98266e-09
2.76893e-09
1.32317e-08
4.2576e-08
5.0547e-08
2.95524e-08
6.92034e-09
6.73996e-09
-3.38506e-09
-5.38688e-09
3.65338e-09
-1.94196e-09
2.37097e-08
4.70039e-08
5.69927e-08
5.90883e-08
5.56644e-08
6.83996e-08
6.97708e-08
6.29565e-08
3.90439e-08
4.79302e-08
5.06423e-08
3.70329e-08
5.06389e-08
4.269e-08
4.1595e-08
3.41314e-08
3.0375e-08
2.93296e-08
8.52784e-09
-1.81185e-08
-2.25623e-08
-2.5852e-08
-1.03365e-08
7.5025e-09
-1.16014e-08
-1.91258e-08
-5.44924e-09
1.36604e-09
-3.76519e-09
-6.9163e-09
-9.43594e-09
-7.84706e-09
-1.1919e-08
-1.9677e-08
-3.02465e-08
-1.51364e-08
4.35552e-09
7.40754e-09
1.67662e-08
2.9052e-08
2.10054e-08
7.19132e-09
1.11953e-08
-4.73905e-10
-6.23993e-09
-5.1769e-09
-2.45318e-09
3.04575e-09
3.37822e-09
4.36549e-09
1.37827e-08
3.99522e-08
4.80122e-08
2.99267e-08
8.10625e-09
6.4776e-09
-1.66755e-09
-4.36376e-09
4.42163e-09
7.97312e-10
2.35311e-08
4.60526e-08
5.58462e-08
5.88721e-08
5.58515e-08
6.6643e-08
6.73708e-08
6.17766e-08
4.06567e-08
4.64159e-08
5.09401e-08
3.82506e-08
4.93533e-08
4.27825e-08
4.11007e-08
3.43991e-08
2.94322e-08
2.72977e-08
9.20971e-09
-1.57913e-08
-2.11142e-08
-2.36822e-08
-1.093e-08
5.59418e-09
-1.02132e-08
-1.80649e-08
-6.83798e-09
1.12792e-10
-4.01843e-09
-6.80811e-09
-9.04929e-09
1.44742e-07
5.6235e-08
-9.55281e-08
-6.85691e-08
-3.27144e-08
-1.09575e-07
-5.87205e-09
1.96933e-07
2.46534e-08
-1.31655e-07
3.84711e-08
-1.97412e-08
-4.95172e-08
1.51001e-07
1.79e-08
-1.24425e-07
3.63911e-08
7.60956e-09
-1.47586e-07
6.1141e-09
1.79577e-07
1.81843e-07
5.30679e-08
-2.47544e-08
-3.24303e-08
-3.32511e-08
-1.04484e-08
-8.70867e-08
3.13947e-08
5.14323e-08
8.24721e-08
1.08885e-07
-6.93055e-08
7.00511e-08
2.20684e-07
9.17003e-08
-6.63951e-08
-4.94805e-08
9.92367e-08
6.12319e-08
9.12647e-08
5.74938e-08
3.86271e-08
1.15868e-07
2.0559e-08
2.62891e-08
1.24201e-08
-1.38911e-08
-5.72858e-08
-1.67333e-07
-4.12424e-08
1.65597e-07
-2.06866e-08
1.79278e-09
3.97692e-08
-1.4045e-07
-3.3927e-08
1.061e-07
-4.69825e-08
-6.15027e-08
1.31644e-07
4.63907e-08
-9.4123e-08
-6.85141e-08
-3.18356e-08
-9.74161e-08
2.669e-09
1.83184e-07
1.55069e-08
-1.1909e-07
3.77486e-08
-1.87769e-08
-3.96161e-08
1.37618e-07
8.38323e-09
-1.11774e-07
3.49382e-08
-2.61612e-09
-1.34719e-07
1.55626e-08
1.77543e-07
1.69884e-07
4.3225e-08
-2.35083e-08
-3.17087e-08
-3.32595e-08
-9.4951e-09
-7.57725e-08
3.01192e-08
5.1273e-08
8.11756e-08
9.84723e-08
-5.5909e-08
7.89159e-08
2.0748e-07
8.15716e-08
-6.43776e-08
-3.8237e-08
9.8543e-08
6.10887e-08
9.10207e-08
5.80095e-08
3.77003e-08
1.0488e-07
2.14467e-08
2.665e-08
1.28331e-08
-1.3619e-08
-5.6294e-08
-1.55191e-07
-3.30364e-08
1.52815e-07
-1.979e-08
8.22526e-10
2.94315e-08
-1.2718e-07
-2.47777e-08
9.3443e-08
-4.51575e-08
-5.14795e-08
1.24643e-07
4.39971e-08
-9.18777e-08
-6.83613e-08
-3.02229e-08
-9.16969e-08
3.24236e-09
1.75739e-07
1.41942e-08
-1.13721e-07
3.66351e-08
-1.71459e-08
-3.72461e-08
1.31006e-07
6.93966e-09
-1.06339e-07
3.24473e-08
-5.13566e-09
-1.27839e-07
1.78045e-08
1.74036e-07
1.64254e-07
4.07601e-08
-2.14372e-08
-3.07257e-08
-3.36187e-08
-7.77835e-09
-7.15656e-08
2.84221e-08
5.09848e-08
7.9044e-08
9.58159e-08
-4.90141e-08
8.00639e-08
2.00232e-07
7.88796e-08
-6.09341e-08
-3.42333e-08
9.74076e-08
6.04803e-08
9.07258e-08
5.86785e-08
3.6076e-08
1.01017e-07
2.28166e-08
2.70248e-08
1.32321e-08
-1.34306e-08
-5.43789e-08
-1.49519e-07
-3.2828e-08
1.47037e-07
-1.8445e-08
-6.40275e-10
2.69201e-08
-1.20256e-07
-2.3503e-08
8.76094e-08
-4.21001e-08
-4.88861e-08
1.17404e-07
4.29706e-08
-8.88834e-08
-6.81016e-08
-2.84419e-08
-8.63166e-08
2.00394e-09
1.67933e-07
1.48904e-08
-1.08822e-07
3.48231e-08
-1.4959e-08
-3.62634e-08
1.24364e-07
7.53714e-09
-1.01265e-07
2.9062e-08
-6.06124e-09
-1.20843e-07
1.85478e-08
1.69386e-07
1.59035e-07
3.98491e-08
-1.90705e-08
-2.95432e-08
-3.36268e-08
-5.7738e-09
-6.82051e-08
2.64595e-08
5.07894e-08
7.65022e-08
9.44485e-08
-4.2155e-08
7.92117e-08
1.92946e-07
7.77027e-08
-5.62639e-08
-3.12817e-08
9.57869e-08
5.98394e-08
9.00399e-08
5.93721e-08
3.43505e-08
9.79417e-08
2.46134e-08
2.73199e-08
1.35645e-08
-1.33976e-08
-5.2074e-08
-1.43987e-07
-3.46575e-08
1.41383e-07
-1.65131e-08
-2.5121e-09
2.57669e-08
-1.13278e-07
-2.40553e-08
8.20476e-08
-3.82893e-08
-4.75151e-08
1.08966e-07
4.19159e-08
-8.51698e-08
-6.76811e-08
-2.65279e-08
-8.00919e-08
4.52934e-10
1.5887e-07
1.60768e-08
-1.03382e-07
3.24416e-08
-1.22574e-08
-3.53661e-08
1.16606e-07
8.72494e-09
-9.54877e-08
2.4974e-08
-6.66809e-09
-1.12839e-07
1.91474e-08
1.63679e-07
1.5304e-07
3.90757e-08
-1.65509e-08
-2.8038e-08
-3.33953e-08
-3.56647e-09
-6.44018e-08
2.42337e-08
5.06729e-08
7.36144e-08
9.29837e-08
-3.44769e-08
7.78287e-08
1.84778e-07
7.6578e-08
-5.067e-08
-2.81131e-08
9.37451e-08
5.92056e-08
8.89138e-08
6.02098e-08
3.25815e-08
9.45346e-08
2.67547e-08
2.75868e-08
1.39124e-08
-1.34017e-08
-4.94837e-08
-1.3744e-07
-3.69482e-08
1.34789e-07
-1.40701e-08
-5.16975e-09
2.46681e-08
-1.05061e-07
-2.49871e-08
7.56737e-08
-3.38866e-08
-4.60561e-08
9.96866e-08
4.07532e-08
-8.08842e-08
-6.70963e-08
-2.45349e-08
-7.32072e-08
-1.17426e-09
1.48836e-07
1.75272e-08
-9.76059e-08
2.96149e-08
-9.17688e-09
-3.45184e-08
1.07626e-07
1.0319e-08
-8.92061e-08
2.04816e-08
-7.01244e-09
-1.04147e-07
1.96327e-08
1.57189e-07
1.46385e-07
3.82701e-08
-1.40301e-08
-2.61848e-08
-3.29423e-08
-1.25445e-09
-6.01537e-08
2.18302e-08
5.06047e-08
7.05111e-08
9.13546e-08
-2.62853e-08
7.61196e-08
1.76033e-07
7.54256e-08
-4.44959e-08
-2.47828e-08
9.1406e-08
5.86142e-08
8.73444e-08
6.12577e-08
3.0833e-08
9.08474e-08
2.90765e-08
2.78567e-08
1.43236e-08
-1.33584e-08
-4.67004e-08
-1.30067e-07
-3.94805e-08
1.27431e-07
-1.12651e-08
-8.19616e-09
2.35631e-08
-9.59177e-08
-2.60957e-08
6.87167e-08
-2.91765e-08
-4.44814e-08
9.00161e-08
3.94909e-08
-7.62178e-08
-6.63744e-08
-2.26071e-08
-6.60477e-08
-2.73352e-09
1.38342e-07
1.91791e-08
-9.1709e-08
2.64313e-08
-5.91885e-09
-3.37052e-08
9.84126e-08
1.2213e-08
-8.26841e-08
1.58754e-08
-7.10668e-09
-9.52195e-08
1.99199e-08
1.50254e-07
1.39592e-07
3.75328e-08
-1.16766e-08
-2.40563e-08
-3.2316e-08
9.89328e-10
-5.55596e-08
1.9377e-08
5.05743e-08
6.74002e-08
8.95989e-08
-1.80178e-08
7.4151e-08
1.6715e-07
7.43718e-08
-3.8064e-08
-2.15196e-08
8.8854e-08
5.80163e-08
8.5386e-08
6.24316e-08
2.92519e-08
8.69893e-08
3.1403e-08
2.81264e-08
1.47975e-08
-1.32246e-08
-4.38508e-08
-1.22174e-07
-4.21021e-08
1.19533e-07
-8.19425e-09
-1.12367e-08
2.23916e-08
-8.6638e-08
-2.72056e-08
6.15042e-08
-2.44417e-08
-4.28204e-08
8.0262e-08
3.80777e-08
-7.13234e-08
-6.5528e-08
-2.08873e-08
-5.88181e-08
-4.09454e-09
1.27787e-07
2.09663e-08
-8.57846e-08
2.29766e-08
-2.67578e-09
-3.28337e-08
8.92953e-08
1.42815e-08
-7.61043e-08
1.1385e-08
-7.03782e-09
-8.63913e-08
2.00149e-08
1.43125e-07
1.32957e-07
3.68544e-08
-9.59138e-09
-2.1747e-08
-3.15712e-08
2.96782e-09
-5.06882e-08
1.69754e-08
5.05703e-08
6.4474e-08
8.77226e-08
-9.97745e-09
7.19773e-08
1.58432e-07
7.35531e-08
-3.15917e-08
-1.83833e-08
8.61251e-08
5.73279e-08
8.30686e-08
6.36682e-08
2.79832e-08
8.30148e-08
3.36024e-08
2.83819e-08
1.53082e-08
-1.29872e-08
-4.10546e-08
-1.13978e-07
-4.46083e-08
1.11321e-07
-4.927e-09
-1.41194e-08
2.10387e-08
-7.75626e-08
-2.81227e-08
5.42514e-08
-1.99169e-08
-4.10389e-08
7.06429e-08
3.64655e-08
-6.6305e-08
-6.45396e-08
-1.94665e-08
-5.16886e-08
-5.20012e-09
1.17441e-07
2.28159e-08
-7.98639e-08
1.93413e-08
4.06361e-10
-3.18373e-08
8.03882e-08
1.6334e-08
-6.96011e-08
7.16814e-09
-6.88118e-09
-7.79183e-08
1.99506e-08
1.35947e-07
1.26366e-07
3.62309e-08
-7.79941e-09
-1.93243e-08
-3.0729e-08
4.6504e-09
-4.56294e-08
1.46906e-08
5.05677e-08
6.18585e-08
8.57501e-08
-2.34972e-09
6.95948e-08
1.50041e-07
7.29027e-08
-2.51732e-08
-1.52538e-08
8.32584e-08
5.67389e-08
8.04398e-08
6.48967e-08
2.71189e-08
7.89821e-08
3.55993e-08
2.86194e-08
1.58211e-08
-1.26476e-08
-3.84093e-08
-1.05651e-07
-4.68347e-08
1.02881e-07
-1.5384e-09
-1.67144e-08
1.9447e-08
-6.885e-08
-2.87361e-08
4.7104e-08
-1.5765e-08
-3.91135e-08
6.13419e-08
3.46293e-08
-6.12463e-08
-6.33771e-08
-1.83828e-08
-4.48364e-08
-6.04811e-09
1.07418e-07
2.46009e-08
-7.39498e-08
1.56232e-08
3.22373e-09
-3.06859e-08
7.1766e-08
1.8239e-08
-6.32535e-08
3.33126e-09
-6.66864e-09
-6.98309e-08
1.97427e-08
1.28803e-07
1.20107e-07
3.56851e-08
-6.28459e-09
-1.68526e-08
-2.97739e-08
5.99389e-09
-4.04851e-08
1.25796e-08
5.0528e-08
5.9612e-08
8.37216e-08
4.77547e-09
6.71401e-08
1.42041e-07
7.23441e-08
-1.88435e-08
-1.21788e-08
8.02772e-08
5.62324e-08
7.75694e-08
6.60309e-08
2.67008e-08
7.49615e-08
3.73575e-08
2.88485e-08
1.63049e-08
-1.22071e-08
-3.59772e-08
-9.73486e-08
-4.86694e-08
9.43426e-08
1.88222e-09
-1.89136e-08
1.76201e-08
-6.06052e-08
-2.9011e-08
4.02006e-08
-1.20856e-08
-3.70441e-08
5.25055e-08
3.25626e-08
-5.62265e-08
-6.20097e-08
-1.76352e-08
-3.83995e-08
-6.6186e-09
9.78173e-08
2.65188e-08
-6.80387e-08
1.19207e-08
5.70051e-09
-2.93684e-08
6.34934e-08
1.99152e-08
-5.70985e-08
-6.13718e-11
-6.41485e-09
-6.21553e-08
1.93913e-08
1.2175e-07
1.14182e-07
3.52405e-08
-5.02701e-09
-1.4407e-08
-2.8674e-08
6.98373e-09
-3.53433e-08
1.06899e-08
5.04087e-08
5.77481e-08
8.16727e-08
1.13669e-08
6.47254e-08
1.34443e-07
7.18587e-08
-1.2644e-08
-9.20232e-09
7.72124e-08
5.58116e-08
7.45186e-08
6.69824e-08
2.67366e-08
7.10259e-08
3.88589e-08
2.90432e-08
1.67413e-08
-1.16616e-08
-3.37774e-08
-8.92063e-08
-5.00367e-08
8.57777e-08
5.23745e-09
-2.06403e-08
1.55945e-08
-5.30734e-08
-2.89528e-08
3.36232e-08
-8.93181e-09
-3.48458e-08
4.42387e-08
3.0273e-08
-5.13224e-08
-6.04184e-08
-1.71962e-08
-3.24642e-08
-6.91372e-09
8.86652e-08
2.81945e-08
-6.21349e-08
8.32431e-09
7.78432e-09
-2.78834e-08
5.56267e-08
2.13046e-08
-5.11566e-08
-2.9749e-09
-6.12956e-09
-5.49378e-08
1.89029e-08
1.14837e-07
1.08592e-07
3.49029e-08
-4.00571e-09
-1.20392e-08
-2.74022e-08
7.63937e-09
-3.0275e-08
9.05062e-09
5.01624e-08
5.62528e-08
7.96284e-08
1.74157e-08
6.24001e-08
1.27242e-07
7.1428e-08
-6.62907e-09
-6.3125e-09
7.41131e-08
5.54758e-08
7.13516e-08
6.76747e-08
2.71718e-08
6.72422e-08
4.00942e-08
2.91987e-08
1.71241e-08
-1.10055e-08
-3.18281e-08
-8.13368e-08
-5.089e-08
7.72478e-08
8.43316e-09
-2.18509e-08
1.34195e-08
-4.58696e-08
-2.85786e-08
2.74334e-08
-6.32427e-09
-3.25448e-08
3.66122e-08
2.77803e-08
-4.6605e-08
-5.85999e-08
-1.70239e-08
-2.70781e-08
-6.93333e-09
8.00302e-08
2.94917e-08
-5.62589e-08
4.91316e-09
9.44537e-09
-2.62387e-08
4.82149e-08
2.2366e-08
-4.54472e-08
-5.39395e-09
-5.81133e-09
-4.82053e-08
1.83147e-08
1.08102e-07
1.03309e-07
3.46539e-08
-3.18781e-09
-9.78753e-09
-2.59473e-08
7.97224e-09
-2.53425e-08
7.68267e-09
4.9774e-08
5.50924e-08
7.76063e-08
2.29201e-08
6.02036e-08
1.20438e-07
7.10255e-08
-8.53127e-10
-3.47739e-09
7.10232e-08
5.52173e-08
6.8137e-08
6.80516e-08
2.79607e-08
6.36651e-08
4.10625e-08
2.93198e-08
1.7453e-08
-1.02375e-08
-3.01205e-08
-7.3829e-08
-5.1208e-08
6.88222e-08
1.13821e-08
-2.25326e-08
1.11436e-08
-3.95612e-08
-2.7912e-08
2.17062e-08
-4.25884e-09
-3.01762e-08
2.96836e-08
2.51169e-08
-4.21359e-08
-5.65637e-08
-1.70702e-08
-2.22671e-08
-6.69607e-09
7.19482e-08
3.08306e-08
-5.04471e-08
1.74953e-09
1.06757e-08
-2.44523e-08
4.12976e-08
2.30772e-08
-3.99905e-08
-7.3193e-09
-5.46493e-09
-4.19597e-08
1.76807e-08
1.01575e-07
9.82969e-08
3.44779e-08
-2.5204e-09
-7.68757e-09
-2.43141e-08
8.04377e-09
-2.0604e-08
6.60207e-09
4.92376e-08
5.42224e-08
7.56198e-08
2.78794e-08
5.81741e-08
1.14027e-07
7.06279e-08
4.55405e-09
-6.68736e-10
6.79762e-08
5.50201e-08
6.49456e-08
6.80825e-08
2.90379e-08
6.03338e-08
4.17715e-08
2.94115e-08
1.77295e-08
-9.36245e-09
-2.86318e-08
-6.67539e-08
-5.09914e-08
6.05758e-08
1.40055e-08
-2.27092e-08
8.82659e-09
-3.36442e-08
-2.698e-08
1.6495e-08
-2.71171e-09
-2.77821e-08
2.34664e-08
2.23274e-08
-3.79598e-08
-5.43308e-08
-1.72873e-08
-1.80463e-08
-6.2294e-09
6.44434e-08
3.1828e-08
-4.47431e-08
-1.11717e-09
1.14855e-08
-2.25505e-08
3.49014e-08
2.34276e-08
-3.48048e-08
-8.76501e-09
-5.09557e-09
-3.61906e-08
1.70362e-08
9.52885e-08
9.35231e-08
3.43677e-08
-1.9426e-09
-5.76578e-09
-2.25201e-08
7.90662e-09