/*--------------------------------*- C++ -*----------------------------------*\
| =========                 |                                                 |
| \\      /  F ield         | OpenFOAM: The Open Source CFD Toolbox           |
|  \\    /   O peration     | Version:  2312                                  |
|   \\  /    A nd           | Website:  www.openfoam.com                      |
|    \\/     M anipulation  |                                                 |
\*---------------------------------------------------------------------------*/
FoamFile
{
    version     2.0;
    format      ascii;
    arch        "LSB;label=32;scalar=64";
    class       volScalarField;
    location    "900";
    object      pMean;
}
// * * * * * * * * * * * * * * * * * * * * * * * * * * * * * * * * * * * * * //

dimensions      [0 2 -2 0 0 0 0];

internalField   nonuniform List<scalar> 
144000
(
1.12854e-08
-1.67382e-08
-1.4638e-07
-1.89396e-07
6.46719e-08
-1.52653e-08
-5.92417e-08
1.97454e-07
2.35672e-07
5.93475e-08
-1.39151e-08
-4.12353e-09
-9.04519e-08
-1.51227e-07
-3.17438e-08
1.86975e-07
7.82462e-08
-1.08685e-07
-2.04191e-07
1.42352e-08
3.45329e-07
1.62011e-07
-1.21356e-07
5.96978e-08
5.44135e-08
-1.83122e-07
5.31695e-08
-1.44595e-08
-1.8662e-07
9.44142e-08
1.09428e-07
1.08949e-07
1.10934e-08
2.77372e-09
2.49443e-07
2.69956e-07
5.24461e-09
3.76266e-08
1.53315e-07
-1.19584e-07
1.12428e-07
1.83922e-07
-1.10289e-08
-7.00743e-08
5.44186e-09
2.70007e-07
1.40243e-07
-9.33039e-08
-9.31429e-08
-1.49567e-07
-1.85814e-07
1.45261e-07
1.0638e-07
-2.34705e-07
-4.84648e-08
1.98722e-07
8.65304e-08
-3.53443e-08
-4.18366e-08
-2.42851e-08
1.14229e-08
-1.6258e-08
-1.44561e-07
-1.73173e-07
6.25115e-08
-1.40948e-08
-4.34765e-08
1.94622e-07
2.17405e-07
4.39632e-08
-1.20155e-08
-3.38839e-09
-8.92007e-08
-1.32792e-07
-1.80141e-08
1.66765e-07
6.2402e-08
-1.05447e-07
-1.85675e-07
2.69718e-08
3.24221e-07
1.48493e-07
-1.01478e-07
5.72961e-08
3.92491e-08
-1.64141e-07
5.06695e-08
-2.99289e-08
-1.68869e-07
9.27851e-08
1.09231e-07
1.08814e-07
1.21704e-08
1.89284e-08
2.46467e-07
2.53308e-07
7.73263e-09
3.57932e-08
1.38243e-07
-1.00821e-07
1.09766e-07
1.67256e-07
-8.48173e-09
-5.08042e-08
1.90721e-08
2.49726e-07
1.25175e-07
-9.13786e-08
-9.2564e-08
-1.47677e-07
-1.69452e-07
1.41863e-07
9.11981e-08
-2.14614e-07
-3.48112e-08
1.78173e-07
7.07925e-08
-3.37608e-08
-4.12406e-08
-2.43177e-08
1.11587e-08
-1.58509e-08
-1.4097e-07
-1.67492e-07
5.87326e-08
-1.17382e-08
-3.82572e-08
1.88844e-07
2.08662e-07
4.04135e-08
-8.60514e-09
-2.29336e-09
-8.68425e-08
-1.2365e-07
-1.66193e-08
1.5461e-07
5.77701e-08
-9.90208e-08
-1.75746e-07
2.69112e-08
3.10446e-07
1.46995e-07
-9.12461e-08
5.2354e-08
3.58476e-08
-1.55054e-07
4.59288e-08
-3.34842e-08
-1.6076e-07
9.01099e-08
1.08382e-07
1.0856e-07
1.45918e-08
2.44898e-08
2.40448e-07
2.4677e-07
1.18724e-08
3.29239e-08
1.3472e-07
-9.15735e-08
1.04632e-07
1.60891e-07
-3.39891e-09
-4.07552e-08
2.03249e-08
2.37245e-07
1.21237e-07
-8.77352e-08
-9.15807e-08
-1.43663e-07
-1.638e-07
1.35264e-07
8.73378e-08
-2.03002e-07
-3.31673e-08
1.66272e-07
6.62114e-08
-3.08084e-08
-3.98036e-08
-2.42562e-08
1.06463e-08
-1.58134e-08
-1.36143e-07
-1.62974e-07
5.38422e-08
-8.58982e-09
-3.47366e-08
1.80568e-07
2.00727e-07
3.96993e-08
-4.64765e-09
-9.38514e-10
-8.34804e-08
-1.15761e-07
-1.82388e-08
1.42212e-07
5.52322e-08
-9.10821e-08
-1.65647e-07
2.39979e-08
2.95723e-07
1.47916e-07
-8.142e-08
4.61983e-08
3.47905e-08
-1.46582e-07
3.96169e-08
-3.39776e-08
-1.53243e-07
8.65388e-08
1.07194e-07
1.08176e-07
1.8645e-08
2.83217e-08
2.32043e-07
2.41057e-07
1.69189e-08
2.98933e-08
1.33074e-07
-8.23731e-08
9.79835e-08
1.55933e-07
2.8877e-09
-3.15592e-08
1.8972e-08
2.24052e-07
1.19275e-07
-8.28848e-08
-9.05766e-08
-1.38243e-07
-1.59157e-07
1.26141e-07
8.53704e-08
-1.90933e-07
-3.4602e-08
1.54338e-07
6.38123e-08
-2.72497e-08
-3.80398e-08
-2.39116e-08
9.99961e-09
-1.60415e-08
-1.30206e-07
-1.57573e-07
4.83868e-08
-4.97134e-09
-3.09988e-08
1.70705e-07
1.91893e-07
3.92848e-08
-5.71332e-10
8.0183e-10
-7.92222e-08
-1.06992e-07
-2.03224e-08
1.28348e-07
5.24872e-08
-8.22949e-08
-1.538e-07
2.09134e-08
2.79012e-07
1.4862e-07
-7.05505e-08
3.93316e-08
3.3755e-08
-1.37131e-07
3.23511e-08
-3.35777e-08
-1.44732e-07
8.22951e-08
1.05758e-07
1.07676e-07
2.37649e-08
3.22862e-08
2.21969e-07
2.34109e-07
2.30319e-08
2.68433e-08
1.31076e-07
-7.1669e-08
9.04001e-08
1.50289e-07
9.66951e-09
-2.15039e-08
1.76312e-08
2.08873e-07
1.16963e-07
-7.7156e-08
-8.95098e-08
-1.31662e-07
-1.53461e-07
1.1496e-07
8.31327e-08
-1.76753e-07
-3.66744e-08
1.40616e-07
6.12485e-08
-2.34867e-08
-3.60388e-08
-2.32611e-08
9.26375e-09
-1.63809e-08
-1.23359e-07
-1.5142e-07
4.22904e-08
-1.15248e-09
-2.71367e-08
1.59837e-07
1.82444e-07
3.88689e-08
3.24958e-09
2.95302e-09
-7.42562e-08
-9.74432e-08
-2.24898e-08
1.13642e-07
4.94609e-08
-7.31323e-08
-1.40758e-07
1.80575e-08
2.60918e-07
1.48746e-07
-5.90771e-08
3.21949e-08
3.2548e-08
-1.27044e-07
2.47247e-08
-3.24569e-08
-1.35521e-07
7.75921e-08
1.04097e-07
1.07092e-07
2.92852e-08
3.62904e-08
2.1097e-07
2.26003e-07
3.00492e-08
2.38969e-08
1.28611e-07
-5.98181e-08
8.23596e-08
1.44073e-07
1.64348e-08
-1.09163e-08
1.66811e-08
1.9237e-07
1.14157e-07
-7.08399e-08
-8.83166e-08
-1.24244e-07
-1.46843e-07
1.02693e-07
8.05976e-08
-1.61528e-07
-3.89861e-08
1.26051e-07
5.83417e-08
-1.9783e-08
-3.3814e-08
-2.23728e-08
8.4508e-09
-1.67234e-08
-1.15904e-07
-1.44824e-07
3.57737e-08
2.66377e-09
-2.33297e-08
1.48396e-07
1.72741e-07
3.85012e-08
6.52008e-09
5.38534e-09
-6.88387e-08
-8.80604e-08
-2.46136e-08
9.88842e-08
4.62004e-08
-6.39989e-08
-1.27238e-07
1.55499e-08
2.42419e-07
1.48115e-07
-4.75302e-08
2.52066e-08
3.11642e-08
-1.16752e-07
1.7189e-08
-3.0659e-08
-1.25937e-07
7.2597e-08
1.02202e-07
1.06442e-07
3.5028e-08
4.01832e-08
1.99567e-07
2.17033e-07
3.75782e-08
2.1276e-08
1.25719e-07
-4.72079e-08
7.42928e-08
1.37631e-07
2.29453e-08
-3.32658e-10
1.62433e-08
1.75395e-07
1.10932e-07
-6.41556e-08
-8.6961e-08
-1.16415e-07
-1.39631e-07
8.98995e-08
7.784e-08
-1.46116e-07
-4.13082e-08
1.11631e-07
5.51769e-08
-1.62999e-08
-3.14621e-08
-2.13684e-08
7.5498e-09
-1.70108e-08
-1.08138e-07
-1.37952e-07
2.91394e-08
6.28728e-09
-1.95911e-08
1.3672e-07
1.62927e-07
3.82296e-08
9.11899e-09
7.92906e-09
-6.32045e-08
-7.9179e-08
-2.64589e-08
8.46459e-08
4.28163e-08
-5.51874e-08
-1.13712e-07
1.34854e-08
2.23993e-07
1.46675e-07
-3.62318e-08
1.86925e-08
2.95477e-08
-1.06468e-07
1.00455e-08
-2.83508e-08
-1.16137e-07
6.74586e-08
1.00049e-07
1.05706e-07
4.0882e-08
4.39942e-08
1.88121e-07
2.07433e-07
4.52263e-08
1.91799e-08
1.22361e-07
-3.42934e-08
6.66044e-08
1.31098e-07
2.89395e-08
9.71578e-09
1.64317e-08
1.58577e-07
1.07281e-07
-5.72485e-08
-8.53771e-08
-1.08552e-07
-1.32047e-07
7.70163e-08
7.47983e-08
-1.30982e-07
-4.33957e-08
9.77189e-08
5.1798e-08
-1.31123e-08
-2.90682e-08
-2.03484e-08
6.54664e-09
-1.72107e-08
-1.00289e-07
-1.309e-07
2.26137e-08
9.58925e-09
-1.58982e-08
1.25072e-07
1.53105e-07
3.80748e-08
1.10598e-08
1.04533e-08
-5.75038e-08
-7.09002e-08
-2.78542e-08
7.12908e-08
3.94568e-08
-4.68881e-08
-1.00482e-07
1.19024e-08
2.06059e-07
1.44432e-07
-2.54389e-08
1.2864e-08
2.7687e-08
-9.63236e-08
3.48758e-09
-2.57322e-08
-1.06268e-07
6.23239e-08
9.76365e-08
1.04838e-07
4.67156e-08
4.77424e-08
1.76881e-07
1.97441e-07
5.26637e-08
1.77023e-08
1.18486e-07
-2.14913e-08
5.95975e-08
1.24556e-07
3.42365e-08
1.88281e-08
1.72787e-08
1.42371e-07
1.03189e-07
-5.02382e-08
-8.34752e-08
-1.00912e-07
-1.2426e-07
6.44297e-08
7.13952e-08
-1.16422e-07
-4.5012e-08
8.44474e-08
4.8266e-08
-1.02436e-08
-2.6683e-08
-1.93668e-08
5.4414e-09
-1.73102e-08
-9.25229e-08
-1.23747e-07
1.63491e-08
1.24799e-08
-1.22518e-08
1.13686e-07
1.43397e-07
3.80289e-08
1.24192e-08
1.28605e-08
-5.18181e-08
-6.3265e-08
-2.87237e-08
5.90184e-08
3.61398e-08
-3.92173e-08
-8.77557e-08
1.08008e-08
1.88904e-07
1.41416e-07
-1.52744e-08
7.8477e-09
2.56397e-08
-8.64532e-08
-2.3565e-09
-2.29854e-08
-9.64922e-08
5.73326e-08
9.49942e-08
1.03789e-07
5.2372e-08
5.13169e-08
1.66097e-07
1.87282e-07
5.9632e-08
1.69569e-08
1.14124e-07
-9.07636e-09
5.34619e-08
1.18094e-07
3.87628e-08
2.68372e-08
1.87312e-08
1.27108e-07
9.86702e-08
-4.32496e-08
-8.11843e-08
-9.3652e-08
-1.16409e-07
5.24312e-08
6.75876e-08
-1.02649e-07
-4.61005e-08
7.18718e-08
4.46618e-08
-7.6978e-09
-2.43355e-08
-1.8436e-08
4.25439e-09
-1.73119e-08
-8.49677e-08
-1.16559e-07
1.04515e-08
1.48869e-08
-8.67324e-09
1.02766e-07
1.33891e-07
3.80652e-08
1.3289e-08
1.50634e-08
-4.61999e-08
-5.62854e-08
-2.90584e-08
4.79266e-08
3.28605e-08
-3.22398e-08
-7.57269e-08
1.01584e-08
1.7271e-07
1.3769e-07
-5.84305e-09
3.72927e-09
2.34692e-08
-7.69633e-08
-7.40075e-09
-2.02552e-08
-8.69311e-08
5.26051e-08
9.2178e-08
1.02527e-07
5.76896e-08
5.46489e-08
1.56005e-07
1.77141e-07
6.59394e-08
1.70157e-08
1.09365e-07
2.70488e-09
4.83413e-08
1.11811e-07
4.25235e-08
3.36699e-08
2.06856e-08
1.13015e-07
9.37599e-08
-3.64169e-08
-7.84665e-08
-8.68669e-08
-1.08612e-07
4.12408e-08
6.33749e-08
-8.9821e-08
-4.66578e-08
6.0158e-08
4.10399e-08
-5.48442e-09
-2.20485e-08
-1.75383e-08
3.01637e-09
-1.72273e-08
-7.77163e-08
-1.09393e-07
4.9981e-09
1.67635e-08
-5.19534e-09
9.24739e-08
1.24623e-07
3.81453e-08
1.37566e-08
1.69851e-08
-4.06953e-08
-4.99446e-08
-2.8885e-08
3.80561e-08
2.96298e-08
-2.59957e-08
-6.45099e-08
9.93925e-09
1.57596e-07
1.33342e-07
2.77699e-09
5.43484e-10
2.12127e-08
-6.79576e-08
-1.15724e-08
-1.76389e-08
-7.76627e-08
4.82271e-08
8.92562e-08
1.01039e-07
6.25449e-08
5.77299e-08
1.46723e-07
1.67167e-07
7.14487e-08
1.78596e-08
1.04305e-07
1.36511e-08
4.43146e-08
1.05785e-07
4.55673e-08
3.93262e-08
2.30141e-08
1.00226e-07
8.85133e-08
-2.98696e-08
-7.53152e-08
-8.06097e-08
-1.0097e-07
3.10157e-08
5.8796e-08
-7.804e-08
-4.66922e-08
4.93951e-08
3.74201e-08
-3.62102e-09
-1.98492e-08
-1.66585e-08
1.76152e-09
-1.70755e-08
-7.08354e-08
-1.02292e-07
4.70891e-11
1.80934e-08
-1.85683e-09
8.29164e-08
1.15601e-07
3.82319e-08
1.39076e-08
1.8566e-08
-3.53512e-08
-4.42019e-08
-2.82484e-08
2.94065e-08
2.64702e-08
-2.04841e-08
-5.4167e-08
1.00932e-08
1.43628e-07
1.2848e-07
1.05364e-08
-1.72324e-09
1.89073e-08
-5.95047e-08
-1.48514e-08
-1.519e-08
-6.87448e-08
4.42523e-08
8.62985e-08
9.93367e-08
6.68607e-08
6.05547e-08
1.38285e-07
1.57489e-07
7.60715e-08
1.94063e-08
9.90539e-08
2.36141e-08
4.13869e-08
1.00075e-07
4.79651e-08
4.38586e-08
2.55779e-08
8.88099e-08
8.30088e-08
-2.37187e-08
-7.17537e-08
-7.48954e-08
-9.35632e-08
2.18502e-08
5.3924e-08
-6.73695e-08
-4.62277e-08
3.96205e-08
3.38077e-08
-2.12201e-09
-1.77741e-08
-1.57931e-08
5.21261e-10
-1.68827e-08
-6.43739e-08
-9.52915e-08
-4.35794e-09
1.88933e-08
1.29866e-09
7.41535e-08
1.0684e-07
3.82918e-08
1.38274e-08
1.97693e-08
-3.02156e-08
-3.90015e-08
-2.71983e-08
2.19454e-08
2.34046e-08
-1.56901e-08
-4.4724e-08
1.05583e-08
1.30827e-07
1.23225e-07
1.74122e-08
-3.12155e-09
1.66034e-08
-5.16533e-08
-1.72761e-08
-1.29293e-08
-6.02225e-08
4.07224e-08
8.33669e-08
9.74413e-08
7.05992e-08
6.31154e-08
1.30676e-07
1.48214e-07
7.97666e-08
2.15477e-08
9.3734e-08
3.2502e-08
3.94979e-08
9.47148e-08
4.98221e-08
4.73597e-08
2.82388e-08
7.8778e-08
7.73438e-08
-1.8053e-08
-6.78333e-08
-6.97112e-08
-8.64569e-08
1.37842e-08
4.88556e-08
-5.78318e-08
-4.53073e-08
3.08426e-08
3.02284e-08
-9.8111e-10
-1.58649e-08
-1.49461e-08
-6.78577e-10
-1.66787e-08
-5.83675e-08
-8.8425e-08
-8.18757e-09
1.92098e-08
4.22474e-09
6.62119e-08
9.83691e-08
3.82923e-08
1.35946e-08
2.05825e-08
-2.53367e-08
-3.42802e-08
-2.57754e-08
1.56169e-08
2.04551e-08
-1.15911e-08
-3.61785e-08
1.12673e-08
1.19187e-07
1.17696e-07
2.34037e-08
-3.7296e-09
1.43607e-08
-4.44363e-08
-1.89059e-08
-1.08572e-08
-5.21311e-08
3.76645e-08
8.05103e-08
9.53838e-08
7.37504e-08
6.54149e-08
1.23852e-07
1.39433e-07
8.25364e-08
2.41668e-08
8.84694e-08
4.02606e-08
3.85425e-08
8.97263e-08
5.12459e-08
4.9947e-08
3.08708e-08
7.00971e-08
7.16249e-08
-1.29373e-08
-6.3627e-08
-6.50185e-08
-7.96964e-08
6.81409e-09
4.37004e-08
-4.94118e-08
-4.39912e-08
2.30483e-08
2.67216e-08
-1.72139e-10
-1.41583e-08
-1.4118e-08
-1.81724e-09
-1.64915e-08
-5.28382e-08
-8.17246e-08
-1.14292e-08
1.91009e-08
6.87784e-09
5.90956e-08
9.02367e-08
3.82008e-08
1.32787e-08
2.10147e-08
-2.07603e-08
-2.99734e-08
-2.4047e-08
1.03527e-08
1.76479e-08
-8.12575e-09
-2.85121e-08
1.21544e-08
1.08675e-07
1.12008e-07
2.85293e-08
-3.64103e-09
1.22415e-08
-3.78668e-08
-1.98093e-08
-8.96623e-09
-4.44969e-08
3.50863e-08
7.77658e-08
9.31999e-08
7.63225e-08
6.74577e-08
1.17752e-07
1.31216e-07
8.44209e-08
2.71348e-08
8.33727e-08
4.68724e-08
3.839e-08
8.51334e-08
5.23228e-08
5.1744e-08
3.33671e-08
6.26998e-08
6.59599e-08
-8.41297e-09
-5.92191e-08
-6.07562e-08
-7.3313e-08
9.01498e-10
3.85713e-08
-4.20647e-08
-4.23519e-08
1.62058e-08
2.3313e-08
3.39684e-10
-1.26758e-08
-1.32975e-08
-2.87537e-09
-1.63408e-08
-4.77939e-08
-7.52243e-08
-1.40896e-08
1.86269e-08
9.22452e-09
5.27927e-08
8.24896e-08
3.79839e-08
1.29371e-08
2.10904e-08
-1.65267e-08
-2.60403e-08
-2.20851e-08
6.07803e-09
1.50149e-08
-5.23591e-09
-2.16984e-08
1.31586e-08
9.92377e-08
1.06263e-07
3.28237e-08
-2.95592e-09
1.03038e-08
-3.19398e-08
-2.00641e-08
-7.2444e-09
-3.73369e-08
3.29793e-08
7.51603e-08
9.09286e-08
7.83348e-08
6.92361e-08
1.12312e-07
1.23613e-07
8.54889e-08
3.03193e-08
7.85393e-08
5.23535e-08
3.88981e-08
8.09458e-08
5.31242e-08
5.28762e-08
3.56462e-08
5.64907e-08
6.04524e-08
-4.49493e-09
-5.46951e-08
-5.6857e-08
-6.73269e-08
-4.0181e-09
3.35707e-08
-3.57153e-08
-4.04686e-08
1.02605e-08
2.00208e-08
5.78619e-10
-1.14205e-08
-1.24742e-08
-3.83894e-09
-1.62339e-08
-4.32264e-08
-6.89596e-08
-1.61932e-08
1.7844e-08
1.1245e-08
4.72765e-08
7.51715e-08
3.76118e-08
1.26154e-08
2.08455e-08
-1.26669e-08
-2.24459e-08
-1.99516e-08
2.71268e-09
1.2589e-08
-2.85392e-09
-1.57018e-08
1.42253e-08
9.08041e-08
1.00551e-07
3.63351e-08
-1.78615e-09
8.5963e-09
-2.66342e-08
-1.97551e-08
-5.67748e-09
-3.0661e-08
3.13215e-08
7.27115e-08
8.86102e-08
7.98167e-08
7.07543e-08
1.07462e-07
1.16651e-07
8.58307e-08
3.36001e-08
7.40427e-08
5.67489e-08
3.99203e-08
7.71593e-08
5.37139e-08
5.34678e-08
3.76494e-08
5.13546e-08
5.51957e-08
-1.17436e-09
-5.01357e-08
-5.32516e-08
-6.17492e-08
-8.02813e-09
2.87791e-08
-3.02838e-08
-3.84159e-08
5.1432e-09
1.68596e-08
5.74313e-10
-1.03819e-08
-1.16545e-08
-4.70126e-09
-1.61666e-08
-3.91209e-08
-6.29645e-08
-1.77765e-08
1.68104e-08
1.29314e-08
4.25052e-08
6.83184e-08
3.70601e-08
1.23474e-08
2.03287e-08
-9.20051e-09
-1.91645e-08
-1.77141e-08
1.72413e-10
1.0401e-08
-9.12425e-10
-1.04766e-08
1.53069e-08
8.32933e-08
9.49486e-08
3.9123e-08
-2.32005e-10
7.15078e-09
-2.1917e-08
-1.89678e-08
-4.24135e-09
-2.44716e-08
3.00798e-08
7.04277e-08
8.62849e-08
8.08055e-08
7.20153e-08
1.03136e-07
1.1034e-07
8.55474e-08
3.687e-08
6.9936e-08
6.01252e-08
4.1314e-08
7.37691e-08
5.41422e-08
5.36355e-08
3.93413e-08
4.71653e-08
5.02665e-08
1.57434e-09
-4.56138e-08
-4.98777e-08
-5.65829e-08
-1.12229e-08
2.4255e-08
-2.56883e-08
-3.62569e-08
7.78883e-10
1.38427e-08
3.65887e-10
-9.54228e-09
-1.084e-08
-5.45611e-09
-1.61265e-08
-3.54575e-08
-5.72698e-08
-1.88817e-08
1.55888e-08
1.42847e-08
3.84222e-08
6.19511e-08
3.6319e-08
1.21542e-08
1.95935e-08
-6.13499e-09
-1.61763e-08
-1.5433e-08
-1.63143e-09
8.47729e-09
6.53036e-10
-5.96741e-09
1.63646e-08
7.66185e-08
8.95161e-08
4.1254e-08
1.60794e-09
5.99068e-09
-1.77465e-08
-1.77843e-08
-2.90956e-09
-1.87648e-08
2.92108e-08
6.83082e-08
8.39917e-08
8.13454e-08
7.30212e-08
9.92706e-08
1.0467e-07
8.4745e-08
4.00356e-08
6.62544e-08
6.25672e-08
4.29526e-08
7.07669e-08
5.44445e-08
5.34853e-08
4.07072e-08
4.37951e-08
4.57221e-08
3.79078e-09
-4.11934e-08
-4.66858e-08
-5.18229e-08
-1.37017e-08
2.0035e-08
-2.18355e-08
-3.40424e-08
-2.90863e-09
1.09805e-08
-4.51547e-12
-8.88258e-09
-1.00476e-08
-6.09895e-09
-1.60969e-08
-3.22118e-08
-5.18999e-08
-1.95539e-08
1.42395e-08
1.53136e-08
3.49602e-08
5.60857e-08
3.5398e-08
1.20405e-08
1.86943e-08
-3.46648e-09
-1.34638e-08
-1.31623e-08
-2.79149e-09
6.83842e-09
1.90305e-09
-2.11179e-09
1.73691e-08
7.06909e-08
8.43001e-08
4.27981e-08
3.63928e-09
5.1303e-09
-1.40756e-08
-1.62821e-08
-1.65634e-09
-1.35314e-08
2.8665e-08
6.63453e-08
8.17668e-08
8.1488e-08
7.37817e-08
9.58075e-08
9.96161e-08
8.35291e-08
4.30153e-08
6.30157e-08
6.4173e-08
4.47187e-08
6.81331e-08
5.46429e-08
5.31124e-08
4.17538e-08
4.11211e-08
4.15997e-08
5.52787e-09
-3.69281e-08
-4.36391e-08
-4.74559e-08
-1.55636e-08
1.61389e-08
-1.86295e-08
-3.18157e-08
-5.98976e-09
8.28075e-09
-4.96412e-10
-8.38584e-09
-9.30129e-09
-6.62906e-09
-1.60591e-08
-2.93553e-08
-4.68732e-08
-1.9841e-08
1.28178e-08
1.60348e-08
3.20481e-08
5.07336e-08
3.43127e-08
1.20002e-08
1.7685e-08
-1.18058e-09
-1.10112e-08
-1.09511e-08
-3.40328e-09
5.49796e-09
2.89656e-09
1.15725e-09
1.82999e-08
6.5423e-08
7.93331e-08
4.38282e-08
5.78249e-09
4.56992e-09
-1.08532e-08
-1.45328e-08
-4.56401e-10
-8.75602e-09
2.83897e-08
6.45251e-08
7.96409e-08
8.12913e-08
7.43113e-08
9.26884e-08
9.51383e-08
8.20015e-08
4.5755e-08
6.02229e-08
6.50486e-08
4.65108e-08
6.58376e-08
5.47482e-08
5.25984e-08
4.25004e-08
3.90249e-08
3.79183e-08
6.84731e-09
-3.28604e-08
-4.07122e-08
-4.34631e-08
-1.69023e-08
1.25789e-08
-1.59813e-08
-2.96164e-08
-8.52445e-09
5.75269e-09
-1.07324e-09
-8.03485e-09
-8.62645e-09
-7.04925e-09
-1.5996e-08
-2.68559e-08
-4.22009e-08
-1.97936e-08
1.13703e-08
1.64718e-08
2.96138e-08
4.58931e-08
3.30859e-08
1.20227e-08
1.66134e-08
7.46141e-10
-8.80339e-09
-8.84329e-09
-3.5625e-09
4.46433e-09
3.69052e-09
3.90779e-09
1.91437e-08
6.07325e-08
7.46356e-08
4.4418e-08
7.97119e-09
4.29637e-09
-8.02641e-09
-1.26018e-08
7.10443e-10
-4.41768e-09
2.83335e-08
6.28294e-08
7.76361e-08
8.08165e-08
7.46277e-08
8.98603e-08
9.11877e-08
8.02573e-08
4.8215e-08
5.78646e-08
6.53055e-08
4.82409e-08
6.38459e-08
5.47678e-08
5.20088e-08
4.2976e-08
3.73974e-08
3.46802e-08
7.81181e-09
-2.90204e-08
-3.78895e-08
-3.98212e-08
-1.78035e-08
9.3564e-09
-1.38079e-08
-2.7476e-08
-1.05684e-08
3.40448e-09
-1.70231e-09
-7.81004e-09
-8.04668e-09
-7.36616e-09
-1.58934e-08
-2.46809e-08
-3.7886e-08
-1.94646e-08
9.9332e-09
1.66554e-08
2.75856e-08
4.15503e-08
3.1747e-08
1.20952e-08
1.55209e-08
2.34467e-09
-6.82491e-09
-6.87385e-09
-3.36056e-09
3.73498e-09
4.33638e-09
6.20511e-09
1.98907e-08
5.65448e-08
7.02167e-08
4.46397e-08
1.01498e-08
4.28896e-09
-5.54236e-09
-1.05483e-08
1.86022e-09
-4.8944e-10
2.84504e-08
6.12423e-08
7.57631e-08
8.01235e-08
7.47518e-08
8.72755e-08
8.77098e-08
7.83801e-08
5.03735e-08
5.59175e-08
6.50551e-08
4.98383e-08
6.21218e-08
5.47133e-08
5.13908e-08
4.32162e-08
3.61426e-08
3.18731e-08
8.48403e-09
-2.54266e-08
-3.51635e-08
-3.65028e-08
-1.83425e-08
6.46205e-09
-1.20336e-08
-2.54141e-08
-1.21762e-08
1.23786e-09
-2.35372e-09
-7.68775e-09
-7.58051e-09
-7.58992e-09
-1.57406e-08
-2.27988e-08
-3.39243e-08
-1.89042e-08
8.53366e-09
1.66199e-08
2.5896e-08
3.76812e-08
3.03275e-08
1.22078e-08
1.44396e-08
3.64863e-09
-5.05855e-09
-5.07266e-09
-2.87752e-09
3.29341e-09
4.88022e-09
8.10932e-09
2.05369e-08
5.2794e-08
6.60758e-08
4.45603e-08
1.22772e-08
4.5213e-09
-3.35182e-09
-8.42383e-09
3.00358e-09
3.06106e-09
2.87019e-08
5.97507e-08
7.4021e-08
7.9266e-08
7.47086e-08
8.48925e-08
8.46485e-08
7.64399e-08
5.22254e-08
5.43495e-08
6.43994e-08
5.12526e-08
6.06294e-08
5.45927e-08
5.07738e-08
4.32601e-08
3.51795e-08
2.94742e-08
8.9237e-09
-2.20872e-08
-3.25327e-08
-3.34793e-08
-1.85832e-08
3.8801e-09
-1.05903e-08
-2.34403e-08
-1.34007e-08
-7.50387e-10
-3.00101e-09
-7.64106e-09
-7.24014e-09
2.31412e-07
9.45989e-08
-1.47744e-07
-1.10641e-07
-5.22046e-08
-1.67463e-07
-2.28286e-10
3.24439e-07
5.29458e-08
-2.10205e-07
5.22065e-08
-2.84123e-08
-7.55137e-08
2.38335e-07
3.58739e-08
-1.93731e-07
5.56872e-08
9.84175e-09
-2.39877e-07
7.31134e-09
2.90759e-07
2.91646e-07
7.47532e-08
-5.24745e-08
-6.10875e-08
-6.14898e-08
-2.70161e-08
-1.41567e-07
4.17094e-08
7.78457e-08
1.26723e-07
1.59074e-07
-1.25246e-07
9.47534e-08
3.44413e-07
1.40132e-07
-1.22795e-07
-9.90389e-08
1.38949e-07
8.26861e-08
1.281e-07
7.83952e-08
5.05118e-08
1.63521e-07
2.26285e-08
3.30946e-08
9.02078e-09
-3.38072e-08
-1.00524e-07
-2.69003e-07
-6.69028e-08
2.64922e-07
-2.30701e-08
-5.11481e-10
6.1096e-08
-2.14732e-07
-4.93962e-08
1.71087e-07
-7.24663e-08
-9.14296e-08
2.11509e-07
7.99511e-08
-1.45503e-07
-1.10673e-07
-5.0758e-08
-1.48999e-07
1.23167e-08
3.03637e-07
3.96239e-08
-1.91439e-07
5.09196e-08
-2.66961e-08
-6.085e-08
2.1807e-07
2.20545e-08
-1.74779e-07
5.31487e-08
-5.32545e-09
-2.20318e-07
2.13556e-08
2.87352e-07
2.73594e-07
6.01584e-08
-5.05201e-08
-6.00202e-08
-6.16635e-08
-2.53919e-08
-1.24623e-07
3.9674e-08
7.76477e-08
1.24563e-07
1.4365e-07
-1.04945e-07
1.07824e-07
3.24378e-07
1.25123e-07
-1.19455e-07
-8.23303e-08
1.37721e-07
8.25038e-08
1.27717e-07
7.92756e-08
4.89443e-08
1.47036e-07
2.40722e-08
3.35903e-08
9.58761e-09
-3.34346e-08
-9.87804e-08
-2.50569e-07
-5.49563e-08
2.45679e-07
-2.15105e-08
-2.13445e-09
4.58144e-08
-1.94585e-07
-3.6e-08
1.51962e-07
-6.93782e-08
-7.64947e-08
1.99519e-07
7.66253e-08
-1.41247e-07
-1.10391e-07
-4.79239e-08
-1.39415e-07
1.21293e-08
2.90583e-07
3.87184e-08
-1.82444e-07
4.85297e-08
-2.35292e-08
-5.76299e-08
2.06567e-07
2.08895e-08
-1.65624e-07
4.81951e-08
-8.71855e-09
-2.08457e-07
2.4286e-08
2.80579e-07
2.64221e-07
5.70533e-08
-4.66726e-08
-5.82607e-08
-6.21842e-08
-2.22343e-08
-1.18038e-07
3.65049e-08
7.71925e-08
1.20587e-07
1.39947e-07
-9.30129e-08
1.08592e-07
3.11925e-07
1.21407e-07
-1.12741e-07
-7.61438e-08
1.35352e-07
8.15077e-08
1.27044e-07
8.04533e-08
4.60096e-08
1.40952e-07
2.67417e-08
3.41887e-08
1.01986e-08
-3.32276e-08
-9.53099e-08
-2.40917e-07
-5.59529e-08
2.35813e-07
-1.87553e-08
-4.86961e-09
4.23586e-08
-1.82675e-07
-3.50923e-08
1.42085e-07
-6.36349e-08
-7.26816e-08
1.86818e-07
7.53436e-08
-1.35486e-07
-1.09814e-07
-4.48181e-08
-1.30097e-07
8.99628e-09
2.76394e-07
4.1016e-08
-1.73797e-07
4.49201e-08
-1.93991e-08
-5.64988e-08
1.94571e-07
2.29328e-08
-1.56681e-07
4.16698e-08
-9.55379e-09
-1.96084e-07
2.47981e-08
2.71509e-07
2.55151e-07
5.64324e-08
-4.22118e-08
-5.597e-08
-6.21204e-08
-1.85967e-08
-1.12586e-07
3.27539e-08
7.6784e-08
1.15823e-07
1.38198e-07
-8.08079e-08
1.06094e-07
2.98978e-07
1.20006e-07
-1.03727e-07
-7.14119e-08
1.32066e-07
8.04123e-08
1.256e-07
8.1697e-08
4.29295e-08
1.36088e-07
3.01669e-08
3.47214e-08
1.07888e-08
-3.31962e-08
-9.11813e-08
-2.31129e-07
-6.01572e-08
2.25692e-07
-1.48817e-08
-8.38567e-09
4.09288e-08
-1.70239e-07
-3.70245e-08
1.32297e-07
-5.6487e-08
-7.06502e-08
1.72099e-07
7.37669e-08
-1.28486e-07
-1.08883e-07
-4.15673e-08
-1.19274e-07
5.60049e-09
2.59868e-07
4.38722e-08
-1.64015e-07
4.03623e-08
-1.45114e-08
-5.52551e-08
1.80302e-07
2.5658e-08
-1.46395e-07
3.41579e-08
-9.98037e-09
-1.81921e-07
2.51327e-08
2.60649e-07
2.44628e-07
5.58597e-08
-3.76074e-08
-5.30475e-08
-6.15482e-08
-1.47193e-08
-1.0615e-07
2.85886e-08
7.64024e-08
1.10561e-07
1.36075e-07
-6.71699e-08
1.02888e-07
2.84407e-07
1.18512e-07
-9.32352e-08
-6.61111e-08
1.28109e-07
7.93542e-08
1.23316e-07
8.31944e-08
3.99005e-08
1.30526e-07
3.40272e-08
3.52338e-08
1.14855e-08
-3.31268e-08
-8.66453e-08
-2.19484e-07
-6.48607e-08
2.13727e-07
-1.01814e-08
-1.307e-08
3.93057e-08
-1.55539e-07
-3.92362e-08
1.21051e-07
-4.84936e-08
-6.82461e-08
1.55997e-07
7.17409e-08
-1.20559e-07
-1.07608e-07
-3.83352e-08
-1.07336e-07
2.3935e-09
2.41699e-07
4.69169e-08
-1.53461e-07
3.5074e-08
-9.17328e-09
-5.37996e-08
1.64355e-07
2.87228e-08
-1.35136e-07
2.61995e-08
-1.01178e-08
-1.66637e-07
2.53243e-08
2.48567e-07
2.33111e-07
5.51833e-08
-3.31793e-08
-4.95392e-08
-6.05322e-08
-1.08116e-08
-9.874e-08
2.42039e-08
7.60081e-08
1.05096e-07
1.3348e-07
-5.27207e-08
9.93142e-08
2.68824e-07
1.16849e-07
-8.18956e-08
-6.046e-08
1.23696e-07
7.8371e-08
1.20269e-07
8.49649e-08
3.70791e-08
1.24349e-07
3.80029e-08
3.57544e-08
1.23409e-08
-3.28789e-08
-8.18759e-08
-2.06356e-07
-6.9628e-08
2.00151e-07
-4.91956e-09
-1.79926e-08
3.73281e-08
-1.39691e-07
-4.13335e-08
1.088e-07
-4.02023e-08
-6.54177e-08
1.39337e-07
6.93038e-08
-1.12038e-07
-1.06019e-07
-3.53807e-08
-9.50319e-08
-4.38161e-10
2.22807e-07
5.01026e-08
-1.42507e-07
2.92416e-08
-3.77624e-09
-5.2137e-08
1.48121e-07
3.19602e-08
-1.23425e-07
1.82665e-08
-9.97533e-09
-1.51038e-07
2.52137e-08
2.35811e-07
2.21446e-07
5.45516e-08
-2.91638e-08
-4.56202e-08
-5.91782e-08
-7.19844e-09
-9.06144e-08
1.98308e-08
7.5583e-08
9.97983e-08
1.30547e-07
-3.8255e-08
9.54285e-08
2.53013e-07
1.15296e-07
-7.02064e-08
-5.48409e-08
1.1893e-07
7.74375e-08
1.16571e-07
8.68526e-08
3.47244e-08
1.17817e-07
4.1807e-08
3.62626e-08
1.33174e-08
-3.23964e-08
-7.70865e-08
-1.92334e-07
-7.41889e-08
1.85572e-07
7.24141e-10
-2.26394e-08
3.49291e-08
-1.23872e-07
-4.3072e-08
9.61651e-08
-3.20994e-08
-6.22464e-08
1.2271e-07
6.6401e-08
-1.03195e-07
-1.04099e-07
-3.29215e-08
-8.27672e-08
-2.75381e-09
2.03963e-07
5.33208e-08
-1.31336e-07
2.3079e-08
1.33292e-09
-5.0173e-08
1.32137e-07
3.51454e-08
-1.11654e-07
1.07394e-08
-9.67428e-09
-1.35698e-07
2.48159e-08
2.22759e-07
2.10036e-07
5.40067e-08
-2.56512e-08
-4.14633e-08
-5.75687e-08
-4.13731e-09
-8.2e-08
1.56549e-08
7.50955e-08
9.49691e-08
1.27356e-07
-2.43039e-08
9.13092e-08
2.37487e-07
1.14017e-07
-5.84809e-08
-4.93037e-08
1.13854e-07
7.66188e-08
1.12298e-07
8.87085e-08
3.30558e-08
1.1111e-07
4.52436e-08
3.67316e-08
1.43416e-08
-3.16666e-08
-7.24835e-08
-1.77873e-07
-7.82106e-08
1.7034e-07
6.5678e-09
-2.67076e-08
3.20224e-08
-1.08634e-07
-4.42192e-08
8.3559e-08
-2.45733e-08
-5.87187e-08
1.06544e-07
6.29862e-08
-9.42361e-08
-1.01788e-07
-3.10526e-08
-7.09153e-08
-4.50327e-09
1.8555e-07
5.64115e-08
-1.20036e-07
1.68187e-08
5.90871e-09
-4.78465e-08
1.16653e-07
3.79644e-08
-1.00086e-07
3.89551e-09
-9.32132e-09
-1.20968e-07
2.42039e-08
2.09631e-07
1.99025e-07
5.35813e-08
-2.26225e-08
-3.72045e-08
-5.57131e-08
-1.67864e-09
-7.31252e-08
1.1815e-08
7.44907e-08
9.07699e-08
1.23981e-07
-1.11697e-08
8.70852e-08
2.22507e-07
1.12835e-07
-4.68707e-08
-4.37156e-08
1.08551e-07
7.59284e-08
1.07559e-07
9.03741e-08
3.21894e-08
1.04389e-07
4.82123e-08
3.71525e-08
1.53476e-08
-3.0686e-08
-6.821e-08
-1.6335e-07
-8.143e-08
1.5472e-07
1.24011e-08
-2.99719e-08
2.86228e-08
-9.42623e-08
-4.46665e-08
7.13062e-08
-1.78893e-08
-5.48456e-08
9.11553e-08
5.906e-08
-8.53425e-08
-9.90269e-08
-2.97683e-08
-5.9792e-08
-5.6823e-09
1.67836e-07
5.91908e-08
-1.08658e-07
1.06888e-08
9.79731e-09
-4.51562e-08
1.01852e-07
4.022e-08
-8.88684e-08
-2.08674e-09
-8.96356e-09
-1.06958e-07
2.34325e-08
1.96581e-07
1.88457e-07
5.33052e-08
-2.00112e-08
-3.29834e-08
-5.35701e-08
1.5172e-10
-6.42048e-08
8.42519e-09
7.3695e-08
8.72421e-08
1.20504e-07
1.00113e-09
8.29835e-08
2.08172e-07
1.11652e-07
-3.54855e-08
-3.81292e-08
1.03109e-07
7.53511e-08
1.02512e-07
9.16858e-08
3.2147e-08
9.7809e-08
5.06717e-08
3.75055e-08
1.62918e-08
-2.94511e-08
-6.43214e-08
-1.49086e-07
-8.36799e-08
1.38975e-07
1.79922e-08
-3.22925e-08
2.48303e-08
-8.09577e-08
-4.4408e-08
5.96326e-08
-1.22005e-08
-5.06906e-08
7.68035e-08
5.46578e-08
-7.66832e-08
-9.57833e-08
-2.90065e-08
-4.96074e-08
-6.28955e-09
1.51003e-07
6.14943e-08
-9.72756e-08
4.89105e-09
1.29093e-08
-4.21405e-08
8.78847e-08
4.18164e-08
-7.80928e-08
-7.10886e-09
-8.61357e-09
-9.37458e-08
2.25409e-08
1.83739e-07
1.78342e-07
5.31798e-08
-1.7753e-08
-2.89224e-08
-5.11022e-08
1.38833e-09
-5.54172e-08
5.56602e-09
7.26499e-08
8.43551e-08
1.16987e-07
1.21383e-08
7.91716e-08
1.94536e-07
1.10427e-07
-2.44561e-08
-3.25812e-08
9.7617e-08
7.48715e-08
9.72972e-08
9.25043e-08
3.28233e-08
9.15102e-08
5.26112e-08
3.77765e-08
1.71505e-08
-2.7964e-08
-6.08305e-08
-1.35343e-07
-8.48749e-08
1.233e-07
2.31207e-08
-3.36117e-08
2.07799e-08
-6.88693e-08
-4.34884e-08
4.87168e-08
-7.571e-09
-4.63379e-08
6.3651e-08
4.98465e-08
-6.8412e-08
-9.20685e-08
-2.86699e-08
-4.04772e-08
-6.35272e-09
1.35181e-07
6.32033e-08
-8.59884e-08
-4.09555e-10
1.52098e-08
-3.88547e-08
7.48878e-08
4.27125e-08
-6.78364e-08
-1.11314e-08
-8.25483e-09
-8.1422e-08
2.15857e-08
1.71224e-07
1.68668e-07
5.31742e-08
-1.57818e-08
-2.50991e-08
-4.83035e-08
2.09287e-09
-4.6908e-08
3.28358e-09
7.13242e-08
8.20358e-08
1.13469e-07
2.22112e-08
7.57379e-08
1.8164e-07
1.09126e-07
-1.39157e-08
-2.70578e-08
9.21762e-08
7.44695e-08
9.20514e-08
9.2741e-08
3.40881e-08
8.56024e-08
5.40407e-08
3.79699e-08
1.79132e-08
-2.62394e-08
-5.77211e-08
-1.22318e-07
-8.49996e-08
1.07897e-07
2.76046e-08
-3.3943e-08
1.66107e-08
-5.81002e-08
-4.19787e-08
3.871e-08
-3.99862e-09
-4.1884e-08
5.17984e-08
4.472e-08
-6.0657e-08
-8.79233e-08
-2.86485e-08
-3.24545e-08
-5.92514e-09
1.20464e-07
6.42599e-08
-7.49248e-08
-5.0878e-09
1.6717e-08
-3.53656e-08
6.29578e-08
4.29046e-08
-5.81697e-08
-1.41619e-08
-7.88095e-09
-7.004e-08
2.06389e-08
1.59138e-07
1.59405e-07
5.32456e-08
-1.40108e-08
-2.15663e-08
-4.51998e-08
2.35987e-09
-3.88019e-08
1.60174e-09
6.97239e-08
8.01902e-08
1.09989e-07
3.12171e-08
7.27341e-08
1.69516e-07
1.07717e-07
-3.97351e-09
-2.15369e-08
8.68765e-08
7.41128e-08
8.69092e-08
9.23641e-08
3.58099e-08
8.01608e-08
5.49878e-08
3.80945e-08
1.85751e-08
-2.43057e-08
-5.49416e-08
-1.10167e-07
-8.4094e-08
9.29634e-08
3.13043e-08
-3.33581e-08
1.24554e-08
-4.86967e-08
-3.99701e-08
2.97239e-08
-1.42741e-09
-3.74334e-08
4.12887e-08
3.93892e-08
-5.35151e-08
-8.34119e-08
-2.88348e-08
-2.55507e-08
-5.07991e-09
1.06922e-07
6.46481e-08
-6.42135e-08
-9.05611e-09
1.74866e-08
-3.17493e-08
5.21508e-08
4.24165e-08
-4.91506e-08
-1.62445e-08
-7.48483e-09
-5.96139e-08
1.9765e-08
1.47563e-07
1.50521e-07
5.33598e-08
-1.23524e-08
-1.83594e-08
-4.18409e-08
2.30458e-09
-3.12041e-08
5.24453e-10
6.78705e-08
7.8718e-08
1.06585e-07
3.91768e-08
7.0188e-08
1.58185e-07
1.06181e-07
5.29317e-09
-1.60092e-08
8.17893e-08
7.37591e-08
8.19927e-08
9.13932e-08
3.78265e-08
7.52277e-08
5.54938e-08
3.81581e-08
1.91333e-08
-2.22023e-08
-5.24173e-08
-9.89932e-08
-8.22441e-08
7.86959e-08
3.41253e-08
-3.1968e-08
8.43757e-09
-4.06456e-08
-3.75708e-08
2.18136e-08
2.42653e-10
-3.30904e-08
3.21093e-08
3.39724e-08
-4.70522e-08
-7.8619e-08
-2.91326e-08
-1.97482e-08
-3.90014e-09
9.45938e-08
6.4376e-08
-5.39745e-08
-1.22568e-08
1.76022e-08
-2.80852e-08
4.24835e-08
4.12795e-08
-4.08225e-08
-1.74495e-08
-7.05396e-09
-5.01313e-08
1.90062e-08
1.36556e-07
1.41992e-07
5.34881e-08