/*--------------------------------*- C++ -*----------------------------------*\
| =========                 |                                                 |
| \\      /  F ield         | OpenFOAM: The Open Source CFD Toolbox           |
|  \\    /   O peration     | Version:  2312                                  |
|   \\  /    A nd           | Website:  www.openfoam.com                      |
|    \\/     M anipulation  |                                                 |
\*---------------------------------------------------------------------------*/
FoamFile
{
    version     2.0;
    format      ascii;
    arch        "LSB;label=32;scalar=64";
    class       volScalarField;
    location    "900";
    object      pPrime2Mean;
}
// * * * * * * * * * * * * * * * * * * * * * * * * * * * * * * * * * * * * * //

dimensions      [0 4 -4 0 0 0 0];

internalField   nonuniform List<scalar> 
144000
(
5.98331e-16
4.4936e-16
7.07796e-15
1.57442e-14
5.30383e-15
5.15964e-16
5.93596e-15
1.07589e-14
1.77532e-14
6.13848e-15
3.1482e-15
6.83831e-16
2.27327e-15
1.19319e-14
6.69601e-15
1.39191e-14
4.19998e-15
6.38574e-15
2.21561e-14
1.50448e-14
4.52784e-14
1.57097e-14
1.34683e-14
3.81093e-16
5.25931e-15
1.61482e-14
2.13789e-15
1.41358e-15
1.68866e-14
3.8839e-15
3.96446e-15
2.45622e-15
4.46488e-16
4.01e-15
9.94535e-15
1.63261e-14
4.5505e-15
2.07374e-16
8.07247e-15
8.48424e-15
1.27129e-15
1.00665e-14
4.07177e-15
8.30267e-15
2.18282e-15
2.06721e-14
1.47864e-14
9.77237e-15
6.87439e-15
8.62573e-15
1.27397e-14
9.71998e-15
8.59663e-15
1.78422e-14
6.65861e-15
1.80095e-14
8.45228e-15
1.75154e-15
1.66212e-15
2.26962e-16
5.83754e-16
4.26275e-16
6.75856e-15
1.22494e-14
4.81417e-15
5.52595e-16
4.07276e-15
1.01231e-14
1.38163e-14
4.13731e-15
2.9074e-15
6.83571e-16
2.15823e-15
8.6746e-15
4.65991e-15
1.0425e-14
2.33101e-15
5.91184e-15
1.74058e-14
1.27257e-14
3.82424e-14
1.19961e-14
1.0205e-14
3.08398e-16
3.59865e-15
1.24294e-14
1.78305e-15
8.5538e-16
1.32549e-14
3.57143e-15
3.86854e-15
2.39706e-15
4.07386e-16
2.32396e-15
9.35689e-15
1.27986e-14
4.06986e-15
2.29159e-16
5.79869e-15
6.10582e-15
1.15547e-15
7.36178e-15
3.68503e-15
5.74056e-15
1.12359e-15
1.60878e-14
1.12105e-14
9.12598e-15
6.79802e-15
8.27396e-15
9.68543e-15
8.84043e-15
5.95838e-15
1.37314e-14
4.42596e-15
1.3911e-14
5.71385e-15
1.54905e-15
1.59728e-15
2.14764e-16
5.46723e-16
3.93322e-16
5.96654e-15
1.0201e-14
3.83948e-15
6.19388e-16
2.87947e-15
8.53289e-15
1.13038e-14
2.79274e-15
2.16421e-15
6.15913e-16
1.8837e-15
6.6715e-15
3.16612e-15
7.46926e-15
1.49318e-15
4.57074e-15
1.39827e-14
9.72988e-15
3.13198e-14
9.85259e-15
7.7788e-15
2.41411e-16
2.44849e-15
1.00512e-14
1.20285e-15
6.50823e-16
1.0979e-14
3.08235e-15
3.58251e-15
2.24085e-15
3.08376e-16
1.43002e-15
7.91313e-15
1.08391e-14
3.16108e-15
2.97581e-16
4.4184e-15
4.69867e-15
9.37651e-16
5.82689e-15
2.84214e-15
4.1087e-15
5.09555e-16
1.24498e-14
8.89065e-15
7.66911e-15
6.43112e-15
7.3387e-15
8.01964e-15
6.80367e-15
4.72267e-15
1.05695e-14
3.05662e-15
1.04767e-14
4.4166e-15
1.09136e-15
1.31444e-15
1.98568e-16
4.92899e-16
3.37336e-16
5.13358e-15
8.70244e-15
2.9247e-15
6.81487e-16
2.06715e-15
6.92368e-15
9.42996e-15
1.90824e-15
1.47631e-15
5.14259e-16
1.58414e-15
5.26228e-15
2.17604e-15
5.24618e-15
1.0603e-15
3.36813e-15
1.12908e-14
7.17456e-15
2.55314e-14
8.48858e-15
5.82459e-15
3.19832e-16
1.64899e-15
8.23132e-15
7.94369e-16
5.93484e-16
9.26086e-15
2.58848e-15
3.25438e-15
2.09034e-15
2.369e-16
9.07459e-16
6.48702e-15
9.39089e-15
2.31431e-15
4.0119e-16
3.47674e-15
3.60023e-15
7.92792e-16
4.78089e-15
2.11092e-15
2.99246e-15
2.60877e-16
9.62951e-15
7.21305e-15
6.16714e-15
5.94713e-15
6.37087e-15
6.83021e-15
4.88369e-15
3.97119e-15
8.10543e-15
2.23246e-15
7.78478e-15
3.64238e-15
6.91645e-16
9.96447e-16
1.7949e-16
4.32741e-16
2.73553e-16
4.32356e-15
7.43195e-15
2.22018e-15
7.19011e-16
1.5036e-15
5.52562e-15
7.84522e-15
1.35057e-15
9.98081e-16
4.18012e-16
1.29751e-15
4.09762e-15
1.59567e-15
3.56504e-15
7.85553e-16
2.47582e-15
8.97614e-15
5.35635e-15
2.0601e-14
7.53186e-15
4.2553e-15
4.52274e-16
1.12741e-15
6.67717e-15
6.03052e-16
5.89563e-16
7.7714e-15
2.16373e-15
2.9258e-15
1.95836e-15
1.95797e-16
5.78991e-16
5.29453e-15
8.08272e-15
1.67574e-15
5.03917e-16
2.80786e-15
2.66386e-15
6.96091e-16
3.95018e-15
1.61775e-15
2.19696e-15
2.36614e-16
7.33372e-15
5.91213e-15
4.92998e-15
5.43707e-15
5.47009e-15
5.80068e-15
3.36819e-15
3.3764e-15
6.10202e-15
1.75431e-15
5.63247e-15
3.0397e-15
4.46011e-16
7.3448e-16
1.5978e-16
3.7383e-16
2.13502e-16
3.55089e-15
6.32135e-15
1.68512e-15
7.33643e-16
1.11472e-15
4.32651e-15
6.46888e-15
9.99693e-16
6.8041e-16
3.33179e-16
1.03166e-15
3.13866e-15
1.26166e-15
2.30921e-15
5.94289e-16
1.82172e-15
7.00793e-15
4.0738e-15
1.63055e-14
6.77347e-15
2.98467e-15
5.81321e-16
7.89217e-16
5.32756e-15
5.5391e-16
5.86803e-16
6.4571e-15
1.8107e-15
2.60393e-15
1.83361e-15
1.82289e-16
3.73716e-16
4.29545e-15
6.86826e-15
1.21801e-15
5.84984e-16
2.3089e-15
1.86869e-15
6.25376e-16
3.27608e-15
1.29572e-15
1.61469e-15
2.99399e-16
5.48363e-15
4.88543e-15
3.93812e-15
4.92412e-15
4.64652e-15
4.88303e-15
2.21848e-15
2.86221e-15
4.46999e-15
1.47045e-15
3.93972e-15
2.53091e-15
3.15376e-16
5.25249e-16
1.40287e-16
3.20095e-16
1.61724e-16
2.84741e-15
5.34666e-15
1.28388e-15
7.34033e-16
8.4387e-16
3.3136e-15
5.27639e-15
7.73518e-16
4.6877e-16
2.64133e-16
7.95267e-16
2.37316e-15
1.05713e-15
1.42027e-15
4.54874e-16
1.34338e-15
5.38851e-15
3.13945e-15
1.27144e-14
6.11318e-15
2.00641e-15
6.86963e-16
5.64103e-16
4.17661e-15
5.8269e-16
5.70025e-16
5.30849e-15
1.52025e-15
2.29399e-15
1.71212e-15
1.95237e-16
2.48121e-16
3.45747e-15
5.7537e-15
9.07777e-16
6.36942e-16
1.91298e-15
1.24167e-15
5.76529e-16
2.72508e-15
1.08414e-15
1.20953e-15
3.81021e-16
4.05832e-15
4.05775e-15
3.14094e-15
4.4211e-15
3.91945e-15
4.07073e-15
1.36567e-15
2.40216e-15
3.19044e-15
1.28796e-15
2.65818e-15
2.09187e-15
2.53528e-16
3.66483e-16
1.22059e-16
2.71917e-16
1.20351e-16
2.23779e-15
4.49308e-15
9.94692e-16
7.23094e-16
6.53736e-16
2.48437e-15
4.25377e-15
6.25232e-16
3.28286e-16
2.1161e-16
5.95137e-16
1.77732e-15
9.17057e-16
8.3411e-16
3.53131e-16
9.98428e-16
4.09248e-15
2.4481e-15
9.78608e-15
5.4975e-15
1.29733e-15
7.57937e-16
4.14464e-16
3.21512e-15
6.47058e-16
5.42375e-16
4.3181e-15
1.28657e-15
2.00221e-15
1.59169e-15
2.31241e-16
1.76579e-16
2.76706e-15
4.75556e-15
7.18797e-16
6.5497e-16
1.58465e-15
7.92561e-16
5.44909e-16
2.27138e-15
9.47399e-16
9.56133e-16
4.53245e-16
3.00827e-15
3.37866e-15
2.50862e-15
3.93357e-15
3.29945e-15
3.36196e-15
7.69363e-16
1.98408e-15
2.22453e-15
1.15141e-15
1.71926e-15
1.70899e-15
2.29515e-16
2.52145e-16
1.06292e-16
2.28294e-16
8.85707e-17
1.72707e-15
3.74606e-15
7.95834e-16
7.00856e-16
5.20908e-16
1.82966e-15
3.39131e-15
5.26339e-16
2.34872e-16
1.73472e-16
4.32554e-16
1.32295e-15
8.06607e-16
4.73569e-16
2.77964e-16
7.53848e-16
3.07989e-15
1.93014e-15
7.44986e-15
4.89893e-15
8.12675e-16
7.87918e-16
3.18217e-16
2.43502e-15
7.17004e-16
5.10568e-16
3.4793e-15
1.10236e-15
1.7345e-15
1.47021e-15
2.83585e-16
1.42106e-16
2.21123e-15
3.88651e-15
6.2173e-16
6.37964e-16
1.30721e-15
5.04872e-16
5.22792e-16
1.89762e-15
8.58956e-16
8.05715e-16
5.07626e-16
2.26614e-15
2.81504e-15
2.01577e-15
3.46325e-15
2.78269e-15
2.75324e-15
3.85292e-16
1.60319e-15
1.51979e-15
1.0337e-15
1.0575e-15
1.37556e-15
2.23429e-16
1.74033e-16
9.22099e-17
1.88378e-16
6.51375e-17
1.31074e-15
3.09342e-15
6.64395e-16
6.68454e-16
4.29986e-16
1.33111e-15
2.67388e-15
4.58174e-16
1.72031e-16
1.4645e-16
3.04693e-16
9.80335e-16
7.08783e-16
2.69593e-16
2.22314e-16
5.82775e-16
2.3056e-15
1.53707e-15
5.62211e-15
4.31065e-15
5.04525e-16
7.76772e-16
2.60571e-16
1.81776e-15
7.71953e-16
4.79211e-16
2.78125e-15
9.58004e-16
1.49458e-15
1.34732e-15
3.437e-16
1.32417e-16
1.77384e-15
3.14921e-15
5.85821e-16
5.91708e-16
1.07413e-15
3.45542e-16
5.01265e-16
1.59115e-15
7.99811e-16
7.24259e-16
5.45399e-16
1.758e-15
2.3458e-15
1.63846e-15
3.01366e-15
2.35679e-15
2.23855e-15
1.63935e-16
1.26067e-15
1.02368e-15
9.21679e-16
6.1349e-16
1.0881e-15
2.22581e-16
1.23585e-16
7.88973e-17
1.52319e-16
4.91986e-17
9.81091e-16
2.52737e-15
5.79432e-16
6.26436e-16
3.70147e-16
9.62772e-16
2.08269e-15
4.08698e-16
1.29084e-16
1.27136e-16
2.07591e-16
7.24008e-16
6.1692e-16
1.67127e-16
1.82138e-16
4.63804e-16
1.72506e-15
1.23543e-15
4.21578e-15
3.73982e-15
3.27339e-16
7.29642e-16
2.30503e-16
1.33905e-15
8.00444e-16
4.50374e-16
2.20964e-15
8.43506e-16
1.28405e-15
1.22422e-15
4.03e-16
1.38717e-16
1.43362e-15
2.5374e-15
5.83516e-16
5.27048e-16
8.8293e-16
2.79122e-16
4.761e-16
1.3424e-15
7.57446e-16
6.84003e-16
5.70871e-16
1.41814e-15
1.95772e-15
1.35378e-15
2.59142e-15
2.00789e-15
1.80995e-15
5.67611e-17
9.60714e-16
6.8619e-16
8.10301e-16
3.31259e-16
8.43755e-16
2.19503e-16
9.32464e-17
6.68024e-17
1.20638e-16
3.96394e-17
7.27026e-16
2.04154e-15
5.24222e-16
5.7652e-16
3.33055e-16
6.96846e-16
1.60053e-15
3.70258e-16
9.92345e-17
1.12562e-16
1.36978e-16
5.33164e-16
5.29557e-16
1.25917e-16
1.54595e-16
3.81241e-16
1.29705e-15
1.00179e-15
3.14905e-15
3.19875e-15
2.40717e-16
6.55637e-16
2.19248e-16
9.77047e-16
7.99251e-16
4.24739e-16
1.74857e-15
7.50051e-16
1.10215e-15
1.10309e-15
4.54621e-16
1.54524e-16
1.17128e-15
2.03991e-15
5.93124e-16
4.55712e-16
7.30576e-16
2.72582e-16
4.47044e-16
1.14231e-15
7.23894e-16
6.63367e-16
5.88244e-16
1.19392e-15
1.6416e-15
1.14096e-15
2.20406e-15
1.72264e-15
1.45804e-15
2.20969e-17
7.07403e-16
4.63542e-16
6.99739e-16
1.64841e-16
6.39909e-16
2.11036e-16
7.68344e-17
5.64997e-17
9.36454e-17
3.50359e-17
5.35756e-16
1.62951e-15
4.86163e-16
5.21478e-16
3.11714e-16
5.08327e-16
1.21274e-15
3.37904e-16
7.80486e-17
1.00633e-16
8.83471e-17
3.91532e-16
4.47331e-16
1.17497e-16
1.3714e-16
3.23389e-16
9.85677e-16
8.19404e-16
2.34983e-15
2.69916e-15
2.11311e-16
5.64924e-16
2.19561e-16
7.09839e-16
7.7113e-16
4.0188e-16
1.38183e-15
6.70834e-16
9.46619e-16
9.86355e-16
4.93944e-16
1.74989e-16
9.69513e-16
1.64231e-15
6.00255e-16
3.87734e-16
6.12639e-16
2.97747e-16
4.16405e-16
9.81968e-16
6.94917e-16
6.51051e-16
6.00168e-16
1.04515e-15
1.38931e-15
9.82011e-16
1.85786e-15
1.48818e-15
1.17277e-15
2.79243e-17
5.02563e-16
3.20811e-16
5.92846e-16
7.62405e-17
4.73957e-16
1.96942e-16
6.93847e-17
4.81376e-17
7.13432e-17
3.3904e-17
3.94778e-16
1.28493e-15
4.56132e-16
4.64617e-16
3.00133e-16
3.76768e-16
9.07492e-16
3.08393e-16
6.27297e-17
9.01983e-17
5.70741e-17
2.86847e-16
3.71555e-16
1.23302e-16
1.27336e-16
2.81933e-16
7.61181e-16
6.76169e-16
1.75711e-15
2.24954e-15
2.13555e-16
4.67347e-16
2.25325e-16
5.17332e-16
7.21346e-16
3.81328e-16
1.09401e-15
6.01149e-16
8.14619e-16
8.76227e-16
5.1881e-16
1.96764e-16
8.13874e-16
1.32903e-15
5.97352e-16
3.298e-16
5.23635e-16
3.33672e-16
3.87603e-16
8.53711e-16
6.68347e-16
6.40657e-16
6.07846e-16
9.4334e-16
1.19228e-15
8.62601e-16
1.55618e-15
1.29343e-15
9.442e-16
5.20392e-17
3.44383e-16
2.30808e-16
4.93179e-16
3.79149e-17
3.42502e-16
1.78383e-16
6.7006e-17
4.1721e-17
5.34993e-17
3.49925e-17
2.9278e-16
1.0016e-15
4.283e-16
4.09047e-16
2.93387e-16
2.86296e-16
6.72435e-16
2.79778e-16
5.15187e-17
8.07589e-17
3.87171e-17
2.09874e-16
3.03706e-16
1.32259e-16
1.22884e-16
2.51252e-16
5.99961e-16
5.63148e-16
1.32093e-15
1.85436e-15
2.29304e-16
3.71752e-16
2.31659e-16
3.8169e-16
6.56444e-16
3.62379e-16
8.70787e-16
5.38193e-16
7.03157e-16
7.74406e-16
5.28999e-16
2.17484e-16
6.92823e-16
1.08484e-15
5.83148e-16
2.85803e-16
4.57493e-16
3.66647e-16
3.63782e-16
7.51267e-16
6.42978e-16
6.28922e-16
6.11596e-16
8.69662e-16
1.04111e-15
7.71733e-16
1.29942e-15
1.12889e-15
7.62968e-16
8.05923e-17
2.28168e-16
1.7389e-16
4.03717e-16
2.85512e-17
2.40886e-16
1.56853e-16
6.68195e-17
3.70657e-17
3.98105e-17
3.73543e-17
2.20204e-16
7.73118e-16
3.99492e-16
3.57043e-16
2.87708e-16
2.24935e-16
4.94889e-16
2.51258e-16
4.32881e-17
7.21707e-17
2.93325e-17
1.54029e-16
2.45093e-16
1.3859e-16
1.21789e-16
2.27648e-16
4.83859e-16
4.73613e-16
1.00129e-15
1.51437e-15
2.46855e-16
2.84553e-16
2.35039e-16
2.88111e-16
5.83259e-16
3.44439e-16
6.99289e-16
4.8062e-16
6.09316e-16
6.82067e-16
5.25716e-16
2.35377e-16
5.97913e-16
8.95813e-16
5.58389e-16
2.56345e-16
4.08426e-16
3.89533e-16
3.46551e-16
6.69053e-16
6.18296e-16
6.14927e-16
6.11378e-16
8.11947e-16
9.26207e-16
7.01304e-16
1.08547e-15
9.87429e-16
6.20671e-16
1.06049e-16
1.47174e-16
1.36833e-16
3.26236e-16
3.42924e-17
1.64394e-16
1.34094e-16
6.69152e-17
3.38052e-17
2.98146e-17
4.02921e-17
1.69298e-16
5.92664e-16
3.6854e-16
3.10058e-16
2.8068e-16
1.83901e-16
3.63537e-16
2.2282e-16
3.73033e-17
6.44777e-17
2.57011e-17
1.14087e-16
1.96018e-16
1.40103e-16
1.22324e-16
2.08704e-16
3.99464e-16
4.02404e-16
7.67213e-16
1.22739e-15
2.59605e-16
2.09618e-16
2.33427e-16
2.24779e-16
5.07848e-16
3.26527e-16
5.68433e-16
4.27996e-16
5.30365e-16
5.99846e-16
5.11086e-16
2.49544e-16
5.2273e-16
7.49836e-16
5.25934e-16
2.39731e-16
3.71352e-16
4.00083e-16
3.36107e-16
6.02546e-16
5.94211e-16
5.98727e-16
6.07249e-16
7.64096e-16
8.38596e-16
6.45624e-16
9.10391e-16
8.64182e-16
5.09917e-16
1.25189e-16
9.38908e-17
1.11532e-16
2.61094e-16
4.61045e-17
1.08522e-16
1.11811e-16
6.62265e-17
3.161e-17
2.29511e-17
4.32994e-17
1.34074e-16
4.53136e-16
3.35639e-16
2.6881e-16
2.70983e-16
1.56913e-16
2.68279e-16
1.94971e-16
3.30831e-17
5.77702e-17
2.538e-17
8.60757e-17
1.5641e-16
1.36738e-16
1.23089e-16
1.92917e-16
3.3713e-16
3.45514e-16
5.95376e-16
9.89214e-16
2.64655e-16
1.49117e-16
2.26008e-16
1.82602e-16
4.34944e-16
3.08236e-16
4.689e-16
3.80297e-16
4.63822e-16
5.27859e-16
4.87798e-16
2.59677e-16
4.62513e-16
6.37002e-16
4.88982e-16
2.33013e-16
3.42417e-16
3.99149e-16
3.31523e-16
5.48474e-16
5.70705e-16
5.80871e-16
5.9947e-16
7.22093e-16
7.70632e-16
6.00621e-16
7.69319e-16
7.56137e-16
4.24301e-16
1.37443e-16
6.11895e-17
9.31727e-17
2.07576e-16
5.8586e-17
6.91833e-17
9.12896e-17
6.43393e-17
3.01064e-17
1.85525e-17
4.59889e-17
1.09922e-16
3.47471e-16
3.01755e-16
2.33479e-16
2.58251e-16
1.39503e-16
2.00076e-16
1.68441e-16
3.02838e-17
5.2052e-17
2.66518e-17
6.69805e-17
1.25317e-16
1.29604e-16
1.22978e-16
1.79359e-16
2.90107e-16
2.99791e-16
4.68564e-16
7.94321e-16
2.61637e-16
1.02889e-16
2.13065e-16
1.54835e-16
3.67846e-16
2.89291e-16
3.93085e-16
3.37587e-16
4.0749e-16
4.65786e-16
4.58648e-16
2.65458e-16
4.13752e-16
5.49421e-16
4.50529e-16
2.32906e-16
3.18878e-16
3.89151e-16
3.31098e-16
5.04358e-16
5.47829e-16
5.62034e-16
5.88188e-16
6.83988e-16
7.16203e-16
5.6349e-16
6.57068e-16
6.61455e-16
3.58435e-16
1.43576e-16
4.31727e-17
7.89055e-17
1.64456e-16
6.88292e-17
4.27791e-17
7.32807e-17
6.12751e-17
2.89155e-17
1.59354e-17
4.8057e-17
9.33761e-17
2.69045e-16
2.6814e-16
2.03785e-16
2.42764e-16
1.28491e-16
1.51865e-16
1.43899e-16
2.86079e-17
4.72297e-17
2.8443e-17
5.44151e-17
1.01842e-16
1.20195e-16
1.21415e-16
1.67355e-16
2.5376e-16
2.62795e-16
3.74275e-16
6.36682e-16
2.51641e-16
6.96881e-17
1.95537e-16
1.3658e-16
3.0852e-16
2.69702e-16
3.34981e-16
2.99828e-16
3.59475e-16
4.1294e-16
4.26292e-16
2.67452e-16
3.73701e-16
4.80983e-16
4.12947e-16
2.36331e-16
2.98918e-16
3.73092e-16
3.3289e-16
4.68155e-16
5.25611e-16
5.42799e-16
5.74083e-16
6.48888e-16
6.70865e-16
5.32251e-16
5.68628e-16
5.7888e-16
3.07902e-16
1.44853e-16
3.50681e-17
6.72594e-17
1.30382e-16
7.55414e-17
2.62015e-17
5.8085e-17
5.73185e-17
2.77355e-17
1.44977e-17
4.92859e-17
8.19251e-17
2.11841e-16
2.3601e-16
1.79143e-16
2.25212e-16
1.21589e-16
1.1816e-16
1.21886e-16
2.77862e-17
4.31883e-17
3.01641e-17
4.65244e-17
8.47879e-17
1.09862e-16
1.18247e-16
1.56526e-16
2.24963e-16
2.32608e-16
3.03554e-16
5.10329e-16
2.36416e-16
4.75177e-17
1.74897e-16
1.24353e-16
2.57826e-16
2.49717e-16
2.89949e-16
2.66817e-16
3.18216e-16
3.68312e-16
3.92952e-16
2.66057e-16
3.40243e-16
4.27042e-16
3.77854e-16
2.40905e-16
2.81614e-16
3.53803e-16
3.34948e-16
4.38236e-16
5.04052e-16
5.23626e-16
5.57794e-16
6.16317e-16
6.31502e-16
5.05421e-16
4.99357e-16
5.07404e-16
2.69065e-16
1.42615e-16
3.32279e-17
5.75932e-17
1.0396e-16
7.84278e-17
1.68491e-17
4.56629e-17
5.28472e-17
2.63817e-17
1.37705e-17
4.95869e-17
7.38224e-17
1.70713e-16
2.06342e-16
1.58835e-16
2.0648e-16
1.17107e-16
9.49631e-17
1.02732e-16
2.75872e-17
3.9815e-17
3.15756e-17
4.18594e-17
7.28052e-17
9.96917e-17
1.137e-16
1.46582e-16
2.01614e-16
2.07715e-16
2.50045e-16
4.0977e-16
2.17851e-16
3.41259e-17
1.52718e-16
1.15725e-16
2.15757e-16
2.29586e-16
2.54484e-16
2.38209e-16
2.82525e-16
3.30655e-16
3.60325e-16
2.61833e-16
3.11811e-16
3.83996e-16
3.46157e-16
2.44862e-16
2.66583e-16
3.33596e-16
3.35681e-16
4.13368e-16
4.83168e-16
5.04852e-16
5.39969e-16
5.86037e-16
5.96105e-16
4.81815e-16
4.45199e-16
4.46102e-16
2.39061e-16
1.3806e-16
3.49875e-17
4.95558e-17
8.37257e-17
7.7841e-17
1.25831e-17
3.57831e-17
4.81576e-17
2.47993e-17
1.34366e-17
4.8987e-17
6.7884e-17
1.4138e-16
1.79799e-16
1.42178e-16
1.87426e-16
1.13827e-16
7.91947e-17
8.65721e-17
2.78244e-17
3.69721e-17
3.26275e-17
3.93229e-17
6.46527e-17
9.04314e-17
1.08193e-16
1.37377e-16
1.82261e-16
1.86928e-16
2.09212e-16
3.3017e-16
1.97651e-16
2.7313e-17
1.3045e-16
1.09098e-16
1.81705e-16
2.09723e-16
2.26005e-16
2.13571e-16
2.51556e-16
2.98618e-16
3.29554e-16
2.55432e-16
2.8727e-16
3.49165e-16
3.18216e-16
2.47166e-16
2.53744e-16
3.1406e-16
3.34121e-16
3.92551e-16
4.63112e-16
4.8665e-16
5.21187e-16
5.57831e-16
5.63479e-16
4.60519e-16
4.0274e-16
3.9405e-16
2.15699e-16
1.32147e-16
3.85146e-17
4.30242e-17
6.83169e-17
7.44938e-17
1.16595e-17
2.81038e-17
4.34543e-17
2.30457e-17
1.33082e-17
4.75775e-17
6.3346e-17
1.20459e-16
1.56719e-16
1.28262e-16
1.68809e-16
1.10899e-16
6.86864e-17
7.33298e-17
2.83359e-17
3.45623e-17
3.33674e-17
3.81227e-17
5.92829e-17
8.24988e-17
1.02268e-16
1.28853e-16
1.65926e-16
1.69364e-16
1.77801e-16
2.67358e-16
1.77195e-16
2.51234e-17
1.09346e-16
1.03447e-16
1.54719e-16
1.90573e-16
2.02638e-16
1.92445e-16
2.24611e-16
2.70974e-16
3.01244e-16
2.47528e-16
2.6582e-16
3.20515e-16
2.94016e-16
2.4739e-16
2.43059e-16
2.96057e-16
3.2991e-16
3.74979e-16
4.43947e-16
4.69099e-16
5.01986e-16
5.31501e-16
5.3299e-16
4.40843e-16
3.69215e-16
3.5021e-16
1.97336e-16
1.25596e-16
4.26565e-17
3.78814e-17
5.65976e-17
6.92197e-17
1.2781e-17
2.22577e-17
3.88998e-17
2.12619e-17
1.32887e-17
4.54948e-17
5.97236e-17
1.05378e-16
1.37154e-16
1.16784e-16
1.51214e-16
1.0778e-16
6.18979e-17
6.27656e-17
2.90151e-17
3.25171e-17
3.38626e-17
3.77523e-17
5.58223e-17
7.60781e-17
9.64073e-17
1.20968e-16
1.51933e-16
1.54389e-16
1.53444e-16
2.17844e-16
1.5748e-16
2.59567e-17
9.03263e-17
9.81814e-17
1.33688e-16
1.72531e-16
1.83065e-16
1.74377e-16
2.01052e-16
2.4675e-16
2.75617e-16
2.38745e-16
2.4693e-16
2.96498e-16
2.73319e-16
2.45504e-16
2.34396e-16
2.79915e-16
3.23192e-16
3.59966e-16
4.25683e-16
4.52209e-16
4.82803e-16
5.06891e-16
5.04369e-16
4.22257e-16
3.42444e-16
3.13557e-16
1.82726e-16
1.18929e-16
4.67194e-17
3.4015e-17
4.76746e-17
6.2788e-17
1.49525e-17
1.78577e-17
3.46213e-17
1.96096e-17
2.17409e-14
1.10159e-14
9.90623e-15
4.91621e-15
1.78913e-15
1.4652e-14
1.53119e-14
4.63829e-14
1.16812e-14
2.09515e-14
6.97331e-16
6.35966e-16
6.73237e-15
2.07247e-14
5.47363e-15
1.50155e-14
1.4609e-15
1.67357e-15
2.85578e-14
1.42902e-14
3.18386e-14
3.23321e-14
1.20226e-14
8.3283e-15
5.18491e-15
2.3189e-15
1.35604e-15
1.27097e-14
5.15752e-15
2.57158e-15
5.33753e-15
6.06012e-15
1.63463e-14
8.22278e-15
3.71633e-14
1.458e-14
1.98953e-14
1.30157e-14
1.85373e-15
6.73019e-16
2.03115e-15
2.12802e-15
5.77553e-16
9.30675e-15
2.6953e-15
2.67351e-15
3.14089e-15
2.63284e-15
5.25469e-15
2.69258e-14
1.60228e-14
3.0634e-14
9.53996e-16
1.01347e-16
4.13191e-15
1.5544e-14
5.57171e-15
1.44025e-14
2.77662e-15
5.11934e-15
1.71364e-14
7.96075e-15
9.2949e-15
4.90728e-15
1.73897e-15
1.0994e-14
1.28853e-14
3.92158e-14
8.52164e-15
1.67677e-14
6.36083e-16
5.62991e-16
4.75439e-15
1.62581e-14
3.46631e-15
1.14645e-14
1.19665e-15
9.84161e-16
2.31124e-14
1.15649e-14
3.03778e-14
2.67716e-14
9.49344e-15
7.86746e-15
4.9949e-15
2.327e-15
1.27105e-15
9.57275e-15
4.71003e-15
2.55612e-15
4.99638e-15
4.08043e-15
1.21416e-14
6.44484e-15
3.08192e-14
1.09614e-14
1.84628e-14
9.78045e-15
1.75089e-15
6.61105e-16
1.991e-15
2.03921e-15
6.02936e-16
6.90574e-15
2.50712e-15
2.59692e-15
3.04136e-15
2.64693e-15
5.05585e-15
2.19083e-14
1.28871e-14
2.53353e-14
8.32329e-16
9.07597e-17
2.59292e-15
1.1646e-14
3.72177e-15
1.08047e-14
2.34114e-15
3.17176e-15
1.35817e-14
6.02837e-15
7.75018e-15
4.74493e-15
1.55695e-15
8.55868e-15
9.68227e-15
3.21024e-14
6.30453e-15
1.37892e-14
6.32078e-16
4.00214e-16
3.48175e-15
1.25418e-14
2.24014e-15
9.0756e-15
7.53014e-16
5.54631e-16
1.88045e-14
8.99548e-15
2.64321e-14
2.27826e-14
7.15251e-15
6.53567e-15
4.45543e-15
2.32843e-15
1.03775e-15
7.75628e-15
3.8792e-15
2.46171e-15
4.13362e-15
3.20321e-15
8.74878e-15
4.50407e-15
2.52865e-14
8.58573e-15
1.49306e-14
8.1142e-15
1.5258e-15
5.93737e-16
1.90193e-15
1.89057e-15
6.40418e-16
5.40598e-15
2.12467e-15
2.39413e-15
2.83768e-15
2.6669e-15
4.56065e-15
1.843e-14
9.5681e-15
2.12393e-14
7.64003e-16
9.02586e-17
1.74094e-15
8.55725e-15
2.38416e-15
8.32014e-15
1.52818e-15
2.18139e-15
1.06605e-14
4.69403e-15
6.15944e-15
4.50603e-15
1.38399e-15
6.7418e-15
6.94998e-15
2.60808e-14
4.83876e-15
1.12768e-14
6.49354e-16
2.76883e-16
2.60936e-15
9.6042e-15
1.54276e-15
7.18637e-15
4.66272e-16
2.99654e-16
1.5264e-14
6.85986e-15
2.23185e-14
1.95546e-14
5.27933e-15
5.20803e-15
3.84163e-15
2.28669e-15
8.48959e-16
6.43162e-15
3.0948e-15
2.31281e-15
3.33832e-15
2.73185e-15
6.19349e-15
2.97864e-15
2.06479e-14
6.89373e-15
1.14829e-14
6.9944e-15
1.31357e-15
5.34897e-16
1.7699e-15
1.73673e-15
7.00289e-16
4.33647e-15
1.7689e-15
2.14751e-15
2.59794e-15
2.64578e-15
4.04487e-15
1.55817e-14
6.96162e-15
1.76215e-14
7.68897e-16
1.21555e-16
1.21658e-15
6.21375e-15
1.54019e-15
6.38132e-15
9.07004e-16
1.58701e-15
8.15213e-15
3.72197e-15
4.79506e-15
4.21612e-15
1.22977e-15
5.21353e-15
5.0268e-15
2.08442e-14
3.93169e-15
9.05419e-15
6.66938e-16
1.91473e-16
2.01035e-15
7.14724e-15
1.18227e-15
5.58736e-15
3.37622e-16
1.85183e-16
1.21881e-14
5.23622e-15
1.86404e-14
1.66728e-14
3.92642e-15
4.15897e-15
3.26442e-15
2.19648e-15
7.08657e-16
5.30325e-15
2.49231e-15
2.14009e-15
2.72452e-15
2.41389e-15
4.2284e-15
1.97555e-15
1.66785e-14
5.61957e-15
8.69263e-15
6.04338e-15
1.13742e-15
4.94844e-16
1.60489e-15
1.61086e-15
7.40587e-16
3.51403e-15
1.51694e-15
1.92183e-15
2.35952e-15
2.57196e-15
3.583e-15
1.29784e-14
5.27049e-15
1.42868e-14
8.32533e-16
1.64932e-16
8.83466e-16
4.36197e-15
1.07372e-15
4.78155e-15
5.30755e-16
1.18313e-15
6.01776e-15
2.98857e-15
3.64749e-15
3.88873e-15
1.09467e-15
3.94042e-15
3.69829e-15
1.631e-14
3.37844e-15
7.09682e-15
6.84613e-16
1.32359e-16
1.58368e-15
5.12774e-15
1.00255e-15
4.22168e-15
3.01528e-16
1.44612e-16
9.54805e-15
4.03331e-15
1.54004e-14
1.41293e-14
2.96715e-15
3.34513e-15
2.73525e-15
2.06901e-15
6.01436e-16
4.3119e-15
2.04138e-15
1.95283e-15
2.24465e-15
2.16329e-15
2.73345e-15
1.33296e-15
1.3295e-14
4.6624e-15
6.47377e-15
5.20108e-15
9.91902e-16
4.7082e-16
1.4262e-15
1.51084e-15
7.56741e-16
2.86841e-15
1.34385e-15
1.72191e-15
2.12952e-15
2.45408e-15
3.17567e-15
1.05947e-14
4.21721e-15
1.12135e-14
9.27672e-16
2.06605e-16
6.53398e-16
2.94105e-15
8.12917e-16
3.45192e-15
3.17957e-16
8.90918e-16
4.29507e-15
2.40853e-15
2.703e-15
3.53687e-15
9.83619e-16
2.92199e-15
2.75816e-15
1.25027e-14
3.03534e-15
5.41358e-15
7.05038e-16
9.78576e-17
1.26059e-15
3.55172e-15
9.10154e-16
3.10013e-15
3.1793e-16
1.36838e-16
7.35295e-15
3.13236e-15
1.25752e-14
1.19344e-14
2.2775e-15
2.7052e-15
2.26716e-15
1.91804e-15
5.22753e-16
3.44719e-15
1.70468e-15
1.76052e-15
1.86907e-15
1.94694e-15
1.65202e-15
9.11834e-16
1.04769e-14
3.93942e-15
4.72091e-15
4.45361e-15
8.70057e-16
4.58534e-16
1.24849e-15
1.4302e-15
7.54411e-16
2.35639e-15
1.221e-15
1.54704e-15
1.91507e-15
2.30336e-15
2.82101e-15
8.4823e-15
3.54682e-15
8.50967e-15
1.03361e-15
2.41486e-16
4.77817e-16
1.91117e-15
6.51348e-16
2.39556e-15
2.10407e-16
6.67336e-16
2.96968e-15
1.93058e-15
1.95076e-15
3.16989e-15
8.96992e-16
2.14085e-15
2.08423e-15
9.42932e-15
2.80866e-15
4.00381e-15
7.27936e-16
8.34812e-17
1.00319e-15
2.37175e-15
8.51803e-16
2.21489e-15
3.61287e-16
1.44634e-16
5.57921e-15
2.45223e-15
1.01482e-14
1.00506e-14
1.77925e-15
2.19769e-15
1.86836e-15
1.75257e-15
4.6769e-16
2.7095e-15
1.45317e-15
1.56982e-15
1.57968e-15
1.75123e-15
9.16591e-16
6.33672e-16
8.17878e-15
3.3808e-15
3.36705e-15
3.78362e-15
7.67983e-16
4.54317e-16
1.08195e-15
1.36129e-15
7.37949e-16
1.95099e-15
1.13055e-15
1.39607e-15
1.72065e-15
2.13234e-15
2.51861e-15
6.67541e-15
3.0962e-15
6.21863e-15
1.13251e-15
2.64042e-16
3.38047e-16
1.20197e-15
5.3712e-16
1.59447e-15
1.67585e-16
4.90462e-16
1.99135e-15
1.52656e-15
1.37059e-15
2.7938e-15
8.30908e-16
1.56451e-15
1.59639e-15
7.00153e-15
2.63161e-15
2.85265e-15
7.48501e-16
8.17468e-17
7.90962e-16
1.52201e-15
7.97238e-16
1.53992e-15
4.10252e-16
1.59002e-16
4.17768e-15
1.93675e-15
8.09262e-15
8.43343e-15
1.42037e-15
1.79027e-15
1.53843e-15
1.5768e-15
4.31245e-16
2.09785e-15
1.26163e-15
1.38471e-15
1.35728e-15
1.57037e-15
4.5165e-16
4.51022e-16
6.33374e-15
2.93479e-15
2.35126e-15
3.18045e-15
6.85146e-16
4.54693e-16
9.33475e-16
1.29535e-15
7.12214e-16
1.63257e-15
1.06e-15
1.26653e-15
1.54723e-15
1.9489e-15
2.26298e-15
5.18172e-15
2.75813e-15
4.3556e-15
1.20707e-15
2.7073e-16
2.29011e-16
7.32818e-16
4.44918e-16
1.01367e-15
1.57941e-16
3.50717e-16
1.2929e-15
1.18268e-15
9.36452e-16
2.41524e-15
7.78591e-16
1.15266e-15
1.23859e-15
5.12424e-15
2.46089e-15
1.9443e-15
7.59107e-16
8.61243e-17
6.14079e-16
9.38458e-16
7.31899e-16
1.04195e-15
4.4877e-16
1.74818e-16
3.09523e-15
1.54374e-15
6.37838e-15
7.04637e-15
1.16274e-15
1.45843e-15
1.27108e-15
1.39472e-15
4.08072e-16
1.6057e-15
1.10974e-15
1.20755e-15
1.18465e-15
1.40261e-15
1.87335e-16
3.30369e-16
4.86851e-15
2.56681e-15
1.61489e-15
2.63821e-15
6.21554e-16
4.57511e-16
8.07286e-16
1.22564e-15
6.82702e-16
1.38461e-15
1.00077e-15
1.15542e-15
1.39403e-15
1.76106e-15
2.04654e-15
3.98432e-15
2.46638e-15
2.9068e-15
1.24213e-15
2.62534e-16
1.49085e-16
4.35398e-16
3.63668e-16
6.12643e-16
1.58939e-16
2.43309e-16
8.13861e-16
8.92366e-16
6.22727e-16
2.04515e-15
7.34471e-16
8.65636e-16
9.72545e-16
3.70242e-15
2.27512e-15
1.25799e-15
7.52364e-16
9.17164e-17
4.68259e-16
5.57739e-16
6.52734e-16
6.87521e-16
4.67585e-16
1.89491e-16
2.27685e-15
1.24152e-15
4.97209e-15
5.85768e-15
9.77688e-16
1.18439e-15
1.05741e-15
1.2126e-15
3.93357e-16
1.221e-15
9.82199e-16
1.04143e-15
1.04781e-15
1.24778e-15
6.37922e-17
2.49267e-16
3.7196e-15
2.25346e-15
1.10269e-15
2.15451e-15
5.74934e-16
4.60976e-16
7.03996e-16
1.14899e-15
6.53619e-16
1.19263e-15
9.47543e-16
1.06014e-15
1.25958e-15
1.57644e-15
1.85967e-15
3.0489e-15
2.18737e-15
1.83058e-15
1.22882e-15
2.43317e-16
9.57382e-17
2.55944e-16
2.90054e-16
3.50744e-16
1.57879e-16
1.63908e-16
4.96321e-16
6.52627e-16
4.04537e-16
1.69613e-15
6.93957e-16
6.68213e-16
7.72899e-16
2.64868e-15
2.06872e-15
7.66067e-16
7.23725e-16
9.64981e-17
3.50881e-16
3.24814e-16
5.63503e-16
4.45489e-16
4.63958e-16
2.01596e-16
1.67013e-15
1.00678e-15
3.83742e-15
4.84034e-15
8.43715e-16
9.55558e-16
8.88033e-16
1.03746e-15
3.82956e-16
9.28385e-16
8.68825e-16
8.89464e-16
9.36114e-16
1.10622e-15
3.20135e-17
1.93441e-16
2.83002e-15
1.97975e-15
7.6377e-16
1.72997e-15
5.41517e-16
4.63614e-16
6.22141e-16
1.0657e-15
6.27859e-16
1.04411e-15
8.97454e-16
9.78028e-16
1.14209e-15
1.40143e-15
1.69328e-15
2.33412e-15
1.91013e-15
1.07464e-15
1.16632e-15
2.18823e-16
6.47489e-17
1.51575e-16
2.2454e-16
1.89965e-16
1.50076e-16
1.08359e-16
2.93345e-16
4.6097e-16
2.5853e-16
1.37857e-15
6.53789e-16
5.32566e-16
6.22612e-16
1.8829e-15
1.84506e-15
4.36613e-16
6.72377e-16
9.99949e-17
2.59313e-16
1.93046e-16
4.70677e-16
2.88244e-16
4.40117e-16
2.10442e-16
1.2286e-15
8.22558e-16
2.93628e-15
3.97253e-15
7.44938e-16
7.62855e-16
7.54048e-16
8.75349e-16
3.73798e-16
7.11177e-16
7.64132e-16
7.54042e-16
8.41736e-16
9.78512e-16
5.46303e-17
1.54266e-16
2.14902e-15
1.73666e-15
5.53175e-16
1.36535e-15
5.17085e-16
4.64104e-16
5.58713e-16
9.78979e-16
6.06487e-16
9.28272e-16
8.49217e-16
9.06821e-16
1.03963e-15
1.24052e-15
1.54023e-15
1.8003e-15
1.63692e-15
5.78567e-16
1.06069e-15
1.94303e-16
5.0605e-17
9.32633e-17
1.68755e-16
9.77135e-17
1.35803e-16
7.22735e-17
1.68416e-16
3.13635e-16
1.64577e-16
1.09872e-15
6.11752e-16
4.37946e-16
5.09549e-16
1.33612e-15
1.61141e-15
2.34408e-16
6.01341e-16
1.02742e-16
1.90476e-16
1.25799e-16
3.80878e-16
1.92118e-16
4.01251e-16
2.15752e-16
9.1241e-16
6.767e-16
2.23076e-15
3.23667e-15
6.69492e-16
6.00252e-16
6.47579e-16
7.30603e-16
3.63889e-16
5.53075e-16
6.66005e-16
6.36259e-16
7.59014e-16
8.64954e-16
1.04808e-16
1.26974e-16
1.63305e-15
1.51884e-15
4.33546e-16
1.06045e-15
4.97589e-16
4.61387e-16
5.10229e-16
8.92591e-16
5.89074e-16
8.36848e-16
8.02645e-16
8.44575e-16
9.50259e-16
1.09642e-15
1.3956e-15
1.4067e-15
1.37621e-15
2.80765e-16
9.23839e-16
1.73433e-16
4.7309e-17
6.05759e-17
1.23805e-16
4.89075e-17
1.17606e-16
5.10308e-17
9.44588e-17
2.05436e-16
1.066e-16
8.60278e-16
5.66775e-16
3.7006e-16
4.2465e-16
9.51545e-16
1.37826e-15
1.25869e-16
5.1664e-16
1.05203e-16
1.40805e-16
9.64694e-17
2.99854e-16
1.37706e-16
3.53671e-16
2.17362e-16
6.88806e-16
5.60485e-16
1.68545e-15
2.61745e-15
6.08701e-16
4.63879e-16
5.61871e-16
6.05253e-16
3.51657e-16
4.39406e-16
5.74613e-16
5.36171e-16
6.84107e-16
7.65071e-16
1.64314e-16
1.09105e-16
1.24582e-15
1.3233e-15
3.73138e-16
8.12916e-16
4.79641e-16
4.55139e-16
4.73196e-16
8.09632e-16
5.74547e-16
7.63466e-16
7.57971e-16
7.89692e-16
8.72193e-16
9.70119e-16
1.25663e-15
1.11979e-15
1.13723e-15
1.23528e-16
7.7032e-16
1.58004e-16
4.94969e-17
4.25955e-17
8.95431e-17
2.58815e-17
9.8428e-17
4.00968e-17
5.23909e-17
1.30237e-16
7.23352e-17
6.63287e-16
5.18897e-16
3.19424e-16
3.60876e-16
6.84171e-16
1.15561e-15
8.13464e-17
4.25794e-16
1.07516e-16
1.06484e-16
8.68545e-17
2.31909e-16
1.09956e-16
3.03459e-16
2.15379e-16
5.32063e-16
4.6754e-16
1.26901e-15
2.10091e-15
5.5646e-16
3.50957e-16
4.91254e-16
4.99626e-16
3.3615e-16
3.58139e-16
4.91197e-16
4.52715e-16
6.14636e-16
6.77769e-16
2.21633e-16
9.93247e-17
9.5742e-16
1.14859e-15
3.49731e-16
6.19206e-16
4.60876e-16
4.45559e-16
4.44622e-16
7.32759e-16
5.61429e-16
7.03253e-16
7.15453e-16
7.40845e-16