/*--------------------------------*- C++ -*----------------------------------*\
| =========                 |                                                 |
| \\      /  F ield         | OpenFOAM: The Open Source CFD Toolbox           |
|  \\    /   O peration     | Version:  2312                                  |
|   \\  /    A nd           | Website:  www.openfoam.com                      |
|    \\/     M anipulation  |                                                 |
\*---------------------------------------------------------------------------*/
FoamFile
{
    version     2.0;
    format      ascii;
    arch        "LSB;label=32;scalar=64";
    class       volScalarField;
    location    "440";
    object      p;
}
// * * * * * * * * * * * * * * * * * * * * * * * * * * * * * * * * * * * * * //

dimensions      [0 2 -2 0 0 0 0];

internalField   nonuniform List<scalar> 
144000
(
3.21374e-10
2.34501e-10
-1.46059e-10
-4.09437e-10
-3.86926e-10
-2.93153e-10
-1.83916e-10
-1.26426e-10
-7.23563e-11
-6.05056e-11
-3.31391e-11
-3.55257e-11
-1.55702e-11
-2.2977e-11
-4.25384e-12
-1.24387e-11
2.87028e-12
-9.50119e-12
7.95069e-12
-1.92633e-12
1.45833e-11
1.42047e-12
1.81751e-11
5.76798e-12
2.28029e-11
1.02523e-11
2.66384e-11
1.22651e-11
2.91743e-11
1.57404e-11
3.31948e-11
2.00912e-11
3.55832e-11
1.94377e-11
3.54102e-11
2.11282e-11
3.66418e-11
2.25007e-11
3.63429e-11
2.11106e-11
3.35146e-11
2.07252e-11
3.23041e-11
1.84804e-11
2.90517e-11
1.59677e-11
2.56691e-11
1.81732e-11
2.44216e-11
2.0572e-11
2.29667e-11
2.62202e-11
1.4234e-11
1.72411e-11
-1.99614e-11
-6.46296e-12
-7.46957e-11
-1.60687e-10
-6.17291e-10
-1.2949e-10
3.40506e-10
2.44312e-10
-1.50501e-10
-4.1359e-10
-3.88803e-10
-2.93494e-10
-1.84097e-10
-1.26485e-10
-7.25812e-11
-6.06492e-11
-3.33854e-11
-3.56322e-11
-1.57783e-11
-2.30487e-11
-4.41786e-12
-1.24568e-11
2.72297e-12
-9.52831e-12
7.81538e-12
-1.90997e-12
1.44595e-11
1.43123e-12
1.80584e-11
5.80717e-12
2.26978e-11
1.03009e-11
2.65316e-11
1.23093e-11
2.90705e-11
1.58037e-11
3.31034e-11
2.01686e-11
3.5487e-11
1.94976e-11
3.53172e-11
2.12139e-11
3.6563e-11
2.25882e-11
3.62701e-11
2.11781e-11
3.33892e-11
2.06866e-11
3.21439e-11
1.85747e-11
2.90114e-11
1.60864e-11
2.56497e-11
1.83291e-11
2.44467e-11
2.07249e-11
2.30811e-11
2.64217e-11
1.4472e-11
1.73887e-11
-1.9522e-11
-6.05243e-12
-7.18107e-11
-1.5744e-10
-6.30445e-10
-1.39631e-10
3.64131e-10
2.53404e-10
-1.55774e-10
-4.18256e-10
-3.91167e-10
-2.94143e-10
-1.84266e-10
-1.2662e-10
-7.27288e-11
-6.0903e-11
-3.36114e-11
-3.587e-11
-1.59499e-11
-2.32484e-11
-4.54924e-12
-1.25797e-11
2.65422e-12
-9.66556e-12
7.72645e-12
-2.0001e-12
1.44123e-11
1.33456e-12
1.80085e-11
5.74839e-12
2.26704e-11
1.02512e-11
2.65143e-11
1.2253e-11
2.90495e-11
1.5772e-11
3.30965e-11
2.01533e-11
3.54975e-11
1.94607e-11
3.53115e-11
2.12124e-11
3.65826e-11
2.25909e-11
3.63043e-11
2.11774e-11
3.33339e-11
2.0505e-11
3.20108e-11
1.85504e-11
2.91007e-11
1.61665e-11
2.57335e-11
1.84581e-11
2.45957e-11
2.08562e-11
2.32567e-11
2.66025e-11
1.48274e-11
1.76157e-11
-1.8985e-11
-5.92313e-12
-6.83731e-11
-1.49286e-10
-6.50462e-10
-1.51013e-10
3.9087e-10
2.59437e-10
-1.6094e-10
-4.2263e-10
-3.94602e-10
-2.9512e-10
-1.84423e-10
-1.26679e-10
-7.27944e-11
-6.1175e-11
-3.38722e-11
-3.61701e-11
-1.61501e-11
-2.35065e-11
-4.71423e-12
-1.27396e-11
2.60193e-12
-9.84474e-12
7.61216e-12
-2.12838e-12
1.4378e-11
1.20269e-12
1.79531e-11
5.66113e-12
2.2654e-11
1.01776e-11
2.65202e-11
1.21693e-11
2.90388e-11
1.57151e-11
3.31079e-11
2.01192e-11
3.55514e-11
1.93979e-11
3.53233e-11
2.11873e-11
3.66426e-11
2.25719e-11
3.63966e-11
2.11737e-11
3.33059e-11
2.02403e-11
3.18207e-11
1.84191e-11
2.92816e-11
1.624e-11
2.58976e-11
1.85619e-11
2.48765e-11
2.09364e-11
2.3599e-11
2.67005e-11
1.54693e-11
1.7672e-11
-1.80741e-11
-6.43603e-12
-6.30657e-11
-1.3763e-10
-6.75848e-10
-1.61481e-10
4.16766e-10
2.57677e-10
-1.64757e-10
-4.24235e-10
-3.98215e-10
-2.9639e-10
-1.84549e-10
-1.26598e-10
-7.27671e-11
-6.14543e-11
-3.42098e-11
-3.65467e-11
-1.64224e-11
-2.38325e-11
-4.95261e-12
-1.29355e-11
2.53355e-12
-1.00587e-11
7.43957e-12
-2.28581e-12
1.43303e-11
1.05022e-12
1.78622e-11
5.55777e-12
2.26231e-11
1.00965e-11
2.65252e-11
1.20765e-11
2.90112e-11
1.56481e-11
3.31139e-11
2.00844e-11
3.56279e-11
1.93273e-11
3.53284e-11
2.11502e-11
3.67259e-11
2.2543e-11
3.65373e-11
2.11855e-11
3.33026e-11
1.99388e-11
3.15226e-11
1.8152e-11
2.9541e-11
1.63093e-11
2.61346e-11
1.86168e-11
2.52991e-11
2.09203e-11
2.412e-11
2.66288e-11
1.64754e-11
1.73991e-11
-1.66121e-11
-7.89705e-12
-5.55424e-11
-1.23878e-10
-7.04919e-10
-1.66866e-10
4.39763e-10
2.41829e-10
-1.67216e-10
-4.20431e-10
-4.01037e-10
-2.97888e-10
-1.84623e-10
-1.26324e-10
-7.26125e-11
-6.17304e-11
-3.46363e-11
-3.70163e-11
-1.6786e-11
-2.42408e-11
-5.2825e-12
-1.31875e-11
2.434e-12
-1.03128e-11
7.19698e-12
-2.48254e-12
1.42595e-11
8.74767e-13
1.77267e-11
5.43192e-12
2.25709e-11
1.00049e-11
2.65234e-11
1.19742e-11
2.89605e-11
1.5567e-11
3.31104e-11
2.00458e-11
3.57239e-11
1.92493e-11
3.53242e-11
2.10928e-11
3.68337e-11
2.24966e-11
3.67335e-11
2.12153e-11
3.33456e-11
1.96052e-11
3.10736e-11
1.77045e-11
2.98804e-11
1.63634e-11
2.64506e-11
1.85866e-11
2.58795e-11
2.07582e-11
2.48556e-11
2.63005e-11
1.7919e-11
1.66453e-11
-1.44226e-11
-1.05938e-11
-4.55908e-11
-1.09225e-10
-7.37101e-10
-1.6173e-10
4.60294e-10
2.05832e-10
-1.69721e-10
-4.08889e-10
-4.01893e-10
-2.99509e-10
-1.84643e-10
-1.25804e-10
-7.22912e-11
-6.19833e-11
-3.51492e-11
-3.75835e-11
-1.72497e-11
-2.47374e-11
-5.71334e-12
-1.35077e-11
2.29041e-12
-1.06099e-11
6.87854e-12
-2.72832e-12
1.41567e-11
6.74173e-13
1.75408e-11
5.27684e-12
2.24924e-11
9.89847e-12
2.65093e-11
1.18613e-11
2.8883e-11
1.54674e-11
3.30949e-11
1.99985e-11
3.58355e-11
1.91634e-11
3.53109e-11
2.10061e-11
3.69682e-11
2.24229e-11
3.69944e-11
2.12596e-11
3.34805e-11
1.92368e-11
3.04067e-11
1.70297e-11
3.0305e-11
1.63893e-11
2.6857e-11
1.84336e-11
2.6636e-11
2.04012e-11
2.58539e-11
2.56267e-11
1.98795e-11
1.52607e-11
-1.13268e-11
-1.47526e-11
-3.30833e-11
-9.44872e-11
-7.7304e-10
-1.41073e-10
4.80624e-10
1.44795e-10
-1.74681e-10
-3.87729e-10
-3.99519e-10
-3.0113e-10
-1.84642e-10
-1.25003e-10
-7.17696e-11
-6.21912e-11
-3.57419e-11
-3.82455e-11
-1.78181e-11
-2.53223e-11
-6.24963e-12
-1.39031e-11
2.08965e-12
-1.09491e-11
6.48098e-12
-3.0285e-12
1.40111e-11
4.48268e-13
1.72995e-11
5.08854e-12
2.23817e-11
9.77571e-12
2.64754e-11
1.1738e-11
2.8775e-11
1.53473e-11
3.30643e-11
1.99402e-11
3.59558e-11
1.90701e-11
3.52886e-11
2.08834e-11
3.71298e-11
2.23132e-11
3.73291e-11
2.1312e-11
3.37789e-11
1.87985e-11
2.9422e-11
1.60848e-11
3.08226e-11
1.63733e-11
2.73675e-11
1.81222e-11
2.7587e-11
1.98028e-11
2.7164e-11
2.45305e-11
2.24291e-11
1.31275e-11
-7.18491e-12
-2.04812e-11
-1.81125e-11
-7.99976e-11
-8.14e-10
-1.01286e-10
5.04457e-10
5.54754e-11
-1.85281e-10
-3.5573e-10
-3.92606e-10
-3.02598e-10
-1.84692e-10
-1.23907e-10
-7.10244e-11
-6.23359e-11
-3.64073e-11
-3.89969e-11
-1.84926e-11
-2.5992e-11
-6.89215e-12
-1.43769e-11
1.82048e-12
-1.13283e-11
6.00396e-12
-3.38529e-12
1.38133e-11
1.97874e-13
1.69999e-11
4.865e-12
2.22332e-11
9.63607e-12
2.64145e-11
1.16051e-11
2.86335e-11
1.52058e-11
3.30151e-11
1.98697e-11
3.60774e-11
1.897e-11
3.52581e-11
2.07197e-11
3.73178e-11
2.21586e-11
3.77496e-11
2.13608e-11
3.43477e-11
1.8241e-11
2.79785e-11
1.48277e-11
3.14461e-11
1.63015e-11
2.79969e-11
1.76216e-11
2.87481e-11
1.89237e-11
2.8818e-11
2.29392e-11
2.56127e-11
1.01847e-11
-1.94039e-12
-2.77296e-11
-9.82057e-13
-6.56992e-11
-8.61566e-10
-4.04422e-11
5.35613e-10
-6.32566e-11
-2.04756e-10
-3.12418e-10
-3.79962e-10
-3.03728e-10
-1.8489e-10
-1.22533e-10
-7.00442e-11
-6.24044e-11
-3.71392e-11
-3.98319e-11
-1.92733e-11
-2.67421e-11
-7.63914e-12
-1.49296e-11
1.47343e-12
-1.1745e-11
5.44968e-12
-3.79879e-12
1.3555e-11
-7.60668e-14
1.66414e-11
4.60562e-12
2.20426e-11
9.47957e-12
2.63205e-11
1.14631e-11
2.84574e-11
1.50429e-11
3.29446e-11
1.97863e-11
3.61927e-11
1.88632e-11
3.52208e-11
2.05119e-11
3.75311e-11
2.19502e-11
3.82692e-11
2.13951e-11
3.53279e-11
1.74827e-11
2.58998e-11
1.32306e-11
3.21902e-11
1.61617e-11
2.87581e-11
1.69112e-11
3.01266e-11
1.7739e-11
3.08342e-11
2.08357e-11
2.94304e-11
6.4424e-12
4.36338e-12
-3.6286e-11
1.77129e-11
-5.11718e-11
-9.16781e-10
4.14383e-11
5.7761e-10
-2.10314e-10
-2.36092e-10
-2.58168e-10
-3.60604e-10
-3.04283e-10
-1.85353e-10
-1.20926e-10
-6.88316e-11
-6.23893e-11
-3.79332e-11
-4.0746e-11
-2.01604e-11
-2.75688e-11
-8.4885e-12
-1.55608e-11
1.04093e-12
-1.21975e-11
4.82147e-12
-4.26781e-12
1.32297e-11
-3.72986e-13
1.62249e-11
4.3106e-12
2.18063e-11
9.30635e-12
2.61886e-11
1.13123e-11
2.82464e-11
1.48591e-11
3.28501e-11
1.96898e-11
3.62953e-11
1.87499e-11
3.51781e-11
2.02589e-11
3.77664e-11
2.16809e-11
3.8902e-11
2.14046e-11
3.69103e-11
1.63431e-11
2.29599e-11
1.12826e-11
3.30669e-11
1.59424e-11
2.96566e-11
1.59837e-11
3.17179e-11
1.62435e-11
3.32066e-11
1.82354e-11
3.3829e-11
1.99009e-12
1.15733e-11
-4.57826e-11
3.72151e-11
-3.57758e-11
-9.80037e-10
1.42371e-10
6.32735e-10
-3.82492e-10
-2.81511e-10
-1.94188e-10
-3.33855e-10
-3.04e-10
-1.86196e-10
-1.19171e-10
-6.74048e-11
-6.22884e-11
-3.87861e-11
-4.17358e-11
-2.11545e-11
-2.84695e-11
-9.43819e-12
-1.62691e-11
5.16679e-13
-1.26851e-11
4.12307e-12
-4.79042e-12
1.28322e-11
-6.93198e-13
1.57519e-11
3.98077e-12
2.15215e-11
9.11673e-12
2.60155e-11
1.11528e-11
2.80013e-11
1.46555e-11
3.27296e-11
1.95807e-11
3.63796e-11
1.86304e-11
3.51305e-11
1.99626e-11
3.80188e-11
2.13444e-11
3.96633e-11
2.13704e-11
3.94338e-11
1.46552e-11
1.88273e-11
8.98798e-12
3.4074e-11
1.56307e-11
3.06859e-11
1.48456e-11
3.35037e-11
1.44545e-11
3.58977e-11
1.51969e-11
3.87022e-11
-3.00454e-12
1.94439e-11
-5.57383e-11
5.66395e-11
-1.89124e-11
-1.05064e-09
2.58715e-10
7.02449e-10
-5.74933e-10
-3.42617e-10
-1.22515e-10
-2.99358e-10
-3.02455e-10
-1.87506e-10
-1.17381e-10
-6.57977e-11
-6.21021e-11
-3.96934e-11
-4.27977e-11
-2.22552e-11
-2.94419e-11
-1.04858e-11
-1.70525e-11
-1.03777e-13
-1.3208e-11
3.35848e-12
-5.3641e-12
1.23587e-11
-1.0376e-12
1.52246e-11
3.61748e-12
2.11858e-11
8.91093e-12
2.57991e-11
1.09847e-11
2.77226e-11
1.44339e-11
3.25807e-11
1.946e-11
3.64403e-11
1.85063e-11
3.50768e-11
1.96287e-11
3.82787e-11
2.09415e-11
4.05496e-11
2.12985e-11
4.32535e-11
1.2266e-11
1.3188e-11
6.42966e-12
3.52201e-11
1.52268e-11
3.18301e-11
1.35192e-11
3.54394e-11
1.24227e-11
3.88372e-11
1.18216e-11
4.38957e-11
-8.31273e-12
2.7662e-11
-6.56212e-11
7.52457e-11
-2.61806e-13
-1.12733e-09
3.86098e-10
7.86678e-10
-7.81452e-10
-4.19757e-10
-4.5759e-11
-2.57157e-10
-2.99175e-10
-1.89328e-10
-1.15694e-10
-6.40629e-11
-6.18333e-11
-4.06487e-11
-4.39265e-11
-2.34612e-11
-3.04832e-11
-1.16275e-11
-1.79082e-11
-8.23439e-13
-1.37668e-11
2.5321e-12
-5.98572e-12
1.18065e-11
-1.40754e-12
1.46455e-11
3.2228e-12
2.07978e-11
8.68905e-12
2.55375e-11
1.08079e-11
2.74114e-11
1.41969e-11
3.2401e-11
1.93295e-11
3.6471e-11
1.83808e-11
3.5012e-11
1.9271e-11
3.85251e-11
2.0499e-11
4.1492e-11
2.13064e-11
4.85838e-11
8.67095e-12
5.8052e-12
3.81961e-12
3.65459e-11
1.47675e-11
3.30761e-11
1.20506e-11
3.74764e-11
1.0219e-11
4.19281e-11
8.24869e-12
4.92155e-11
-1.36611e-11
3.58715e-11
-7.4887e-11
9.23161e-11
2.02904e-11
-1.20805e-09
5.20445e-10
8.8416e-10
-9.94968e-10
-5.12126e-10
3.298e-11
-2.07771e-10
-2.93758e-10
-1.91641e-10
-1.14264e-10
-6.2273e-11
-6.14894e-11
-4.16439e-11
-4.51169e-11
-2.47702e-11
-3.1591e-11
-1.28596e-11
-1.88329e-11
-1.64316e-12
-1.43622e-11
1.64799e-12
-6.65176e-12
1.11743e-11
-1.8044e-12
1.4017e-11
2.79915e-12
2.03561e-11
8.45109e-12
2.523e-11
1.06229e-11
2.70683e-11
1.39477e-11
3.21878e-11
1.91918e-11
3.64658e-11
1.82584e-11
3.49292e-11
1.89057e-11
3.87349e-11
2.00494e-11
4.24051e-11
2.14084e-11
5.64568e-11
1.79438e-12
-4.32366e-12
1.11682e-12
3.7987e-11
1.42757e-11
3.43959e-11
1.04997e-11
3.95489e-11
7.93553e-12
4.50503e-11
4.64577e-12
5.44396e-11
-1.87514e-11
4.36953e-11
-8.30072e-11
1.07246e-10
4.2742e-11
-1.29029e-09
6.5416e-10
9.9206e-10
-1.20684e-09
-6.17839e-10
1.10271e-10
-1.52277e-10
-2.85816e-10
-1.94354e-10
-1.13257e-10
-6.05247e-11
-6.1085e-11
-4.26714e-11
-4.63639e-11
-2.61806e-11
-3.27636e-11
-1.41788e-11
-1.9823e-11
-2.56258e-12
-1.49953e-11
7.09772e-13
-7.35855e-12
1.0462e-11
-2.2298e-12
1.3341e-11
2.34905e-12
1.98601e-11
8.19716e-12
2.48756e-11
1.04303e-11
2.66937e-11
1.369e-11
3.19383e-11
1.90496e-11
3.64198e-11
1.81423e-11
3.48246e-11
1.85405e-11
3.89045e-11
1.95894e-11
4.32834e-11
2.09456e-11
6.92059e-11
-2.23658e-12
-1.81362e-11
-2.12396e-12
3.91735e-11
1.36969e-11
3.57145e-11
8.90134e-12
4.15678e-11
5.67478e-12
4.80665e-11
1.19695e-12
5.93361e-11
-2.32847e-11
5.0783e-11
-8.95383e-11
1.19599e-10
6.67774e-11
-1.37067e-09
7.82035e-10
1.10672e-09
-1.40838e-09
-7.34301e-10
1.82552e-10
-9.21358e-11
-2.74959e-10
-1.97282e-10
-1.12825e-10
-5.8931e-11
-6.06395e-11
-4.3721e-11
-4.76612e-11
-2.76899e-11
-3.39995e-11
-1.55814e-11
-2.08747e-11
-3.57955e-12
-1.56665e-11
-2.79153e-13
-8.10212e-12
9.67085e-12
-2.68492e-12
1.26191e-11
1.87525e-12
1.93091e-11
7.9276e-12
2.44745e-11
1.02314e-11
2.62874e-11
1.34275e-11
3.16491e-11
1.89068e-11
3.63271e-11
1.80404e-11
3.46844e-11
1.82043e-11
3.89824e-11
1.92425e-11
4.38543e-11
2.03056e-11
7.77109e-11
-1.64802e-14
-2.67845e-11
-4.81225e-12
4.00693e-11
1.3089e-11
3.70096e-11
7.37075e-12
4.34418e-11
3.5496e-12
5.08325e-11
-1.91076e-12
6.36798e-11
-2.69883e-11
5.68391e-11
-9.41641e-11
1.29275e-10
9.17206e-11
-1.44578e-09
8.99019e-10
1.22322e-09
-1.59285e-09
-8.57729e-10
2.46572e-10
-2.91121e-11
-2.60872e-10
-2.00163e-10
-1.131e-10
-5.7619e-11
-6.01781e-11
-4.47811e-11
-4.90003e-11
-2.92945e-11
-3.52964e-11
-1.70629e-11
-2.19836e-11
-4.6911e-12
-1.63761e-11
-1.31528e-12
-8.87831e-12
8.80266e-12
-3.17063e-12
1.1853e-11
1.38102e-12
1.87036e-11
7.64289e-12
2.40266e-11
1.00276e-11
2.58488e-11
1.3165e-11
3.13172e-11
1.87682e-11
3.61795e-11
1.79639e-11
3.44888e-11
1.79411e-11
3.88922e-11
1.9208e-11
4.37311e-11
2.0922e-11
6.97907e-11
-7.34478e-13
-1.78875e-11
-4.78831e-12
4.07903e-11
1.25797e-11
3.82733e-11
5.99877e-12
4.50857e-11
1.6799e-12
5.32097e-11
-4.49632e-12
6.7269e-11
-2.96265e-11
6.16304e-11
-9.66759e-11
1.36306e-10
1.16732e-10
-1.51209e-09
1.00065e-09
1.33585e-09
-1.7533e-09
-9.83409e-10
2.99473e-10
3.47666e-11
-2.43386e-10
-2.02698e-10
-1.14192e-10
-5.67271e-11
-5.97354e-11
-4.58405e-11
-5.03721e-11
-3.09901e-11
-3.6652e-11
-1.86188e-11
-2.3145e-11
-5.8928e-12
-1.71235e-11
-2.39555e-12
-9.68289e-12
7.86035e-12
-3.68703e-12
1.10442e-11
8.69534e-13
1.8044e-11
7.34374e-12
2.3532e-11
9.82069e-12
2.53776e-11
1.29067e-11
3.09402e-11
1.86367e-11
3.59747e-11
1.79139e-11
3.42396e-11
1.77399e-11
3.86721e-11
1.93558e-11
4.31958e-11
2.14831e-11
5.71063e-11
4.20941e-12
-8.43028e-13
-3.75336e-12
4.10819e-11
1.21063e-11
3.93878e-11
4.82286e-12
4.64058e-11
1.69561e-13
5.50684e-11
-6.4056e-12
6.99336e-11
-3.10151e-11
6.49868e-11
-9.69572e-11
1.40812e-10
1.41015e-10
-1.56616e-09
1.08284e-09
1.43865e-09
-1.88357e-09
-1.10621e-09
3.38891e-10
9.7314e-11
-2.22503e-10
-2.04581e-10
-1.16176e-10
-5.64005e-11
-5.93581e-11
-4.68926e-11
-5.17686e-11
-3.27737e-11
-3.80659e-11
-2.0246e-11
-2.43552e-11
-7.18006e-12
-1.79083e-11
-3.51777e-12
-1.05121e-11
6.84717e-12
-4.23423e-12
1.01935e-11
3.43654e-13
1.73314e-11
7.0311e-12
2.29909e-11
9.61266e-12
2.48733e-11
1.26566e-11
3.05166e-11
1.85153e-11
3.57107e-11
1.78912e-11
3.3939e-11
1.75865e-11
3.83613e-11
1.95425e-11
4.25601e-11
2.13898e-11
4.89431e-11
1.16986e-11
9.78331e-12
-3.00847e-12
4.09953e-11
1.17042e-11
4.03018e-11
3.94229e-12
4.73299e-11
-8.97687e-13
5.63026e-11
-7.52554e-12
7.15452e-11
-3.10261e-11
6.68072e-11
-9.49695e-11
1.42939e-10
1.63861e-10
-1.60477e-09
1.14206e-09
1.52646e-09
-1.97862e-09
-1.22128e-09
3.63004e-10
1.56386e-10
-1.98372e-10
-2.05502e-10
-1.19078e-10
-5.67711e-11
-5.90989e-11
-4.79336e-11
-5.31814e-11
-3.46412e-11
-3.95376e-11
-2.19425e-11
-2.56106e-11
-8.54723e-12
-1.87293e-11
-4.6804e-12
-1.13628e-11
5.76722e-12
-4.81179e-12
9.30093e-12
-1.94245e-13
1.65666e-11
6.70618e-12
2.24045e-11
9.40564e-12
2.43347e-11
1.24181e-11
3.00442e-11
1.84079e-11
3.5385e-11
1.79026e-11
3.35777e-11
1.75031e-11
3.79358e-11
1.98177e-11
4.17583e-11
2.13451e-11
4.36566e-11
1.42953e-11
1.86075e-11
-1.06276e-12
4.08998e-11
1.14469e-11
4.09737e-11
3.4141e-12
4.78055e-11
-1.4216e-12
5.68341e-11
-7.73451e-12
7.20211e-11
-2.95862e-11
6.70574e-11
-9.07488e-11
1.42959e-10
1.8469e-10
-1.62549e-09
1.17551e-09
1.59483e-09
-2.03478e-09
-1.32431e-09
3.70745e-10
2.10074e-10
-1.71314e-10
-2.0519e-10
-1.22871e-10
-5.79472e-11
-5.90132e-11
-4.89621e-11
-5.46013e-11
-3.65874e-11
-4.10655e-11
-2.37052e-11
-2.69085e-11
-9.98837e-12
-1.95848e-11
-5.88148e-12
-1.22325e-11
4.62469e-12
-5.41876e-12
8.36721e-12
-7.41999e-13
1.57512e-11
6.36999e-12
2.17739e-11
9.20156e-12
2.37615e-11
1.21941e-11
2.95227e-11
1.83162e-11
3.49981e-11
1.79481e-11
3.31576e-11
1.74803e-11
3.74104e-11
2.01646e-11
4.08608e-11
2.14252e-11
3.99673e-11
1.61168e-11
2.55817e-11
1.15067e-12
4.06865e-11
1.13365e-11
4.13337e-11
3.2668e-12
4.77922e-11
-1.36856e-12
5.66199e-11
-7.00578e-12
7.1337e-11
-2.66897e-11
6.57711e-11
-8.43789e-11
1.41e-10
2.03174e-10
-1.62661e-09
1.18104e-09
1.63988e-09
-2.04973e-09
-1.41172e-09
3.61821e-10
2.56869e-10
-1.41828e-10
-2.03472e-10
-1.27501e-10
-6.00145e-11
-5.91578e-11
-4.99804e-11
-5.60208e-11
-3.8606e-11
-4.26474e-11
-2.55301e-11
-2.82475e-11
-1.14977e-11
-2.04719e-11
-7.1186e-12
-1.31201e-11
3.42354e-12
-6.05354e-12
7.3934e-12
-1.29831e-12
1.48877e-11
6.02288e-12
2.11004e-11
9.00236e-12
2.31545e-11
1.19865e-11
2.89535e-11
1.82395e-11
3.45523e-11
1.80262e-11
3.26852e-11
1.7504e-11
3.68121e-11
2.04888e-11
3.99973e-11
2.1485e-11
3.75093e-11
1.71209e-11
3.07417e-11
3.54343e-12
4.03838e-11
1.1425e-11
4.13567e-11
3.52815e-12
4.72777e-11
-7.15776e-13
5.56593e-11
-5.34477e-12
6.95252e-11
-2.23917e-11
6.3058e-11
-7.59468e-11
1.36971e-10
2.19496e-10
-1.60609e-09
1.15694e-09
1.65914e-09
-2.02232e-09
-1.48094e-09
3.36606e-10
2.95824e-10
-1.10512e-10
-2.0028e-10
-1.32918e-10
-6.30518e-11
-5.95967e-11
-5.09996e-11
-5.74392e-11
-4.06961e-11
-4.42854e-11
-2.74161e-11
-2.96304e-11
-1.30724e-11
-2.13888e-11
-8.38972e-12
-1.40268e-11
2.16597e-12
-6.71478e-12
6.38016e-12
-1.86344e-12
1.39778e-11
5.66431e-12
2.03849e-11
8.80967e-12
2.25151e-11
1.17962e-11
2.83388e-11
1.81765e-11
3.40491e-11
1.81369e-11
3.21648e-11
1.75669e-11
3.61523e-11
2.07968e-11
3.91804e-11
2.15166e-11
3.59133e-11
1.76499e-11
3.4439e-11
6.07232e-12
4.00069e-11
1.17505e-11
4.10368e-11
4.20285e-12
4.62737e-11
5.32345e-13
5.39912e-11
-2.795e-12
6.6669e-11
-1.68064e-11
5.90825e-11
-6.54455e-11
1.30435e-10
2.3413e-10
-1.56308e-09
1.10194e-09
1.65152e-09
-1.95208e-09
-1.53076e-09
2.95801e-10
3.26508e-10
-7.7902e-11
-1.95583e-10
-1.39064e-10
-6.71365e-11
-6.03975e-11
-5.20349e-11
-5.88561e-11
-4.28608e-11
-4.59821e-11
-2.93656e-11
-3.10608e-11
-1.47123e-11
-2.23321e-11
-9.69406e-12
-1.49528e-11
8.52211e-13
-7.39913e-12
5.32651e-12
-2.43713e-12
1.30211e-11
5.29471e-12
1.96272e-11
8.62651e-12
2.18432e-11
1.16245e-11
2.7679e-11
1.81263e-11
3.34897e-11
1.82815e-11
3.15999e-11
1.76624e-11
3.54385e-11
2.10933e-11
3.83933e-11
2.15471e-11
3.48925e-11
1.79751e-11
3.69588e-11
8.66822e-12
3.95423e-11
1.23278e-11
4.03741e-11
5.27402e-12
4.48028e-11
2.34375e-12
5.16734e-11
5.6751e-13
6.29297e-11
-1.00681e-11
5.3926e-11
-5.26728e-11
1.20568e-10
2.47513e-10
-1.49661e-09
1.01508e-09
3.22861e-10
2.33634e-10
-1.47357e-10
-4.10418e-10
-3.87799e-10
-2.93433e-10
-1.83927e-10
-1.26396e-10
-7.24906e-11
-6.08703e-11
-3.36372e-11
-3.60812e-11
-1.61494e-11
-2.35601e-11
-4.81395e-12
-1.29727e-11
2.46541e-12
-9.77447e-12
7.761e-12
-2.0762e-12
1.45057e-11
1.38212e-12
1.81563e-11
5.72928e-12
2.27788e-11
1.01785e-11
2.66274e-11
1.22366e-11
2.91721e-11
1.56615e-11
3.31682e-11
1.99494e-11
3.55306e-11
1.92352e-11
3.5382e-11
2.09313e-11
3.67403e-11
2.23467e-11
3.66766e-11
2.11832e-11
3.43503e-11
2.14906e-11
3.27611e-11
1.90112e-11
2.93995e-11
1.61919e-11
2.59149e-11
1.84927e-11
2.48519e-11
2.11057e-11
2.36311e-11
2.69916e-11
1.53064e-11
1.85236e-11
-1.83924e-11
-4.65277e-12
-7.30675e-11
-1.60427e-10
-6.20091e-10
-1.30183e-10
3.41993e-10
2.43463e-10
-1.51815e-10
-4.14559e-10
-3.89662e-10
-2.93769e-10
-1.84099e-10
-1.26452e-10
-7.2715e-11
-6.10173e-11
-3.38876e-11
-3.6193e-11
-1.63628e-11
-2.36382e-11
-4.98437e-12
-1.29989e-11
2.31448e-12
-9.80528e-12
7.62339e-12
-2.06363e-12
1.43819e-11
1.39254e-12
1.80391e-11
5.7669e-12
2.26731e-11
1.02257e-11
2.65231e-11
1.2284e-11
2.90707e-11
1.57273e-11
3.30777e-11
2.00286e-11
3.54349e-11
1.9299e-11
3.52872e-11
2.10218e-11
3.66577e-11
2.24427e-11
3.66e-11
2.12707e-11
3.42554e-11
2.15203e-11
3.26609e-11
1.91268e-11
2.93638e-11
1.63127e-11
2.58977e-11
1.86496e-11
2.48793e-11
2.12606e-11
2.37497e-11
2.71955e-11
1.555e-11
1.86775e-11
-1.7945e-11
-4.23615e-12
-7.01725e-11
-1.57172e-10
-6.33264e-10
-1.40344e-10
3.65584e-10
2.5258e-10
-1.57106e-10
-4.19198e-10
-3.92009e-10
-2.9441e-10
-1.84257e-10
-1.26584e-10
-7.28625e-11
-6.12761e-11
-3.41198e-11
-3.6439e-11
-1.65415e-11
-2.38467e-11
-5.12387e-12
-1.3133e-11
2.2394e-12
-9.94783e-12
7.53178e-12
-2.15862e-12
1.43348e-11
1.29622e-12
1.79898e-11
5.70612e-12
2.26457e-11
1.01741e-11
2.65095e-11
1.22322e-11
2.90544e-11
1.56983e-11
3.30737e-11
2.00147e-11
3.54472e-11
1.92659e-11
3.52812e-11
2.1024e-11
3.6675e-11
2.2452e-11
3.66334e-11
2.12817e-11
3.42462e-11
2.1423e-11
3.26187e-11
1.91549e-11
2.94617e-11
1.63922e-11
2.59832e-11
1.87786e-11
2.50297e-11
2.13927e-11
2.3924e-11
2.73761e-11
1.59096e-11
1.89094e-11
-1.74076e-11
-4.10547e-12
-6.67247e-11
-1.48969e-10
-6.53253e-10
-1.51793e-10
3.92247e-10
2.58635e-10
-1.62301e-10
-4.23535e-10
-3.95406e-10
-2.95376e-10
-1.844e-10
-1.26636e-10
-7.29264e-11
-6.15529e-11
-3.43879e-11
-3.6748e-11
-1.67503e-11
-2.4115e-11
-5.29849e-12
-1.33065e-11
2.1771e-12
-1.01344e-11
7.4137e-12
-2.29312e-12
1.42992e-11
1.16507e-12
1.79356e-11
5.61675e-12
2.26291e-11
1.00977e-11
2.65179e-11
1.21542e-11
2.90497e-11
1.56455e-11
3.30883e-11
1.99831e-11
3.55021e-11
1.92086e-11
3.52917e-11
2.10047e-11
3.67304e-11
2.24412e-11
3.67222e-11
2.12783e-11
3.42786e-11
2.12484e-11
3.2567e-11
1.9128e-11
2.96613e-11
1.64636e-11
2.61498e-11
1.88829e-11
2.53115e-11
2.14734e-11
2.42692e-11
2.74735e-11
1.65536e-11
1.89711e-11
-1.65014e-11
-4.61949e-12
-6.14025e-11
-1.37236e-10
-6.78564e-10
-1.62351e-10
4.18023e-10
2.56892e-10
-1.66162e-10
-4.25106e-10
-3.98957e-10
-2.96629e-10
-1.84507e-10
-1.26544e-10
-7.28936e-11
-6.18348e-11
-3.47326e-11
-3.71336e-11
-1.70315e-11
-2.44519e-11
-5.54722e-12
-1.35178e-11
2.09505e-12
-1.03578e-11
7.23599e-12
-2.458e-12
1.42483e-11
1.01348e-12
1.78464e-11
5.51157e-12
2.25973e-11
1.00135e-11
2.65234e-11
1.20683e-11
2.90286e-11
1.55847e-11
3.30968e-11
1.99536e-11
3.55773e-11
1.91474e-11
3.52919e-11
2.09789e-11
3.68025e-11
2.24266e-11
3.68502e-11
2.12781e-11
3.43456e-11
2.1013e-11
3.24647e-11
1.90416e-11
2.99558e-11
1.65297e-11
2.63914e-11
1.89402e-11
2.57353e-11
2.14577e-11
2.47922e-11
2.74004e-11
1.75587e-11
1.87039e-11
-1.50473e-11
-6.08435e-12
-5.38617e-11
-1.23392e-10
-7.0752e-10
-1.67832e-10
4.40879e-10
2.41052e-10
-1.68678e-10
-4.21281e-10
-4.01716e-10
-2.98103e-10
-1.84556e-10
-1.26253e-10
-7.27288e-11
-6.21103e-11
-3.51646e-11
-3.7611e-11
-1.7403e-11
-2.48702e-11
-5.88704e-12
-1.37852e-11
1.9791e-12
-1.06232e-11
6.98711e-12
-2.6629e-12
1.41723e-11
8.3893e-13
1.7713e-11
5.38474e-12
2.25434e-11
9.91875e-12
2.65191e-11
1.19739e-11
2.89839e-11
1.55128e-11
3.30942e-11
1.9924e-11
3.5668e-11
1.90841e-11
3.52767e-11
2.09414e-11
3.68885e-11
2.24048e-11
3.7018e-11
2.1282e-11
3.44596e-11
2.07096e-11
3.22879e-11
1.88763e-11
3.03511e-11
1.65803e-11
2.67154e-11
1.89157e-11
2.63176e-11
2.1296e-11
2.55276e-11
2.70699e-11
1.89979e-11
1.79552e-11
-1.2867e-11
-8.78847e-12
-4.38927e-11
-1.08642e-10
-7.39558e-10
-1.62777e-10
4.61272e-10
2.05056e-10
-1.71252e-10
-4.09741e-10
-4.02511e-10
-2.99695e-10
-1.84548e-10
-1.25711e-10
-7.23922e-11
-6.23584e-11
-3.56807e-11
-3.81839e-11
-1.78729e-11
-2.53751e-11
-6.32659e-12
-1.41194e-11
1.81752e-12
-1.09328e-11
6.66121e-12
-2.91712e-12
1.4062e-11
6.39025e-13
1.75293e-11
5.23002e-12
2.24622e-11
9.80991e-12
2.64991e-11
1.18695e-11
2.89108e-11
1.54259e-11
3.3077e-11
1.98903e-11
3.57689e-11
1.90195e-11
3.52439e-11
2.08864e-11
3.69867e-11
2.23715e-11
3.72267e-11
2.12896e-11
3.46385e-11
2.03254e-11
3.20141e-11
1.86151e-11
3.08535e-11
1.66028e-11
2.71349e-11
1.87732e-11
2.70777e-11
2.09398e-11
2.65274e-11
2.63926e-11
2.09506e-11
1.65741e-11
-9.77969e-12
-1.29573e-11
-3.13682e-11
-9.38095e-11
-7.75341e-10
-1.42172e-10
4.81476e-10
1.44011e-10
-1.76288e-10
-3.88609e-10
-4.00087e-10
-3.01285e-10
-1.84518e-10
-1.24884e-10
-7.18508e-11
-6.2557e-11
-3.62735e-11
-3.8849e-11
-1.84451e-11
-2.59658e-11
-6.86989e-12
-1.45266e-11
1.5984e-12
-1.12852e-11
6.25506e-12
-3.22566e-12
1.3907e-11
4.13383e-13
1.72898e-11
5.04374e-12
2.23477e-11
9.68584e-12
2.64558e-11
1.17553e-11
2.88047e-11
1.53221e-11
3.30412e-11
1.98512e-11
3.58721e-11
1.89558e-11
3.51915e-11
2.08099e-11
3.70936e-11
2.23244e-11
3.74752e-11
2.1301e-11
3.49031e-11
1.98425e-11
3.16207e-11
1.82471e-11
3.14683e-11
1.65824e-11
2.76647e-11
1.84783e-11
2.80347e-11
2.03428e-11
2.78372e-11
2.52908e-11
2.34897e-11
1.44421e-11
-5.64367e-12
-1.86977e-11
-1.63822e-11
-7.92378e-11
-8.16144e-10
-1.02394e-10
5.05229e-10
5.4672e-11
-1.86975e-10
-3.56661e-10
-3.9314e-10
-3.02723e-10
-1.84536e-10
-1.23761e-10
-7.10823e-11
-6.2688e-11
-3.69359e-11
-3.96005e-11
-1.91207e-11
-2.66384e-11
-7.51735e-12
-1.50093e-11
1.31157e-12
-1.16775e-11
5.76851e-12
-3.5904e-12
1.36978e-11
1.62726e-13
1.69911e-11
4.82403e-12
2.21942e-11
9.5465e-12
2.63822e-11
1.1632e-11
2.86617e-11
1.52007e-11
3.29827e-11
1.98056e-11
3.59694e-11
1.88942e-11
3.51186e-11
2.07091e-11
3.72052e-11
2.22617e-11
3.77618e-11
2.13159e-11
3.52772e-11
1.92412e-11
3.10887e-11
1.77644e-11
3.21998e-11
1.65031e-11
2.83204e-11
1.80011e-11
2.92053e-11
1.9466e-11
2.94909e-11
2.36945e-11
2.66605e-11
1.14975e-11
-4.01669e-13
-2.5958e-11
7.65377e-13
-6.48766e-11
-8.63577e-10
-4.15038e-11
5.3636e-10
-6.40883e-11
-2.06539e-10
-3.13418e-10
-3.80484e-10
-3.03828e-10
-1.84706e-10
-1.22357e-10
-7.00764e-11
-6.27389e-11
-3.76616e-11
-4.04325e-11
-1.98997e-11
-2.7388e-11
-8.26701e-12
-1.55676e-11
9.48398e-13
-1.21066e-11
5.20405e-12
-4.01115e-12
1.34267e-11
-1.11998e-13
1.66322e-11
4.57023e-12
2.19975e-11
9.39217e-12
2.62725e-11
1.15001e-11
2.84802e-11
1.50616e-11
3.28986e-11
1.9753e-11
3.60532e-11
1.88351e-11
3.50261e-11
2.05819e-11
3.73175e-11
2.2182e-11
3.80834e-11
2.13344e-11
3.57871e-11
1.85007e-11
3.0407e-11
1.71645e-11
3.30496e-11
1.63491e-11
2.91146e-11
1.73204e-11
3.05969e-11
1.82849e-11
3.15076e-11
2.1585e-11
3.04639e-11
7.74972e-12
5.90293e-12
-3.45263e-11
1.94792e-11
-5.03015e-11
-9.18695e-10
4.04684e-11
5.78387e-10
-2.11163e-10
-2.37953e-10
-2.59248e-10
-3.61137e-10
-3.04368e-10
-1.85144e-10
-1.20723e-10
-6.88376e-11
-6.27036e-11
-3.84465e-11
-4.13408e-11
-2.07825e-11
-2.82109e-11
-9.11673e-12
-1.6201e-11
5.01973e-13
-1.25699e-11
4.56537e-12
-4.48643e-12
1.30874e-11
-4.10143e-13
1.62137e-11
4.28238e-12
2.17538e-11
9.22311e-12
2.61225e-11
1.136e-11
2.82599e-11
1.49046e-11
3.27865e-11
1.96925e-11
3.61175e-11
1.87781e-11
3.49156e-11
2.04272e-11
3.74267e-11
2.20842e-11
3.84351e-11
2.13557e-11
3.64563e-11
1.76e-11
2.95709e-11
1.64519e-11
3.40136e-11
1.61077e-11
3.00524e-11
1.64279e-11
3.22047e-11
1.67946e-11
3.38812e-11
1.89777e-11
3.48475e-11
3.28803e-12
1.31161e-11
-4.40334e-11
3.90011e-11
-3.48623e-11
-9.81896e-10
1.41504e-10
6.33564e-10
-3.83335e-10
-2.83415e-10
-1.95347e-10
-3.34424e-10
-3.04076e-10
-1.85968e-10
-1.18942e-10
-6.73854e-11
-6.25811e-11
-3.92884e-11
-4.23226e-11
-2.17701e-11
-2.91051e-11
-1.00647e-11
-1.69084e-11
-3.37433e-14
-1.30666e-11
3.85653e-12
-5.01414e-12
1.26753e-11
-7.31941e-13
1.57369e-11
3.96093e-12
2.14606e-11
9.03947e-12
2.59294e-11
1.12116e-11
2.80018e-11
1.47301e-11
3.26447e-11
1.96236e-11
3.6158e-11
1.87221e-11
3.47897e-11
2.02447e-11
3.75287e-11
2.19674e-11
3.88103e-11
2.13751e-11
3.73049e-11
1.65394e-11
2.85832e-11
1.56373e-11
3.50797e-11
1.57718e-11
3.11294e-11
1.53296e-11
3.40075e-11
1.50102e-11
3.65741e-11
1.59315e-11
3.97054e-11
-1.71952e-12
2.09913e-11
-5.39975e-11
5.84414e-11
-1.79536e-11
-1.05247e-09
2.57932e-10
7.03363e-10
-5.75763e-10
-3.44544e-10
-1.23746e-10
-2.99982e-10
-3.02557e-10
-1.87262e-10
-1.17128e-10
-6.57548e-11
-6.2373e-11
-4.01837e-11
-4.33747e-11
-2.28629e-11
-3.00684e-11
-1.11085e-11
-1.76881e-11
-6.63085e-13
-1.35964e-11
3.08194e-12
-5.59159e-12
1.21868e-11
-1.07814e-12
1.52041e-11
3.60684e-12
2.11156e-11
8.84115e-12
2.56919e-11
1.10547e-11
2.77073e-11
1.45387e-11
3.2472e-11
1.95458e-11
3.61714e-11
1.86657e-11
3.46503e-11
2.00356e-11
3.76187e-11
2.18321e-11
3.91985e-11
2.13862e-11
3.83399e-11
1.53408e-11
2.7465e-11
1.4739e-11
3.62272e-11
1.53433e-11
3.23293e-11
1.40469e-11
3.59641e-11
1.29847e-11
3.95155e-11
1.25474e-11
4.48834e-11
-7.04397e-12
2.9214e-11
-6.38873e-11
7.70667e-11
7.37571e-13
-1.12916e-09
3.85395e-10
7.87702e-10
-7.82273e-10
-4.21685e-10
-4.70455e-11
-2.57843e-10
-2.99302e-10
-1.89076e-10
-1.15422e-10
-6.39994e-11
-6.20836e-11
-4.11266e-11
-4.44931e-11
-2.40599e-11
-3.10988e-11
-1.2245e-11
-1.85378e-11
-1.38919e-12
-1.41599e-11
2.24627e-12
-6.2156e-12
1.16199e-11
-1.44997e-12
1.4618e-11
3.22169e-12
2.07177e-11
8.62773e-12
2.5409e-11
1.08887e-11
2.73782e-11
1.43318e-11
3.22677e-11
1.94589e-11
3.61546e-11
1.86079e-11
3.44992e-11
1.98034e-11
3.76912e-11
2.16804e-11
3.95839e-11
2.13793e-11
3.95379e-11
1.40776e-11
2.62802e-11
1.37812e-11
3.74229e-11
1.4835e-11
3.36257e-11
1.26184e-11
3.80203e-11
1.0786e-11
4.26076e-11
8.96468e-12
5.01877e-11
-1.24114e-11
3.74271e-11
-7.31592e-11
9.41591e-11
2.1327e-11
-1.2099e-09
5.1989e-10
8.85296e-10
-9.95748e-10
-5.14013e-10
3.16626e-11
-2.08525e-10
-2.93922e-10
-1.91392e-10
-1.13979e-10
-6.21929e-11
-6.1721e-11
-4.21102e-11
-4.5673e-11
-2.53597e-11
-3.21945e-11
-1.34707e-11
-1.94546e-11
-2.21308e-12
-1.4758e-11
1.35383e-12
-6.88271e-12
1.09737e-11
-1.84874e-12
1.39815e-11
2.80738e-12
2.0266e-11
8.39858e-12
2.50806e-11
1.07137e-11
2.70166e-11
1.41111e-11
3.20307e-11
1.93627e-11
3.61051e-11