/*--------------------------------*- C++ -*----------------------------------*\
| =========                 |                                                 |
| \\      /  F ield         | OpenFOAM: The Open Source CFD Toolbox           |
|  \\    /   O peration     | Version:  2312                                  |
|   \\  /    A nd           | Website:  www.openfoam.com                      |
|    \\/     M anipulation  |                                                 |
\*---------------------------------------------------------------------------*/
FoamFile
{
    version     2.0;
    format      ascii;
    arch        "LSB;label=32;scalar=64";
    class       volScalarField;
    location    "440";
    object      pMean;
}
// * * * * * * * * * * * * * * * * * * * * * * * * * * * * * * * * * * * * * //

dimensions      [0 2 -2 0 0 0 0];

internalField   nonuniform List<scalar> 
144000
(
1.08804e-09
4.91689e-10
-6.06072e-10
-1.05317e-09
-8.60274e-10
-5.66148e-10
-3.0291e-10
-1.60393e-10
-3.99363e-11
-6.49833e-12
4.62308e-11
4.09931e-11
7.48273e-11
5.67276e-11
8.60494e-11
6.41952e-11
8.8693e-11
5.84501e-11
8.47852e-11
5.73149e-11
8.46697e-11
5.22647e-11
8.076e-11
4.89539e-11
7.96706e-11
4.69107e-11
7.80848e-11
4.15641e-11
7.44709e-11
3.84123e-11
7.40679e-11
3.75922e-11
7.25751e-11
3.03221e-11
6.69597e-11
2.63399e-11
6.50204e-11
2.34331e-11
6.19373e-11
1.72277e-11
5.58101e-11
1.34743e-11
5.37431e-11
7.59908e-12
4.64133e-11
-2.22303e-13
3.83683e-11
-7.26713e-13
3.53346e-11
2.75395e-12
3.34622e-11
1.71052e-11
2.90045e-11
3.0349e-11
1.7656e-13
5.22514e-11
3.02802e-12
1.20076e-10
-1.46487e-09
-3.52309e-10
1.13066e-09
5.18064e-10
-6.17084e-10
-1.06175e-09
-8.62814e-10
-5.66209e-10
-3.03143e-10
-1.60725e-10
-4.05407e-11
-7.03518e-12
4.56203e-11
4.05902e-11
7.43579e-11
5.64483e-11
8.56871e-11
6.40431e-11
8.83989e-11
5.83073e-11
8.45153e-11
5.72652e-11
8.44463e-11
5.22232e-11
8.0545e-11
4.89706e-11
7.9482e-11
4.69574e-11
7.79032e-11
4.16133e-11
7.42864e-11
3.84952e-11
7.38989e-11
3.77096e-11
7.24028e-11
3.0422e-11
6.67705e-11
2.64904e-11
6.48443e-11
2.36042e-11
6.17557e-11
1.73895e-11
5.55326e-11
1.35621e-11
5.3441e-11
7.84612e-12
4.62107e-11
7.42392e-14
3.81443e-11
-3.36627e-13
3.51353e-11
3.17672e-12
3.32894e-11
1.76124e-11
2.89138e-11
3.07774e-11
7.63404e-14
5.18969e-11
7.59067e-12
1.36631e-10
-1.49066e-09
-3.88874e-10
1.18884e-09
5.23344e-10
-6.35082e-10
-1.06386e-09
-8.628e-10
-5.65332e-10
-3.02687e-10
-1.60853e-10
-4.08932e-11
-7.7973e-12
4.4952e-11
3.98586e-11
7.38707e-11
5.58487e-11
8.53224e-11
6.36233e-11
8.82082e-11
5.79038e-11
8.43072e-11
5.69651e-11
8.43605e-11
5.19418e-11
8.04576e-11
4.87535e-11
7.94588e-11
4.67752e-11
7.79114e-11
4.14241e-11
7.42815e-11
3.83403e-11
7.39284e-11
3.75985e-11
7.2477e-11
3.02737e-11
6.67942e-11
2.63945e-11
6.49163e-11
2.35295e-11
6.18427e-11
1.7316e-11
5.54712e-11
1.33123e-11
5.33285e-11
7.77862e-12
4.63309e-11
1.43156e-13
3.82055e-11
-1.7832e-13
3.5269e-11
3.35465e-12
3.34133e-11
1.78355e-11
2.92178e-11
3.08698e-11
6.44708e-13
4.91997e-11
1.20752e-11
1.63808e-10
-1.53612e-09
-4.12983e-10
1.24937e-09
4.84374e-10
-6.54823e-10
-1.05223e-09
-8.59421e-10
-5.63566e-10
-3.01362e-10
-1.60248e-10
-4.07745e-11
-8.47149e-12
4.41714e-11
3.89323e-11
7.32277e-11
5.50818e-11
8.48031e-11
6.30784e-11
8.79594e-11
5.73806e-11
8.39737e-11
5.65639e-11
8.42345e-11
5.15792e-11
8.02978e-11
4.84683e-11
7.93966e-11
4.65513e-11
7.79151e-11
4.11893e-11
7.42425e-11
3.81426e-11
7.39405e-11
3.74668e-11
7.25843e-11
3.00983e-11
6.67932e-11
2.6269e-11
6.50003e-11
2.34448e-11
6.19669e-11
1.72614e-11
5.5383e-11
1.29892e-11
5.31214e-11
7.57681e-12
4.65229e-11
2.16123e-13
3.83047e-11
-5.99884e-14
3.55422e-11
3.4152e-12
3.37502e-11
1.77518e-11
3.01786e-11
3.00451e-11
2.79897e-12
4.22405e-11
2.27812e-11
1.88427e-10
-1.59488e-09
-4.00551e-10
1.30216e-09
3.80263e-10
-6.73107e-10
-1.01539e-09
-8.50311e-10
-5.61532e-10
-2.99601e-10
-1.5885e-10
-4.01149e-11
-8.99185e-12
4.32463e-11
3.78334e-11
7.23764e-11
5.41495e-11
8.40711e-11
6.24195e-11
8.7595e-11
5.6759e-11
8.34577e-11
5.60752e-11
8.40122e-11
5.11664e-11
8.00021e-11
4.81404e-11
7.92397e-11
4.63166e-11
7.78526e-11
4.09503e-11
7.41028e-11
3.79367e-11
7.38713e-11
3.73636e-11
7.26614e-11
2.99497e-11
6.66958e-11
2.61604e-11
6.50314e-11
2.34017e-11
6.20666e-11
1.73058e-11
5.52044e-11
1.27233e-11
5.26918e-11
7.24376e-12
4.66899e-11
3.76939e-13
3.83642e-11
3.25587e-14
3.58991e-11
3.32869e-12
3.43339e-11
1.72055e-11
3.19917e-11
2.78741e-11
7.21124e-12
3.03922e-11
4.16864e-11
2.03998e-10
-1.66345e-09
-3.32847e-10
1.34892e-09
1.99901e-10
-6.9254e-10
-9.47889e-10
-8.32816e-10
-5.59976e-10
-2.98007e-10
-1.56855e-10
-3.90133e-11
-9.40093e-12
4.21303e-11
3.65321e-11
7.12928e-11
5.30401e-11
8.31163e-11
6.16309e-11
8.71026e-11
5.60547e-11
8.27595e-11
5.54997e-11
8.36821e-11
5.07139e-11
7.95683e-11
4.77691e-11
7.89808e-11
4.60764e-11
7.7714e-11
4.07166e-11
7.38523e-11
3.7729e-11
7.37125e-11
3.72913e-11
7.26892e-11
2.98408e-11
6.64899e-11
2.60681e-11
6.4994e-11
2.34087e-11
6.2128e-11
1.74838e-11
5.49316e-11
1.25449e-11
5.19625e-11
6.7248e-12
4.67891e-11
6.31973e-13
3.83859e-11
6.91621e-14
3.63599e-11
3.01977e-12
3.52467e-11
1.60003e-11
3.48955e-11
2.39709e-11
1.44821e-11
1.33524e-11
6.919e-11
2.08881e-10
-1.74436e-09
-2.01051e-10
1.39722e-09
-5.77936e-11
-7.19834e-10
-8.4815e-10
-8.04286e-10
-5.59116e-10
-2.97166e-10
-1.54479e-10
-3.75571e-11
-9.77778e-12
4.07573e-11
3.49754e-11
6.99362e-11
5.17379e-11
8.19259e-11
6.06988e-11
8.64685e-11
5.52768e-11
8.1887e-11
5.48408e-11
8.32417e-11
5.0238e-11
7.90017e-11
4.73623e-11
7.86213e-11
4.5841e-11
7.74924e-11
4.05028e-11
7.34928e-11
3.75291e-11
7.34608e-11
3.72566e-11
7.26584e-11
2.97865e-11
6.61778e-11
2.5998e-11
6.48839e-11
2.34718e-11
6.21527e-11
1.78102e-11
5.46255e-11
1.24768e-11
5.08233e-11
5.95381e-12
4.68256e-11
9.79543e-13
3.83875e-11
-6.72653e-15
3.69535e-11
2.39941e-12
3.65861e-11
1.39865e-11
3.90422e-11
1.81143e-11
2.47408e-11
-8.23937e-12
1.03697e-10
2.04803e-10
-1.83913e-09
-6.43326e-12
1.45405e-09
-3.81657e-10
-7.61209e-10
-7.19037e-10
-7.62755e-10
-5.58798e-10
-2.97556e-10
-1.51936e-10
-3.58216e-11
-1.01745e-11
3.90828e-11
3.31128e-11
6.82554e-11
5.02178e-11
8.04732e-11
5.96025e-11
8.56593e-11
5.44242e-11
8.08416e-11
5.40977e-11
8.26763e-11
4.97466e-11
7.83055e-11
4.69283e-11
7.81587e-11
4.56185e-11
7.71837e-11
4.03221e-11
7.30279e-11
3.73483e-11
7.31161e-11
3.72687e-11
7.2558e-11
2.97986e-11
6.57638e-11
2.59522e-11
6.47031e-11
2.35878e-11
6.21567e-11
1.82875e-11
5.43985e-11
1.24921e-11
4.91182e-11
4.85695e-12
4.68108e-11
1.40101e-12
3.84033e-11
-2.43622e-13
3.77152e-11
1.40221e-12
3.84103e-11
1.10935e-11
4.44125e-11
1.04877e-11
3.75321e-11
-3.27361e-11
1.4157e-10
1.95918e-10
-1.94587e-09
2.36776e-10
1.52506e-09
-7.51618e-10
-8.21696e-10
-5.67436e-10
-7.07202e-10
-5.58415e-10
-2.99573e-10
-1.49482e-10
-3.38945e-11
-1.06215e-11
3.70597e-11
3.09238e-11
6.62263e-11
4.84592e-11
7.87409e-11
5.83207e-11
8.46405e-11
5.34884e-11
7.96175e-11
5.32666e-11
8.19649e-11
4.92378e-11
7.74768e-11
4.64703e-11
7.75865e-11
4.54105e-11
7.67793e-11
4.0182e-11
7.24592e-11
3.7195e-11
7.26803e-11
3.73317e-11
7.23802e-11
2.98828e-11
6.52609e-11
2.59314e-11
6.44585e-11
2.37422e-11
6.21707e-11
1.88988e-11
5.4434e-11
1.25453e-11
4.663e-11
3.37476e-12
4.67799e-11
1.87559e-12
3.84671e-11
-6.72537e-13
3.86581e-11
2.41114e-14
4.07097e-11
7.40128e-12
5.0782e-11
1.57215e-12
5.18676e-11
-5.79195e-11
1.78595e-10
1.87028e-10
-2.06017e-09
5.06462e-10
1.61142e-09
-1.14379e-09
-9.03699e-10
-4.02699e-10
-6.37868e-10
-5.57123e-10
-3.03435e-10
-1.47389e-10
-3.18513e-11
-1.11251e-11
3.47021e-11
2.84145e-11
6.38433e-11
4.6462e-11
7.67257e-11
5.68528e-11
8.33906e-11
5.24601e-11
7.82172e-11
5.23447e-11
8.10916e-11
4.87063e-11
7.65156e-11
4.59864e-11
7.68976e-11
4.52188e-11
7.62694e-11
4.00775e-11
7.17891e-11
3.70696e-11
7.21535e-11
3.74458e-11
7.21165e-11
3.00391e-11
6.46782e-11
2.59322e-11
6.41577e-11
2.39216e-11
6.22218e-11
1.96215e-11
5.49612e-11
1.2537e-11
4.30913e-11
1.46265e-12
4.67741e-11
2.37983e-12
3.86066e-11
-1.29663e-12
3.9769e-11
-1.69247e-12
4.33948e-11
3.12888e-12
5.7743e-11
-7.86302e-12
6.64712e-11
-8.14099e-11
2.10949e-10
1.81768e-10
-2.1746e-09
7.80777e-10
1.70989e-09
-1.53151e-09
-1.00677e-09
-2.35392e-10
-5.56219e-10
-5.53921e-10
-3.09163e-10
-1.45942e-10
-2.98193e-11
-1.16791e-11
3.20336e-11
2.56053e-11
6.11159e-11
4.42374e-11
7.44379e-11
5.51999e-11
8.19017e-11
5.13389e-11
7.66432e-11
5.1334e-11
8.00481e-11
4.81458e-11
7.54224e-11
4.54761e-11
7.60869e-11
4.50363e-11
7.56478e-11
4.00064e-11
7.10228e-11
3.69747e-11
7.15351e-11
3.7607e-11
7.1762e-11
3.02593e-11
6.40283e-11
2.59554e-11
6.38027e-11
2.41031e-11
6.2352e-11
2.04314e-11
5.62655e-11
1.22375e-11
3.81835e-11
-8.94271e-13
4.68295e-11
2.90171e-12
3.88163e-11
-2.08559e-12
4.09874e-11
-3.6506e-12
4.62897e-11
-1.41401e-12
6.47791e-11
-1.69761e-11
8.00317e-11
-1.01152e-10
2.35857e-10
1.8221e-10
-2.28003e-09
1.0387e-09
1.81398e-09
-1.89292e-09
-1.12708e-09
-7.52029e-11
-4.64738e-10
-5.47813e-10
-3.16569e-10
-1.45426e-10
-2.79292e-11
-1.22794e-11
2.90917e-11
2.25265e-11
5.80616e-11
4.1802e-11
7.18872e-11
5.33735e-11
8.0172e-11
5.01257e-11
7.49044e-11
5.02413e-11
7.88291e-11
4.75503e-11
7.42009e-11
4.49385e-11
7.51512e-11
4.48599e-11
7.49115e-11
3.9963e-11
7.01645e-11
3.69081e-11
7.08252e-11
3.78087e-11
7.13178e-11
3.05362e-11
6.33157e-11
2.5999e-11
6.33974e-11
2.42634e-11
6.25962e-11
2.12813e-11
5.88333e-11
1.14355e-11
3.14495e-11
-3.65247e-12
4.69707e-11
3.42237e-12
3.90636e-11
-2.97717e-12
4.22467e-11
-5.71397e-12
4.91712e-11
-5.86198e-12
7.13557e-11
-2.49335e-11
9.14281e-11
-1.15632e-10
2.5179e-10
1.88934e-10
-2.36805e-09
1.26333e-09
1.91577e-09
-2.21003e-09
-1.2587e-09
6.94427e-11
-3.66605e-10
-5.37876e-10
-3.25227e-10
-1.46077e-10
-2.63536e-11
-1.29265e-11
2.59235e-11
1.92163e-11
5.47073e-11
3.91731e-11
6.90943e-11
5.13839e-11
7.82083e-11
4.88244e-11
7.30145e-11
4.90749e-11
7.74362e-11
4.6917e-11
7.28581e-11
4.43766e-11
7.40936e-11
4.4684e-11
7.40638e-11
3.9941e-11
6.92189e-11
3.68667e-11
7.0025e-11
3.80446e-11
7.07804e-11
3.08631e-11
6.25467e-11
2.60648e-11
6.29373e-11
2.43951e-11
6.29502e-11
2.21681e-11
6.32101e-11
9.86541e-12
2.24256e-11
-6.66154e-12
4.72238e-11
3.94719e-12
3.93103e-11
-3.89977e-12
4.34116e-11
-7.70201e-12
5.18035e-11
-9.85012e-12
7.69712e-11
-3.1082e-11
9.98597e-11
-1.24022e-10
2.58432e-10
2.00935e-10
-2.43178e-09
1.44336e-09
2.0072e-09
-2.47097e-09
-1.39476e-09
1.9229e-10
-2.65414e-10
-5.23413e-10
-3.34555e-10
-1.48061e-10
-2.52635e-11
-1.36307e-11
2.25793e-11
1.57197e-11
5.10823e-11
3.63787e-11
6.60842e-11
4.92528e-11
7.60231e-11
4.74429e-11
7.09896e-11
4.78439e-11
7.58748e-11
4.62445e-11
7.14034e-11
4.37943e-11
7.29179e-11
4.45045e-11
7.31084e-11
3.99347e-11
6.81923e-11
3.68491e-11
6.91386e-11
3.8309e-11
7.01467e-11
3.12349e-11
6.17201e-11
2.61678e-11
6.23992e-11
2.45301e-11
6.33174e-11
2.31698e-11
6.97766e-11
6.6195e-12
1.07293e-11
-9.65527e-12
4.76439e-11
4.52728e-12
3.95333e-11
-4.75662e-12
4.43827e-11
-9.43838e-12
5.39663e-11
-1.3048e-11
8.12334e-11
-3.49767e-11
1.04899e-10
-1.2615e-10
2.56537e-10
2.16281e-10
-2.46658e-09
1.57322e-09
2.08045e-09
-2.66878e-09
-1.52775e-09
2.89273e-10
-1.64928e-10
-5.04059e-10
-3.43896e-10
-1.51465e-10
-2.4843e-11
-1.44189e-11
1.91089e-11
1.20801e-11
4.72176e-11
3.34401e-11
6.28794e-11
4.69977e-11
7.36317e-11
4.59873e-11
6.88439e-11
4.65581e-11
7.41556e-11
4.55316e-11
6.98468e-11
4.31945e-11
7.16307e-11
4.43181e-11
7.20502e-11
3.99399e-11
6.70926e-11
3.68543e-11
6.81703e-11
3.85975e-11
6.94175e-11
3.16502e-11
6.08334e-11
2.63231e-11
6.17654e-11
2.47002e-11
6.36085e-11
2.41779e-11
7.98725e-11
4.58112e-13
-4.84141e-12
-1.26952e-11
4.80961e-11
5.16093e-12
3.96896e-11
-5.44364e-12
4.50567e-11
-1.07693e-11
5.54729e-11
-1.52177e-11
8.38875e-11
-3.63967e-11
1.06472e-10
-1.2239e-10
2.47407e-10
2.32788e-10
-2.46975e-09
1.65139e-09
2.12887e-09
-2.80098e-09
-1.65042e-09
3.58494e-10
-6.87846e-11
-4.79802e-10
-3.52556e-10
-1.56298e-10
-2.52773e-11
-1.53354e-11
1.55549e-11
8.33944e-12
4.31436e-11
3.03745e-11
5.95019e-11
4.46361e-11
7.10535e-11
4.44636e-11
6.65918e-11
4.52271e-11
7.22913e-11
4.47785e-11
6.81983e-11
4.25801e-11
7.02403e-11
4.41216e-11
7.08967e-11
3.99539e-11
6.59275e-11
3.68811e-11
6.7126e-11
3.89045e-11
6.85974e-11
3.2102e-11
5.98939e-11
2.65259e-11
6.10501e-11
2.48911e-11
6.38398e-11
2.46042e-11
9.64486e-11
-2.29824e-12
-2.52487e-11
-1.60243e-11
4.80017e-11
5.74218e-12
3.96572e-11
-5.90286e-12
4.53249e-11
-1.1578e-11
5.61848e-11
-1.62068e-11
8.48166e-11
-3.53241e-11
1.04808e-10
-1.13494e-10
2.32812e-10
2.48323e-10
-2.44051e-09
1.68029e-09
2.14692e-09
-2.86936e-09
-1.75603e-09
3.99915e-10
1.98306e-11
-4.50969e-10
-3.59874e-10
-1.62484e-10
-2.6734e-11
-1.6438e-11
1.19544e-11
4.53785e-12
3.88885e-11
2.71981e-11
5.59728e-11
4.21853e-11
6.83087e-11
4.28785e-11
6.42472e-11
4.38594e-11
7.02966e-11
4.39856e-11
6.64668e-11
4.19534e-11
6.87552e-11
4.39124e-11
6.96573e-11
3.99739e-11
6.47052e-11
3.69281e-11
6.60107e-11
3.92279e-11
6.76895e-11
3.25941e-11
5.8888e-11
2.68132e-11
6.01802e-11
2.52948e-11
6.35658e-11
2.49848e-11
1.06542e-10
-3.07147e-14
-3.80394e-11
-1.79579e-11
4.74039e-11
6.35914e-12
3.94438e-11
-6.04177e-12
4.51267e-11
-1.17755e-11
5.60228e-11
-1.59515e-11
8.4033e-11
-3.1905e-11
1.00378e-10
-1.00426e-10
2.14603e-10
2.61031e-10
-2.37954e-09
1.66424e-09
2.13153e-09
-2.87836e-09
-1.83942e-09
4.1502e-10
9.82807e-11
-4.18156e-10
-3.65251e-10
-1.69865e-10
-2.93463e-11
-1.77914e-11
8.33935e-12
7.14157e-13
3.4482e-11
2.39257e-11
5.2313e-11
3.96597e-11
6.54166e-11
4.1239e-11
6.1824e-11
4.24627e-11
6.81855e-11
4.31542e-11
6.46641e-11
4.13168e-11
6.71872e-11
4.36884e-11
6.83406e-11
3.99974e-11
6.34327e-11
3.69953e-11
6.48296e-11
3.95672e-11
6.6692e-11
3.31364e-11
5.77934e-11
2.72397e-11
5.90448e-11
2.61517e-11
6.22009e-11
2.64974e-11
9.39786e-11
1.06997e-12
-2.59183e-11
-1.62896e-11
4.66644e-11
7.19209e-12
3.9104e-11
-5.76128e-12
4.44436e-11
-1.13046e-11
5.49789e-11
-1.44657e-11
8.1667e-11
-2.6431e-11
9.37939e-11
-8.4267e-11
1.94399e-10
2.69472e-10
-2.28927e-09
1.60939e-09
2.08107e-09
-2.83441e-09
-1.89665e-09
4.06449e-10
1.64555e-10
-3.82228e-10
-3.68214e-10
-1.78208e-10
-3.32098e-11
-1.94669e-11
4.73161e-12
-3.09661e-12
2.99527e-11
2.05731e-11
4.8541e-11
3.7072e-11
6.23959e-11
3.95506e-11
5.93347e-11
4.10434e-11
6.59727e-11
4.22856e-11
6.27986e-11
4.0672e-11
6.55457e-11
4.34476e-11
6.69557e-11
4.00222e-11
6.21181e-11
3.70807e-11
6.35907e-11
3.99171e-11
6.56158e-11
3.37144e-11
5.6633e-11
2.77642e-11
5.77381e-11
2.72591e-11
6.02493e-11
2.80215e-11
7.48596e-11
6.42696e-12
-5.16977e-12
-1.28632e-11
4.53564e-11
8.08897e-12
3.85152e-11
-5.07861e-12
4.3246e-11
-1.01756e-11
5.30834e-11
-1.18512e-11
7.79397e-11
-1.92922e-11
8.56952e-11
-6.6104e-11
1.73648e-10
2.72778e-10
-2.17281e-09
1.52245e-09
1.99583e-09
-2.74482e-09
-1.92543e-09
3.77583e-10
2.17376e-10
-3.44197e-10
-3.6846e-10
-1.87262e-10
-3.83829e-11
-2.15431e-11
1.13821e-12
-6.86726e-12
2.53256e-11
1.7149e-11
4.46709e-11
3.44324e-11
5.92656e-11
3.78185e-11
5.67896e-11
3.96062e-11
6.36719e-11
4.13808e-11
6.08786e-11
4.00196e-11
6.38401e-11
4.31887e-11
6.55116e-11
4.00466e-11
6.07685e-11
3.71821e-11
6.23021e-11
4.02733e-11
6.44718e-11
3.43175e-11
5.54282e-11
2.83474e-11
5.63521e-11
2.83945e-11
5.82385e-11
2.88562e-11
6.22525e-11
1.46772e-11
9.60609e-12
-9.39188e-12
4.34504e-11
8.98638e-12
3.76208e-11
-4.00565e-12
4.15461e-11
-8.42493e-12
5.0429e-11
-8.25434e-12
7.31283e-11
-1.09202e-11
7.67458e-11
-4.69266e-11
1.53549e-10
2.7067e-10
-2.03406e-09
1.41015e-09
1.87683e-09
-2.61722e-09
-1.9244e-09
3.32388e-10
2.56112e-10
-3.05198e-10
-3.6587e-10
-1.96751e-10
-4.48783e-11
-2.40971e-11
-2.44684e-12
-1.0577e-11
2.06229e-11
1.36614e-11
4.07148e-11
3.17486e-11
5.60432e-11
3.60478e-11
5.41972e-11
3.81543e-11
6.12967e-11
4.04402e-11
5.89106e-11
3.93593e-11
6.2079e-11
4.2911e-11
6.40174e-11
4.00687e-11
5.93896e-11
3.72974e-11
6.09694e-11
4.06343e-11
6.32668e-11
3.49479e-11
5.41752e-11
2.8998e-11
5.48694e-11
2.95712e-11
5.61276e-11
2.95445e-11
5.40611e-11
1.92468e-11
2.01332e-11
-5.44838e-12
4.15221e-11
1.002e-11
3.6471e-11
-2.53226e-12
3.94085e-11
-6.11448e-12
4.71397e-11
-3.85962e-12
6.75374e-11
-1.74213e-12
6.75334e-11
-2.75859e-11
1.34783e-10
2.63426e-10
-1.8767e-09
1.27833e-09
1.72644e-09
-2.45972e-09
-1.89387e-09
2.74987e-10
2.80909e-10
-2.66327e-10
-3.60481e-10
-2.06399e-10
-5.26556e-11
-2.71916e-11
-6.03474e-12
-1.42098e-11
1.58669e-11
1.01191e-11
3.6684e-11
2.90262e-11
5.27439e-11
3.42429e-11
5.15662e-11
3.66889e-11
5.88589e-11
3.94657e-11
5.69016e-11
3.86902e-11
6.02711e-11
4.26131e-11
6.24818e-11
4.00868e-11
5.79876e-11
3.74235e-11
5.96005e-11
4.09953e-11
6.20124e-11
3.5597e-11
5.28869e-11
2.96961e-11
5.33185e-11
3.07454e-11
5.3997e-11
3.02547e-11
4.82947e-11
2.18787e-11
2.77731e-11
-1.03076e-12
3.97292e-11
1.12141e-11
3.50754e-11
-6.98824e-13
3.69021e-11
-3.33566e-12
4.33596e-11
1.12136e-12
6.14844e-11
7.83513e-12
5.85751e-11
-8.74577e-12
1.17696e-10
2.51592e-10
-1.70451e-09
1.1326e-09
1.54784e-09
-2.28056e-09
-1.83548e-09
2.09558e-10
2.92638e-10
-2.28566e-10
-3.52482e-10
-2.1595e-10
-6.16276e-11
-3.08722e-11
-9.64154e-12
-1.77562e-11
1.10779e-11
6.53015e-12
3.25905e-11
2.62677e-11
4.93822e-11
3.24091e-11
4.8905e-11
3.52092e-11
5.63691e-11
3.84589e-11
5.4858e-11
3.80101e-11
5.84245e-11
4.22928e-11
6.09126e-11
4.00995e-11
5.65697e-11
3.75565e-11
5.82047e-11
4.13489e-11
6.07205e-11
3.62537e-11
5.15827e-11
3.04095e-11
5.1749e-11
3.18456e-11
5.19862e-11
3.09096e-11
4.4171e-11
2.34852e-11
3.32031e-11
3.60201e-12
3.80595e-11
1.25408e-11
3.34415e-11
1.42887e-12
3.4106e-11
-1.94221e-13
3.92611e-11
6.47558e-12
5.52734e-11
1.74441e-11
5.02954e-11
9.10831e-12
1.02279e-10
2.35771e-10
-1.52099e-09
9.78482e-10
1.34549e-09
-2.0883e-09
-1.75242e-09
1.4006e-10
2.92867e-10
-1.92674e-10
-3.42164e-10
-2.25211e-10
-7.17015e-11
-3.51788e-11
-1.32941e-11
-2.12196e-11
6.26647e-12
2.89613e-12
2.84411e-11
2.34688e-11
4.59659e-11
3.05499e-11
4.62205e-11
3.37113e-11
5.38338e-11
3.74212e-11
5.27854e-11
3.73152e-11
5.6546e-11
4.1947e-11
5.93159e-11
4.01052e-11
5.51428e-11
3.76921e-11
5.67908e-11
4.16877e-11
5.94011e-11
3.69109e-11
5.02778e-11
3.11167e-11
5.01882e-11
3.28472e-11
5.01302e-11
3.14767e-11
4.12342e-11
2.46049e-11
3.68705e-11
8.21243e-12
3.64967e-11
1.3988e-11
3.16099e-11
3.7844e-12
3.11188e-11
3.20167e-12
3.50212e-11
1.19984e-11
4.91935e-11
2.67845e-11
4.30079e-11
2.5729e-11
8.83474e-11
2.16428e-10
-1.32962e-09
8.21603e-10
1.12487e-09
-1.89001e-09
-1.64882e-09
6.97185e-11
2.83469e-10
-1.59193e-10
-3.29847e-10
-2.3403e-10
-8.27885e-11
-4.01481e-11
-1.70252e-11
-2.46061e-11
1.43605e-12
-7.83485e-13
2.4236e-11
2.06235e-11
4.24979e-11
2.86704e-11
4.3517e-11
3.21926e-11
5.12556e-11
3.63559e-11
5.06859e-11
3.66025e-11
5.46379e-11
4.15736e-11
5.7695e-11
4.01044e-11
5.37104e-11
3.78271e-11
5.53638e-11
4.2006e-11
5.80613e-11
3.75659e-11
4.89824e-11
3.18037e-11
4.8646e-11
3.37503e-11
4.84193e-11
3.19705e-11
3.91359e-11
2.55153e-11
3.91307e-11
1.26582e-11
3.50392e-11
1.55527e-11
2.96363e-11
6.29683e-12
2.80344e-11
6.73949e-12
3.08055e-11
1.7499e-11
4.34694e-11
3.56357e-11
3.69144e-11
4.10503e-11
7.55306e-11
1.94011e-10
-1.13372e-09
6.66548e-10
1.0906e-09
4.93754e-10
-6.0484e-10
-1.05236e-09
-8.59483e-10
-5.64189e-10
-3.00381e-10
-1.58053e-10
-3.82842e-11
-5.74242e-12
4.62901e-11
4.05793e-11
7.4135e-11
5.58427e-11
8.50919e-11
6.31911e-11
8.78463e-11
5.78016e-11
8.43127e-11
5.69259e-11
8.44253e-11
5.21084e-11
8.068e-11
4.88571e-11
7.96165e-11
4.679e-11
7.80682e-11
4.15485e-11
7.45271e-11
3.83701e-11
7.41036e-11
3.74642e-11
7.25555e-11
3.00963e-11
6.69384e-11
2.60937e-11
6.51165e-11
2.3214e-11
6.22473e-11
1.7302e-11
5.6699e-11
1.45227e-11
5.41543e-11
8.08391e-12
4.6489e-11
-4.76613e-13
3.7868e-11
-1.22183e-12
3.46931e-11
2.16782e-12
3.26834e-11
1.63892e-11
2.81948e-11
2.98779e-11
-4.53113e-13
5.23655e-11
3.27647e-12
1.18905e-10
-1.46766e-09
-3.53652e-10
1.13329e-09
5.20345e-10
-6.15911e-10
-1.06097e-09
-8.61993e-10
-5.64232e-10
-3.0059e-10
-1.58371e-10
-3.88843e-11
-6.28205e-12
4.5674e-11
4.01682e-11
7.36573e-11
5.55535e-11
8.47198e-11
6.30267e-11
8.75458e-11
5.76538e-11
8.40392e-11
5.68708e-11
8.4201e-11
5.20667e-11
8.0464e-11
4.88716e-11
7.94265e-11
4.68344e-11
7.78891e-11
4.16023e-11
7.43453e-11
3.84564e-11
7.39353e-11
3.75837e-11
7.23829e-11
3.0201e-11
6.67462e-11
2.62495e-11
6.49357e-11
2.33937e-11
6.20615e-11
1.74846e-11
5.64649e-11
1.468e-11
5.3917e-11
8.35149e-12
4.62863e-11
-1.81144e-13
3.76432e-11
-8.35033e-13
3.44918e-11
2.58812e-12
3.25061e-11
1.68905e-11
2.81046e-11
3.03046e-11
-5.46823e-13
5.20249e-11
7.86308e-12
1.35523e-10
-1.49346e-09
-3.90397e-10
1.19165e-09
5.26122e-10
-6.33989e-10
-1.06319e-09
-8.6196e-10
-5.63336e-10
-3.001e-10
-1.58483e-10
-3.9223e-11
-7.04395e-12
4.49987e-11
3.94255e-11
7.31597e-11
5.49416e-11
8.43429e-11
6.25898e-11
8.73433e-11
5.72418e-11
8.38267e-11
5.6563e-11
8.41135e-11
5.17856e-11
8.03772e-11
4.86517e-11
7.94025e-11
4.66484e-11
7.79004e-11
4.14195e-11
7.43471e-11
3.83055e-11
7.39681e-11
3.74741e-11
7.24584e-11
3.00576e-11
6.67693e-11
2.61577e-11
6.50037e-11
2.33253e-11
6.2147e-11
1.74187e-11
5.64657e-11
1.45188e-11
5.39174e-11
8.35027e-12
4.6412e-11
-1.15623e-13
3.77012e-11
-6.79287e-13
3.46211e-11
2.76479e-12
3.26272e-11
1.71076e-11
2.84091e-11
3.03951e-11
2.01967e-14
4.9317e-11
1.23925e-11
1.62979e-10
-1.53903e-09
-4.1512e-10
1.25231e-09
4.87877e-10
-6.53784e-10
-1.05172e-09
-8.58581e-10
-5.61545e-10
-2.98736e-10
-1.57843e-10
-3.90823e-11
-7.71275e-12
4.42127e-11
3.84878e-11
7.25052e-11
5.41607e-11
8.38097e-11
6.2024e-11
8.70766e-11
5.67065e-11
8.34869e-11
5.61521e-11
8.39833e-11
5.14236e-11
8.02193e-11
4.83639e-11
7.93394e-11
4.64192e-11
7.79047e-11
4.11922e-11
7.43167e-11
3.8114e-11
7.39852e-11
3.73453e-11
7.2566e-11
2.98891e-11
6.67661e-11
2.60387e-11
6.50811e-11
2.32471e-11
6.22657e-11
1.73501e-11
5.64611e-11
1.42846e-11
5.38768e-11
8.29883e-12
4.66276e-11
-5.12608e-14
3.78022e-11
-5.62652e-13
3.48925e-11
2.82119e-12
3.29641e-11
1.70072e-11
2.93782e-11
2.95618e-11
2.17841e-12
4.23373e-11
2.31239e-11
1.88e-10
-1.59783e-09
-4.03516e-10
1.30491e-09
3.84449e-10
-6.72065e-10
-1.01504e-09
-8.49454e-10
-5.59509e-10
-2.96915e-10
-1.56393e-10
-3.83823e-11
-8.2187e-12
4.32874e-11
3.73804e-11
7.16434e-11
5.32147e-11
8.30642e-11
6.13421e-11
8.66886e-11
5.6069e-11
8.29629e-11
5.56516e-11
8.37536e-11
5.10117e-11
7.99266e-11
4.80343e-11
7.91805e-11
4.61783e-11
7.78386e-11
4.09619e-11
7.41866e-11
3.79187e-11
7.39201e-11
3.72493e-11
7.26392e-11
2.97531e-11
6.66613e-11
2.59441e-11
6.50964e-11
2.32164e-11
6.23481e-11
1.7351e-11
5.6394e-11
1.4059e-11
5.36671e-11
8.24104e-12
4.68492e-11
9.64006e-14
3.78653e-11
-4.70431e-13
3.52541e-11
2.73118e-12
3.35525e-11
1.64503e-11
3.11968e-11
2.73749e-11
6.58606e-12
3.04674e-11
4.20467e-11
2.03935e-10
-1.66633e-09
-3.36639e-10
1.35143e-09
2.04596e-10
-6.91448e-10
-9.47684e-10
-8.31934e-10
-5.57933e-10
-2.95262e-10
-1.54334e-10
-3.7236e-11
-8.60707e-12
4.21748e-11
3.60733e-11
7.05523e-11
5.20951e-11
8.20975e-11
6.05322e-11
8.61697e-11
5.53467e-11
8.22549e-11
5.50642e-11
8.34127e-11
5.05598e-11
7.94966e-11
4.76633e-11
7.89187e-11
4.59323e-11
7.76913e-11
4.07378e-11
7.39445e-11
3.77261e-11
7.37626e-11
3.71904e-11
7.26565e-11
2.96648e-11
6.64385e-11
2.58786e-11
6.50303e-11
2.32455e-11
6.23751e-11
1.74498e-11
5.62568e-11
1.38521e-11
5.32254e-11
8.16077e-12
4.70485e-11
3.32672e-13
3.78955e-11
-4.2838e-13
3.57247e-11
2.41897e-12
3.44774e-11
1.52297e-11
3.41022e-11
2.34559e-11
1.38496e-11
1.33911e-11
6.95441e-11
2.09176e-10
-1.74705e-09
-2.05426e-10
1.39929e-09
-5.28229e-11
-7.18641e-10
-8.48067e-10
-8.03397e-10
-5.57044e-10
-2.94361e-10
-1.51895e-10
-3.57254e-11
-8.94891e-12
4.08137e-11
3.45171e-11
6.91923e-11
5.07864e-11
8.08983e-11
5.95822e-11
8.55084e-11
5.45498e-11
8.13708e-11
5.43935e-11
8.29585e-11
5.00842e-11
7.89338e-11
4.72595e-11
7.85549e-11
4.56926e-11
7.74557e-11
4.05346e-11
7.35899e-11
3.75471e-11
7.35073e-11
3.71773e-11
7.26075e-11
2.96416e-11
6.60966e-11
2.58529e-11
6.48722e-11
2.33481e-11
6.23377e-11
1.76634e-11
5.60685e-11
1.36645e-11
5.24994e-11
8.04178e-12
4.72308e-11
6.54773e-13
3.79132e-11
-4.89227e-13
3.63345e-11
1.79968e-12
3.58343e-11
1.32025e-11
3.82512e-11
1.75888e-11
2.41037e-11
-8.24715e-12
1.04041e-10
2.05396e-10
-1.84154e-09
-1.11508e-11
1.4556e-09
-3.76648e-10
-7.59862e-10
-7.19038e-10
-7.61885e-10
-5.56698e-10
-2.94693e-10
-1.49288e-10
-3.39331e-11
-9.30215e-12
3.9155e-11
3.26586e-11
6.75126e-11
4.92647e-11
7.94403e-11
5.84728e-11
8.46733e-11
5.36782e-11
8.03125e-11
5.36391e-11
8.23767e-11
4.95924e-11
7.82401e-11
4.68315e-11
7.80859e-11
4.54685e-11
7.71278e-11
4.03652e-11
7.31247e-11
3.73936e-11
7.31529e-11
3.72202e-11
7.24774e-11
2.96975e-11
6.56368e-11
2.58711e-11
6.46191e-11
2.35291e-11
6.2237e-11
1.8001e-11
5.587e-11
1.34809e-11
5.14617e-11
7.86106e-12
4.74008e-11
1.04127e-12
3.79509e-11
-6.99987e-13
3.71202e-11
8.06772e-13
3.76792e-11
1.03005e-11
4.36237e-11
9.94905e-12
3.69028e-11
-3.27976e-11
1.41908e-10
1.96745e-10
-1.94796e-09
2.31953e-10
1.52616e-09
-7.46831e-10
-8.20216e-10
-5.67474e-10
-7.06358e-10
-5.5629e-10
-2.96658e-10
-1.46769e-10
-3.19428e-11
-9.70073e-12
3.7154e-11
3.04791e-11
6.5489e-11
4.75098e-11
7.7706e-11
5.71838e-11
8.36314e-11
5.27249e-11
7.90749e-11
5.27985e-11
8.16469e-11
4.90828e-11
7.74123e-11
4.63825e-11
7.75057e-11
4.52619e-11
7.66994e-11
4.02375e-11
7.25498e-11
3.72737e-11
7.27004e-11
3.73229e-11
7.22587e-11
2.98392e-11
6.50697e-11
2.5938e-11
6.42711e-11
2.37892e-11
6.20847e-11
1.84582e-11
5.57086e-11
1.32819e-11
5.00842e-11
7.62128e-12
4.75758e-11
1.46188e-12
3.80433e-11
-1.09173e-12
3.80952e-11
-5.62134e-13
4.00032e-11
6.60328e-12
4.99971e-11
1.01834e-12
5.12531e-11
-5.80427e-11
1.78931e-10
1.87989e-10
-2.06202e-09
5.01831e-10
1.61219e-09
-1.13947e-09
-9.02158e-10
-4.02746e-10
-6.3706e-10
-5.54983e-10
-3.00474e-10
-1.44612e-10
-2.98378e-11
-1.01548e-11
3.48223e-11
2.79839e-11
6.31151e-11
4.55215e-11
7.56936e-11
5.57146e-11
8.23624e-11
5.16819e-11
7.76606e-11
5.18689e-11
8.07539e-11
4.85502e-11
7.64495e-11
4.59106e-11
7.68071e-11
4.50752e-11
7.61617e-11
4.0147e-11
7.1868e-11
3.71869e-11
7.21502e-11
3.74849e-11
7.19445e-11
3.00661e-11
6.44051e-11
2.60539e-11
6.38317e-11
2.41242e-11
6.1878e-11
1.90323e-11
5.56372e-11
1.30338e-11
4.835e-11
7.3159e-12
4.77691e-11
1.89021e-12
3.82172e-11
-1.66868e-12
3.92461e-11
-2.26428e-12
4.27187e-11
2.33062e-12
5.69655e-11
-8.43297e-12
6.58837e-11
-8.15954e-11
2.11293e-10
1.82776e-10
-2.17631e-09
7.76638e-10
1.71055e-09
-1.5278e-09
-1.00526e-09
-2.35421e-10
-5.55456e-10
-5.5178e-10
-3.06168e-10
-1.43107e-10
-2.77487e-11
-1.06601e-11
3.21817e-11
2.51922e-11
6.04002e-11
4.33107e-11
7.34124e-11
5.40657e-11
8.0859e-11
5.055e-11
7.60733e-11
5.0853e-11
7.96903e-11
4.79887e-11
7.5352e-11
4.54142e-11
7.59847e-11
4.4901e-11
7.55099e-11
4.00908e-11
7.10834e-11
3.7134e-11
7.15021e-11
3.77013e-11
7.15304e-11
3.03688e-11
6.36559e-11
2.62177e-11
6.33045e-11
2.45254e-11
6.16251e-11
1.97108e-11
5.57033e-11
1.27015e-11
4.627e-11
6.94403e-12
4.79844e-11
2.31381e-12
3.84668e-11
-2.40292e-12
4.05109e-11
-4.20291e-12
4.56469e-11
-2.20936e-12
6.40136e-11
-1.75619e-11
7.94822e-11
-1.01394e-10
2.36217e-10
1.83208e-10
-2.28173e-09
1.03522e-09
1.81467e-09
-1.88986e-09
-1.12566e-09
-7.51905e-11
-4.6403e-10
-5.45689e-10
-3.1355e-10
-1.42543e-10
-2.58108e-11
-1.12149e-11
2.92682e-11
2.2133e-11
5.73614e-11
4.08931e-11
7.08717e-11
5.22482e-11
7.91195e-11
4.93299e-11
7.43222e-11
4.97574e-11
7.84514e-11
4.73927e-11
7.41237e-11
4.48925e-11
7.50362e-11
4.47354e-11
7.47424e-11
4.00628e-11
7.02018e-11
3.71114e-11
7.07583e-11
3.79629e-11
7.10198e-11
3.07368e-11
6.28301e-11
2.64219e-11
6.26902e-11
2.49791e-11
6.13284e-11
2.04669e-11
5.59511e-11
1.22807e-11
4.38613e-11
6.53055e-12
4.82152e-11
2.72656e-12
3.87664e-11
-3.23179e-12
4.18214e-11
-6.24248e-12
4.85638e-11
-6.65236e-12
7.06051e-11
-2.55336e-11
9.09224e-11
-1.15917e-10
2.52164e-10
1.89888e-10
-2.36981e-09
1.26056e-09
1.91665e-09
-2.20761e-09
-1.25743e-09
6.95132e-11
-3.65951e-10
-5.35788e-10
-3.222e-10
-1.43159e-10
-2.41965e-11
-1.18212e-11
2.61277e-11
1.8844e-11
5.40232e-11
3.82855e-11
6.80918e-11
5.02719e-11
7.71504e-11
4.80263e-11
7.24215e-11
4.85909e-11
7.70398e-11
4.67593e-11
7.27722e-11
4.43469e-11
7.3965e-11
4.45722e-11
7.38631e-11
4.00563e-11
6.923e-11
3.71137e-11
6.99221e-11
3.82606e-11
7.04132e-11
3.11586e-11
6.19396e-11
2.66614e-11
6.19942e-11
2.54745e-11
6.09804e-11
2.12741e-11
5.63935e-11
1.17877e-11
4.11725e-11
6.10692e-12
4.84326e-11
3.13653e-12
3.90777e-11
-4.0854e-12
4.30421e-11
-8.20457e-12
5.12333e-11
-1.06321e-11
7.62373e-11
-3.16937e-11
9.93998e-11
-1.24337e-10
2.5882e-10
2.01825e-10
-2.43368e-09
1.4413e-09
2.00842e-09
-2.4692e-09
-1.3937e-09
1.92425e-10
-2.64801e-10
-5.21374e-10
-3.31536e-10
-1.4512e-10
-2.30781e-11
-1.24909e-11
2.28085e-11
1.53682e-11
5.04145e-11
3.55143e-11
6.50958e-11
4.81571e-11
7.4964e-11
4.6646e-11
7.03877e-11
4.73622e-11
7.54613e-11
4.60873e-11
7.13075e-11
4.37806e-11
7.27756e-11
4.44062e-11
7.28776e-11
4.00644e-11
6.81759e-11
3.71376e-11
6.90006e-11
3.85848e-11
6.9714e-11
3.16217e-11
6.09957e-11
2.69342e-11
6.12202e-11
2.6003e-11
6.05687e-11
2.21042e-11
5.69997e-11
1.12905e-11
3.83104e-11
5.71468e-12
4.8594e-11
3.5661e-12
3.93536e-11
-4.8796e-12
4.40654e-11
-9.91511e-12
5.34332e-11
-1.38189e-11
8.05186e-11
-3.55976e-11
1.04485e-10
-1.26481e-10
2.56944e-10
2.17087e-10
-2.46872e-09
1.57187e-09
2.08209e-09
-2.66758e-09
-1.52694e-09
2.89485e-10
-1.64345e-10
-5.02078e-10
-3.40901e-10
-1.48517e-10
-2.26408e-11
-1.32516e-11
1.93602e-11
1.17485e-11
4.65656e-11
3.25982e-11
6.19067e-11
4.59209e-11
7.25746e-11
4.51947e-11
6.82354e-11
4.6081e-11
7.37272e-11
4.53753e-11
6.97401e-11
4.31957e-11
7.14755e-11
4.42328e-11
7.17919e-11
4.00818e-11
6.70494e-11
3.71798e-11
6.80012e-11
3.89271e-11
6.8928e-11
3.21164e-11
6.00074e-11
2.72381e-11
6.0372e-11
2.65582e-11
6.00733e-11
2.29224e-11
5.76455e-11
1.09238e-11
3.54944e-11
5.40467e-12
4.86422e-11
4.04015e-12
3.95396e-11
-5.51732e-12
4.47846e-11
-1.12227e-11
5.49738e-11
-1.59766e-11
8.31918e-11
-3.70235e-11
1.06098e-10
-1.22721e-10
2.47834e-10
2.33505e-10
-2.47216e-09
1.65069e-09