/*--------------------------------*- C++ -*----------------------------------*\
| =========                 |                                                 |
| \\      /  F ield         | OpenFOAM: The Open Source CFD Toolbox           |
|  \\    /   O peration     | Version:  2312                                  |
|   \\  /    A nd           | Website:  www.openfoam.com                      |
|    \\/     M anipulation  |                                                 |
\*---------------------------------------------------------------------------*/
FoamFile
{
    version     2.0;
    format      ascii;
    arch        "LSB;label=32;scalar=64";
    class       volScalarField;
    location    "440";
    object      pPrime2Mean;
}
// * * * * * * * * * * * * * * * * * * * * * * * * * * * * * * * * * * * * * //

dimensions      [0 4 -4 0 0 0 0];

internalField   nonuniform List<scalar> 
144000
(
5.60636e-18
6.9984e-18
6.46972e-18
5.17761e-18
3.72718e-18
2.68985e-18
2.0256e-18
1.50407e-18
1.11786e-18
9.185e-19
8.55952e-19
7.73737e-19
6.58493e-19
5.27347e-19
4.3957e-19
3.69918e-19
3.38626e-19
2.90635e-19
2.69566e-19
2.3988e-19
2.15657e-19
1.78557e-19
1.8024e-19
1.3606e-19
1.43348e-19
1.12954e-19
1.13827e-19
9.25989e-20
9.12344e-20
7.19376e-20
7.54021e-20
5.53207e-20
6.29003e-20
4.57424e-20
4.82656e-20
4.80045e-20
2.6051e-20
5.36136e-20
1.85431e-20
3.4679e-20
4.40272e-20
5.06554e-21
6.78454e-20
1.65602e-20
4.95085e-20
7.48057e-20
2.94208e-20
1.02446e-19
8.00078e-20
8.5495e-20
1.54616e-19
1.35658e-19
1.98385e-19
2.8617e-19
3.57102e-19
5.29722e-19
8.51713e-19
1.50505e-18
3.40767e-18
3.83443e-18
5.87825e-18
7.15847e-18
6.64095e-18
5.30469e-18
3.78663e-18
2.72464e-18
2.04841e-18
1.51868e-18
1.12598e-18
9.23363e-19
8.60025e-19
7.77333e-19
6.61109e-19
5.29063e-19
4.40742e-19
3.70835e-19
3.39488e-19
2.91337e-19
2.70057e-19
2.40517e-19
2.16174e-19
1.78763e-19
1.80672e-19
1.36408e-19
1.43512e-19
1.13322e-19
1.13996e-19
9.28758e-20
9.1435e-20
7.21093e-20
7.56578e-20
5.54418e-20
6.31474e-20
4.59787e-20
4.83333e-20
4.86199e-20
2.58739e-20
5.43367e-20
1.88727e-20
3.4673e-20
4.53789e-20
4.68972e-21
6.91995e-20
1.74931e-20
4.97493e-20
7.74689e-20
2.9974e-20
1.0492e-19
8.33167e-20
8.77532e-20
1.60042e-19
1.41392e-19
2.05583e-19
2.9818e-19
3.7242e-19
5.52407e-19
8.89453e-19
1.56e-18
3.56364e-18
3.92792e-18
6.06406e-18
7.28642e-18
6.69984e-18
5.34227e-18
3.79905e-18
2.73498e-18
2.05949e-18
1.52766e-18
1.13145e-18
9.26825e-19
8.63692e-19
7.80822e-19
6.63738e-19
5.30657e-19
4.41888e-19
3.71702e-19
3.40563e-19
2.92071e-19
2.70634e-19
2.41278e-19
2.16849e-19
1.7889e-19
1.8138e-19
1.36685e-19
1.43904e-19
1.13697e-19
1.14338e-19
9.31938e-20
9.18171e-20
7.22938e-20
7.61471e-20
5.55654e-20
6.36279e-20
4.63157e-20
4.85265e-20
4.95946e-20
2.56465e-20
5.55823e-20
1.93585e-20
3.48791e-20
4.7477e-20
4.26164e-21
7.14914e-20
1.89229e-20
5.05204e-20
8.15351e-20
3.11646e-20
1.08977e-19
8.85053e-20
9.16144e-20
1.68445e-19
1.5023e-19
2.1641e-19
3.15228e-19
3.93177e-19
5.80039e-19
9.30718e-19
1.61715e-18
3.7074e-18
4.02316e-18
6.00288e-18
7.20479e-18
6.56351e-18
5.21112e-18
3.72904e-18
2.69652e-18
2.04134e-18
1.51926e-18
1.12649e-18
9.23771e-19
8.62811e-19
7.81003e-19
6.63941e-19
5.30617e-19
4.41851e-19
3.71706e-19
3.4103e-19
2.92294e-19
2.70733e-19
2.41743e-19
2.17309e-19
1.78768e-19
1.81948e-19
1.36856e-19
1.44198e-19
1.14047e-19
1.14658e-19
9.35136e-20
9.21939e-20
7.24862e-20
7.6681e-20
5.56869e-20
6.4185e-20
4.6699e-20
4.87396e-20
5.07529e-20
2.53745e-20
5.70792e-20
1.99559e-20
3.51475e-20
4.99751e-20
3.82534e-21
7.41674e-20
2.07162e-20
5.1424e-20
8.62976e-20
3.26791e-20
1.13599e-19
9.45986e-20
9.6013e-20
1.77754e-19
1.60115e-19
2.27635e-19
3.32712e-19
4.12854e-19
6.02997e-19
9.59335e-19
1.62842e-18
3.77604e-18
3.99851e-18
5.71616e-18
7.00366e-18
6.26194e-18
4.92097e-18
3.58305e-18
2.60799e-18
1.99049e-18
1.48965e-18
1.10775e-18
9.11054e-19
8.54267e-19
7.75096e-19
6.59767e-19
5.27627e-19
4.3969e-19
3.70106e-19
3.40177e-19
2.91461e-19
2.69892e-19
2.41425e-19
2.17174e-19
1.78194e-19
1.82039e-19
1.36755e-19
1.44235e-19
1.14206e-19
1.14829e-19
9.3723e-20
9.24546e-20
7.26075e-20
7.71518e-20
5.57583e-20
6.47056e-20
4.70573e-20
4.88957e-20
5.19219e-20
2.50703e-20
5.85546e-20
2.05963e-20
3.53772e-20
5.24904e-20
3.4373e-21
7.67095e-20
2.26443e-20
5.22061e-20
9.09656e-20
3.42654e-20
1.17814e-19
1.00572e-19
1.0007e-19
1.86159e-19
1.69239e-19
2.36852e-19
3.46865e-19
4.27564e-19
6.16318e-19
9.73455e-19
1.59492e-18
3.79852e-18
3.9049e-18
5.36814e-18
6.91094e-18
5.89365e-18
4.54739e-18
3.39289e-18
2.48752e-18
1.91356e-18
1.44154e-18
1.07642e-18
8.88843e-19
8.37559e-19
7.62403e-19
6.5051e-19
5.21091e-19
4.34978e-19
3.66543e-19
3.37662e-19
2.89287e-19
2.67862e-19
2.40029e-19
2.1618e-19
1.77016e-19
1.81453e-19
1.36217e-19
1.43904e-19
1.14049e-19
1.14765e-19
9.37422e-20
9.25173e-20
7.26001e-20
7.74704e-20
5.57296e-20
6.50971e-20
4.73308e-20
4.89337e-20
5.29679e-20
2.47352e-20
5.98592e-20
2.12033e-20
3.5532e-20
5.47492e-20
3.124e-21
7.88346e-20
2.44721e-20
5.27787e-20
9.49359e-20
3.57365e-20
1.21181e-19
1.05646e-19
1.03444e-19
1.92673e-19
1.76685e-19
2.43451e-19
3.5687e-19
4.3677e-19
6.2176e-19
9.76216e-19
1.53352e-18
3.83858e-18
3.85007e-18
5.03034e-18
7.04899e-18
5.51493e-18
4.14507e-18
3.17419e-18
2.34413e-18
1.8162e-18
1.37854e-18
1.03464e-18
8.5863e-19
8.13615e-19
7.43393e-19
6.36382e-19
5.11117e-19
4.27774e-19
3.61069e-19
3.33479e-19
2.85744e-19
2.64646e-19
2.37493e-19
2.14267e-19
1.7518e-19
1.80106e-19
1.35144e-19
1.43132e-19
1.13526e-19
1.14378e-19
9.35353e-20
9.23286e-20
7.24311e-20
7.7581e-20
5.55801e-20
6.52997e-20
4.74884e-20
4.88233e-20
5.38149e-20
2.43712e-20
6.08928e-20
2.17227e-20
3.56205e-20
5.66226e-20
2.88182e-21
8.04822e-20
2.60415e-20
5.31753e-20
9.80449e-20
3.69552e-20
1.237e-19
1.0953e-19
1.06123e-19
1.97301e-19
1.82197e-19
2.47677e-19
3.62925e-19
4.40891e-19
6.21368e-19
9.69376e-19
1.45529e-18
3.91747e-18
3.90324e-18
4.72511e-18
7.43101e-18
5.14835e-18
3.74839e-18
2.93299e-18
2.1829e-18
1.70259e-18
1.30353e-18
9.84601e-19
8.22064e-19
7.8378e-19
7.19204e-19
6.18163e-19
4.98144e-19
4.18364e-19
3.53877e-19
3.27797e-19
2.80992e-19
2.60397e-19
2.33938e-19
2.11521e-19
1.72727e-19
1.78045e-19
1.33547e-19
1.41893e-19
1.12648e-19
1.13644e-19
9.31048e-20
9.18776e-20
7.21005e-20
7.7467e-20
5.53159e-20
6.52915e-20
4.75333e-20
4.85574e-20
5.44473e-20
2.39868e-20
6.16615e-20
2.21529e-20
3.56443e-20
5.8154e-20
2.68228e-21
8.17166e-20
2.73444e-20
5.34376e-20
1.00415e-19
3.78671e-20
1.25652e-19
1.12316e-19
1.08196e-19
2.00483e-19
1.85985e-19
2.49945e-19
3.65798e-19
4.40404e-19
6.16714e-19
9.53386e-19
1.36791e-18
4.02908e-18
4.06358e-18
4.4569e-18
7.96266e-18
4.80431e-18
3.3817e-18
2.67646e-18
2.00956e-18
1.57747e-18
1.22001e-18
9.28936e-19
7.81019e-19
7.49755e-19
6.91165e-19
5.96855e-19
4.82847e-19
4.07178e-19
3.45272e-19
3.20864e-19
2.75246e-19
2.55323e-19
2.29573e-19
2.08114e-19
1.69764e-19
1.75391e-19
1.31509e-19
1.40195e-19
1.11462e-19
1.12567e-19
9.24726e-20
9.11787e-20
7.16344e-20
7.71453e-20
5.49612e-20
6.50824e-20
4.74935e-20
4.81422e-20
5.49008e-20
2.35919e-20
6.21884e-20
2.25446e-20
3.55803e-20
5.9471e-20
2.47971e-21
8.26597e-20
2.84758e-20
5.35051e-20
1.02333e-19
3.83988e-20
1.27138e-19
1.1424e-19
1.09543e-19
2.02495e-19
1.88032e-19
2.50151e-19
3.65771e-19
4.35269e-19
6.07547e-19
9.27435e-19
1.27669e-18
4.14508e-18
4.26362e-18
4.21845e-18
8.48931e-18
4.49075e-18
3.05263e-18
2.41546e-18
1.83034e-18
1.44637e-18
1.13173e-18
8.70195e-19
7.37459e-19
7.13102e-19
6.60611e-19
5.73523e-19
4.65975e-19
3.9475e-19
3.35638e-19
3.12982e-19
2.68731e-19
2.49626e-19
2.24613e-19
2.04269e-19
1.66429e-19
1.72308e-19
1.29169e-19
1.38081e-19
1.10051e-19
1.11176e-19
9.1668e-20
9.02576e-20
7.10677e-20
7.66423e-20
5.45446e-20
6.46906e-20
4.74069e-20
4.75783e-20
5.52094e-20
2.31956e-20
6.24663e-20
2.29748e-20
3.53489e-20
6.07056e-20
2.2309e-21
8.32831e-20
2.95689e-20
5.31807e-20
1.03945e-19
3.84547e-20
1.27959e-19
1.15402e-19
1.09742e-19
2.03098e-19
1.88129e-19
2.47655e-19
3.62315e-19
4.24442e-19
5.9218e-19
8.87637e-19
1.18176e-18
4.22538e-18
4.38922e-18
3.98773e-18
8.81391e-18
4.21006e-18
2.75273e-18
2.16172e-18
1.652e-18
1.31482e-18
1.04232e-18
8.10906e-19
6.93204e-19
6.75322e-19
6.28817e-19
5.49129e-19
4.48249e-19
3.81622e-19
3.25393e-19
3.04469e-19
2.61707e-19
2.4347e-19
2.19236e-19
2.00182e-19
1.62861e-19
1.68939e-19
1.26684e-19
1.35623e-19
1.08481e-19
1.09522e-19
9.07092e-20
8.91491e-20
7.0431e-20
7.59786e-20
5.40925e-20
6.41284e-20
4.72996e-20
4.68656e-20
5.5394e-20
2.28057e-20
6.24527e-20
2.35087e-20
3.4852e-20
6.19061e-20
1.91027e-21
8.3449e-20
3.06969e-20
5.22479e-20
1.05155e-19
3.79351e-20
1.27721e-19
1.15691e-19
1.08363e-19
2.01855e-19
1.85836e-19
2.4161e-19
3.54683e-19
4.07266e-19
5.69093e-19
8.33449e-19
1.08228e-18
4.22041e-18
4.3479e-18
3.74228e-18
8.81356e-18
3.95724e-18
2.47141e-18
1.92428e-18
1.48024e-18
1.18745e-18
9.54754e-19
7.53019e-19
6.49742e-19
6.37662e-19
5.96813e-19
5.24463e-19
4.3027e-19
3.68242e-19
3.1489e-19
2.9562e-19
2.54397e-19
2.3702e-19
2.13589e-19
1.95982e-19
1.59188e-19
1.65392e-19
1.24194e-19
1.3291e-19
1.06822e-19
1.07664e-19
8.9614e-20
8.78816e-20
6.97439e-20
7.51639e-20
5.36252e-20
6.34141e-20
4.71841e-20
4.59999e-20
5.54467e-20
2.24336e-20
6.2083e-20
2.41584e-20
3.40149e-20
6.3037e-20
1.52087e-21
8.30176e-20
3.18461e-20
5.05334e-20
1.058e-19
3.68046e-20
1.26144e-19
1.15002e-19
1.05216e-19
1.98481e-19
1.81035e-19
2.3192e-19
3.42751e-19
3.84071e-19
5.38159e-19
7.67379e-19
9.79248e-19
4.10287e-18
4.09965e-18
3.46156e-18
8.44591e-18
3.71796e-18
2.1989e-18
1.70836e-18
1.31923e-18
1.06796e-18
8.71193e-19
6.97882e-19
6.08157e-19
6.01096e-19
5.65429e-19
5.00181e-19
4.12472e-19
3.54956e-19
3.04425e-19
2.86697e-19
2.4701e-19
2.30445e-19
2.07804e-19
1.91755e-19
1.55512e-19
1.61747e-19
1.21797e-19
1.30049e-19
1.0513e-19
1.05679e-19
8.8406e-20
8.64868e-20
6.90152e-20
7.42039e-20
5.31592e-20
6.25563e-20
4.70583e-20
4.5e-20
5.53447e-20
2.20913e-20
6.13186e-20
2.49004e-20
3.28574e-20
6.41035e-20
1.09157e-21
8.19532e-20
3.29687e-20
4.80772e-20
1.05766e-19
3.51269e-20
1.23173e-19
1.1334e-19
1.00366e-19
1.93066e-19
1.74017e-19
2.19023e-19
3.2716e-19
3.56288e-19
5.01026e-19
6.94096e-19
8.74798e-19
3.86784e-18
3.66403e-18
3.13867e-18
7.75378e-18
3.47758e-18
1.93192e-18
1.51566e-18
1.1716e-18
9.58427e-19
7.93089e-19
6.463e-19
5.69159e-19
5.66293e-19
5.35284e-19
4.76725e-19
3.95227e-19
3.42029e-19
2.94235e-19
2.77904e-19
2.39741e-19
2.23899e-19
2.01996e-19
1.8755e-19
1.51913e-19
1.58061e-19
1.1955e-19
1.27124e-19
1.03454e-19
1.03632e-19
8.71171e-20
8.49982e-20
6.82557e-20
7.31104e-20
5.27067e-20
6.15731e-20
4.6917e-20
4.39007e-20
5.50787e-20
2.17917e-20
6.01813e-20
2.56957e-20
3.14348e-20
6.51888e-20
6.69071e-22
8.04053e-20
3.40398e-20
4.5017e-20
1.05047e-19
3.30574e-20
1.18982e-19
1.10901e-19
9.41902e-20
1.86021e-19
1.6539e-19
2.03864e-19
3.09023e-19
3.25952e-19
4.60227e-19
6.1959e-19
7.72269e-19
3.53749e-18
3.1093e-18
2.77851e-18
6.83889e-18
3.22401e-18
1.67401e-18
1.34523e-18
1.03865e-18
8.59778e-19
7.21279e-19
5.98651e-19
5.33102e-19
5.33689e-19
5.06753e-19
4.54385e-19
3.78762e-19
3.29605e-19
2.84464e-19
2.69387e-19
2.32711e-19
2.17502e-19
1.96272e-19
1.83406e-19
1.48448e-19
1.54379e-19
1.17473e-19
1.24203e-19
1.01826e-19
1.01577e-19
8.57865e-20
8.34537e-20
6.74811e-20
7.19055e-20
5.22782e-20
6.04927e-20
4.67573e-20
4.27497e-20
5.46587e-20
2.15522e-20
5.8727e-20
2.65234e-20
2.97959e-20
6.65633e-20
3.14654e-22
7.87662e-20
3.50759e-20
4.1537e-20
1.03742e-19
3.07975e-20
1.13821e-19
1.07958e-19
8.71609e-20
1.77867e-19
1.55875e-19
1.8749e-19
2.8959e-19
2.95129e-19
4.18371e-19
5.48623e-19
6.74727e-19
3.14593e-18
2.51799e-18
2.39874e-18
5.82734e-18
2.95213e-18
1.43296e-18
1.19466e-18
9.20701e-19
7.72096e-19
6.56086e-19
5.54973e-19
5.00063e-19
5.03445e-19
4.80039e-19
4.33333e-19
3.63177e-19
3.17764e-19
2.75195e-19
2.61238e-19
2.25999e-19
2.11338e-19
1.90723e-19
1.7935e-19
1.45159e-19
1.50738e-19
1.15563e-19
1.21336e-19
1.00266e-19
9.95584e-20
8.44553e-20
8.1888e-20
6.67087e-20
7.0621e-20
5.18781e-20
5.9352e-20
4.65792e-20
4.15968e-20
5.41077e-20
2.13892e-20
5.70356e-20
2.73632e-20
2.79944e-20
6.8662e-20
8.6199e-23
7.76969e-20
3.61131e-20
3.78293e-20
1.01996e-19
2.85385e-20
1.08024e-19
1.04787e-19
7.97321e-20
1.69119e-19
1.46122e-19
1.70834e-19
2.69922e-19
2.6549e-19
3.77584e-19
4.84215e-19
5.84237e-19
2.73458e-18
1.96751e-18
2.02303e-18
4.82624e-18
2.66205e-18
1.21627e-18
1.06106e-18
8.17242e-19
6.94838e-19
5.97429e-19
5.15089e-19
4.69927e-19
4.75574e-19
4.55216e-19
4.13622e-19
3.48518e-19
3.06544e-19
2.66471e-19
2.53503e-19
2.19643e-19
2.05455e-19
1.85414e-19
1.75404e-19
1.42069e-19
1.47167e-19
1.13808e-19
1.18552e-19
9.87862e-20
9.76069e-20
8.31554e-20
8.03322e-20
6.59561e-20
6.92921e-20
5.15096e-20
5.81852e-20
4.639e-20
4.04741e-20
5.34669e-20
2.12865e-20
5.52287e-20
2.81134e-20
2.62335e-20
6.97231e-20
1.07467e-27
7.60097e-20
3.69799e-20
3.4086e-20
9.99328e-20
2.6431e-20
1.0187e-19
1.01604e-19
7.2275e-20
1.60202e-19
1.36626e-19
1.54589e-19
2.50854e-19
2.38052e-19
3.39176e-19
4.27738e-19
5.0207e-19
2.33776e-18
1.50549e-18
1.67847e-18
3.91731e-18
2.36107e-18
1.0292e-18
9.41876e-19
7.2729e-19
6.27136e-19
5.45005e-19
4.7873e-19
4.42478e-19
4.49987e-19
4.32262e-19
3.95246e-19
3.34776e-19
2.95944e-19
2.58295e-19
2.46199e-19
2.13658e-19
1.99878e-19
1.80387e-19
1.71581e-19
1.39191e-19
1.43703e-19
1.12194e-19
1.15877e-19
9.73893e-20
9.57407e-20
8.191e-20
7.88107e-20
6.52373e-20
6.79515e-20
5.11741e-20
5.70216e-20
4.61995e-20
3.94013e-20
5.27804e-20
2.12212e-20
5.34131e-20
2.86838e-20
2.46792e-20
6.72859e-20
7.75649e-23
7.15491e-20
3.753e-20
3.04549e-20
9.7671e-20
2.45791e-20
9.55774e-20
9.85588e-20
6.50611e-20
1.51395e-19
1.27712e-19
1.3921e-19
2.32859e-19
2.13406e-19
3.03823e-19
3.79163e-19
4.29123e-19
1.98162e-18
1.15471e-18
1.38756e-18
3.14744e-18
2.06039e-18
8.73767e-19
8.35239e-19
6.49541e-19
5.68034e-19
4.98411e-19
4.45601e-19
4.17456e-19
4.26537e-19
4.11099e-19
3.78157e-19
3.2193e-19
2.85942e-19
2.50648e-19
2.3932e-19
2.08036e-19
1.94608e-19
1.75665e-19
1.67891e-19
1.36525e-19
1.40363e-19
1.10704e-19
1.13318e-19
9.60747e-20
9.39692e-20
8.07338e-20
7.73424e-20
6.45614e-20
6.66281e-20
5.08702e-20
5.58881e-20
4.60127e-20
3.84005e-20
5.20706e-20
2.12123e-20
5.16125e-20
2.91611e-20
2.32473e-20
6.41072e-20
3.1463e-22
6.66612e-20
3.80133e-20
2.70047e-20
9.52989e-20
2.30418e-20
8.93095e-20
9.57349e-20
5.82687e-20
1.42895e-19
1.19558e-19
1.2495e-19
2.16163e-19
1.91709e-19
2.71694e-19
3.37809e-19
3.65817e-19
1.68042e-18
9.15507e-19
1.16555e-18
2.53062e-18
1.77275e-18
7.47993e-19
7.39916e-19
5.82594e-19
5.16555e-19
4.5717e-19
4.15409e-19
3.94585e-19
4.0504e-19
3.91612e-19
3.62279e-19
3.09921e-19
2.765e-19
2.43501e-19
2.32852e-19
2.02759e-19
1.89634e-19
1.71252e-19
1.64338e-19
1.34063e-19
1.37161e-19
1.09324e-19
1.1088e-19
9.48401e-20
9.22962e-20
7.96339e-20
7.59407e-20
6.39334e-20
6.53432e-20
5.0596e-20
5.48037e-20
4.58333e-20
3.74848e-20
5.1356e-20
2.12745e-20
4.98421e-20
2.96352e-20
2.18696e-20
6.18667e-20
7.71998e-22
6.27974e-20
3.85894e-20
2.37845e-20
9.28707e-20
2.18518e-20
8.31786e-20
9.31725e-20
5.20035e-20
1.34773e-19
1.12237e-19
1.11903e-19
2.00818e-19
1.72843e-19
2.42591e-19
3.02638e-19
3.1214e-19
1.43809e-18
7.71721e-19
1.01741e-18
2.05499e-18
1.50859e-18
6.47178e-19
6.55072e-19
5.24965e-19
4.71791e-19
4.20762e-19
3.87881e-19
3.73599e-19
3.853e-19
3.73676e-19
3.47524e-19
2.98681e-19
2.67575e-19
2.36821e-19
2.26777e-19
1.97804e-19
1.8494e-19
1.67142e-19
1.60924e-19
1.3179e-19
1.34106e-19
1.08043e-19
1.08563e-19
9.36818e-20
9.07219e-20
7.86138e-20
7.46135e-20
6.33547e-20
6.41101e-20
5.03507e-20
5.37802e-20
4.5667e-20
3.66541e-20
5.06568e-20
2.13937e-20
4.81428e-20
3.01007e-20
2.0597e-20
6.02011e-20
1.38667e-21
5.94715e-20
3.92289e-20
2.08499e-20
9.04244e-20
2.10046e-20
7.7261e-20
9.08717e-20
4.63163e-20
1.27082e-19
1.05752e-19
1.00068e-19
1.86776e-19
1.56514e-19
2.16273e-19
2.72573e-19
2.67725e-19
1.2494e-18
6.98814e-19
9.40675e-19
1.69562e-18
1.27548e-18
5.6511e-19
5.8002e-19
4.75315e-19
4.32913e-19
3.88693e-19
3.62777e-19
3.54258e-19
3.67127e-19
3.5716e-19
3.33806e-19
2.88145e-19
2.59126e-19
2.30571e-19
2.21066e-19
1.93146e-19
1.80506e-19
1.63319e-19
1.57646e-19
1.29692e-19
1.31202e-19
1.06848e-19
1.06364e-19
9.25946e-20
8.92439e-20
7.76722e-20
7.33659e-20
6.28248e-20
6.29369e-20
5.01322e-20
5.28254e-20
4.55156e-20
3.59089e-20
4.99828e-20
2.15631e-20
4.6533e-20
3.05457e-20
1.94744e-20
5.88229e-20
2.09747e-21
5.644e-20
3.99017e-20
1.82213e-20
8.79877e-20
2.04808e-20
7.16054e-20
8.88138e-20
4.12244e-20
1.19829e-19
1.00052e-19
8.93853e-20
1.73942e-19
1.42415e-19
1.92399e-19
2.46738e-19
2.31824e-19
1.10468e-18
6.70282e-19
9.26722e-19
1.42097e-18
1.07829e-18
4.95564e-19
5.1409e-19
4.32421e-19
3.99186e-19
3.60491e-19
3.39895e-19
3.36363e-19
3.50348e-19
3.41939e-19
3.21041e-19
2.78249e-19
2.51111e-19
2.24715e-19
2.15697e-19
1.88761e-19
1.76311e-19
1.59767e-19
1.54502e-19
1.27752e-19
1.28449e-19
1.0573e-19
1.04279e-19
9.15727e-20
8.78587e-20
7.68061e-20
7.22003e-20
6.23414e-20
6.18288e-20
4.99378e-20
5.19434e-20
4.53785e-20
3.52497e-20
4.93375e-20
2.1782e-20
4.5013e-20
3.09753e-20
1.85087e-20
5.75866e-20
2.88173e-21
5.36239e-20
4.06092e-20
1.58946e-20
8.55764e-20
2.02537e-20
6.62424e-20
8.69682e-20
3.67212e-20
1.12996e-19
9.50745e-20
7.97706e-20
1.62214e-19
1.30251e-19
1.70703e-19
2.24343e-19
2.03467e-19
9.92175e-19
6.62078e-19
9.63552e-19
1.20162e-18
9.18883e-19
4.33486e-19
4.56568e-19
3.95298e-19
3.69993e-19
3.35734e-19
3.19058e-19
3.19744e-19
3.34805e-19
3.27894e-19
3.09149e-19
2.68931e-19
2.43492e-19
2.19217e-19
2.10643e-19
1.84625e-19
1.72336e-19
1.56463e-19
1.51485e-19
1.25953e-19
1.25846e-19
1.04679e-19
1.02304e-19
9.06102e-20
8.65618e-20
7.60121e-20
7.1118e-20
6.19019e-20
6.07868e-20
4.97653e-20
5.11357e-20
4.5255e-20
3.46753e-20
4.87237e-20
2.2047e-20
4.3585e-20
3.13958e-20
1.76908e-20
5.64116e-20
3.73196e-21
5.09914e-20
4.13453e-20
1.38628e-20
8.32007e-20
2.029e-20
6.11952e-20
8.52996e-20
3.27878e-20
1.06562e-19
9.0745e-20
7.11424e-20
1.51482e-19
1.1976e-19
1.50948e-19
2.04809e-19
1.81789e-19
9.00548e-19
6.54292e-19
1.03737e-18
1.01235e-18
7.96196e-19
3.75464e-19
4.06555e-19
3.63131e-19
3.44809e-19
3.14055e-19
3.00113e-19
3.04262e-19
3.20359e-19
3.14916e-19
2.98055e-19
2.60135e-19
2.36232e-19
2.14045e-19
2.05879e-19
1.80717e-19
1.68564e-19
1.53388e-19
1.48592e-19
1.24282e-19
1.23386e-19
1.03689e-19
1.00431e-19
8.97024e-20
8.53482e-20
7.52867e-20
7.01185e-20
6.15038e-20
5.98101e-20
4.96128e-20
5.04025e-20
4.51448e-20
3.4183e-20
4.81442e-20
2.23525e-20
4.22533e-20
3.18077e-20
1.7012e-20
5.52841e-20
4.64064e-21
4.853e-20
4.2097e-20
1.21166e-20
8.08779e-20
2.05551e-20
5.64826e-20
8.3784e-20
2.93976e-20
1.0052e-19
8.69971e-20
6.34342e-20
1.41672e-19
1.1075e-19
1.32962e-19
1.87692e-19
1.65974e-19
8.19496e-19
6.32633e-19
5.61613e-18
7.02269e-18
6.49552e-18
5.19303e-18
3.7368e-18
2.69513e-18
2.0297e-18
1.50756e-18
1.12054e-18
9.2023e-19
8.56914e-19
7.7424e-19
6.58691e-19
5.27375e-19
4.3948e-19
3.69815e-19
3.38521e-19
2.9061e-19
2.69581e-19
2.39903e-19
2.15697e-19
1.78594e-19
1.80304e-19
1.36079e-19
1.43401e-19
1.12961e-19
1.13874e-19
9.26104e-20
9.12897e-20
7.19264e-20
7.54438e-20
5.52975e-20
6.29163e-20
4.57198e-20
4.82727e-20
4.79918e-20
2.60639e-20
5.3609e-20
1.85655e-20
3.46764e-20
4.4069e-20
5.0565e-21
6.7858e-20
1.65328e-20
4.95559e-20
7.48865e-20
2.94083e-20
1.02557e-19
8.00208e-20
8.56098e-20
1.54673e-19
1.35784e-19
1.98284e-19
2.86247e-19
3.56768e-19
5.29371e-19
8.50922e-19
1.50298e-18
3.4244e-18
3.84549e-18
5.8876e-18
7.18413e-18
6.66691e-18
5.32099e-18
3.79621e-18
2.72992e-18
2.05253e-18
1.52215e-18
1.12866e-18
9.25088e-19
8.60976e-19
7.77827e-19
6.613e-19
5.29083e-19
4.40645e-19
3.70723e-19
3.39379e-19
2.91309e-19
2.70071e-19
2.40538e-19
2.16214e-19
1.788e-19
1.80735e-19
1.36425e-19
1.43564e-19
1.13327e-19
1.14043e-19
9.28882e-20
9.14906e-20
7.20987e-20
7.56994e-20
5.54193e-20
6.31627e-20
4.59576e-20
4.83394e-20
4.86087e-20
2.58856e-20
5.4333e-20
1.88943e-20
3.46706e-20
4.5423e-20
4.68057e-21
6.92145e-20
1.74645e-20
4.97981e-20
7.75538e-20
2.99624e-20
1.05034e-19
8.3333e-20
8.7868e-20
1.60102e-19
1.41516e-19
2.05469e-19
2.98242e-19
3.72065e-19
5.5203e-19
8.8848e-19
1.55787e-18
3.58061e-18
3.93894e-18
6.07641e-18
7.31295e-18
6.72549e-18
5.35865e-18
3.80831e-18
2.73987e-18
2.06339e-18
1.53109e-18
1.13409e-18
9.28538e-19
8.64635e-19
7.81299e-19
6.63917e-19
5.30665e-19
4.41781e-19
3.7158e-19
3.40446e-19
2.92038e-19
2.70647e-19
2.41296e-19
2.16888e-19
1.78926e-19
1.81444e-19
1.367e-19
1.43955e-19
1.13702e-19
1.14386e-19
9.32077e-20
9.18749e-20
7.22843e-20
7.61897e-20
5.5544e-20
6.36426e-20
4.62965e-20
4.85321e-20
4.95854e-20
2.56574e-20
5.55812e-20
1.93803e-20
3.48763e-20
4.75246e-20
4.25218e-21
7.15127e-20
1.88905e-20
5.05736e-20
8.1628e-20
3.11557e-20
1.09095e-19
8.85276e-20
9.17345e-20
1.68517e-19
1.50367e-19
2.16312e-19
3.15335e-19
3.92845e-19
5.79694e-19
9.29713e-19
1.61593e-18
3.72391e-18
4.03542e-18
6.01591e-18
7.2326e-18
6.58704e-18
5.22639e-18
3.73759e-18
2.70063e-18
2.04503e-18
1.52253e-18
1.12909e-18
9.25441e-19
8.63724e-19
7.81454e-19
6.64097e-19
5.30609e-19
4.41728e-19
3.71568e-19
3.40902e-19
2.92254e-19
2.70743e-19
2.41757e-19
2.17346e-19
1.78804e-19
1.82011e-19
1.3687e-19
1.44248e-19
1.14051e-19
1.14705e-19
9.35299e-20
9.22526e-20
7.24789e-20
7.67239e-20
5.56672e-20
6.41983e-20
4.66823e-20
4.87431e-20
5.07467e-20
2.53838e-20
5.7078e-20
1.99778e-20
3.51445e-20
5.0034e-20
3.81625e-21
7.41955e-20
2.06741e-20
5.14854e-20
8.64002e-20
3.26744e-20
1.13728e-19
9.46326e-20
9.61432e-20
1.77853e-19
1.60281e-19
2.27568e-19
3.32875e-19
4.1263e-19
6.02828e-19
9.58613e-19
1.62865e-18
3.79407e-18
4.01178e-18
5.72549e-18
7.02911e-18
6.28186e-18
4.93403e-18
3.59035e-18
2.61191e-18
1.9937e-18
1.49271e-18
1.11023e-18
9.12673e-19
8.55132e-19
7.75524e-19
6.5989e-19
5.27592e-19
4.39551e-19
3.69947e-19
3.40032e-19
2.9141e-19
2.69894e-19
2.41434e-19
2.17205e-19
1.78229e-19
1.82101e-19
1.36769e-19
1.44282e-19
1.14209e-19
1.14873e-19
9.37426e-20
9.25138e-20
7.26041e-20
7.71933e-20
5.57422e-20
6.47156e-20
4.70444e-20
4.8897e-20
5.19189e-20
2.50759e-20
5.85568e-20
2.06179e-20
3.53727e-20
5.25577e-20
3.42969e-21
7.67469e-20
2.25836e-20
5.22782e-20
9.10811e-20
3.42675e-20
1.17954e-19
1.00619e-19
1.00221e-19
1.86294e-19
1.69447e-19
2.36855e-19
3.47124e-19
4.27485e-19
6.16409e-19
9.73193e-19
1.59524e-18
3.81834e-18
3.91777e-18
5.37884e-18
6.93107e-18
5.91019e-18
4.55812e-18
3.39872e-18
2.49086e-18
1.91643e-18
1.44438e-18
1.07886e-18
8.9045e-19
8.38385e-19
7.62784e-19
6.50604e-19
5.21033e-19
4.3482e-19
3.66365e-19
3.37498e-19
2.89225e-19
2.67856e-19
2.40032e-19
2.16204e-19
1.7705e-19
1.81513e-19
1.36232e-19
1.43946e-19
1.14052e-19
1.14802e-19
9.3766e-20
9.25758e-20
7.2602e-20
7.75102e-20
5.57178e-20
6.51012e-20
4.73232e-20
4.89293e-20
5.29707e-20
2.47368e-20
5.98642e-20
2.12236e-20
3.55256e-20
5.48291e-20
3.11945e-21
7.88833e-20
2.43821e-20
5.28625e-20
9.50638e-20
3.57473e-20
1.2133e-19
1.05708e-19
1.03616e-19
1.92836e-19
1.76933e-19
2.4351e-19
3.57221e-19
4.36806e-19
6.22098e-19
9.76285e-19
1.5344e-18
3.85914e-18
3.86083e-18
5.04071e-18
7.06271e-18
5.52829e-18
4.15375e-18
3.1791e-18
2.34691e-18
1.81879e-18
1.3813e-18
1.03704e-18
8.60198e-19
8.14391e-19
7.43724e-19
6.36448e-19
5.11039e-19
4.27599e-19
3.60873e-19
3.33296e-19
2.85668e-19
2.6463e-19
2.37489e-19
2.14281e-19
1.75214e-19
1.80163e-19
1.35161e-19
1.43169e-19
1.13531e-19
1.14407e-19
9.35639e-20
9.23837e-20
7.244e-20
7.76158e-20
5.55745e-20
6.52967e-20
4.74876e-20
4.88111e-20
5.38255e-20
2.43662e-20
6.09e-20
2.17393e-20
3.56082e-20
5.67149e-20
2.88204e-21
8.0543e-20
2.591e-20
5.32717e-20
9.81848e-20
3.6975e-20
1.23854e-19
1.09607e-19
1.06313e-19
1.97489e-19
1.82483e-19
2.4778e-19
3.63366e-19
4.40996e-19
6.21912e-19
9.69653e-19
1.45646e-18
3.93776e-18
3.91139e-18
4.73484e-18
7.43893e-18
5.15872e-18
3.75537e-18
2.93711e-18
2.18517e-18
1.70491e-18
1.30623e-18
9.86981e-19
8.23595e-19
7.84539e-19
7.19499e-19
6.18205e-19
4.98049e-19
4.18175e-19
3.53669e-19
3.27594e-19
2.80904e-19
2.60372e-19
2.3393e-19
2.11523e-19
1.72761e-19
1.78096e-19
1.33568e-19
1.41922e-19
1.12655e-19
1.13663e-19
9.31388e-20
9.19269e-20
7.21181e-20
7.74944e-20
5.53184e-20
6.52779e-20
4.75414e-20
4.85352e-20
5.44655e-20
2.39709e-20
6.16744e-20
2.21613e-20
3.56243e-20
5.82522e-20
2.6887e-21
8.18123e-20
2.7155e-20
5.35438e-20
1.00559e-19
3.78949e-20
1.2581e-19
1.12404e-19
1.08402e-19
2.00689e-19
1.86304e-19
2.5008e-19
3.66298e-19
4.40549e-19
6.17405e-19
9.5369e-19
1.36914e-18
4.04823e-18
4.06926e-18
4.46594e-18
7.96642e-18
4.81204e-18
3.38722e-18
2.67985e-18
2.01137e-18
1.57957e-18
1.22262e-18
9.3126e-19
7.82516e-19
7.50485e-19
6.91431e-19
5.96877e-19
4.82738e-19
4.06974e-19
3.45053e-19
3.20645e-19
2.75149e-19
2.55289e-19
2.2956e-19
2.08104e-19
1.69798e-19
1.75436e-19
1.31535e-19
1.40216e-19
1.11472e-19
1.12574e-19
9.2513e-20
9.12205e-20
7.16619e-20
7.7164e-20
5.49734e-20
6.50562e-20
4.75128e-20
4.8106e-20
5.49271e-20
2.35608e-20
6.22105e-20
2.25338e-20
3.55497e-20
5.9564e-20
2.49221e-21
8.27855e-20
2.82085e-20
5.36159e-20
1.0249e-19
3.84337e-20
1.27297e-19
1.14337e-19
1.09757e-19
2.02709e-19
1.88372e-19
2.50306e-19
3.66309e-19
4.35415e-19
6.08318e-19
9.27793e-19
1.27792e-18
4.16256e-18
4.26758e-18
4.22682e-18
8.491e-18
4.49612e-18
3.05707e-18
2.4182e-18
1.83175e-18
1.44823e-18
1.13423e-18
8.72463e-19
7.38927e-19
7.1381e-19
6.60858e-19
5.73529e-19
4.65857e-19
3.9454e-19
3.35413e-19
3.1275e-19
2.68624e-19
2.49584e-19
2.24598e-19
2.04248e-19
1.66464e-19
1.72344e-19
1.29201e-19
1.38093e-19
1.10065e-19
1.11171e-19
9.17151e-20
9.02915e-20
7.11058e-20
7.665e-20
5.45677e-20
6.46492e-20
4.74388e-20
4.75263e-20
5.52486e-20
2.3144e-20
6.25024e-20
2.29365e-20
3.5319e-20
6.0764e-20
2.24813e-21
8.34715e-20
2.92001e-20
5.32907e-20
1.04111e-19
3.84953e-20
1.28114e-19
1.15505e-19
1.09959e-19
2.03316e-19
1.88474e-19
2.47805e-19
3.62863e-19
4.24581e-19
5.92981e-19
8.87959e-19
1.18293e-18
4.241e-18
4.39259e-18
3.99552e-18
8.81497e-18
4.21369e-18
2.75633e-18
2.16389e-18
1.65308e-18
1.31645e-18
1.04471e-18
8.13121e-19
6.94646e-19
6.76014e-19
6.29048e-19
5.49121e-19
4.48123e-19
3.81406e-19
3.25163e-19
3.04226e-19
2.61594e-19
2.43417e-19
2.1922e-19
2.0015e-19
1.62899e-19
1.68967e-19
1.26722e-19
1.35626e-19
1.08499e-19
1.09504e-19
9.07628e-20
8.91728e-20
7.04809e-20
7.59741e-20
5.41278e-20
6.40717e-20
4.73455e-20
4.6793e-20
5.54508e-20
2.27291e-20
6.25043e-20
2.34205e-20
3.48133e-20
6.18805e-20
1.92943e-21
8.36895e-20
3.02043e-20
5.23491e-20
1.05328e-19
3.79794e-20
1.27868e-19
1.15795e-19
1.08575e-19
2.02071e-19
1.86176e-19
2.41759e-19
3.55212e-19
4.07383e-19
5.6983e-19
8.33738e-19
1.08332e-18
4.23391e-18
4.35154e-18
3.74973e-18
8.8151e-18
3.95956e-18
2.47436e-18
1.92597e-18
1.48099e-18
1.18887e-18
9.5702e-19
7.55176e-19
6.51154e-19
6.38339e-19
5.97034e-19
5.24453e-19
4.30137e-19
3.68022e-19
3.14655e-19
2.95368e-19
2.54277e-19
2.36958e-19
2.13572e-19
1.95939e-19
1.59228e-19
1.65412e-19
1.24238e-19
1.32904e-19
1.06844e-19
1.07635e-19
8.96737e-20
8.7894e-20
6.98047e-20
7.51468e-20
5.3673e-20
6.33405e-20
4.72444e-20
4.59071e-20
5.55213e-20
2.23259e-20
6.21592e-20
2.40025e-20
3.39702e-20
6.28554e-20
1.54042e-21
8.32783e-20
3.1211e-20
5.0626e-20
1.05974e-19
3.68504e-20
1.26279e-19
1.15104e-19
1.05415e-19
1.98686e-19
1.81353e-19
2.32059e-19
3.43234e-19
3.8417e-19
5.38775e-19
7.67633e-19
9.80131e-19
4.11427e-18
4.10402e-18
3.46873e-18
8.44835e-18
3.71943e-18
2.2013e-18
1.70963e-18
1.31976e-18
1.06916e-18
8.7333e-19
6.99974e-19
6.09535e-19
6.01759e-19
5.65645e-19
5.00161e-19
4.12342e-19
3.54737e-19
3.04189e-19
2.86439e-19
2.46889e-19
2.30373e-19
2.07787e-19
1.91703e-19
1.55554e-19
1.61759e-19
1.21848e-19
1.30035e-19
1.05157e-19
1.05638e-19
8.8471e-20
8.64881e-20
6.90862e-20
7.4175e-20
5.3219e-20
6.24657e-20
4.71333e-20
4.48856e-20
5.54374e-20
2.19501e-20
6.14256e-20
2.46639e-20
3.27888e-20
6.35948e-20
1.11509e-21
8.21494e-20
3.21812e-20
4.81518e-20
1.05935e-19
3.51737e-20
1.23295e-19
1.13438e-19
1.00547e-19
1.93257e-19
1.74305e-19
2.19151e-19
3.27573e-19
3.56371e-19
5.01476e-19
6.94323e-19
8.75513e-19
3.87722e-18
3.66897e-18
3.14554e-18
7.75703e-18
3.47865e-18
1.93379e-18
1.51658e-18
1.17194e-18
9.59439e-19
7.9509e-19
6.48321e-19
5.705e-19
5.66931e-19
5.35491e-19
4.76697e-19
3.951e-19
3.41806e-19
2.93998e-19
2.77641e-19
2.39618e-19
2.23819e-19
2.0198e-19
1.8749e-19
1.51957e-19
1.58067e-19
1.19607e-19
1.27103e-19
1.03484e-19
1.03581e-19
8.71865e-20
8.4989e-20
6.83356e-20
7.30705e-20
5.27781e-20
6.14682e-20
4.70052e-20
4.37677e-20
5.51881e-20
2.16203e-20
6.0317e-20
2.53713e-20
3.1331e-20
6.4037e-20
7.0517e-22
8.03515e-20
3.30895e-20
4.50657e-20
1.05209e-19
3.31043e-20
1.19087e-19
1.10993e-19
9.435e-20
1.86196e-19
1.65642e-19
2.0398e-19
3.09353e-19
3.2602e-19
4.60485e-19
6.19786e-19
7.72807e-19
3.54495e-18
3.11451e-18
2.78499e-18
6.84251e-18
3.22496e-18
1.67536e-18
1.34585e-18
1.03885e-18
8.60616e-19
7.23139e-19
6.00594e-19
5.34402e-19
5.34311e-19
5.0695e-19
4.54353e-19
3.78634e-19
3.29381e-19
2.84227e-19
2.69121e-19
2.32587e-19
2.17414e-19
1.96257e-19
1.83338e-19
1.48493e-19
1.54378e-19
1.17534e-19
1.24176e-19
1.01859e-19
1.01518e-19
8.5859e-20
8.34354e-20
6.75683e-20
7.18565e-20
5.23591e-20
6.03763e-20
4.6856e-20
4.26021e-20
5.47804e-20
2.13524e-20
5.88954e-20
2.60913e-20
2.96893e-20
6.41642e-20
3.64743e-22
7.79876e-20
3.39384e-20
4.15677e-20
1.03893e-19
3.0842e-20
1.13911e-19
1.08042e-19
8.72978e-20
1.78024e-19
1.56087e-19
1.87596e-19
2.89831e-19
2.95193e-19
4.18435e-19
5.48788e-19
6.75094e-19
3.1516e-18
2.52326e-18
2.40471e-18
5.8309e-18
2.95315e-18
1.43381e-18
1.19502e-18
9.20804e-19
7.72786e-19
6.57804e-19
5.56832e-19
5.01322e-19
5.04049e-19
4.80227e-19
4.33293e-19
3.63048e-19
3.17542e-19
2.7496e-19
2.60971e-19
2.25875e-19
2.11244e-19
1.90709e-19
1.79277e-19
1.45205e-19
1.50732e-19
1.15627e-19
1.21305e-19
1.00301e-19
9.94918e-20
8.45296e-20
8.18621e-20
6.68015e-20
7.05647e-20
5.19667e-20
5.9227e-20
4.66867e-20
4.14362e-20
5.4243e-20
2.1157e-20
5.72476e-20
2.67999e-20
2.79646e-20
6.39876e-20
1.38928e-22
7.5226e-20
3.47464e-20
3.7861e-20
1.02125e-19
2.85787e-20
1.08097e-19
1.04862e-19