/*--------------------------------*- C++ -*----------------------------------*\
| =========                 |                                                 |
| \\      /  F ield         | OpenFOAM: The Open Source CFD Toolbox           |
|  \\    /   O peration     | Version:  2312                                  |
|   \\  /    A nd           | Website:  www.openfoam.com                      |
|    \\/     M anipulation  |                                                 |
\*---------------------------------------------------------------------------*/
FoamFile
{
    version     2.0;
    format      ascii;
    arch        "LSB;label=32;scalar=64";
    class       volScalarField;
    location    "40";
    object      nut;
}
// * * * * * * * * * * * * * * * * * * * * * * * * * * * * * * * * * * * * * //

dimensions      [0 2 -1 0 0 0 0];

internalField   nonuniform List<scalar> 
144000
(
3.74079e-26
8.65759e-26
5.28146e-27
8.08234e-27
4.39758e-30
7.1259e-30
3.05881e-30
3.97315e-30
3.33885e-31
8.06793e-31
2.01394e-31
2.31558e-32
6.22285e-30
3.24279e-30
1.66542e-29
6.90447e-29
8.922e-31
1.60846e-29
2.08615e-31
4.72531e-30
1.02941e-30
2.95472e-29
4.9281e-32
1.79465e-29
8.92665e-30
5.48339e-31
2.21801e-31
1.59845e-30
5.42349e-31
1.10947e-30
1.64665e-31
4.16338e-31
2.73685e-29
5.90964e-30
6.0951e-31
4.19403e-30
7.62295e-31
1.32601e-30
5.84334e-31
4.45973e-30
1.04955e-29
8.64971e-33
5.59889e-30
1.92684e-29
3.31816e-30
2.52794e-33
7.00995e-30
4.27861e-30
5.14974e-33
5.97042e-30
7.7177e-30
3.05906e-31
4.9881e-31
6.94466e-31
7.74904e-33
1.3984e-28
1.34029e-26
9.91439e-27
4.65579e-28
1.02755e-25
1.91553e-25
4.8038e-25
6.72478e-26
1.02288e-26
1.10594e-28
5.23245e-29
1.02484e-28
4.36669e-29
8.22605e-31
2.28417e-31
7.69335e-30
4.79605e-31
7.45887e-30
8.78825e-30
3.16167e-29
1.14666e-28
5.08325e-30
2.15106e-29
8.45214e-31
9.413e-30
3.58003e-30
4.49681e-29
1.42809e-30
2.81562e-29
1.23133e-29
2.57207e-30
1.38401e-31
1.18789e-30
1.11202e-30
9.96466e-31
2.28995e-31
3.10419e-30
2.629e-29
1.83987e-29
2.38437e-31
7.72485e-31
5.53086e-30
1.38039e-31
1.42005e-31
1.55547e-29
8.61949e-30
4.86718e-31
1.38138e-29
1.89656e-29
1.07758e-29
6.4854e-32
7.62027e-30
7.16397e-30
8.97354e-32
8.87521e-30
1.92572e-29
4.88643e-31
8.31386e-32
7.4657e-31
2.30487e-31
3.50504e-28
4.46818e-26
1.60626e-25
1.25317e-25
1.68941e-24
2.75285e-24
4.40459e-25
7.09281e-25
2.78051e-26
6.44566e-28
6.82029e-28
2.65086e-28
5.17993e-29
6.23635e-31
5.11003e-30
1.01543e-29
6.05578e-31
2.55973e-29
1.75773e-29
3.74934e-29
1.9934e-28
1.75715e-29
3.15143e-29
2.94502e-30
2.1396e-29
1.24514e-29
7.76561e-29
6.70662e-30
4.67043e-29
1.9725e-29
4.8455e-30
8.16053e-31
3.03397e-30
1.41138e-30
1.24157e-30
5.55509e-31
8.17336e-30
4.21323e-29
2.55482e-29
1.64609e-30
2.03434e-30
5.31901e-30
7.86509e-31
7.65205e-31
1.6167e-29
1.78578e-29
2.25448e-30
1.54316e-29
3.58907e-29
1.77388e-29
1.15864e-31
1.38654e-29
8.12005e-30
1.45448e-31
1.83315e-29
2.7023e-29
1.93346e-30
4.34535e-31
8.91255e-31
7.38949e-31
1.03674e-27
1.18039e-25
1.65083e-25
1.16824e-24
2.07515e-24
1.05664e-23
2.37608e-25
2.29252e-24
1.10145e-25
5.85161e-28
2.2723e-27
6.036e-28
6.82904e-29
3.92432e-30
3.05617e-29
2.19848e-29
4.85009e-30
7.22296e-29
3.61597e-29
4.34027e-29
3.12416e-28
4.14277e-29
4.41277e-29
5.8827e-30
4.03981e-29
3.44304e-29
1.11298e-28
1.60792e-29
7.7233e-29
3.17299e-29
9.58192e-30
2.55869e-30
6.12742e-30
2.9595e-30
1.23364e-30
2.82619e-30
2.38002e-29
5.58815e-29
3.82954e-29
6.31827e-30
4.93776e-30
6.0285e-30
2.57713e-30
2.11319e-30
1.69542e-29
3.17037e-29
7.25813e-30
1.84645e-29
6.59151e-29
2.57851e-29
1.60276e-31
2.23471e-29
1.16252e-29
2.55913e-31
3.56728e-29
3.47286e-29
3.9655e-30
1.40871e-30
4.10008e-30
2.08463e-30
1.4031e-27
2.41328e-25
2.03304e-25
4.16015e-24
1.98926e-24
1.83795e-23
3.92626e-25
3.95427e-24
2.73317e-25
1.12041e-27
5.08099e-27
1.29012e-27
1.32567e-28
7.36123e-30
5.76262e-29
5.68424e-29
1.63844e-29
1.475e-28
7.45767e-29
5.77108e-29
4.76076e-28
8.84218e-29
5.37269e-29
8.64134e-30
6.29506e-29
7.66062e-29
1.46691e-28
2.77526e-29
1.19073e-28
5.72404e-29
2.02915e-29
6.03217e-30
8.24679e-30
6.71709e-30
1.90786e-30
8.35555e-30
5.51875e-29
7.56457e-29
6.39461e-29
1.87918e-29
7.46269e-30
1.17906e-29
4.6715e-30
3.48303e-30
2.55098e-29
4.56228e-29
1.85274e-29
2.88868e-29
1.10468e-28
4.15244e-29
1.63677e-31
3.40198e-29
2.05269e-29
3.12226e-31
6.08196e-29
4.74006e-29
6.71952e-30
5.15367e-30
2.18826e-29
1.28201e-29
1.50649e-27
3.65134e-25
3.45587e-25
6.94189e-24
2.26634e-24
1.75722e-23
1.00187e-24
4.85654e-24
3.72949e-25
3.56371e-27
1.1014e-26
2.69104e-27
2.67753e-28
1.00151e-29
8.24179e-29
1.18281e-28
3.61762e-29
2.60987e-28
1.48075e-28
1.02275e-28
7.51246e-28
1.8296e-28
7.84083e-29
1.20751e-29
9.19827e-29
1.61485e-28
2.06194e-28
4.48064e-29
1.87965e-28
1.07301e-28
3.83151e-29
1.44885e-29
1.13656e-29
1.38527e-29
4.60422e-30
1.85579e-29
1.20512e-28
1.23993e-28
1.07574e-28
4.90031e-29
1.24036e-29
2.7786e-29
7.29366e-30
5.70738e-30
4.81073e-29
6.91942e-29
4.19396e-29
5.74335e-29
1.82199e-28
7.54431e-29
1.66183e-31
5.99459e-29
3.88108e-29
3.8234e-31
9.39727e-29
6.98315e-29
5.53333e-30
2.73859e-29
1.25261e-28
1.87532e-28
1.07427e-27
4.09386e-25
7.95181e-25
6.37114e-24
3.95831e-24
8.88068e-24
1.91761e-24
4.37008e-24
2.48929e-25
1.66936e-26
2.12179e-26
5.67783e-27
5.30574e-28
1.29912e-29
1.22145e-28
2.25822e-28
6.48715e-29
4.36866e-28
2.89094e-28
1.98944e-28
1.21442e-27
3.747e-28
1.36676e-28
1.73411e-29
1.35964e-28
3.33314e-28
3.05306e-28
7.74267e-29
3.09048e-28
1.99897e-28
6.51433e-29
3.58127e-29
1.89667e-29
2.56603e-29
1.21782e-29
3.55214e-29
2.69359e-28
2.21251e-28
1.68953e-28
1.19352e-28
2.5477e-29
6.16145e-29
1.06176e-29
1.08559e-29
9.32594e-29
1.15091e-28
9.93326e-29
1.17692e-28
3.08553e-28
1.48115e-28
3.00317e-31
1.16992e-28
7.31614e-29
6.18063e-31
1.4306e-28
1.06264e-28
1.56539e-30
1.13657e-28
5.20458e-28
1.10637e-27
1.32914e-27
4.40212e-25
2.43385e-24
1.86785e-24
1.06907e-23
8.98533e-24
3.8145e-24
4.2822e-24
5.87996e-26
6.04047e-26
4.08208e-26
1.24145e-26
9.79165e-28
1.68041e-29
1.87924e-28
4.20083e-28
1.05551e-28
7.06457e-28
5.70914e-28
3.76302e-28
1.98809e-27
7.86907e-28
2.43201e-28
2.54622e-29
2.13408e-28
6.73013e-28
4.6456e-28
1.45748e-28
5.1363e-28
3.79461e-28
1.08043e-28
9.1508e-29
3.37988e-29
4.66346e-29
3.14417e-29
6.29951e-29
6.21389e-28
3.8633e-28
2.55522e-28
2.80801e-28
5.70264e-29
1.22263e-28
1.70414e-29
2.18216e-29
1.83934e-28
2.12874e-28
2.50883e-28
2.23494e-28
5.42302e-28
3.11856e-28
1.35851e-30
2.30937e-28
1.41733e-28
1.05247e-30
2.39617e-28
1.59026e-28
8.14458e-31
3.20517e-28
1.56696e-27
3.3206e-27
2.60884e-27
6.59423e-25
7.30691e-24
2.06093e-26
3.01386e-23
5.65137e-23
8.59302e-24
1.00105e-23
4.00227e-26
1.9082e-25
7.68847e-26
2.82989e-26
1.9263e-27
2.0872e-29
2.8268e-28
7.77426e-28
1.6585e-28
1.12808e-27
1.15722e-27
7.05316e-28
3.2694e-27
1.7595e-27
4.03504e-28
3.8565e-29
3.57835e-28
1.32958e-27
7.58016e-28
2.78665e-28
8.50225e-28
7.74264e-28
1.81127e-28
2.38589e-28
5.82225e-29
9.35224e-29
7.98065e-29
1.05924e-28
1.44903e-27
6.53559e-28
4.01778e-28
6.53476e-28
1.27947e-28
2.26038e-28
4.09591e-29
4.08772e-29
3.69707e-28
4.00587e-28
6.78229e-28
3.48345e-28
1.0692e-27
6.99947e-28
8.09793e-30
4.46009e-28
2.94481e-28
1.77124e-30
4.6838e-28
2.32925e-28
1.08958e-29
6.96524e-28
3.92931e-27
7.2941e-27
5.86028e-27
1.4899e-24
1.61479e-23
5.61229e-24
5.8812e-23
3.41838e-22
2.74122e-23
3.28179e-23
9.51876e-25
5.71721e-25
1.40502e-25
6.58762e-26
4.39451e-27
2.58688e-29
4.00986e-28
1.4334e-27
2.54208e-28
1.81577e-27
2.41279e-27
1.34624e-27
5.45745e-27
4.26998e-27
6.24025e-28
6.37987e-29
6.538e-28
2.60068e-27
1.40654e-27
5.11185e-28
1.46501e-27
1.69756e-27
3.17056e-28
6.2552e-28
1.03824e-28
2.18107e-28
1.94451e-28
1.73669e-28
3.41209e-27
1.13295e-27
6.89959e-28
1.53503e-27
2.79837e-28
4.16411e-28
1.45894e-28
6.7215e-29
7.19567e-28
6.38799e-28
1.90054e-27
3.96861e-28
2.51355e-27
1.60133e-27
4.26727e-29
8.31499e-28
6.68072e-28
2.99922e-30
1.0666e-27
3.72707e-28
5.80877e-29
1.22983e-27
8.41487e-27
1.27667e-26
1.36036e-26
3.98557e-24
3.19177e-23
6.93143e-23
1.09161e-22
1.46297e-21
8.93882e-23
1.03631e-22
7.64622e-24
1.62213e-24
2.60083e-25
1.55418e-25
1.10047e-26
3.49282e-29
5.0997e-28
2.60867e-27
3.74489e-28
3.01173e-27
5.19513e-27
2.67696e-27
9.44362e-27
1.12533e-26
9.25994e-28
1.21503e-28
1.34049e-27
5.14094e-27
3.03507e-27
8.66305e-28
2.69101e-27
3.9145e-27
5.97439e-28
1.65214e-27
2.24253e-28
5.68073e-28
4.50543e-28
2.85729e-28
8.25067e-27
2.1259e-27
1.31107e-27
3.71323e-27
6.04307e-28
8.46579e-28
6.20581e-28
9.09278e-29
1.24955e-27
9.84814e-28
5.32761e-27
3.77273e-28
6.83521e-27
3.61052e-27
1.9432e-28
1.50604e-27
1.64506e-27
4.70982e-30
2.77613e-27
7.31697e-28
1.84112e-28
1.83219e-27
1.6009e-26
1.91858e-26
3.32913e-26
1.06966e-23
5.71158e-23
3.52241e-22
1.85402e-22
4.74518e-21
2.96532e-22
2.82994e-22
3.64165e-23
3.82274e-24
5.25109e-25
3.78727e-25
2.9508e-26
6.17791e-29
5.06086e-28
4.60832e-27
5.20643e-28
5.18232e-27
1.1682e-26
5.68078e-27
1.7348e-26
3.23161e-26
1.35711e-27
2.76834e-28
3.12077e-27
1.0457e-26
7.62153e-27
1.29628e-27
5.18086e-27
9.34803e-27
1.24529e-27
4.4733e-27
6.59654e-28
1.58071e-27
1.02431e-27
4.76802e-28
2.10292e-26
4.49306e-27
2.6909e-27
9.37265e-27
1.40817e-27
2.25253e-27
2.90494e-27
1.09123e-28
1.60266e-27
1.45031e-27
1.67655e-26
4.39561e-28
2.05812e-26
7.15291e-27
7.40745e-28
2.85671e-27
4.22989e-27
6.86198e-30
8.30007e-27
1.86644e-27
5.26264e-28
2.38953e-27
2.84939e-26
2.51506e-26
8.46409e-26
2.58732e-23
1.08144e-22
1.22092e-21
3.40076e-22
1.31019e-20
8.85421e-22
7.11173e-22
1.34017e-22
8.74396e-24
1.13894e-24
9.49342e-25
8.81163e-26
1.57009e-28
3.48338e-28
7.95032e-27
6.6316e-28
9.35316e-27
2.77641e-26
1.34111e-26
3.43675e-26
1.01397e-25
1.98976e-27
7.57152e-28
8.21795e-27
2.21534e-26
2.20586e-26
1.5632e-27
1.00568e-26
2.28984e-26
2.95358e-27
1.26676e-26
2.56803e-27
4.58683e-27
2.47631e-27
7.83841e-28
5.77209e-26
1.08636e-26
5.8342e-27
2.50638e-26
3.7947e-27
7.85617e-27
1.35337e-26
2.61411e-28
1.83285e-27
4.05737e-27
6.73236e-26
1.78837e-27
4.95919e-26
1.46929e-26
2.86887e-27
6.05814e-27
1.12268e-26
1.05829e-29
2.86695e-26
6.03339e-27
1.6739e-27
2.61853e-27
4.97656e-26
3.09308e-26
2.17071e-25
5.68926e-23
2.01843e-22
3.42181e-21
5.64805e-22
3.34111e-20
2.5615e-21
1.63158e-21
4.34625e-22
2.06865e-23
2.64295e-24
2.42335e-24
2.82516e-25
5.05751e-28
4.84628e-28
1.29385e-26
7.01258e-28
1.84212e-26
6.99103e-26
3.59174e-26
7.4914e-26
3.47117e-25
2.87017e-27
2.40894e-27
2.42636e-26
4.894e-26
7.18712e-26
1.2759e-27
1.94858e-26
5.70039e-26
8.04462e-27
3.81005e-26
1.1894e-26
1.37966e-26
6.98368e-27
1.17452e-27
1.72985e-25
3.10646e-26
1.40919e-26
7.18456e-26
9.91159e-27
2.65585e-26
5.13866e-26
2.42443e-28
9.46647e-27
6.69956e-26
2.783e-25
4.04774e-26
4.11398e-26
6.18769e-26
1.38832e-26
1.07257e-26
3.41286e-26
1.19965e-29
1.10893e-25
2.35718e-26
6.40123e-27
2.43045e-27
8.7197e-26
3.60426e-26
5.42346e-25
1.14822e-22
3.866e-22
8.6064e-21
9.53687e-22
5.28175e-20
4.66118e-21
2.29905e-21
8.57711e-22
3.46889e-23
4.37853e-24
4.14475e-24
6.22722e-25
1.40531e-27
4.7468e-27
1.28506e-26
3.26082e-28
2.7871e-26
1.22138e-25
7.27853e-26
1.19408e-25
8.41324e-25
2.62117e-27
5.63751e-27
5.16497e-26
7.37042e-26
1.6873e-25
5.05583e-28
2.48837e-26
9.39053e-26
1.63354e-26
8.01372e-26
3.92581e-26
2.81713e-26
1.63434e-26
8.93931e-28
3.71059e-25
6.8402e-26
2.6265e-26
1.44661e-25
1.61738e-26
5.8631e-26
1.1964e-25
2.82624e-28
5.21535e-26
6.22781e-25
1.32248e-24
4.66069e-25
4.99509e-27
3.05618e-25
5.7833e-26
6.45093e-27
8.08691e-26
2.06865e-30
3.04562e-25
6.87921e-26
1.82809e-26
2.38713e-27
1.01427e-25
2.70815e-26
8.33668e-25
1.43739e-22
4.89986e-22
1.31334e-20
9.73149e-22
9.58393e-21
9.88309e-22
3.60419e-22
1.92625e-22
7.22082e-24
9.18995e-25
8.43194e-25
1.64686e-25
5.53596e-28
5.33602e-27
1.569e-27
8.4798e-30
6.0544e-27
2.63256e-26
1.98204e-26
2.51501e-26
2.53784e-25
3.03428e-28
1.69303e-27
1.38134e-26
1.33476e-26
5.01913e-26
3.1937e-28
3.81629e-27
1.80584e-26
4.30223e-27
2.09581e-26
1.57018e-26
7.11478e-27
5.80413e-27
4.31224e-29
9.99366e-26
1.90377e-26
5.20341e-27
3.52903e-26
6.24057e-27
2.94484e-26
5.80122e-26
8.2634e-27
1.02632e-26
1.00021e-25
1.81511e-25
1.71482e-25
2.1248e-26
3.06585e-26
2.09714e-26
1.35417e-27
1.83874e-26
6.31532e-30
1.06648e-25
2.42434e-26
6.57949e-27
1.50424e-27
1.41055e-26
2.38144e-27
1.41699e-25
2.03681e-23
7.6733e-23
2.27347e-21
1.13651e-22
1.1279e-21
1.37328e-22
3.56864e-23
2.79699e-23
1.08869e-24
1.38255e-25
1.16087e-25
2.96023e-26
1.51456e-28
2.75117e-27
2.33683e-28
2.37207e-30
1.08234e-27
3.96175e-27
4.0465e-27
4.00382e-27
5.32313e-26
3.7794e-29
3.61364e-28
2.58537e-27
1.63543e-27
1.05339e-26
3.2964e-28
4.32021e-28
2.27767e-27
8.15479e-28
3.83951e-27
4.18616e-27
1.25762e-27
1.60976e-27
2.57884e-31
1.88831e-26
3.84852e-27
6.74898e-28
6.17266e-27
1.91406e-27
9.20036e-27
1.74617e-26
1.21055e-26
3.29418e-26
5.59885e-25
1.93105e-25
5.49515e-25
3.32653e-26
7.77237e-28
5.62264e-27
4.39556e-28
2.86113e-27
8.73744e-30
2.60923e-26
5.86774e-27
1.60063e-27
8.61617e-28
1.41117e-27
1.93377e-28
1.4108e-26
1.87455e-24
8.34338e-24
2.51418e-22
8.02825e-24
1.16706e-22
1.67548e-23
3.02834e-24
3.55421e-24
1.56533e-25
1.92123e-26
1.4156e-26
4.68095e-27
3.36164e-29
9.84995e-28
6.81953e-29
2.856e-30
2.00873e-28
5.45091e-28
7.87407e-28
6.35006e-28
1.0092e-26
9.00446e-30
7.08753e-29
4.39507e-28
1.77288e-28
2.01538e-27
1.79946e-28
5.60926e-29
2.45339e-28
1.4354e-28
6.44428e-28
9.66804e-28
2.01956e-28
4.10838e-28
4.63587e-31
3.28009e-27
7.4553e-28
1.0995e-28
1.02414e-27
3.42142e-28
1.44764e-27
1.9817e-27
8.75253e-28
1.45369e-28
2.02137e-27
2.68671e-28
3.89032e-27
3.64153e-28
9.3619e-28
1.10181e-27
9.61271e-30
5.36901e-28
1.83328e-30
5.57052e-27
1.2925e-27
3.3306e-28
3.45791e-28
1.48419e-28
2.39341e-29
1.11731e-27
1.56435e-25
8.41569e-25
2.42472e-23
4.29822e-25
1.05829e-23
1.81427e-24
2.18255e-25
3.95384e-25
2.11692e-26
2.48498e-27
1.56044e-27
6.5786e-28
6.64358e-30
2.66434e-28
2.23229e-29
1.46106e-30
3.67335e-29
6.87878e-29
1.43122e-28
9.94023e-29
1.72679e-27
2.68871e-30
1.27154e-29
6.77883e-29
1.72168e-29
3.49089e-28
6.31741e-29
9.23543e-30
2.26652e-29
2.32177e-29
9.90115e-29
1.94403e-28
3.01382e-29
9.35996e-29
6.79816e-31
5.2057e-28
1.29087e-28
1.57366e-29
1.5294e-28
6.52063e-29
2.63556e-28
2.84618e-28
1.20037e-28
2.06656e-29
4.35342e-28
4.55985e-28
9.65482e-28
9.73094e-31
3.36562e-28
2.45749e-28
2.86075e-31
8.01837e-29
4.18561e-31
1.05835e-27
2.48178e-28
6.16021e-29
1.0142e-28
1.76083e-29
4.94084e-30
6.8882e-29
1.22626e-26
7.92215e-26
2.02135e-24
2.0724e-26
8.66566e-25
1.78676e-25
1.3954e-26
3.95796e-26
2.66161e-27
2.96617e-28
1.5537e-28
8.23182e-29
1.15762e-30
5.78177e-29
6.06862e-30
4.56926e-31
6.23323e-30
7.99074e-30
2.3869e-29
1.49963e-29
2.6636e-28
7.06164e-31
2.07462e-30
9.4814e-30
1.5229e-30
5.45313e-29
1.63131e-29
1.75808e-30
1.80409e-30
3.42061e-30
1.39333e-29
3.418e-29
4.19231e-30
1.8672e-29
3.31195e-31
7.50031e-29
2.00763e-29
1.75643e-30
2.05352e-29
1.28559e-29
5.15176e-29
5.07802e-29
2.54281e-29
5.02492e-31
7.84123e-30
4.02232e-29
9.2254e-29
5.13189e-30
2.79077e-29
4.40126e-29
1.80232e-31
9.52159e-30
1.11568e-31
1.79971e-28
4.19572e-29
1.01491e-29
2.30799e-29
2.37444e-30
1.08765e-30
4.09661e-30
9.98344e-28
7.1161e-27
1.5102e-25
1.45054e-27
6.31174e-26
1.5957e-26
7.85899e-28
3.53603e-27
3.05631e-28
3.29108e-29
1.42253e-29
9.27229e-30
1.75201e-31
1.03978e-29
1.32202e-30
1.03313e-31
9.49993e-31
8.59317e-31
3.61289e-30
2.12473e-30
3.7022e-29
1.50977e-31
3.06473e-31
1.20371e-30
1.26713e-31
7.66029e-30
3.32726e-30
3.29611e-31
1.27015e-31
4.58027e-31
1.79598e-30
5.27797e-30
5.35708e-31
3.22457e-30
9.64406e-32
9.82763e-30
2.83066e-30
2.00272e-31
2.59524e-30
2.16288e-30
8.28175e-30
7.37743e-30
4.56718e-30
2.1003e-32
6.20458e-32
3.45738e-30
1.2159e-29
2.03743e-30
3.31557e-30
6.83024e-30
3.219e-32
1.13835e-30
2.05531e-32
2.70681e-29
6.34634e-30
1.47229e-30
4.28734e-30
3.52459e-31
2.19691e-31
3.77495e-31
8.63034e-29
5.8936e-28
9.9148e-27
1.97882e-28
4.19545e-27
1.32274e-27
4.10731e-29
2.89783e-28
3.20363e-29
3.37651e-30
1.20443e-30
9.3762e-31
2.22431e-32
1.59052e-30
2.35237e-31
1.85162e-32
1.28747e-31
8.59601e-32
4.92738e-31
2.77912e-31
4.63947e-30
2.64721e-32
4.0905e-32
1.39119e-31
1.04198e-32
9.67018e-31
5.59169e-31
5.54607e-32
8.33647e-33
5.5566e-32
2.12345e-31
7.20215e-31
6.28928e-32
4.84205e-31
2.04055e-32
1.1696e-30
3.5852e-31
2.19679e-32
3.0461e-31
3.18042e-31
1.15727e-30
9.18212e-31
6.75223e-31
5.53855e-33
3.30632e-33
2.73242e-31
1.64766e-30
2.26156e-31
4.70424e-31
9.21765e-31
5.01454e-33
1.26769e-31
3.00029e-33
3.61543e-30
8.55186e-31
1.9079e-31
6.68898e-31
5.24166e-32
3.74741e-32
6.34749e-32
8.07396e-30
4.6119e-29
5.91911e-28
3.50715e-29
2.50779e-28
1.01936e-28
1.99485e-30
2.16644e-29
3.01733e-30
3.19356e-31
9.69758e-32
8.58336e-32
2.44172e-33
2.098e-31
3.49731e-32
2.7565e-33
1.55955e-32
8.00358e-33
6.04205e-32
3.32967e-32
5.2528e-31
3.90149e-33
4.93514e-33
1.47018e-32
8.94699e-34
1.0985e-31
7.96748e-32
8.10875e-33
5.73931e-34
6.12922e-33
2.30646e-32
8.74094e-32
6.8036e-33
6.36034e-32
3.4099e-33
1.26395e-31
4.08218e-32
2.18735e-33
3.28026e-32
4.14621e-32
1.46428e-31
1.05053e-31
8.77827e-32
1.05824e-33
6.25818e-34
2.46617e-32
2.04589e-31
1.68864e-32
5.95719e-32
1.11804e-31
8.26575e-34
1.26172e-32
4.025e-34
4.31326e-31
1.03068e-31
2.22622e-32
8.94646e-32
7.14482e-33
5.55142e-33
1.22561e-32
7.50248e-31
3.21725e-30
3.13954e-29
5.03038e-30
1.39025e-29
7.53372e-30
1.04217e-31
1.53115e-30
2.55935e-31
2.74668e-32
7.66148e-33
7.09576e-33
2.10302e-34
2.43314e-32
4.47162e-33
3.5312e-34
1.68757e-33
7.01174e-34
6.68454e-33
3.64429e-33
5.40885e-32
4.93679e-34
5.41079e-34
1.4348e-33
8.14076e-35
1.12972e-32
9.8623e-33
1.02896e-33
4.70436e-35
6.15824e-34
2.31887e-33
9.53414e-33
6.77284e-34
7.37845e-33
4.73059e-34
1.24731e-32
4.21677e-33
2.00003e-34
3.26885e-33
4.81306e-33
1.67935e-32
1.11043e-32
1.01569e-32
1.1522e-34
9.14883e-35
2.42879e-33
2.30199e-32
1.22255e-33
6.46831e-33
1.2256e-32
1.17782e-34
1.14839e-33
4.93547e-35
4.6331e-32
1.12354e-32
2.36182e-33
1.04665e-32
8.48171e-34
7.22439e-34
1.76563e-33
6.88604e-32
2.13344e-31
1.52871e-30
5.84755e-31
7.04138e-31
5.38587e-31
5.12618e-33
1.01735e-31
2.00269e-32
2.21872e-33
5.70792e-34
5.44987e-34
1.75241e-35
2.51851e-33
5.02368e-34
4.02856e-35
1.67151e-34
5.81511e-35
6.7599e-34
3.69086e-34
5.13766e-33
5.58668e-35
5.47725e-35
1.31655e-34
7.97843e-36
1.06933e-33
1.09212e-33
1.15372e-34
4.59631e-36
5.69993e-35
2.19655e-34
9.53947e-34
6.26723e-35
7.7219e-34
5.68942e-35
1.14259e-33
4.02486e-34
1.71203e-35
3.0848e-34
5.06553e-34
1.76509e-33
1.08769e-33
1.06895e-33
9.09997e-36
9.00377e-36
2.3652e-34
2.35864e-33
9.15706e-35
6.38561e-34
1.23175e-33
1.45834e-35
9.80584e-35
5.49233e-36
4.56132e-33
1.13153e-33
2.3127e-34
1.10539e-33
9.38986e-35
8.18516e-35
2.55005e-34
5.94573e-33
1.31371e-32
6.7117e-32
6.85749e-32
2.86908e-26
9.4215e-26
4.63076e-27
7.6577e-27
3.16743e-30
5.62449e-30
2.80326e-30
4.18445e-30
5.18879e-31
7.17788e-31
1.12676e-31
2.8591e-32
7.29641e-30
3.20765e-30
1.47491e-29
6.99214e-29
7.14862e-31
1.61262e-29
2.83519e-31
4.52939e-30
1.30372e-30
3.0337e-29
3.60124e-32
1.74289e-29
7.82752e-30
5.31392e-31
1.38704e-31
1.68294e-30
7.75033e-31
1.23997e-30
3.04607e-31
3.22455e-31
2.41055e-29
4.88456e-30
3.51075e-31
5.3727e-30
1.32188e-30
1.98732e-30
2.69089e-31
3.52445e-30
9.24135e-30
9.58231e-33
4.81182e-30
2.01031e-29
4.41101e-30
3.44555e-33
5.92088e-30
3.74439e-30
2.79941e-33
6.83074e-30
9.10883e-30
4.35589e-31
4.15051e-31
5.25644e-31
9.69612e-33
1.33093e-28
1.30002e-26
8.40277e-27
1.20389e-27
1.11866e-25
1.97608e-25
4.92293e-25
6.64346e-26
9.63389e-27
1.02977e-28
4.57545e-29
9.79624e-29
5.11509e-29
4.26046e-31
2.91922e-31
5.5026e-30
7.75886e-31
9.66191e-30
9.70446e-30
2.70129e-29
1.13104e-28
4.52361e-30
2.24326e-29
9.09017e-31
8.43308e-30
4.31554e-30
4.84637e-29
1.42777e-30
2.62068e-29
1.01713e-29
2.36456e-30
7.56366e-32
1.32912e-30
1.77945e-30
1.23459e-30
5.49143e-31
2.52046e-30
2.11257e-29
1.5078e-29
1.89014e-31
1.4171e-30
8.37212e-30
3.99605e-31
7.4968e-32
1.3181e-29
6.40671e-30
5.13833e-31
1.2876e-29
2.13528e-29
1.42763e-29
6.15191e-32
5.70033e-30
6.7423e-30
1.83222e-31
9.37693e-30
2.29966e-29
5.29688e-31
8.93217e-32
8.7627e-31
7.39282e-32
3.12054e-28
4.22057e-26
1.41902e-25
1.51063e-25
1.72996e-24
2.8148e-24
4.53999e-25
7.17662e-25
2.81428e-26
6.13157e-28
6.09118e-28
2.5603e-28
6.65731e-29
5.55435e-31
4.0237e-30
7.86928e-30
7.85873e-31
3.00578e-29
1.90848e-29
3.34796e-29
1.99901e-28
1.64473e-29
3.41431e-29
3.21038e-30
1.80635e-29
1.41833e-29
8.67802e-29
6.73694e-30
4.30183e-29
1.68827e-29
4.44585e-30
5.43055e-31
3.51974e-30
2.45818e-30
1.71147e-30
1.29872e-30
7.09535e-30
3.35257e-29
2.11739e-29
1.36654e-30
3.53696e-30
8.6693e-30
1.75688e-30
4.89823e-31
1.358e-29
1.4445e-29
1.9036e-30
1.4397e-29
4.12042e-29
2.21224e-29
1.26967e-31
1.10821e-29
8.69097e-30
1.79387e-31
1.73037e-29
3.20903e-29
1.41324e-30
5.4916e-31
1.78959e-30
4.1883e-31
9.20866e-28
1.10774e-25
1.38218e-25
1.24881e-24
2.09078e-24
1.07306e-23
2.55502e-25
2.31558e-24
1.17187e-25
5.68969e-28
2.03925e-27
5.88486e-28
8.66915e-29
5.04298e-30
2.3419e-29
2.10981e-29
4.71991e-30
7.63761e-29
3.70737e-29
4.2388e-29
3.12674e-28
3.94086e-29
5.03668e-29
6.90871e-30
3.27174e-29
3.80251e-29
1.24844e-28
1.60581e-29
7.17606e-29
2.90291e-29
8.7768e-30
1.98178e-30
7.57422e-30
4.82239e-30
1.88055e-30
4.67998e-30
2.22984e-29
4.60653e-29
3.31849e-29
5.75037e-30
7.99289e-30
9.973e-30
4.67419e-30
1.5831e-30
1.44413e-29
2.88057e-29
5.34879e-30
1.76526e-29
7.2235e-29
2.93304e-29
1.74522e-31
2.00861e-29
1.35601e-29
2.25699e-31
3.14554e-29
3.89947e-29
1.82098e-30
1.90442e-30
7.55763e-30
1.8359e-30
1.26691e-27
2.2998e-25
1.73775e-25
4.2321e-24
1.99977e-24
1.82465e-23
4.4531e-25
3.92652e-24
2.88477e-25
1.10973e-27
4.6444e-27
1.26012e-27
1.61587e-28
8.19647e-30
4.71856e-29
5.71662e-29
1.63269e-29
1.45449e-28
7.53029e-29
5.78981e-29
4.53692e-28
8.3848e-29
6.56678e-29
1.0655e-29
5.172e-29
8.14202e-29
1.59585e-28
2.77434e-29
1.10797e-28
5.42897e-29
1.80052e-29
5.22913e-30
1.07298e-29
9.55241e-30
2.7198e-30
1.0603e-29
5.39725e-29
6.46418e-29
5.60766e-29
1.80971e-29
1.17116e-29
1.72795e-29
7.06279e-30
2.91003e-30
2.22049e-29
4.3348e-29
1.264e-29
2.57643e-29
1.11349e-28
4.3008e-29
1.6693e-31
3.27379e-29
2.33311e-29
2.77688e-31
5.27553e-29
4.74022e-29
2.22167e-30
6.37826e-30
3.11603e-29
1.24005e-29
1.44392e-27
3.56138e-25
3.12659e-25
7.00357e-24
2.33561e-24
1.69466e-23
1.20032e-24
4.72755e-24
3.89154e-25
3.58709e-27
1.02792e-26
2.64907e-27
3.03934e-28
9.92643e-30
7.34043e-29
1.21825e-28
3.66132e-29
2.51886e-28
1.52984e-28
9.75682e-29
6.75794e-28
1.73683e-28
9.58618e-29
1.41589e-29
8.00684e-29
1.65981e-28
2.18579e-28
4.47943e-29
1.73912e-28
1.03428e-28
3.29818e-29
1.36685e-29
1.42328e-29
1.72461e-29
5.60524e-30
1.97314e-29
1.18465e-28
1.06437e-28
9.42119e-29
4.88229e-29
1.75275e-29
3.39106e-29
9.95532e-30
4.77587e-30
4.08778e-29
5.98085e-29
2.6841e-29
4.21212e-29
1.72769e-28
7.37603e-29
1.82164e-31
5.82244e-29
4.26614e-29
3.70519e-31
8.25757e-29
6.17098e-29
1.75919e-30
2.73566e-29
1.45079e-28
1.53704e-28
1.08236e-27
4.03487e-25
7.06657e-25
6.51922e-24
4.22967e-24
7.8951e-24
2.33971e-24
4.14499e-24
2.5697e-25
1.6683e-26
2.03125e-26
5.61973e-27
5.56757e-28
1.25246e-29
1.16718e-28
2.35815e-28
6.68422e-29
4.27019e-28
3.07934e-28
1.80204e-28
1.05575e-27
3.65019e-28
1.52349e-28
1.87018e-29
1.23679e-28
3.36182e-28
3.27351e-28
7.73918e-29
2.90735e-28
1.97474e-28
5.48113e-29
3.5448e-29
2.17819e-29
3.00031e-29
1.26552e-29
3.45984e-29
2.59799e-28
1.90105e-28
1.52582e-28
1.21246e-28
3.00929e-29
6.60188e-29
1.62159e-29
8.7238e-30
7.63983e-29
8.443e-29
5.9426e-29
7.4352e-29
2.8543e-28
1.37922e-28
4.25578e-31
1.11324e-28
8.11591e-29
6.06625e-31
1.29479e-28
8.72847e-29
9.23441e-31
1.0075e-28
5.29176e-28
8.73587e-28
1.36408e-27
4.47876e-25
2.25286e-24
1.88693e-24
1.16058e-23
7.14589e-24
4.52781e-24
3.93557e-24
5.99375e-26
5.91675e-26
4.01597e-26
1.23793e-26
9.68844e-28
1.64459e-29
1.873e-28
4.34918e-28
1.11467e-28
7.0371e-28
6.17093e-28
3.33112e-28
1.72935e-27
7.99194e-28
2.48218e-28
2.72002e-29
1.96607e-28
6.75505e-28
5.233e-28
1.44774e-28
5.15859e-28
3.78241e-28
8.82718e-29
9.25131e-29
3.7846e-29
5.31554e-29
2.69647e-29
6.0751e-29
5.84774e-28
3.46705e-28
2.43679e-28
2.88367e-28
5.49913e-29
1.28557e-28
3.20911e-29
1.74754e-29
1.39273e-28
1.26519e-28
1.4179e-28
1.39384e-28
4.92106e-28
2.63618e-28
1.81547e-30
2.14444e-28
1.6047e-28
1.07291e-30
2.19238e-28
1.35044e-28
1.15475e-30
2.80561e-28
1.45554e-27
2.55828e-27
2.71614e-27
6.99801e-25
6.96771e-24
2.83411e-27
3.2121e-23
5.29118e-23
1.02267e-23
9.24233e-24
4.31109e-26
1.89032e-25
7.65877e-26
2.84049e-26
1.85381e-27
2.06177e-29
2.85839e-28
7.82322e-28
1.7913e-28
1.13183e-27
1.25181e-27
6.27298e-28
2.9539e-27
1.84441e-27
4.14405e-28
4.42232e-29
3.30655e-28
1.34575e-27
9.04634e-28
2.75814e-28
9.30755e-28
7.40588e-28
1.44955e-28
2.42856e-28
6.82051e-29
9.8824e-29
5.51699e-29
1.0797e-28
1.34278e-27
6.46484e-28
4.01748e-28
6.76684e-28
1.02284e-28
2.57738e-28
7.83168e-29
3.38675e-29
2.52022e-28
2.01628e-28
3.5996e-28
2.62934e-28
8.85496e-28
5.18718e-28
8.48374e-30
4.08949e-28
3.3325e-28
1.79545e-30
4.22129e-28
2.3393e-28
5.90718e-30
6.36749e-28
3.38988e-27
5.63089e-27
6.1293e-27
1.56339e-24
1.51483e-23
5.41358e-24
6.1975e-23
3.36731e-22
3.22362e-23
3.11314e-23
1.01183e-24
5.77361e-25
1.40333e-25
6.63466e-26
4.16301e-27
2.53644e-29
3.97972e-28
1.37224e-27
2.78824e-28
1.8106e-27
2.60154e-27
1.22724e-27
5.27322e-27
4.52583e-27
7.1945e-28
7.95884e-29
6.11652e-28
2.66507e-27
1.69447e-27
5.03864e-28
1.68137e-27
1.51601e-27
2.54424e-28
6.38456e-28
1.28469e-28
1.97801e-28
1.13708e-28
1.94837e-28
3.16111e-27
1.26798e-27
7.08142e-28
1.60263e-27
1.94408e-28
5.44431e-28
2.28309e-28
5.7744e-29
4.56873e-28
3.31672e-28
9.46558e-28
4.85552e-28
1.68094e-27
1.06017e-27
3.6991e-29
7.71937e-28
7.36701e-28
2.80978e-30
9.48719e-28
4.77639e-28
2.90218e-29
1.21145e-27
6.81125e-27
9.95908e-27
1.43304e-26
4.09396e-24
2.95278e-23
6.92147e-23
1.14889e-22
1.453e-21
1.01622e-22
1.01118e-22
8.08033e-24
1.65257e-24
2.60326e-25
1.56959e-25
1.03188e-26
3.39026e-29
4.84696e-28
2.32642e-27
4.1229e-28
2.9614e-27
5.58698e-27
2.53913e-27
9.89231e-27
1.19029e-26
1.29314e-27
1.59049e-28
1.27798e-27
5.31065e-27
3.46523e-27
8.39603e-28
3.06153e-27
3.27901e-27
4.96867e-28
1.6901e-27
2.79214e-28
4.26965e-28
2.46181e-28
3.56171e-28
7.74201e-27
2.6654e-27
1.35776e-27
3.90686e-27
3.86929e-28
1.24501e-27
7.43402e-28
8.10545e-29
8.38678e-28
6.07613e-28
2.54818e-27
8.87527e-28
3.34466e-27
2.29845e-27
1.56937e-28
1.4603e-27
1.73958e-27
4.0992e-30
2.49312e-27
1.14938e-27
1.15664e-28
1.97642e-27
1.21358e-26
1.49964e-26
3.5543e-26
1.08398e-23
5.25156e-23
3.54334e-22
1.92011e-22
4.74603e-21
3.30567e-22
2.79805e-22
3.82792e-23
3.92318e-24
5.26138e-25
3.83602e-25
2.7934e-26
5.68096e-29
4.47771e-28
3.76151e-27
5.71696e-28
5.00519e-27
1.25548e-26
5.65575e-27
1.96757e-26
3.39565e-26
2.3913e-27
3.6249e-28
3.01939e-27
1.08508e-26
8.08972e-27
1.21106e-27
5.66033e-27
7.43457e-27
1.11871e-27
4.58778e-27
7.76439e-28
9.99728e-28
5.72156e-28
6.57179e-28
2.01279e-26
6.12838e-27
2.83556e-27
9.94135e-27
8.29852e-28
3.18835e-27
2.61474e-27
8.29075e-29
1.53266e-27
1.22811e-27
7.1498e-27
1.77141e-27
7.05898e-27
5.18905e-27
6.77554e-28
2.79418e-27
4.39231e-27
5.23212e-30
7.58863e-27
3.22302e-27
4.39182e-28
2.91216e-27
2.05e-26
1.99977e-26
9.09065e-26
2.58992e-23
9.95008e-23
1.22952e-21
3.51182e-22
1.31706e-20
9.75984e-22
7.06386e-22
1.39983e-22
9.09076e-24
1.13748e-24
9.60332e-25
8.48814e-26
1.30124e-28
2.38638e-28
5.71609e-27
7.35185e-28
8.85804e-27
2.98666e-26
1.39676e-26
4.17987e-26
1.05746e-25
4.499e-27
9.48115e-28
8.046e-27
2.30574e-26
2.21112e-26
1.34704e-27
1.0375e-26
1.76099e-26
2.9053e-27
1.30299e-26
2.80955e-27
2.53608e-27
1.49587e-27
1.2014e-27
5.6401e-26
1.55815e-26
6.45527e-27
2.67678e-26
2.00141e-27
9.35252e-27
9.81089e-27
4.82277e-29
2.85504e-27
2.81369e-27
2.10747e-26
4.57944e-27
1.52959e-26
1.25599e-26
3.08487e-27
5.41978e-27
1.19258e-26
5.07488e-30
2.65448e-26
1.04422e-26
1.70721e-27
3.77037e-27
3.42511e-26
2.60149e-26
2.30746e-25
5.64151e-23
1.85255e-22
3.44429e-21
5.84288e-22
3.36517e-20
2.78899e-21
1.62593e-21
4.51525e-22
2.16982e-23
2.63599e-24
2.44506e-24
2.76492e-25
3.90965e-28
2.26103e-28
7.48722e-27
8.05506e-28
1.71083e-26
7.53464e-26
3.85861e-26
9.62746e-26
3.59526e-25
8.5467e-27
2.82725e-27
2.39816e-26
5.10285e-26
6.96351e-26
8.19793e-28
1.87409e-26
4.30137e-26
8.50999e-27
3.93171e-26
1.24057e-26
6.99183e-27
4.73818e-27
2.10576e-27
1.71738e-25
4.44441e-26
1.59046e-26
7.67818e-26
5.65776e-27
3.16074e-26
3.89442e-26
8.34982e-29
5.62816e-27
7.14138e-27
6.67586e-26
1.71491e-26
3.315e-26
3.35614e-26
1.48758e-26
1.04779e-26
3.49554e-26
3.54976e-30
1.04619e-25
3.82439e-26
7.06252e-27
4.54801e-27
5.64323e-26
3.19115e-26
5.70171e-25
1.13079e-22
3.55602e-22
8.66004e-21
9.82731e-22
5.32359e-20
5.01817e-21
2.29585e-21
8.86497e-22
3.65043e-23
4.36652e-24
4.16918e-24
6.17772e-25
1.06069e-27
3.79019e-27
4.7875e-27
4.27503e-28
2.54441e-26
1.32015e-25
7.92151e-26
1.59354e-25
8.66592e-25
1.07639e-26
6.25638e-27
5.1332e-26
7.70223e-26
1.60932e-25
3.12085e-29
2.20813e-26
6.96574e-26
1.81226e-26
8.29707e-26
4.00663e-26
1.36933e-26
1.2664e-26
2.22453e-27
3.71111e-25
9.27423e-26
2.77797e-26
1.5422e-25
1.29501e-26
8.08954e-26
1.0703e-25
1.47532e-27
8.18389e-27
1.36389e-26
1.48671e-25
5.59578e-26
4.95443e-26
6.65061e-26
4.92798e-26
1.30889e-26
7.2015e-26
6.39696e-30
2.96376e-25
1.00997e-25
2.02841e-26
5.33069e-27
6.1052e-26
2.5862e-26
8.68558e-25
1.40968e-22
4.52863e-22
1.32077e-20
9.95248e-22
9.66433e-21
1.05442e-21
3.6029e-22
1.98217e-22
7.57641e-24
9.17333e-25
8.45982e-25
1.65442e-25
4.23865e-28
4.94782e-27
2.27573e-28
2.05347e-29
5.47676e-27
2.85749e-26
2.14948e-26
3.41325e-26
2.60339e-25
1.67569e-27
1.80604e-27
1.37673e-26
1.39853e-26
4.7699e-26
1.15303e-28
3.10951e-27
1.30678e-26
4.90115e-27
2.17755e-26
1.58502e-26
3.39577e-27
4.94097e-27
2.58912e-28
1.00492e-25
2.49778e-26
6.02574e-27
3.84794e-26
4.37229e-27
2.78422e-26
3.63181e-26
1.83358e-27
1.41443e-27
3.63751e-27
4.10113e-26
2.4887e-26
1.13576e-26
1.64452e-26
1.97237e-26
1.96313e-27
1.81972e-26
8.32508e-30
1.04569e-25