/*--------------------------------*- C++ -*----------------------------------*\
| =========                 |                                                 |
| \\      /  F ield         | OpenFOAM: The Open Source CFD Toolbox           |
|  \\    /   O peration     | Version:  2312                                  |
|   \\  /    A nd           | Website:  www.openfoam.com                      |
|    \\/     M anipulation  |                                                 |
\*---------------------------------------------------------------------------*/
FoamFile
{
    version     2.0;
    format      ascii;
    arch        "LSB;label=32;scalar=64";
    class       volScalarField;
    location    "40";
    object      p;
}
// * * * * * * * * * * * * * * * * * * * * * * * * * * * * * * * * * * * * * //

dimensions      [0 2 -2 0 0 0 0];

internalField   nonuniform List<scalar> 
144000
(
5.35236e-10
1.57151e-09
1.17928e-09
3.37447e-10
-2.50474e-10
-6.46066e-10
-8.15518e-10
-8.10795e-10
-8.18939e-10
-8.62866e-10
-8.75377e-10
-8.70411e-10
-8.9852e-10
-8.54883e-10
-7.61722e-10
-8.13535e-10
-8.15711e-10
-7.0499e-10
-6.79514e-10
-7.37877e-10
-7.55056e-10
-6.52485e-10
-5.93674e-10
-6.58633e-10
-6.56575e-10
-6.33261e-10
-5.97772e-10
-5.2676e-10
-5.13826e-10
-5.09675e-10
-5.174e-10
-5.29297e-10
-4.51571e-10
-4.19118e-10
-3.84995e-10
-2.87653e-10
-2.41336e-10
-1.85656e-10
-1.14078e-10
-9.68822e-11
-2.65801e-11
3.10584e-11
2.21999e-11
8.45894e-11
1.08749e-10
1.1066e-10
1.75357e-10
1.82833e-10
1.86229e-10
2.47483e-10
2.43744e-10
2.50049e-10
3.1614e-10
3.38734e-10
3.73556e-10
4.7112e-10
5.3845e-10
8.545e-10
3.54033e-10
-4.17655e-10
4.98869e-10
1.57059e-09
1.19536e-09
3.43774e-10
-2.4685e-10
-6.44763e-10
-8.15267e-10
-8.094e-10
-8.17206e-10
-8.61925e-10
-8.74751e-10
-8.69384e-10
-8.98354e-10
-8.5546e-10
-7.59739e-10
-8.13053e-10
-8.17146e-10
-7.04651e-10
-6.78532e-10
-7.37748e-10
-7.56842e-10
-6.52827e-10
-5.91956e-10
-6.58822e-10
-6.57142e-10
-6.33439e-10
-5.98566e-10
-5.26649e-10
-5.13868e-10
-5.09918e-10
-5.17387e-10
-5.306e-10
-4.52003e-10
-4.19291e-10
-3.8638e-10
-2.87922e-10
-2.41899e-10
-1.86572e-10
-1.14125e-10
-9.76908e-11
-2.72727e-11
3.14844e-11
2.12953e-11
8.42753e-11
1.08934e-10
1.09694e-10
1.7535e-10
1.8298e-10
1.85365e-10
2.47691e-10
2.43833e-10
2.49175e-10
3.16271e-10
3.38622e-10
3.72223e-10
4.70066e-10
5.34723e-10
8.64522e-10
3.78762e-10
-4.30898e-10
4.95819e-10
1.56945e-09
1.18307e-09
3.41131e-10
-2.40275e-10
-6.41687e-10
-8.1435e-10
-8.06954e-10
-8.14485e-10
-8.60299e-10
-8.73569e-10
-8.67664e-10
-8.97895e-10
-8.56033e-10
-7.5778e-10
-8.12458e-10
-8.18537e-10
-7.0395e-10
-6.77357e-10
-7.37544e-10
-7.5802e-10
-6.5309e-10
-5.90453e-10
-6.59188e-10
-6.57549e-10
-6.33448e-10
-5.99523e-10
-5.26324e-10
-5.1389e-10
-5.10155e-10
-5.17227e-10
-5.31938e-10
-4.52303e-10
-4.19386e-10
-3.87968e-10
-2.88026e-10
-2.42552e-10
-1.87786e-10
-1.14098e-10
-9.87131e-11
-2.81352e-11
3.20771e-11
2.02618e-11
8.40752e-11
1.09166e-10
1.08356e-10
1.7543e-10
1.83114e-10
1.84197e-10
2.48044e-10
2.43903e-10
2.47908e-10
3.16554e-10
3.38238e-10
3.71714e-10
4.68285e-10
5.27549e-10
8.71354e-10
3.93291e-10
-4.35174e-10
5.56666e-10
1.57498e-09
1.1276e-09
3.18453e-10
-2.31212e-10
-6.34923e-10
-8.11527e-10
-8.03193e-10
-8.10819e-10
-8.57582e-10
-8.71359e-10
-8.65003e-10
-8.96481e-10
-8.5601e-10
-7.55545e-10
-8.1148e-10
-8.19344e-10
-7.03071e-10
-6.76389e-10
-7.36923e-10
-7.5853e-10
-6.53294e-10
-5.89214e-10
-6.59444e-10
-6.57421e-10
-6.33042e-10
-6.00343e-10
-5.25936e-10
-5.13977e-10
-5.10301e-10
-5.16692e-10
-5.32847e-10
-4.52313e-10
-4.19252e-10
-3.89319e-10
-2.87919e-10
-2.43303e-10
-1.89166e-10
-1.14182e-10
-9.98631e-11
-2.91192e-11
3.24427e-11
1.91533e-11
8.40141e-11
1.09286e-10
1.06822e-10
1.75376e-10
1.83092e-10
1.82945e-10
2.48241e-10
2.43881e-10
2.46363e-10
3.16825e-10
3.37311e-10
3.72103e-10
4.64388e-10
5.23331e-10
8.74209e-10
3.73774e-10
-4.28964e-10
6.92486e-10
1.59633e-09
1.02522e-09
2.68449e-10
-2.21261e-10
-6.23032e-10
-8.05594e-10
-7.97826e-10
-8.06075e-10
-8.53316e-10
-8.67553e-10
-8.61015e-10
-8.93582e-10
-8.54896e-10
-7.5312e-10
-8.09824e-10
-8.19056e-10
-7.02141e-10
-6.75767e-10
-7.35569e-10
-7.57911e-10
-6.53469e-10
-5.88575e-10
-6.59324e-10
-6.56449e-10
-6.32024e-10
-6.00806e-10
-5.25629e-10
-5.14227e-10
-5.10279e-10
-5.15589e-10
-5.32872e-10
-4.51913e-10
-4.18755e-10
-3.90059e-10
-2.87609e-10
-2.44206e-10
-1.90696e-10
-1.14561e-10
-1.01109e-10
-3.03081e-11
3.22217e-11
1.80395e-11
8.40334e-11
1.0911e-10
1.05151e-10
1.74964e-10
1.82766e-10
1.81694e-10
2.48036e-10
2.43646e-10
2.44592e-10
3.16929e-10
3.35531e-10
3.73657e-10
4.5819e-10
5.23861e-10
8.74274e-10
3.11766e-10
-4.18198e-10
8.87445e-10
1.6343e-09
8.86669e-10
1.93088e-10
-2.11755e-10
-6.0567e-10
-7.96033e-10
-7.90852e-10
-8.00334e-10
-8.47427e-10
-8.61955e-10
-8.55598e-10
-8.89047e-10
-8.52462e-10
-7.50473e-10
-8.07325e-10
-8.17488e-10
-7.01187e-10
-6.75455e-10
-7.33325e-10
-7.55991e-10
-6.5362e-10
-5.88582e-10
-6.58655e-10
-6.54543e-10
-6.30335e-10
-6.0075e-10
-5.25408e-10
-5.14654e-10
-5.10035e-10
-5.13821e-10
-5.3179e-10
-4.51031e-10
-4.17781e-10
-3.89958e-10
-2.87061e-10
-2.45258e-10
-1.92337e-10
-1.15295e-10
-1.02426e-10
-3.17566e-11
3.12602e-11
1.69812e-11
8.40962e-11
1.08539e-10
1.03344e-10
1.74073e-10
1.82057e-10
1.8047e-10
2.473e-10
2.43122e-10
2.42627e-10
3.16734e-10
3.32871e-10
3.76163e-10
4.50523e-10
5.27718e-10
8.72895e-10
2.10803e-10
-4.0975e-10
1.08826e-09
1.6792e-09
7.3348e-10
1.03522e-10
-2.0317e-10
-5.83316e-10
-7.82819e-10
-7.82452e-10
-7.93799e-10
-8.40099e-10
-8.54696e-10
-8.48904e-10
-8.83017e-10
-8.48713e-10
-7.47611e-10
-8.03956e-10
-8.14645e-10
-7.00213e-10
-6.75363e-10
-7.302e-10
-7.5282e-10
-6.53729e-10
-5.89139e-10
-6.57335e-10
-6.51781e-10
-6.28062e-10
-6.001e-10
-5.25191e-10
-5.15186e-10
-5.09549e-10
-5.11391e-10
-5.29574e-10
-4.49681e-10
-4.16313e-10
-3.88945e-10
-2.86241e-10
-2.46387e-10
-1.94016e-10
-1.16372e-10
-1.03754e-10
-3.35022e-11
2.95364e-11
1.61198e-11
8.42122e-11
1.07551e-10
1.01414e-10
1.72659e-10
1.80953e-10
1.79279e-10
2.46011e-10
2.42265e-10
2.40546e-10
3.1608e-10
3.2958e-10
3.78646e-10
4.43129e-10
5.30545e-10
8.70191e-10
1.09479e-10
-4.05784e-10
1.25633e-09
1.7151e-09
5.88179e-10
1.35462e-11
-1.95695e-10
-5.57206e-10
-7.66253e-10
-7.72832e-10
-7.86701e-10
-8.31637e-10
-8.46083e-10
-8.41231e-10
-8.75804e-10
-8.43788e-10
-7.44594e-10
-7.99844e-10
-8.10651e-10
-6.99203e-10
-6.75407e-10
-7.26335e-10
-7.4857e-10
-6.53754e-10
-5.90117e-10
-6.55353e-10
-6.48322e-10
-6.25367e-10
-5.9886e-10
-5.24886e-10
-5.15735e-10
-5.08828e-10
-5.08399e-10
-5.26333e-10
-4.47944e-10
-4.14427e-10
-3.87079e-10
-2.85161e-10
-2.47529e-10
-1.95647e-10
-1.17761e-10
-1.05025e-10
-3.55668e-11
2.71182e-11
1.5658e-11
8.44341e-11
1.06163e-10
9.94061e-11
1.70746e-10
1.79476e-10
1.78121e-10
2.44228e-10
2.41052e-10
2.38481e-10
3.14829e-10
3.2604e-10
3.80186e-10
4.37181e-10
5.29614e-10
8.63723e-10
2.86393e-11
-4.00841e-10
1.36548e-09
1.72375e-09
4.68723e-10
-6.53169e-11
-1.89369e-10
-5.28985e-10
-7.46821e-10
-7.62129e-10
-7.79231e-10
-8.22361e-10
-8.3646e-10
-8.32891e-10
-8.67776e-10
-8.37897e-10
-7.41473e-10
-7.95196e-10
-8.05691e-10
-6.98118e-10
-6.7552e-10
-7.21933e-10
-7.4348e-10
-6.53635e-10
-5.9139e-10
-6.52785e-10
-6.44336e-10
-6.22431e-10
-5.9709e-10
-5.24424e-10
-5.16237e-10
-5.07903e-10
-5.04998e-10
-5.22254e-10
-4.45914e-10
-4.12256e-10
-3.84499e-10
-2.83865e-10
-2.48657e-10
-1.97135e-10
-1.19433e-10
-1.06192e-10
-3.79884e-11
2.41172e-11
1.5802e-11
8.48408e-11
1.04406e-10
9.73823e-11
1.68419e-10
1.77663e-10
1.76985e-10
2.42056e-10
2.39475e-10
2.36567e-10
3.12936e-10
3.22539e-10
3.80299e-10
4.32999e-10
5.24398e-10
8.49354e-10
-1.80848e-11
-3.82668e-10
1.40802e-09
1.69841e-09
3.79111e-10
-1.2604e-10
-1.84158e-10
-5.00363e-10
-7.25153e-10
-7.50432e-10
-7.71533e-10
-8.12569e-10
-8.2615e-10
-8.24149e-10
-8.59277e-10
-8.31269e-10
-7.38278e-10
-7.90234e-10
-7.99982e-10
-6.96921e-10
-6.75646e-10
-7.1719e-10
-7.37798e-10
-6.53313e-10
-5.92832e-10
-6.49762e-10
-6.39983e-10
-6.19412e-10
-5.94878e-10
-5.23751e-10
-5.16665e-10
-5.0681e-10
-5.0134e-10
-5.17557e-10
-4.43672e-10
-4.09938e-10
-3.81375e-10
-2.82409e-10
-2.49789e-10
-1.98405e-10
-1.2135e-10
-1.07253e-10
-4.08221e-11
2.07227e-11
1.67276e-11
8.54612e-11
1.0232e-10
9.54046e-11
1.658e-10
1.7556e-10
1.75854e-10
2.39607e-10
2.37535e-10
2.34893e-10
3.10447e-10
3.19251e-10
3.78846e-10
4.30429e-10
5.15626e-10
8.2544e-10
-2.72181e-11
-3.46456e-10
1.3847e-09
1.63859e-09
3.1897e-10
-1.66326e-10
-1.80173e-10
-4.7295e-10
-7.02e-10
-7.3784e-10
-7.63711e-10
-8.02519e-10
-8.15432e-10
-8.15213e-10
-8.50577e-10
-8.24114e-10
-7.35016e-10
-7.85146e-10
-7.93713e-10
-6.95577e-10
-6.75747e-10
-7.12269e-10
-7.31777e-10
-6.52755e-10
-5.94312e-10
-6.46428e-10
-6.35399e-10
-6.1643e-10
-5.92329e-10
-5.22835e-10
-5.17009e-10
-5.05591e-10
-4.97559e-10
-5.12456e-10
-4.41281e-10
-4.07586e-10
-3.77871e-10
-2.80839e-10
-2.50954e-10
-1.99418e-10
-1.23447e-10
-1.0825e-10
-4.41962e-11
1.7267e-11
1.86321e-11
8.62477e-11
9.99216e-11
9.35012e-11
1.63014e-10
1.73218e-10
1.74713e-10
2.36982e-10
2.35252e-10
2.33484e-10
3.07467e-10
3.16223e-10
3.75967e-10
4.29039e-10
5.04645e-10
7.92998e-10
-2.71945e-12
-2.91778e-10
1.31701e-09
1.54855e-09
2.83711e-10
-1.87506e-10
-1.77692e-10
-4.48036e-10
-6.78123e-10
-7.24463e-10
-7.55825e-10
-7.92398e-10
-8.04516e-10
-8.06229e-10
-8.41863e-10
-8.16602e-10
-7.31682e-10
-7.80072e-10
-7.87056e-10
-6.94062e-10
-6.75799e-10
-7.07278e-10
-7.25594e-10
-6.51951e-10
-5.95757e-10
-6.42901e-10
-6.3069e-10
-6.13559e-10
-5.89536e-10
-5.21662e-10
-5.17264e-10
-5.04286e-10
-4.93749e-10
-5.07135e-10
-4.38792e-10
-4.05279e-10
-3.74115e-10
-2.79188e-10
-2.52179e-10
-2.00183e-10
-1.2564e-10
-1.0927e-10
-4.84504e-11
1.41682e-11
2.18722e-11
8.71584e-11
9.71941e-11
9.16712e-11
1.60161e-10
1.70684e-10
1.73552e-10
2.34259e-10
2.32657e-10
2.32312e-10
3.0414e-10
3.13399e-10
3.72034e-10
4.28271e-10
4.93033e-10
7.54771e-10
4.57062e-11
-2.21109e-10
1.21844e-09
1.43462e-09
2.66216e-10
-1.92821e-10
-1.76642e-10
-4.26294e-10
-6.54128e-10
-7.10387e-10
-7.4788e-10
-7.82321e-10
-7.93544e-10
-7.97286e-10
-8.33247e-10
-8.08861e-10
-7.28268e-10
-7.75101e-10
-7.80148e-10
-6.92365e-10
-6.75792e-10
-7.02296e-10
-7.19378e-10
-6.50916e-10
-5.97091e-10
-6.39274e-10
-6.25933e-10
-6.10842e-10
-5.86579e-10
-5.20237e-10
-5.17437e-10
-5.02927e-10
-4.89971e-10
-5.01736e-10
-4.36246e-10
-4.03072e-10
-3.70209e-10
-2.77498e-10
-2.53459e-10
-2.00754e-10
-1.27829e-10
-1.10323e-10
-5.42351e-11
1.1903e-11
2.70554e-11
8.82193e-11
9.41186e-11
8.98717e-11
1.57286e-10
1.67985e-10
1.72364e-10
2.31494e-10
2.29801e-10
2.31316e-10
3.00611e-10
3.10654e-10
3.67493e-10
4.27596e-10
4.82013e-10
7.13217e-10
1.07887e-10
-1.37872e-10
1.10332e-09
1.30431e-09
2.59589e-10
-1.85898e-10
-1.76489e-10
-4.07936e-10
-6.30504e-10
-6.95723e-10
-7.39865e-10
-7.72351e-10
-7.82612e-10
-7.88444e-10
-8.24792e-10
-8.00983e-10
-7.24766e-10
-7.70286e-10
-7.73092e-10
-6.90477e-10
-6.75726e-10
-6.97368e-10
-7.1321e-10
-6.49678e-10
-5.98276e-10
-6.35607e-10
-6.21187e-10
-6.08297e-10
-5.83515e-10
-5.18577e-10
-5.17537e-10
-5.01536e-10
-4.86259e-10
-4.96364e-10
-4.3367e-10
-4.00997e-10
-3.66207e-10
-2.758e-10
-2.54788e-10
-2.01179e-10
-1.2997e-10
-1.11189e-10
-6.25131e-11
1.06837e-11
3.4934e-11
8.95751e-11
9.08221e-11
8.80965e-11
1.5441e-10
1.6514e-10
1.71144e-10
2.28722e-10
2.2673e-10
2.30428e-10
2.97007e-10
3.07851e-10
3.62756e-10
4.26644e-10
4.72283e-10
6.70506e-10
1.7546e-10
-4.67144e-11
9.83349e-10
1.16439e-09
2.57896e-10
-1.70245e-10
-1.76642e-10
-3.929e-10
-6.07663e-10
-6.80611e-10
-7.31778e-10
-7.6252e-10
-7.7178e-10
-7.79741e-10
-8.16527e-10
-7.93025e-10
-7.2117e-10
-7.65651e-10
-7.6596e-10
-6.88404e-10
-6.756e-10
-6.92516e-10
-7.07138e-10
-6.4827e-10
-5.99295e-10
-6.31934e-10
-6.16488e-10
-6.05934e-10
-5.80382e-10
-5.16704e-10
-5.17575e-10
-5.00126e-10
-4.82627e-10
-4.91087e-10
-4.31094e-10
-3.99064e-10
-3.6216e-10
-2.74089e-10
-2.56211e-10
-2.01423e-10
-1.32169e-10
-1.11282e-10
-7.4071e-11
9.66415e-12
4.5992e-11
9.15533e-11
8.76988e-11
8.64838e-11
1.5161e-10
1.62189e-10
1.69911e-10
2.25969e-10
2.23494e-10
2.29586e-10
2.93424e-10
3.04883e-10
3.58135e-10
4.25244e-10
4.64e-10
6.28359e-10
2.42368e-10
4.81198e-11
8.66725e-10
1.02073e-09
2.56735e-10
-1.49012e-10
-1.76635e-10
-3.80957e-10
-5.85927e-10
-6.6521e-10
-7.23618e-10
-7.52832e-10
-7.61083e-10
-7.71198e-10
-8.0846e-10
-7.85022e-10
-7.17479e-10
-7.61204e-10
-7.58798e-10
-6.86158e-10
-6.75418e-10
-6.87751e-10
-7.01189e-10
-6.46732e-10
-6.00145e-10
-6.28271e-10
-6.11861e-10
-6.03753e-10
-5.77202e-10
-5.1464e-10
-5.17566e-10
-4.98703e-10
-4.79078e-10
-4.85943e-10
-4.28543e-10
-3.97264e-10
-3.58106e-10
-2.7235e-10
-2.5777e-10
-2.0149e-10
-1.34445e-10
-1.10336e-10
-8.77912e-11
5.58921e-12
5.88946e-11
9.39904e-11
8.5099e-11
8.52024e-11
1.48988e-10
1.59196e-10
1.68708e-10
2.23266e-10
2.20146e-10
2.28741e-10
2.89935e-10
3.0168e-10
3.53831e-10
4.23353e-10
4.57029e-10
5.88177e-10
3.04689e-10
1.42796e-10
7.58759e-10
8.77896e-10
2.52955e-10
-1.24901e-10
-1.76098e-10
-3.71738e-10
-5.6551e-10
-6.49675e-10
-7.15386e-10
-7.43271e-10
-7.50534e-10
-7.62828e-10
-8.00587e-10
-7.76994e-10
-7.13693e-10
-7.56943e-10
-7.51635e-10
-6.83752e-10
-6.75186e-10
-6.83072e-10
-6.95374e-10
-6.45091e-10
-6.00832e-10
-6.24627e-10
-6.07315e-10
-6.01752e-10
-5.73987e-10
-5.12407e-10
-5.17526e-10
-4.97269e-10
-4.75606e-10
-4.80961e-10
-4.26025e-10
-3.95617e-10
-3.54015e-10
-2.70672e-10
-2.59306e-10
-2.01765e-10
-1.36067e-10
-1.09852e-10
-9.51575e-11
-1.09566e-14
6.39455e-11
9.4692e-11
8.2575e-11
8.40106e-11
1.46432e-10
1.56114e-10
1.67515e-10
2.20605e-10
2.16717e-10
2.27849e-10
2.86584e-10
2.98203e-10
3.49955e-10
4.20995e-10
4.50982e-10
5.50876e-10
3.60358e-10
2.34499e-10
6.62529e-10
7.39436e-10
2.44684e-10
-1.00119e-10
-1.74833e-10
-3.64827e-10
-5.46546e-10
-6.34157e-10
-7.0709e-10
-7.33814e-10
-7.40138e-10
-7.54642e-10
-7.92901e-10
-7.68952e-10
-7.09818e-10
-7.52862e-10
-7.44488e-10
-6.81203e-10
-6.7491e-10
-6.78469e-10
-6.89694e-10
-6.43373e-10
-6.01364e-10
-6.20997e-10
-6.02857e-10
-5.99929e-10
-5.70739e-10
-5.10023e-10
-5.17469e-10
-4.95826e-10
-4.72197e-10
-4.76164e-10
-4.2354e-10
-3.94139e-10
-3.49839e-10
-2.69152e-10
-2.60666e-10
-2.02588e-10
-1.36399e-10
-1.11214e-10
-9.01619e-11
-2.72431e-12
5.46785e-11
9.1906e-11
7.9587e-11
8.26085e-11
1.43795e-10
1.52865e-10
1.66311e-10
2.17962e-10
2.13224e-10
2.26879e-10
2.83393e-10
2.94443e-10
3.46536e-10
4.18242e-10
4.45467e-10
5.16961e-10
4.08482e-10
3.21155e-10
5.79594e-10
6.08195e-10
2.31014e-10
-7.6494e-11
-1.72823e-10
-3.59818e-10
-5.29105e-10
-6.18808e-10
-6.98758e-10
-7.24438e-10
-7.29897e-10
-7.46653e-10
-7.85394e-10
-7.60902e-10
-7.05861e-10
-7.48953e-10
-7.37362e-10
-6.78527e-10
-6.74599e-10
-6.73933e-10
-6.84148e-10
-6.41599e-10
-6.01749e-10
-6.17375e-10
-5.98489e-10
-5.98279e-10
-5.67457e-10
-5.07503e-10
-5.17414e-10
-4.9437e-10
-4.68843e-10
-4.71551e-10
-4.21112e-10
-3.92799e-10
-3.45621e-10
-2.67702e-10
-2.62024e-10
-2.03636e-10
-1.36085e-10
-1.13003e-10
-7.89462e-11
-6.96972e-12
3.77461e-11
8.73877e-11
7.66829e-11
8.12757e-11
1.41232e-10
1.4953e-10
1.65153e-10
2.15357e-10
2.09701e-10
2.25827e-10
2.80371e-10
2.9042e-10
3.43557e-10
4.15181e-10
4.40252e-10
4.86676e-10
4.48862e-10
4.01217e-10
5.10468e-10
4.86202e-10
2.11651e-10
-5.54868e-11
-1.7019e-10
-3.56322e-10
-5.1319e-10
-6.03765e-10
-6.9042e-10
-7.15119e-10
-7.19803e-10
-7.38866e-10
-7.78057e-10
-7.52846e-10
-7.01833e-10
-7.45209e-10
-7.30258e-10
-6.75739e-10
-6.7426e-10
-6.69449e-10
-6.78732e-10
-6.39789e-10
-6.01996e-10
-6.13757e-10
-5.94214e-10
-5.96797e-10
-5.64135e-10
-5.04858e-10
-5.17379e-10
-4.92897e-10
-4.65536e-10
-4.67117e-10
-4.1876e-10
-3.91566e-10
-3.4139e-10
-2.66243e-10
-2.63554e-10
-2.04546e-10
-1.35844e-10
-1.13715e-10
-7.01321e-11
-1.42218e-11
2.28783e-11
8.33864e-11
7.42936e-11
8.0232e-11
1.38869e-10
1.46167e-10
1.64079e-10
2.12798e-10
2.06166e-10
2.24693e-10
2.77515e-10
2.86167e-10
3.40961e-10
4.11898e-10
4.34843e-10
4.60021e-10
4.81688e-10
4.73767e-10
4.55015e-10
3.747e-10
1.86581e-10
-3.8252e-11
-1.6712e-10
-3.53959e-10
-4.98726e-10
-5.89128e-10
-6.82111e-10
-7.05828e-10
-7.09845e-10
-7.31289e-10
-7.70879e-10
-7.4478e-10
-6.97741e-10
-7.41619e-10
-7.23171e-10
-6.72855e-10
-6.739e-10
-6.65001e-10
-6.73441e-10
-6.3796e-10
-6.02112e-10
-6.10134e-10
-5.9003e-10
-5.9548e-10
-5.60766e-10
-5.021e-10
-5.17378e-10
-4.91408e-10
-4.6226e-10
-4.62867e-10
-4.16486e-10
-3.90439e-10
-3.37119e-10
-2.64801e-10
-2.65231e-10
-2.05343e-10
-1.35634e-10
-1.13623e-10
-6.47867e-11
-2.12151e-11
1.13597e-11
7.99857e-11
7.20688e-11
7.92891e-11
1.36623e-10
1.42725e-10
1.63067e-10
2.10265e-10
2.02616e-10
2.23483e-10
2.74806e-10
2.81719e-10
3.38674e-10
4.08458e-10
4.29158e-10
4.36848e-10
5.07601e-10
5.38489e-10
4.12744e-10
2.74288e-10
1.56028e-10
-2.55906e-11
-1.63849e-10
-3.52414e-10
-4.85613e-10
-5.74982e-10
-6.73872e-10
-6.96542e-10
-7.00008e-10
-7.23926e-10
-7.63853e-10
-7.36704e-10
-6.93596e-10
-7.38174e-10
-7.16094e-10
-6.69891e-10
-6.73528e-10
-6.60574e-10
-6.68269e-10
-6.36128e-10
-6.02101e-10
-6.065e-10
-5.85939e-10
-5.94323e-10
-5.57343e-10
-4.99237e-10
-5.1743e-10
-4.89901e-10
-4.59006e-10
-4.58796e-10
-4.14297e-10
-3.8941e-10
-3.3279e-10
-2.63392e-10
-2.6703e-10
-2.0608e-10
-1.35325e-10
-1.13319e-10
-6.19809e-11
-2.70826e-11
2.59466e-12
7.68455e-11
6.963e-11
7.82841e-11
1.34445e-10
1.39184e-10
1.62111e-10
2.07749e-10
1.9905e-10
2.22209e-10
2.72225e-10
2.77113e-10
3.36619e-10
4.04905e-10
4.23051e-10
4.16828e-10
5.27295e-10
5.9559e-10
3.83105e-10
1.85335e-10
1.2046e-10
-1.80154e-11
-1.60689e-10
-3.51488e-10
-4.73766e-10
-5.61414e-10
-6.65758e-10
-6.87253e-10
-6.90283e-10
-7.16784e-10
-7.56973e-10
-7.28617e-10
-6.89412e-10
-7.34867e-10
-7.09022e-10
-6.66862e-10
-6.73152e-10
-6.56151e-10
-6.63212e-10
-6.34308e-10
-6.01969e-10
-6.02849e-10
-5.81942e-10
-5.9332e-10
-5.53856e-10
-4.96275e-10
-5.17549e-10
-4.88376e-10
-4.55764e-10
-4.54898e-10
-4.12204e-10
-3.88457e-10
-3.28405e-10
-2.62e-10
-2.68987e-10
-2.06732e-10
-1.34922e-10
-1.13036e-10
-6.06722e-11
-3.19907e-11
-4.24398e-12
7.38138e-11
6.68682e-11
7.72049e-11
1.32363e-10
1.35569e-10
1.61224e-10
2.05255e-10
1.95469e-10
2.20896e-10
2.69753e-10
2.72387e-10
3.34731e-10
4.01248e-10
4.1644e-10
3.99567e-10
5.41285e-10
6.45436e-10
3.65672e-10
1.08044e-10
8.04633e-11
-1.58001e-11
-1.58019e-10
-3.51116e-10
-4.63132e-10
-5.48516e-10
-6.57833e-10
-6.77962e-10
-6.80669e-10
-7.09871e-10
-7.50229e-10
-7.20519e-10
-6.85205e-10
-7.31686e-10
-7.01945e-10
-6.63786e-10
-6.72782e-10
-6.51717e-10
-6.58264e-10
-6.32513e-10
-6.01721e-10
-5.99175e-10
-5.78044e-10
-5.92467e-10
-5.50294e-10
-4.93226e-10
-5.17754e-10
-4.86826e-10
-4.52526e-10
-4.51169e-10
-4.10219e-10
-3.8756e-10
-3.23961e-10
-2.60611e-10
-2.71146e-10
-2.07253e-10
-1.34469e-10
-1.12784e-10
-6.02362e-11
-3.63604e-11
-9.78917e-12
7.09344e-11
6.38418e-11
7.60877e-11
1.30403e-10
1.319e-10
1.60416e-10
2.02784e-10
1.91869e-10
2.19571e-10
2.67375e-10
2.67574e-10
3.32971e-10
3.97465e-10
4.09308e-10
3.84651e-10
5.49834e-10
6.88497e-10
3.59948e-10
4.26015e-11
3.68729e-11
-1.89487e-11
-1.56148e-10
-3.51275e-10
-4.53658e-10
-5.36364e-10
-6.50185e-10
-6.68676e-10
-6.71161e-10
-7.03197e-10
-7.43616e-10
-7.12403e-10
-6.80986e-10
-7.28625e-10
-6.9485e-10
-6.60678e-10
-6.7243e-10
-6.47253e-10
-6.53421e-10
-6.30756e-10
-6.01358e-10
-5.95471e-10
-5.74247e-10
-5.91759e-10
-5.46645e-10
-4.90093e-10
-5.18064e-10
-4.85249e-10
-4.49282e-10
-4.47606e-10
-4.08351e-10
-3.86709e-10
-3.19448e-10
-2.59224e-10
-2.73536e-10
-2.07633e-10
-1.33981e-10
-1.12518e-10
-6.03519e-11
-4.05206e-11
-1.44018e-11
6.83178e-11
6.06245e-11
7.49359e-11
1.28563e-10
1.28179e-10
1.59691e-10
2.00339e-10
1.88242e-10
2.18262e-10
2.65084e-10
2.62701e-10
3.31341e-10
3.93498e-10
4.01687e-10
3.71944e-10
5.53009e-10
7.2479e-10
5.23843e-10
1.57267e-09
1.18859e-09
3.44253e-10
-2.46757e-10
-6.44203e-10
-8.14915e-10
-8.10786e-10
-8.19199e-10
-8.62781e-10
-8.75206e-10
-8.7048e-10
-8.98753e-10
-8.55258e-10
-7.62198e-10
-8.14057e-10
-8.16327e-10
-7.05418e-10
-6.79994e-10
-7.38132e-10
-7.55462e-10
-6.52764e-10
-5.93936e-10
-6.58763e-10
-6.56763e-10
-6.33334e-10
-5.97974e-10
-5.26788e-10
-5.14021e-10
-5.09668e-10
-5.17565e-10
-5.29245e-10
-4.51771e-10
-4.18905e-10
-3.85169e-10
-2.87338e-10
-2.41578e-10
-1.85313e-10
-1.14324e-10
-9.67945e-11
-2.69805e-11
3.0332e-11
2.18415e-11
8.43644e-11
1.08064e-10
1.10416e-10
1.74893e-10
1.82663e-10
1.85409e-10
2.46979e-10
2.42587e-10
2.49006e-10
3.14594e-10
3.37294e-10
3.71177e-10
4.68887e-10
5.35567e-10
8.50976e-10
3.62999e-10
-4.19517e-10
4.86945e-10
1.5715e-09
1.20478e-09
3.50776e-10
-2.43086e-10
-6.42877e-10
-8.14667e-10
-8.09391e-10
-8.17464e-10
-8.61833e-10
-8.74565e-10
-8.69443e-10
-8.98576e-10
-8.55823e-10
-7.602e-10
-8.13566e-10
-8.17772e-10
-7.05073e-10
-6.79012e-10
-7.37997e-10
-7.57237e-10
-6.53107e-10
-5.92206e-10
-6.5895e-10
-6.57327e-10
-6.3351e-10
-5.98766e-10
-5.26679e-10
-5.14059e-10
-5.09915e-10
-5.17541e-10
-5.30548e-10
-4.522e-10
-4.19085e-10
-3.86549e-10
-2.87613e-10
-2.42135e-10
-1.86239e-10
-1.14361e-10
-9.76222e-11
-2.76919e-11
3.0713e-11
2.08908e-11
8.40168e-11
1.08254e-10
1.09451e-10
1.7489e-10
1.82807e-10
1.84548e-10
2.47179e-10
2.42682e-10
2.48117e-10
3.14727e-10
3.37172e-10
3.69843e-10
4.67841e-10
5.31815e-10
8.60895e-10
3.87969e-10
-4.32469e-10
4.83382e-10
1.57044e-09
1.19258e-09
3.48165e-10
-2.36474e-10
-6.3974e-10
-8.13748e-10
-8.06945e-10
-8.14739e-10
-8.60198e-10
-8.73361e-10
-8.67706e-10
-8.98099e-10
-8.56381e-10
-7.58232e-10
-8.12959e-10
-8.19168e-10
-7.04368e-10
-6.77832e-10
-7.37787e-10
-7.58417e-10
-6.53375e-10
-5.90702e-10
-6.59314e-10
-6.57731e-10
-6.33514e-10
-5.99717e-10
-5.26356e-10
-5.1408e-10
-5.10158e-10
-5.17376e-10
-5.3189e-10
-4.52496e-10
-4.19187e-10
-3.88131e-10
-2.87725e-10
-2.42784e-10
-1.87461e-10
-1.1433e-10
-9.86396e-11
-2.85919e-11
3.12728e-11
1.97825e-11
8.37143e-11
1.08464e-10
1.08127e-10
1.74978e-10
1.8294e-10
1.83379e-10
2.47527e-10
2.42752e-10
2.4684e-10
3.15008e-10
3.36787e-10
3.69307e-10
4.6609e-10
5.24556e-10
8.67798e-10
4.02894e-10
-4.37091e-10
5.43569e-10
1.57687e-09
1.1371e-09
3.25175e-10
-2.27399e-10
-6.32886e-10
-8.10913e-10
-8.03188e-10
-8.11074e-10
-8.57475e-10
-8.71124e-10
-8.65023e-10
-8.96662e-10
-8.56344e-10
-7.55986e-10
-8.11961e-10
-8.19969e-10
-7.03483e-10
-6.76858e-10
-7.37164e-10
-7.58924e-10
-6.53584e-10
-5.89459e-10
-6.59568e-10
-6.57592e-10
-6.33103e-10
-6.0053e-10
-5.25975e-10
-5.14163e-10
-5.10316e-10
-5.16832e-10
-5.32808e-10
-4.52496e-10
-4.19067e-10
-3.89472e-10
-2.87631e-10
-2.43526e-10
-1.88849e-10
-1.14411e-10
-9.97489e-11
-2.96479e-11
3.16564e-11
1.86028e-11
8.34344e-11
1.08515e-10
1.06617e-10
1.74942e-10
1.82914e-10
1.82123e-10
2.47718e-10
2.42736e-10
2.45293e-10
3.15274e-10
3.3592e-10
3.69628e-10
4.62284e-10
5.1996e-10
8.70986e-10
3.84255e-10
-4.32085e-10
6.79828e-10
1.60028e-09
1.03476e-09
2.7446e-10
-2.1753e-10
-6.20903e-10
-8.04965e-10
-7.97824e-10
-8.0634e-10
-8.53206e-10
-8.67289e-10
-8.61008e-10
-8.93735e-10
-8.55215e-10
-7.53537e-10
-8.10282e-10
-8.19663e-10
-7.02546e-10
-6.76231e-10
-7.35808e-10
-7.58296e-10
-6.53764e-10
-5.88814e-10
-6.59449e-10
-6.56607e-10
-6.32084e-10
-6.00977e-10
-5.2568e-10
-5.14407e-10
-5.1031e-10
-5.15714e-10
-5.32849e-10
-4.52075e-10
-4.18591e-10
-3.90189e-10
-2.87349e-10
-2.44411e-10
-1.9039e-10
-1.14789e-10
-1.00906e-10
-3.0954e-11
3.15376e-11
1.74264e-11
8.30813e-11
1.08213e-10
1.04983e-10
1.74561e-10
1.82578e-10
1.80867e-10
2.47507e-10
2.42513e-10
2.43527e-10
3.15368e-10
3.34173e-10
3.71069e-10
4.56228e-10
5.19942e-10
8.71409e-10
3.23578e-10
-4.23413e-10
8.72946e-10
1.64136e-09
8.96543e-10
1.98093e-10
-2.08224e-10
-6.03465e-10
-7.95386e-10
-7.90862e-10
-8.00614e-10
-8.47318e-10
-8.6166e-10
-8.55557e-10
-8.89168e-10
-8.52763e-10
-7.50864e-10
-8.07741e-10
-8.18066e-10
-7.01586e-10
-6.75912e-10
-7.33566e-10
-7.56361e-10
-6.53917e-10
-5.88813e-10
-6.58784e-10
-6.54684e-10
-6.30397e-10
-6.00901e-10
-5.25475e-10
-5.14821e-10
-5.1009e-10
-5.13922e-10
-5.31789e-10
-4.51159e-10
-4.1765e-10
-3.90053e-10
-2.86846e-10
-2.45426e-10
-1.92052e-10
-1.15519e-10
-1.02077e-10
-3.25585e-11
3.07734e-11
1.62935e-11
8.25906e-11
1.07462e-10
1.03233e-10
1.73711e-10
1.81853e-10
1.79634e-10
2.46766e-10
2.42004e-10
2.41574e-10
3.15159e-10
3.31563e-10
3.73418e-10
4.48713e-10
5.23245e-10
8.70323e-10
2.22717e-10
-4.17764e-10
1.07327e-09
1.68955e-09
7.43847e-10
1.07431e-10
-1.99949e-10
-5.81069e-10
-7.82153e-10
-7.82479e-10
-7.94098e-10
-8.39998e-10
-8.54371e-10
-8.48827e-10
-8.83105e-10
-8.48991e-10
-7.47979e-10
-8.04337e-10
-8.15189e-10
-7.00605e-10
-6.75808e-10
-7.30446e-10
-7.53166e-10
-6.54027e-10
-5.89364e-10
-6.57471e-10
-6.51902e-10
-6.28129e-10
-6.00224e-10
-5.25276e-10
-5.15335e-10
-5.09635e-10
-5.11462e-10
-5.296e-10
-4.49763e-10
-4.16227e-10
-3.88989e-10
-2.86093e-10
-2.46505e-10
-1.93772e-10
-1.16575e-10
-1.03205e-10
-3.44554e-11
2.93595e-11
1.52728e-11
8.19385e-11
1.06253e-10
1.01383e-10
1.72346e-10
1.80723e-10
1.78432e-10
2.45475e-10
2.41169e-10
2.39513e-10
3.14487e-10
3.28334e-10
3.75737e-10
4.41461e-10
5.25533e-10
8.68132e-10
1.23146e-10
-4.1684e-10
1.24114e-09
1.72811e-09
5.9867e-10
1.64961e-11
-1.92831e-10
-5.54959e-10
-7.65565e-10
-7.72882e-10
-7.87022e-10
-8.31551e-10
-8.45733e-10
-8.41118e-10
-8.75857e-10
-8.44042e-10
-7.44939e-10
-8.00195e-10
-8.11156e-10
-6.99573e-10
-6.75837e-10
-7.26586e-10
-7.48887e-10
-6.5405e-10
-5.90336e-10
-6.555e-10
-6.4842e-10
-6.25441e-10
-5.98952e-10
-5.24991e-10
-5.15862e-10
-5.08949e-10
-5.08436e-10
-5.26394e-10
-4.47974e-10
-4.144e-10
-3.87054e-10
-2.85101e-10
-2.47577e-10
-1.9547e-10
-1.17908e-10
-1.04232e-10
-3.66122e-11
2.73644e-11
1.44451e-11
8.11554e-11
1.04623e-10
9.94821e-11
1.70486e-10
1.79213e-10
1.77262e-10
2.43689e-10
2.39983e-10
2.37473e-10
3.13221e-10
3.24834e-10
3.77152e-10
4.35593e-10
5.24254e-10
8.62244e-10
4.28281e-11
-4.14419e-10
1.35035e-09
1.73838e-09
4.79424e-10
-6.30319e-11
-1.86847e-10
-5.26751e-10
-7.46104e-10
-7.62201e-10
-7.79575e-10
-8.22295e-10
-8.36092e-10
-8.32744e-10
-8.67795e-10
-8.38126e-10
-7.41796e-10
-7.95521e-10
-8.06156e-10
-6.98467e-10
-6.75931e-10
-7.22188e-10
-7.43766e-10
-6.53929e-10
-5.91597e-10
-6.52949e-10
-6.44411e-10
-6.22515e-10
-5.97145e-10
-5.24549e-10
-5.1634e-10
-5.08057e-10
-5.04996e-10
-5.22357e-10
-4.45887e-10
-4.12299e-10
-3.84387e-10
-2.83922e-10
-2.48612e-10
-1.97066e-10
-1.19455e-10
-1.0514e-10
-3.89605e-11
2.48864e-11
1.38583e-11
8.03052e-11
1.02628e-10
9.75876e-11
1.68211e-10
1.77359e-10
1.76118e-10
2.41511e-10
2.38439e-10
2.35585e-10
3.11322e-10
3.21357e-10
3.77208e-10
4.31392e-10
5.19018e-10
8.48109e-10
-4.11944e-12
-3.97563e-10
1.39311e-09
1.7135e-09
3.89838e-10
-1.24147e-10
-1.81929e-10
-4.98158e-10
-7.24406e-10
-7.50524e-10
-7.71897e-10
-8.12527e-10
-8.25772e-10
-8.23974e-10
-8.59264e-10
-8.31474e-10
-7.38579e-10
-7.90529e-10
-8.00386e-10
-6.97251e-10
-6.76037e-10
-7.17449e-10
-7.38055e-10
-6.53607e-10
-5.93021e-10
-6.49947e-10
-6.40034e-10
-6.19507e-10
-5.94897e-10
-5.23898e-10
-5.16741e-10
-5.07001e-10
-5.01299e-10
-5.17707e-10
-4.43575e-10
-4.1006e-10
-3.81159e-10
-2.82611e-10
-2.4962e-10
-1.98505e-10
-1.21149e-10
-1.05943e-10
-4.14434e-11
2.20366e-11
1.35089e-11
7.94659e-11
1.00337e-10
9.57445e-11
1.65637e-10
1.75207e-10
1.74984e-10
2.39052e-10
2.36537e-10
2.33939e-10
3.08841e-10
3.18072e-10
3.75767e-10
4.28732e-10
5.10479e-10
8.24149e-10
-1.40994e-11
-3.61411e-10
1.37211e-09
1.6531e-09
3.29442e-10
-1.64606e-10
-1.7816e-10
-4.70798e-10
-7.01232e-10
-7.37952e-10
-7.64095e-10
-8.02502e-10
-8.1505e-10
-8.15016e-10
-8.50536e-10
-8.24294e-10
-7.35294e-10
-7.85413e-10
-7.94063e-10
-6.95893e-10
-6.76114e-10
-7.12525e-10
-7.32001e-10
-6.53051e-10
-5.94492e-10
-6.46632e-10
-6.35426e-10
-6.16534e-10
-5.92312e-10
-5.23004e-10
-5.17055e-10
-5.0582e-10
-4.97479e-10
-5.12656e-10
-4.41114e-10
-4.07793e-10
-3.77541e-10
-2.81214e-10
-2.50633e-10
-1.99767e-10
-1.2292e-10
-1.06678e-10
-4.40077e-11
1.89308e-11
1.33585e-11
7.86949e-11
9.7816e-11
9.39856e-11
1.62881e-10
1.7281e-10
1.73842e-10
2.36413e-10
2.34297e-10
2.32554e-10
3.05887e-10
3.15029e-10
3.72978e-10
4.27206e-10
4.99913e-10
7.91565e-10
8.99889e-12
-3.05733e-10
1.30567e-09
1.56192e-09
2.93736e-10
-1.85774e-10
-1.7583e-10
-4.45955e-10
-6.77343e-10
-7.2459e-10
-7.56226e-10
-7.92408e-10
-8.04136e-10
-8.06014e-10
-8.41796e-10
-8.16759e-10
-7.31936e-10
-7.80313e-10
-7.87356e-10
-6.94364e-10
-6.76143e-10
-7.07535e-10
-7.25786e-10
-6.52254e-10
-5.9592e-10
-6.43124e-10
-6.30696e-10
-6.13673e-10
-5.89487e-10
-5.21852e-10
-5.17283e-10
-5.04553e-10
-4.93632e-10
-5.07387e-10
-4.38557e-10
-4.05575e-10
-3.73682e-10
-2.79765e-10
-2.51681e-10
-2.00861e-10
-1.24695e-10
-1.07345e-10
-4.66321e-11
1.56647e-11
1.33607e-11
7.79814e-11
9.51257e-11
9.23191e-11
1.60042e-10
1.70217e-10
1.72685e-10
2.33673e-10
2.31758e-10
2.31397e-10
3.02601e-10
3.12169e-10
3.69173e-10
4.26272e-10
4.8883e-10
7.53168e-10
5.56652e-11
-2.33592e-10
1.20864e-09
1.44657e-09
2.75626e-10
-1.90935e-10
-1.74776e-10
-4.24278e-10
-6.53335e-10
-7.10523e-10
-7.48292e-10
-7.82355e-10
-7.93169e-10
-7.97059e-10
-8.33157e-10
-8.08996e-10
-7.28496e-10
-7.75321e-10
-7.80404e-10
-6.92645e-10
-6.76113e-10
-7.02553e-10
-7.19541e-10
-6.51228e-10
-5.97238e-10
-6.39514e-10
-6.25922e-10
-6.10963e-10
-5.86501e-10
-5.20445e-10
-5.17431e-10
-5.03228e-10
-4.8982e-10
-5.02039e-10
-4.35948e-10
-4.03453e-10
-3.69677e-10
-2.78283e-10
-2.52784e-10
-2.01812e-10
-1.2641e-10
-1.07946e-10
-4.92993e-11
1.23069e-11
1.34546e-11
7.72949e-11
9.23193e-11
9.07386e-11
1.57191e-10
1.6747e-10
1.71506e-10
2.30892e-10
2.28957e-10
2.30409e-10
2.99129e-10
3.09372e-10
3.64793e-10
4.25421e-10
4.78316e-10
7.11444e-10
1.15937e-10
-1.48701e-10
1.09519e-09
1.31465e-09
2.68256e-10
-1.8378e-10
-1.74566e-10
-4.05962e-10
-6.29705e-10
-6.95861e-10
-7.40284e-10
-7.72408e-10
-7.82243e-10
-7.88208e-10
-8.24681e-10
-8.01095e-10
-7.24968e-10
-7.70486e-10
-7.73308e-10
-6.90738e-10
-6.76022e-10
-6.97623e-10
-7.13351e-10
-6.49998e-10
-5.98409e-10
-6.35865e-10
-6.21162e-10
-6.08426e-10
-5.83412e-10
-5.18797e-10
-5.17509e-10
-5.01867e-10
-4.86079e-10
-4.96711e-10
-4.33321e-10
-4.0145e-10
-3.65597e-10
-2.76781e-10
-2.53955e-10
-2.02645e-10
-1.28019e-10