/*--------------------------------*- C++ -*----------------------------------*\
| =========                 |                                                 |
| \\      /  F ield         | OpenFOAM: The Open Source CFD Toolbox           |
|  \\    /   O peration     | Version:  2312                                  |
|   \\  /    A nd           | Website:  www.openfoam.com                      |
|    \\/     M anipulation  |                                                 |
\*---------------------------------------------------------------------------*/
FoamFile
{
    version     2.0;
    format      ascii;
    arch        "LSB;label=32;scalar=64";
    class       volScalarField;
    location    "40";
    object      pMean;
}
// * * * * * * * * * * * * * * * * * * * * * * * * * * * * * * * * * * * * * //

dimensions      [0 2 -2 0 0 0 0];

internalField   nonuniform List<scalar> 
144000
(
1.49268e-09
3.54481e-09
9.714e-10
-1.43779e-09
-2.11651e-09
-2.08093e-09
-1.87946e-09
-1.69367e-09
-1.54338e-09
-1.41642e-09
-1.2978e-09
-1.18272e-09
-1.07321e-09
-9.73526e-10
-8.854e-10
-8.07184e-10
-7.34251e-10
-6.73155e-10
-6.19456e-10
-5.70192e-10
-5.21335e-10
-4.78169e-10
-4.38749e-10
-4.01662e-10
-3.62242e-10
-3.28063e-10
-2.93764e-10
-2.65774e-10
-2.37059e-10
-2.11792e-10
-1.83849e-10
-1.60046e-10
-1.34184e-10
-1.17015e-10
-9.45068e-11
-7.97673e-11
-6.02479e-11
-4.92746e-11
-3.25769e-11
-2.51142e-11
-6.42539e-12
4.24396e-12
2.04539e-11
2.7549e-11
3.63931e-11
3.1514e-11
3.82277e-11
3.6584e-11
5.16971e-11
5.47758e-11
7.36277e-11
8.30319e-11
1.10664e-10
1.31549e-10
1.69637e-10
2.09771e-10
2.83039e-10
1.22834e-09
-2.47659e-10
-1.91806e-09
1.48988e-09
3.56461e-09
9.76827e-10
-1.43834e-09
-2.10891e-09
-2.07866e-09
-1.88021e-09
-1.69573e-09
-1.54569e-09
-1.41869e-09
-1.2998e-09
-1.18448e-09
-1.07478e-09
-9.74987e-10
-8.86745e-10
-8.08475e-10
-7.3541e-10
-6.74237e-10
-6.20486e-10
-5.71156e-10
-5.22206e-10
-4.78963e-10
-4.395e-10
-4.02394e-10
-3.62878e-10
-3.28668e-10
-2.94308e-10
-2.66288e-10
-2.37547e-10
-2.12245e-10
-1.84267e-10
-1.60417e-10
-1.34505e-10
-1.17332e-10
-9.47943e-11
-7.99812e-11
-6.04811e-11
-4.94318e-11
-3.27799e-11
-2.52769e-11
-6.54651e-12
4.35913e-12
2.06422e-11
2.77143e-11
3.62558e-11
3.14433e-11
3.80598e-11
3.66607e-11
5.14979e-11
5.49699e-11
7.32589e-11
8.3442e-11
1.09919e-10
1.32401e-10
1.67771e-10
2.10806e-10
2.86428e-10
1.22395e-09
-2.39869e-10
-1.9214e-09
1.57621e-09
3.54792e-09
9.11861e-10
-1.43374e-09
-2.0778e-09
-2.06266e-09
-1.87447e-09
-1.69476e-09
-1.5469e-09
-1.42083e-09
-1.30219e-09
-1.18675e-09
-1.07689e-09
-9.76978e-10
-8.8863e-10
-8.10266e-10
-7.36996e-10
-6.75736e-10
-6.21906e-10
-5.72481e-10
-5.2338e-10
-4.80045e-10
-4.40514e-10
-4.0338e-10
-3.63734e-10
-3.29489e-10
-2.95035e-10
-2.66983e-10
-2.38203e-10
-2.12855e-10
-1.84828e-10
-1.60919e-10
-1.34943e-10
-1.17768e-10
-9.52096e-11
-8.02978e-11
-6.08239e-11
-4.96842e-11
-3.30859e-11
-2.56481e-11
-6.77627e-12
4.31648e-12
2.09736e-11
2.8296e-11
3.61812e-11
3.1224e-11
3.77837e-11
3.66988e-11
5.12796e-11
5.51766e-11
7.2811e-11
8.38302e-11
1.09187e-10
1.33093e-10
1.67533e-10
2.10287e-10
2.97943e-10
1.20761e-09
-2.91872e-10
-1.89344e-09
1.68784e-09
3.45388e-09
7.99441e-10
-1.41895e-09
-2.02187e-09
-2.02874e-09
-1.85827e-09
-1.68713e-09
-1.54394e-09
-1.4207e-09
-1.30347e-09
-1.18862e-09
-1.07889e-09
-9.79063e-10
-8.9077e-10
-8.12418e-10
-7.38991e-10
-6.7767e-10
-6.23754e-10
-5.74213e-10
-5.24953e-10
-4.81497e-10
-4.4188e-10
-4.04679e-10
-3.64895e-10
-3.30588e-10
-2.96045e-10
-2.67924e-10
-2.39117e-10
-2.1367e-10
-1.85622e-10
-1.616e-10
-1.35607e-10
-1.1836e-10
-9.58489e-11
-8.07615e-11
-6.13863e-11
-5.00835e-11
-3.36059e-11
-2.62939e-11
-7.17321e-12
4.04378e-12
2.13883e-11
2.94066e-11
3.61235e-11
3.08901e-11
3.71837e-11
3.68477e-11
5.07703e-11
5.55483e-11
7.19613e-11
8.43904e-11
1.08281e-10
1.33402e-10
1.68756e-10
2.06767e-10
3.1448e-10
1.16247e-09
-3.6458e-10
-1.79112e-09
1.76798e-09
3.30344e-09
6.71918e-10
-1.39495e-09
-1.94983e-09
-1.9804e-09
-1.83267e-09
-1.67224e-09
-1.53542e-09
-1.41669e-09
-1.30221e-09
-1.18888e-09
-1.07991e-09
-9.80555e-10
-8.92604e-10
-8.14499e-10
-7.4109e-10
-6.79802e-10
-6.2586e-10
-5.76243e-10
-5.26883e-10
-4.83318e-10
-4.43605e-10
-4.06313e-10
-3.66423e-10
-3.32044e-10
-2.97429e-10
-2.69195e-10
-2.40374e-10
-2.1477e-10
-1.86744e-10
-1.62562e-10
-1.36619e-10
-1.19206e-10
-9.68399e-11
-8.14712e-11
-6.22728e-11
-5.07143e-11
-3.44425e-11
-2.72855e-11
-7.85054e-12
3.46939e-12
2.18208e-11
3.10012e-11
3.59944e-11
3.04395e-11
3.62736e-11
3.6988e-11
5.00225e-11
5.58969e-11
7.09333e-11
8.48276e-11
1.07214e-10
1.33431e-10
1.7028e-10
2.03732e-10
3.29099e-10
1.10372e-09
-4.15805e-10
-1.65401e-09
1.7962e-09
3.13196e-09
5.54942e-10
-1.3662e-09
-1.87317e-09
-1.92515e-09
-1.80091e-09
-1.65217e-09
-1.52244e-09
-1.40893e-09
-1.29814e-09
-1.18698e-09
-1.07931e-09
-9.80863e-10
-8.93567e-10
-8.15976e-10
-7.42843e-10
-6.8173e-10
-6.2786e-10
-5.78264e-10
-5.28916e-10
-4.85302e-10
-4.45513e-10
-4.08141e-10
-3.68215e-10
-3.33774e-10
-2.99132e-10
-2.70757e-10
-2.41944e-10
-2.1614e-10
-1.88194e-10
-1.63816e-10
-1.38005e-10
-1.20337e-10
-9.82082e-11
-8.24722e-11
-6.35461e-11
-5.16079e-11
-3.56655e-11
-2.86388e-11
-8.89966e-12
2.55127e-12
2.2312e-11
3.29795e-11
3.57155e-11
2.97858e-11
3.51229e-11
3.70442e-11
4.91032e-11
5.6123e-11
6.97747e-11
8.50327e-11
1.06185e-10
1.33054e-10
1.71541e-10
2.02146e-10
3.39752e-10
1.0416e-09
-4.41157e-10
-1.51403e-09
1.77154e-09
2.94433e-09
4.58948e-10
-1.33122e-09
-1.79823e-09
-1.86703e-09
-1.76571e-09
-1.62903e-09
-1.5065e-09
-1.39853e-09
-1.29179e-09
-1.18318e-09
-1.07714e-09
-9.79937e-10
-8.93523e-10
-8.16671e-10
-7.43997e-10
-6.83193e-10
-6.29488e-10
-5.80008e-10
-5.30794e-10
-4.87199e-10
-4.47378e-10
-4.09954e-10
-3.70085e-10
-3.35607e-10
-3.01001e-10
-2.72474e-10
-2.43707e-10
-2.1768e-10
-1.89882e-10
-1.65291e-10
-1.397e-10
-1.21701e-10
-9.99038e-11
-8.37244e-11
-6.51822e-11
-5.27413e-11
-3.72672e-11
-3.03196e-11
-1.03811e-11
1.30027e-12
2.30039e-11
3.52623e-11
3.52457e-11
2.89184e-11
3.37616e-11
3.6969e-11
4.80314e-11
5.61498e-11
6.85302e-11
8.49293e-11
1.05114e-10
1.32343e-10
1.72078e-10
2.02511e-10
3.46226e-10
9.75206e-10
-4.36839e-10
-1.37092e-09
1.69538e-09
2.73845e-09
3.88288e-10
-1.28779e-09
-1.72704e-09
-1.80861e-09
-1.72836e-09
-1.60397e-09
-1.4887e-09
-1.38637e-09
-1.28379e-09
-1.17804e-09
-1.07389e-09
-9.78038e-10
-8.9267e-10
-8.16646e-10
-7.44575e-10
-6.84162e-10
-6.30678e-10
-5.81388e-10
-5.32402e-10
-4.88872e-10
-4.49064e-10
-4.11616e-10
-3.71893e-10
-3.37401e-10
-3.02895e-10
-2.74216e-10
-2.45539e-10
-2.19279e-10
-1.91695e-10
-1.66888e-10
-1.41596e-10
-1.2321e-10
-1.01833e-10
-8.51502e-11
-6.71073e-11
-5.40415e-11
-3.9209e-11
-3.22521e-11
-1.23568e-11
-2.28354e-13
2.41168e-11
3.7808e-11
3.45547e-11
2.78374e-11
3.22697e-11
3.67365e-11
4.68519e-11
5.59549e-11
6.72332e-11
8.45749e-11
1.03919e-10
1.3162e-10
1.71545e-10
2.0474e-10
3.49389e-10
9.03051e-10
-4.05747e-10
-1.22103e-09
1.57658e-09
2.51418e-09
3.40752e-10
-1.23425e-09
-1.65997e-09
-1.75163e-09
-1.69006e-09
-1.57792e-09
-1.46996e-09
-1.37315e-09
-1.27478e-09
-1.17203e-09
-1.06989e-09
-9.75511e-10
-8.91247e-10
-8.16095e-10
-7.44715e-10
-6.84735e-10
-6.31516e-10
-5.82433e-10
-5.33743e-10
-4.90307e-10
-4.50547e-10
-4.13089e-10
-3.73584e-10
-3.39089e-10
-3.04734e-10
-2.75908e-10
-2.47358e-10
-2.20864e-10
-1.93544e-10
-1.68527e-10
-1.43599e-10
-1.24783e-10
-1.03899e-10
-8.66701e-11
-6.92334e-11
-5.54191e-11
-4.14419e-11
-3.43371e-11
-1.49014e-11
-1.93309e-12
2.59197e-11
4.05994e-11
3.36418e-11
2.6575e-11
3.07095e-11
3.63591e-11
4.56009e-11
5.55613e-11
6.58663e-11
8.40252e-11
1.02556e-10
1.30976e-10
1.70093e-10
2.0832e-10
3.49668e-10
8.25705e-10
-3.51875e-10
-1.06221e-09
1.42766e-09
2.27588e-09
3.1166e-10
-1.17114e-09
-1.59698e-09
-1.69743e-09
-1.65172e-09
-1.55139e-09
-1.45072e-09
-1.35927e-09
-1.26509e-09
-1.16542e-09
-1.0654e-09
-9.72564e-10
-8.89444e-10
-8.15182e-10
-7.44558e-10
-6.85042e-10
-6.32093e-10
-5.83225e-10
-5.34869e-10
-4.91545e-10
-4.51855e-10
-4.14394e-10
-3.75157e-10
-3.40666e-10
-3.06492e-10
-2.77525e-10
-2.49128e-10
-2.22404e-10
-1.95381e-10
-1.70163e-10
-1.4564e-10
-1.26373e-10
-1.06031e-10
-8.82254e-11
-7.14864e-11
-5.67962e-11
-4.39368e-11
-3.64855e-11
-1.81511e-11
-3.65367e-12
2.87182e-11
4.361e-11
3.2502e-11
2.51804e-11
2.91388e-11
3.58561e-11
4.43052e-11
5.50047e-11
6.44553e-11
8.33391e-11
1.01027e-10
1.30387e-10
1.67999e-10
2.12534e-10
3.47908e-10
7.45891e-10
-2.82206e-10
-8.97133e-10
1.26238e-09
2.02904e-09
2.94961e-10
-1.10056e-09
-1.5378e-09
-1.64679e-09
-1.61401e-09
-1.52473e-09
-1.43127e-09
-1.34502e-09
-1.25497e-09
-1.15841e-09
-1.06058e-09
-9.6933e-10
-8.8739e-10
-8.14026e-10
-7.44205e-10
-6.85167e-10
-6.32493e-10
-5.83834e-10
-5.3584e-10
-4.92637e-10
-4.53033e-10
-4.15568e-10
-3.76635e-10
-3.42147e-10
-3.0817e-10
-2.79074e-10
-2.50842e-10
-2.23897e-10
-1.97185e-10
-1.71779e-10
-1.47681e-10
-1.27954e-10
-1.08181e-10
-8.97813e-11
-7.38153e-11
-5.81155e-11
-4.66782e-11
-3.86385e-11
-2.23252e-11
-5.15428e-12
3.28762e-11
4.67703e-11
3.11215e-11
2.37127e-11
2.76009e-11
3.52509e-11
4.29904e-11
5.43029e-11
6.30289e-11
8.25404e-11
9.93955e-11
1.29787e-10
1.65559e-10
2.16634e-10
3.44801e-10
6.66435e-10
-2.04362e-10
-7.29482e-10
1.09277e-09
1.77954e-09
2.84747e-10
-1.02515e-09
-1.48189e-09
-1.59996e-09
-1.57736e-09
-1.49816e-09
-1.41177e-09
-1.33059e-09
-1.24454e-09
-1.15111e-09
-1.05552e-09
-9.65891e-10
-8.85161e-10
-8.12702e-10
-7.43711e-10
-6.85162e-10
-6.32768e-10
-5.84316e-10
-5.367e-10
-4.93624e-10
-4.54117e-10
-4.1665e-10
-3.7804e-10
-3.43558e-10
-3.09781e-10
-2.80567e-10
-2.52506e-10
-2.25352e-10
-1.98953e-10
-1.73374e-10
-1.49701e-10
-1.29521e-10
-1.10319e-10
-9.13241e-11
-7.61809e-11
-5.93514e-11
-4.96321e-11
-4.08062e-11
-2.77919e-11
-6.04901e-12
3.88303e-11
4.99395e-11
2.94669e-11
2.22141e-11
2.61249e-11
3.45618e-11
4.16803e-11
5.34856e-11
6.16065e-11
8.16429e-11
9.77389e-11
1.29091e-10
1.63096e-10
2.20159e-10
3.4087e-10
5.89718e-10
-1.24834e-10
-5.63251e-10
9.27493e-10
1.53217e-09
2.75973e-10
-9.47503e-10
-1.4285e-09
-1.55681e-09
-1.5421e-09
-1.47186e-09
-1.39234e-09
-1.31607e-09
-1.23392e-09
-1.14358e-09
-1.05027e-09
-9.62294e-10
-8.82804e-10
-8.1125e-10
-7.43108e-10
-6.8506e-10
-6.32953e-10
-5.84708e-10
-5.37475e-10
-4.94532e-10
-4.55131e-10
-4.17666e-10
-3.7939e-10
-3.44915e-10
-3.11337e-10
-2.8202e-10
-2.54128e-10
-2.26779e-10
-2.00686e-10
-1.74952e-10
-1.5169e-10
-1.31078e-10
-1.12424e-10
-9.28631e-11
-7.85377e-11
-6.05261e-11
-5.27062e-11
-4.30381e-11
-3.5257e-11
-5.59582e-12
4.72267e-11
5.29418e-11
2.74821e-11
2.06908e-11
2.47093e-11
3.37905e-11
4.03838e-11
5.25696e-11
6.02023e-11
8.06469e-11
9.61156e-11
1.28238e-10
1.60821e-10
2.22796e-10
3.36282e-10
5.17406e-10
-4.80177e-11
-4.0172e-10
7.72503e-10
1.29115e-09
2.65083e-10
-8.69907e-10
-1.37699e-09
-1.51701e-09
-1.50842e-09
-1.44599e-09
-1.37306e-09
-1.30154e-09
-1.22315e-09
-1.13588e-09
-1.04488e-09
-9.58572e-10
-8.80344e-10
-8.09695e-10
-7.42416e-10
-6.8488e-10
-6.33071e-10
-5.85029e-10
-5.38183e-10
-4.95378e-10
-4.56093e-10
-4.18635e-10
-3.80696e-10
-3.46234e-10
-3.12846e-10
-2.83444e-10
-2.55714e-10
-2.28189e-10
-2.02384e-10
-1.76522e-10
-1.53637e-10
-1.32637e-10
-1.14471e-10
-9.44235e-11
-8.0834e-11
-6.16885e-11
-5.57864e-11
-4.52458e-11
-4.60799e-11
-3.0508e-12
5.92121e-11
5.57136e-11
2.51745e-11
1.91345e-11
2.33254e-11
3.29234e-11
3.91018e-11
5.15642e-11
5.88257e-11
7.95474e-11
9.45264e-11
1.27198e-10
1.58827e-10
2.24418e-10
3.31068e-10
4.50659e-10
2.33642e-11
-2.47681e-10
6.31483e-10
1.06003e-09
2.49836e-10
-7.94398e-10
-1.32691e-09
-1.48015e-09
-1.47649e-09
-1.42071e-09
-1.354e-09
-1.28704e-09
-1.2123e-09
-1.12803e-09
-1.03937e-09
-9.54744e-10
-8.77799e-10
-8.08055e-10
-7.41645e-10
-6.84635e-10
-6.33131e-10
-5.85293e-10
-5.38834e-10
-4.96171e-10
-4.57011e-10
-4.19567e-10
-3.81964e-10
-3.47523e-10
-3.14315e-10
-2.84847e-10
-2.57268e-10
-2.29589e-10
-2.04048e-10
-1.78088e-10
-1.5554e-10
-1.34203e-10
-1.16454e-10
-9.60094e-11
-8.30683e-11
-6.28197e-11
-5.89048e-11
-4.6866e-11
-6.25216e-11
2.25646e-12
7.65902e-11
5.85687e-11
2.28067e-11
1.76274e-11
2.19764e-11
3.19658e-11
3.78374e-11
5.04669e-11
5.74859e-11
7.83435e-11
9.30042e-11
1.25962e-10
1.57119e-10
2.25035e-10
3.25185e-10
3.90072e-10
8.78235e-11
-1.03322e-10
5.06341e-10
8.41629e-10
2.29045e-10
-7.22743e-10
-1.27808e-09
-1.44584e-09
-1.4464e-09
-1.39617e-09
-1.33521e-09
-1.27262e-09
-1.20138e-09
-1.12007e-09
-1.03374e-09
-9.50821e-10
-8.75177e-10
-8.06338e-10
-7.40803e-10
-6.8433e-10
-6.33139e-10
-5.85507e-10
-5.39432e-10
-4.96919e-10
-4.57889e-10
-4.20468e-10
-3.83199e-10
-3.48786e-10
-3.15748e-10
-2.86233e-10
-2.58793e-10
-2.30982e-10
-2.05681e-10
-1.79652e-10
-1.57401e-10
-1.3577e-10
-1.18387e-10
-9.75973e-11
-8.52848e-11
-6.38638e-11
-6.21439e-11
-4.71881e-11
-8.55424e-11
3.44868e-12
1.00269e-10
6.19104e-11
2.10404e-11
1.63879e-11
2.07373e-11
3.09724e-11
3.66189e-11
4.93029e-11
5.61888e-11
7.70451e-11
9.15586e-11
1.24538e-10
1.55657e-10
2.24721e-10
3.186e-10
3.35856e-10
1.44736e-10
2.98254e-11
3.97759e-10
6.37958e-10
2.02192e-10
-6.56437e-10
-1.23045e-09
-1.4136e-09
-1.41814e-09
-1.37248e-09
-1.31674e-09
-1.25828e-09
-1.19043e-09
-1.11201e-09
-1.02802e-09
-9.46814e-10
-8.72485e-10
-8.04551e-10
-7.39893e-10
-6.83968e-10
-6.33098e-10
-5.85675e-10
-5.39982e-10
-4.97624e-10
-4.58731e-10
-4.21343e-10
-3.84402e-10
-3.50028e-10
-3.17146e-10
-2.87606e-10
-2.6029e-10
-2.32372e-10
-2.07283e-10
-1.81219e-10
-1.59213e-10
-1.37357e-10
-1.20235e-10
-9.92584e-11
-8.73351e-11
-6.51762e-11
-6.47322e-11
-4.76798e-11
-1.00744e-10
-1.82921e-14
1.13323e-10
6.31919e-11
1.97087e-11
1.52841e-11
1.95194e-11
2.9909e-11
3.54327e-11
4.80723e-11
5.49282e-11
7.5656e-11
9.01852e-11
1.22943e-10
1.54371e-10
2.23606e-10
3.11253e-10
2.87915e-10
1.94144e-10
1.50963e-10
3.05551e-10
4.50283e-10
1.69289e-10
-5.96619e-10
-1.18409e-09
-1.38303e-09
-1.39168e-09
-1.34974e-09
-1.29862e-09
-1.24404e-09
-1.17945e-09
-1.10387e-09
-1.02221e-09
-9.42728e-10
-8.69728e-10
-8.027e-10
-7.38918e-10
-6.83553e-10
-6.3301e-10
-5.858e-10
-5.40486e-10
-4.9829e-10
-4.59537e-10
-4.22194e-10
-3.85574e-10
-3.51249e-10
-3.1851e-10
-2.88969e-10
-2.61759e-10
-2.3376e-10
-2.08848e-10
-1.82797e-10
-1.60963e-10
-1.38985e-10
-1.21955e-10
-1.01081e-10
-8.9029e-11
-6.71758e-11
-6.57444e-11
-5.0378e-11
-8.95134e-11
3.59593e-13
9.74274e-11
5.92891e-11
1.82639e-11
1.40239e-11
1.81629e-11
2.87073e-11
3.42377e-11
4.6763e-11
5.3689e-11
7.41822e-11
8.8859e-11
1.21199e-10
1.53181e-10
2.21801e-10
3.03131e-10
2.459e-10
2.36436e-10
2.59878e-10
2.29114e-10
2.79422e-10
1.30761e-10
-5.44104e-10
-1.13917e-09
-1.35377e-09
-1.36692e-09
-1.32805e-09
-1.28091e-09
-1.22992e-09
-1.16846e-09
-1.09566e-09
-1.01632e-09
-9.38571e-10
-8.6691e-10
-8.00788e-10
-7.37881e-10
-6.83086e-10
-6.32874e-10
-5.85884e-10
-5.40945e-10
-4.98918e-10
-4.60307e-10
-4.23021e-10
-3.86716e-10
-3.5245e-10
-3.19842e-10
-2.90322e-10
-2.63201e-10
-2.35147e-10
-2.10382e-10
-1.84379e-10
-1.62664e-10
-1.40633e-10
-1.23592e-10
-1.02978e-10
-9.05541e-11
-6.94467e-11
-6.60682e-11
-5.32377e-11
-7.0256e-11
-3.99814e-12
7.09237e-11
5.3308e-11
1.72731e-11
1.29004e-11
1.68218e-11
2.74443e-11
3.30663e-11
4.54014e-11
5.24744e-11
7.26388e-11
8.75646e-11
1.19332e-10
1.51999e-10
2.19402e-10
2.94266e-10
2.09344e-10
2.72131e-10
3.56674e-10
1.67432e-10
1.2566e-10
8.72024e-11
-4.99415e-10
-1.09589e-09
-1.32552e-09
-1.34379e-09
-1.30748e-09
-1.26366e-09
-1.21593e-09
-1.15748e-09
-1.0874e-09
-1.01036e-09
-9.34346e-10
-8.64033e-10
-7.98819e-10
-7.36783e-10
-6.82568e-10
-6.32691e-10
-5.85928e-10
-5.4136e-10
-4.99509e-10
-4.61042e-10
-4.23824e-10
-3.87827e-10
-3.53632e-10
-3.21141e-10
-2.91665e-10
-2.64617e-10
-2.3653e-10
-2.11886e-10
-1.85963e-10
-1.64323e-10
-1.42285e-10
-1.25179e-10
-1.04882e-10
-9.20531e-11
-7.16305e-11
-6.64818e-11
-5.48102e-11
-5.75083e-11
-1.2667e-11
5.0133e-11
4.77876e-11
1.69184e-11
1.20595e-11
1.5586e-11
2.61651e-11
3.19286e-11
4.40034e-11
5.12887e-11
7.10388e-11
8.62876e-11
1.17376e-10
1.50737e-10
2.16509e-10
2.84709e-10
1.77722e-10
3.01815e-10
4.41812e-10
1.19535e-10
-1.11997e-11
3.91972e-11
-4.62847e-10
-1.0545e-09
-1.29805e-09
-1.32214e-09
-1.28805e-09
-1.2469e-09
-1.20209e-09
-1.14652e-09
-1.07909e-09
-1.00433e-09
-9.30056e-10
-8.61099e-10
-7.96793e-10
-7.35625e-10
-6.81999e-10
-6.32462e-10
-5.85932e-10
-5.41733e-10
-5.00063e-10
-4.6174e-10
-4.24605e-10
-3.88908e-10
-3.54794e-10
-3.22409e-10
-2.93001e-10
-2.66007e-10
-2.3791e-10
-2.13358e-10
-1.8755e-10
-1.65937e-10
-1.43948e-10
-1.26702e-10
-1.06817e-10
-9.34804e-11
-7.37955e-11
-6.68984e-11
-5.58279e-11
-5.00435e-11
-1.83898e-11
3.45298e-11
4.23369e-11
1.65052e-11
1.12801e-11
1.4362e-11
2.48263e-11
3.07928e-11
4.25585e-11
5.01097e-11
6.93889e-11
8.50115e-11
1.15347e-10
1.49325e-10
2.13186e-10
2.74538e-10
1.50462e-10
3.26123e-10
5.16028e-10
8.45156e-11
-1.31778e-10
-1.27377e-11
-4.34447e-10
-1.01519e-09
-1.27121e-09
-1.30186e-09
-1.26979e-09
-1.23068e-09
-1.1884e-09
-1.13557e-09
-1.07074e-09
-9.98248e-10
-9.25705e-10
-8.58111e-10
-7.94712e-10
-7.34408e-10
-6.81381e-10
-6.32185e-10
-5.85896e-10
-5.42063e-10
-5.0058e-10
-4.62402e-10
-4.25362e-10
-3.89959e-10
-3.55936e-10
-3.23645e-10
-2.94327e-10
-2.67372e-10
-2.39284e-10
-2.14803e-10
-1.89137e-10
-1.67509e-10
-1.45615e-10
-1.2817e-10
-1.08773e-10
-9.48409e-11
-7.59393e-11
-6.73128e-11
-5.6827e-11
-4.58696e-11
-2.21468e-11
2.24258e-11
3.66442e-11
1.5765e-11
1.04871e-11
1.31502e-11
2.34356e-11
2.96536e-11
4.1077e-11
4.89321e-11
6.7699e-11
8.37151e-11
1.13253e-10
1.47712e-10
2.09455e-10
2.63817e-10
1.27075e-10
3.45596e-10
5.80338e-10
6.17044e-11
-2.36824e-10
-6.81013e-11
-4.14024e-10
-9.78153e-10
-1.24496e-09
-1.28285e-09
-1.25272e-09
-1.21503e-09
-1.17489e-09
-1.12466e-09
-1.06237e-09
-9.92113e-10
-9.213e-10
-8.55072e-10
-7.92582e-10
-7.33135e-10
-6.80715e-10
-6.31861e-10
-5.85823e-10
-5.42351e-10
-5.01062e-10
-4.63027e-10
-4.26095e-10
-3.9098e-10
-3.57058e-10
-3.2485e-10
-2.95643e-10
-2.68713e-10
-2.40651e-10
-2.16221e-10
-1.9072e-10
-1.69046e-10
-1.47276e-10
-1.29602e-10
-1.10719e-10
-9.61792e-11
-7.79974e-11
-6.78387e-11
-5.78501e-11
-4.37415e-11
-2.46241e-11
1.28194e-11
3.08274e-11
1.47138e-11
9.70679e-12
1.19889e-11
2.20217e-11
2.85175e-11
3.95694e-11
4.77536e-11
6.59795e-11
8.23882e-11
1.11103e-10
1.45857e-10
2.05285e-10
2.52634e-10
1.07086e-10
3.60567e-10
6.35808e-10
5.08098e-11
-3.27107e-10
-1.26451e-10
-4.012e-10
-9.43559e-10
-1.21938e-09
-1.26513e-09
-1.23689e-09
-1.20002e-09
-1.16159e-09
-1.11381e-09
-1.054e-09
-9.85939e-10
-9.16846e-10
-8.51987e-10
-7.90405e-10
-7.3181e-10
-6.80002e-10
-6.31493e-10
-5.85713e-10
-5.426e-10
-5.01508e-10
-4.63617e-10
-4.26806e-10
-3.91972e-10
-3.5816e-10
-3.26026e-10
-2.9695e-10
-2.70031e-10
-2.42008e-10
-2.17617e-10
-1.92296e-10
-1.70553e-10
-1.48921e-10
-1.3101e-10
-1.12638e-10
-9.75235e-11
-7.99393e-11
-6.85413e-11
-5.88465e-11
-4.29677e-11
-2.64413e-11
5.09939e-12
2.50909e-11
1.34092e-11
8.94384e-12
1.08896e-11
2.05978e-11
2.73813e-11
3.80431e-11
4.65703e-11
6.42403e-11
8.10238e-11
1.08892e-10
1.43743e-10
2.00592e-10
2.41089e-10
9.00609e-11
3.71019e-10
6.83495e-10
5.1687e-11
-4.0336e-10
-1.87253e-10
-3.95323e-10
-9.11366e-10
-1.19452e-09
-1.24869e-09
-1.22236e-09
-1.18571e-09
-1.14856e-09
-1.10304e-09
-1.04564e-09
-9.7974e-10
-9.12353e-10
-8.4886e-10
-7.88186e-10
-7.30434e-10
-6.79245e-10
-6.31079e-10
-5.85569e-10
-5.42811e-10
-5.01919e-10
-4.64171e-10
-4.27493e-10
-3.92935e-10
-3.59241e-10
-3.27174e-10
-2.98246e-10
-2.71327e-10
-2.43354e-10
-2.18991e-10
-1.93862e-10
-1.72035e-10
-1.50546e-10
-1.32402e-10
-1.14521e-10
-9.88843e-11
-8.17643e-11
-6.9421e-11
-5.97894e-11
-4.31123e-11
-2.79798e-11
-1.16948e-12
1.95806e-11
1.18952e-11
8.17905e-12
9.84276e-12
1.91673e-11
2.62406e-11
3.65053e-11
4.53819e-11
6.24906e-11
7.96264e-11
1.0663e-10
1.41407e-10
1.95297e-10
2.29368e-10
7.58317e-11
3.76489e-10
7.23891e-10
1.45236e-09
3.55419e-09
9.95426e-10
-1.42849e-09
-2.11298e-09
-2.07857e-09
-1.87765e-09
-1.69257e-09
-1.54273e-09
-1.41624e-09
-1.29797e-09
-1.18334e-09
-1.07408e-09
-9.74637e-10
-8.86565e-10
-8.08478e-10
-7.35483e-10
-6.74319e-10
-6.20434e-10
-5.71077e-10
-5.22063e-10
-4.78767e-10
-4.39215e-10
-4.02024e-10
-3.62565e-10
-3.28283e-10
-2.93973e-10
-2.65777e-10
-2.37091e-10
-2.11572e-10
-1.83804e-10
-1.59689e-10
-1.3417e-10
-1.16533e-10
-9.45602e-11
-7.91634e-11
-6.04186e-11
-4.8567e-11
-3.275e-11
-2.43157e-11
-6.71057e-12
3.88178e-12
2.10096e-11
2.78791e-11
3.5345e-11
3.14186e-11
3.74805e-11
3.67093e-11
5.03115e-11
5.4645e-11
7.14906e-11
8.26654e-11
1.07307e-10
1.30875e-10
1.64461e-10
2.08069e-10
2.75207e-10
1.22123e-09
-2.18735e-10
-1.93495e-09
1.44865e-09
3.57473e-09
1.00082e-09
-1.42939e-09
-2.10527e-09
-2.07622e-09
-1.8784e-09
-1.69461e-09
-1.54504e-09
-1.41849e-09
-1.29996e-09
-1.1851e-09
-1.07565e-09
-9.76094e-10
-8.87909e-10
-8.09767e-10
-7.36642e-10
-6.75395e-10
-6.21464e-10
-5.72039e-10
-5.22936e-10
-4.7956e-10
-4.39968e-10
-4.02755e-10
-3.63203e-10
-3.28888e-10
-2.9452e-10
-2.66292e-10
-2.37581e-10
-2.12026e-10
-1.84222e-10
-1.60065e-10
-1.3449e-10
-1.16857e-10
-9.48406e-11
-7.93882e-11
-6.06408e-11
-4.87388e-11
-3.2939e-11
-2.44811e-11
-6.84887e-12
3.95021e-12
2.10982e-11
2.79554e-11
3.51962e-11
3.13708e-11
3.73246e-11
3.67903e-11
5.01163e-11
5.4847e-11
7.11184e-11
8.30875e-11
1.06566e-10
1.3172e-10
1.62624e-10
2.09124e-10
2.78468e-10
1.2167e-09
-2.10025e-10
-1.93854e-09
1.53608e-09
3.56031e-09
9.35216e-10
-1.42595e-09
-2.07417e-09
-2.06002e-09
-1.87255e-09
-1.69362e-09
-1.54623e-09
-1.42063e-09
-1.30235e-09
-1.18736e-09
-1.07776e-09
-9.78074e-10
-8.89786e-10
-8.11551e-10
-7.38227e-10
-6.76893e-10
-6.22882e-10
-5.73361e-10
-5.24111e-10
-4.8064e-10
-4.40982e-10
-4.03741e-10
-3.6406e-10
-3.29711e-10
-2.95249e-10
-2.66989e-10
-2.38237e-10
-2.12641e-10
-1.84782e-10
-1.60575e-10
-1.34922e-10
-1.17309e-10
-9.52445e-11
-7.97212e-11
-6.09719e-11
-4.8999e-11
-3.32463e-11
-2.47913e-11
-7.14032e-12
3.96664e-12
2.13647e-11
2.82552e-11
3.49957e-11
3.12039e-11
3.705e-11
3.68477e-11
4.9875e-11
5.50814e-11
7.06711e-11
8.35079e-11
1.05845e-10
1.32404e-10
1.62411e-10
2.08464e-10
2.90121e-10
1.20132e-09
-2.6253e-10
-1.91302e-09
1.65026e-09
3.46981e-09
8.2173e-10
-1.41273e-09
-2.01852e-09
-2.0258e-09
-1.85627e-09
-1.68591e-09
-1.54324e-09
-1.42048e-09
-1.30362e-09
-1.18922e-09
-1.07974e-09
-9.80148e-10
-8.91918e-10
-8.13695e-10
-7.40219e-10
-6.7882e-10
-6.24723e-10
-5.75087e-10
-5.25683e-10
-4.82091e-10
-4.42346e-10
-4.0504e-10
-3.65219e-10
-3.30815e-10
-2.96256e-10
-2.67939e-10
-2.39143e-10
-2.13469e-10
-1.85562e-10
-1.61281e-10
-1.35566e-10
-1.17931e-10
-9.58586e-11
-8.02164e-11
-6.15147e-11
-4.93987e-11
-3.37791e-11
-2.53033e-11
-7.6751e-12
3.89117e-12
2.1772e-11
2.88353e-11
3.46863e-11
3.09256e-11
3.65032e-11
3.69984e-11
4.93622e-11
5.5445e-11
6.98344e-11
8.39977e-11
1.05078e-10
1.32632e-10
1.63824e-10
2.04756e-10
3.06762e-10
1.15765e-09
-3.36606e-10
-1.81375e-09
1.73182e-09
3.32227e-09
6.93036e-10
-1.39017e-09
-1.94669e-09
-1.97749e-09
-1.83045e-09
-1.67088e-09
-1.53463e-09
-1.41644e-09
-1.30232e-09
-1.18945e-09
-1.08073e-09
-9.81625e-10
-8.93739e-10
-8.15763e-10
-7.42312e-10
-6.80945e-10
-6.26819e-10
-5.77113e-10
-5.27607e-10
-4.83911e-10
-4.44065e-10
-4.06678e-10
-3.6674e-10
-3.3228e-10
-2.97631e-10
-2.69226e-10
-2.40385e-10
-2.14593e-10
-1.86657e-10
-1.62282e-10
-1.36541e-10
-1.18825e-10
-9.68043e-11
-8.09773e-11
-6.23708e-11
-5.00344e-11
-3.46363e-11
-2.60762e-11
-8.53348e-12
3.6595e-12
2.22196e-11
2.96272e-11
3.4179e-11
3.05472e-11
3.56552e-11
3.70998e-11
4.86472e-11
5.57679e-11
6.88499e-11
8.44155e-11
1.0415e-10
1.32484e-10
1.65535e-10
2.01606e-10
3.21574e-10
1.09963e-09
-3.8965e-10
-1.67924e-09
1.76359e-09
3.1524e-09
5.74615e-10
-1.36261e-09
-1.87012e-09
-1.92214e-09
-1.79853e-09
-1.65067e-09
-1.52163e-09
-1.4087e-09
-1.29823e-09
-1.18753e-09
-1.08011e-09
-9.81911e-10
-8.94687e-10
-8.17223e-10
-7.44053e-10
-6.82864e-10
-6.28804e-10
-5.79125e-10
-5.29632e-10
-4.85894e-10
-4.45966e-10
-4.08512e-10
-3.68521e-10
-3.34022e-10
-2.99318e-10
-2.7081e-10
-2.4193e-10
-2.15995e-10
-1.88071e-10
-1.63587e-10
-1.37875e-10
-1.20023e-10
-9.81109e-11
-8.20486e-11
-6.3595e-11
-5.09433e-11
-3.58646e-11
-2.71437e-11
-9.78128e-12
3.23199e-12
2.26454e-11
3.04879e-11
3.3466e-11
2.99767e-11
3.45826e-11
3.70898e-11
4.77632e-11
5.59365e-11
6.778e-11
8.45276e-11
1.03254e-10
1.31927e-10
1.6699e-10
1.99851e-10
3.32405e-10
1.03822e-09
-4.17156e-10
-1.53984e-09
1.74204e-09
2.96495e-09
4.7709e-10
-1.32851e-09
-1.79536e-09
-1.8639e-09
-1.76321e-09
-1.62747e-09
-1.50566e-09
-1.39826e-09
-1.29183e-09
-1.18367e-09
-1.07792e-09
-9.80962e-10
-8.94623e-10
-8.179e-10
-7.45189e-10
-6.84312e-10
-6.30417e-10
-5.80858e-10
-5.31498e-10
-4.87791e-10
-4.47819e-10
-4.10332e-10
-3.70374e-10
-3.35869e-10
-3.01165e-10
-2.72554e-10
-2.43662e-10
-2.17577e-10
-1.89714e-10
-1.65124e-10
-1.39503e-10
-1.2147e-10
-9.97244e-11
-8.33968e-11
-6.51582e-11
-5.21284e-11
-3.74314e-11
-2.84933e-11
-1.14161e-11
2.62601e-12
2.30586e-11
3.13248e-11
3.25372e-11
2.92145e-11
3.33158e-11
3.69389e-11
4.67266e-11
5.59044e-11
6.66495e-11
8.43123e-11
1.02341e-10
1.31078e-10
1.67715e-10
2.00031e-10
3.39269e-10
9.7221e-10
-4.15511e-10
-1.39603e-09
1.66929e-09
2.75814e-09
4.04885e-10
-1.28558e-09
-1.72437e-09
-1.80537e-09
-1.72575e-09
-1.60239e-09
-1.48785e-09
-1.38606e-09
-1.28382e-09
-1.1785e-09
-1.07463e-09
-9.79038e-10
-8.93747e-10
-8.17857e-10
-7.45745e-10
-6.85267e-10
-6.31589e-10
-5.82229e-10
-5.33088e-10
-4.89465e-10
-4.4949e-10
-4.12002e-10
-3.72162e-10
-3.37679e-10
-3.03033e-10
-2.74327e-10
-2.45458e-10
-2.19224e-10
-1.91473e-10
-1.66791e-10
-1.41323e-10
-1.23076e-10
-1.01552e-10
-8.49466e-11
-6.69767e-11
-5.35227e-11
-3.9268e-11
-3.00703e-11
-1.33997e-11
1.88623e-12
2.35007e-11
3.20649e-11
3.14066e-11
2.82722e-11
3.1923e-11
3.66164e-11
4.55768e-11
5.5631e-11
6.54579e-11
8.3846e-11
1.01306e-10
1.30184e-10
1.67433e-10
2.02041e-10
3.43134e-10
9.00305e-10
-3.87435e-10
-1.24438e-09
1.55396e-09
2.53203e-09
3.55804e-10
-1.23221e-09
-1.65742e-09
-1.74832e-09
-1.68737e-09
-1.5763e-09
-1.46906e-09
-1.37278e-09
-1.27478e-09
-1.17246e-09
-1.0706e-09
-9.76487e-10
-8.92301e-10
-8.17287e-10
-7.45862e-10
-6.85827e-10
-6.32407e-10
-5.83264e-10
-5.34411e-10
-4.90902e-10
-4.50953e-10
-4.13485e-10
-3.73831e-10
-3.39386e-10
-3.04842e-10
-2.76052e-10
-2.47237e-10
-2.20859e-10
-1.93265e-10
-1.68505e-10
-1.4324e-10
-1.2476e-10
-1.03499e-10
-8.662e-11
-6.89548e-11
-5.50536e-11
-4.12936e-11
-3.18083e-11
-1.56847e-11
1.07859e-12
2.40297e-11
3.26834e-11
3.01214e-11
2.71871e-11
3.04564e-11
3.61376e-11
4.43555e-11
5.51575e-11
6.41974e-11
8.32003e-11
1.0009e-10
1.29366e-10
1.66202e-10
2.05377e-10
3.44133e-10
8.22948e-10
-3.36841e-10
-1.08303e-09
1.40843e-09
2.29136e-09
3.25131e-10
-1.16904e-09
-1.59447e-09
-1.69408e-09
-1.64898e-09
-1.54972e-09
-1.44976e-09
-1.35887e-09
-1.26507e-09
-1.16583e-09
-1.06608e-09
-9.73515e-10
-8.90474e-10
-8.16354e-10
-7.45681e-10
-6.8612e-10
-6.32965e-10
-5.84046e-10
-5.35517e-10
-4.92142e-10
-4.5224e-10
-4.148e-10
-3.7538e-10
-3.4098e-10
-3.06569e-10
-2.77703e-10
-2.48966e-10
-2.22451e-10
-1.95043e-10
-1.70218e-10
-1.45191e-10
-1.26469e-10
-1.05494e-10
-8.83576e-11
-7.10139e-11
-5.66623e-11
-4.34363e-11
-3.36455e-11
-1.82261e-11
2.68231e-13
2.46928e-11
3.3169e-11
2.87187e-11
2.60018e-11
2.89609e-11
3.5529e-11
4.30926e-11
5.45226e-11
6.29065e-11
8.24206e-11
9.87122e-11
1.28605e-10
1.64317e-10
2.09342e-10
3.43071e-10
7.43042e-10
-2.70472e-10
-9.14968e-10
1.24667e-09
2.04194e-09
3.06806e-10
-1.09825e-09
-1.53528e-09
-1.64343e-09
-1.61122e-09
-1.523e-09
-1.43025e-09
-1.34459e-09
-1.25492e-09
-1.1588e-09
-1.06124e-09
-9.70257e-10
-8.88394e-10
-8.15179e-10
-7.45304e-10
-6.8623e-10
-6.33342e-10
-5.84648e-10
-5.36468e-10
-4.93237e-10
-4.53399e-10
-4.15984e-10
-3.76835e-10
-3.42479e-10
-3.08217e-10
-2.79283e-10
-2.5064e-10
-2.23995e-10
-1.9679e-10
-1.7191e-10
-1.4714e-10
-1.28175e-10
-1.07496e-10
-9.0122e-11
-7.31015e-11
-5.8308e-11
-4.56399e-11
-3.55342e-11
-2.09957e-11
-5.02755e-13
2.55089e-11
3.35087e-11
2.7233e-11
2.47568e-11
2.74711e-11
3.48152e-11
4.1814e-11
5.37569e-11
6.15927e-11
8.15305e-11
9.72306e-11
1.27844e-10
1.62118e-10
2.13251e-10
3.40588e-10
6.63465e-10
-1.95802e-10
-7.44201e-10
1.08029e-09
1.78983e-09
2.9497e-10
-1.02256e-09
-1.4793e-09
-1.59662e-09
-1.57455e-09
-1.49639e-09
-1.41072e-09
-1.33013e-09
-1.24448e-09
-1.15148e-09
-1.05615e-09
-9.66791e-10
-8.86138e-10
-8.13833e-10
-7.44784e-10
-6.8621e-10
-6.33596e-10
-5.85122e-10
-5.37306e-10
-4.94226e-10
-4.54464e-10
-4.17075e-10
-3.78217e-10
-3.43904e-10
-3.09801e-10
-2.80807e-10
-2.52268e-10
-2.25497e-10
-1.98505e-10
-1.73577e-10
-1.49071e-10
-1.29867e-10
-1.09479e-10
-9.18933e-11
-7.51854e-11
-5.99667e-11
-4.78597e-11
-3.74394e-11
-2.39754e-11
-1.2107e-12
2.6466e-11
3.36851e-11
2.56921e-11
2.34843e-11
2.60096e-11
3.4014e-11
4.05403e-11
5.28817e-11
6.02734e-11
8.05348e-11
9.57138e-11
1.27012e-10
1.59893e-10
2.16616e-10
3.37178e-10
5.86655e-10
-1.19214e-10
-5.7499e-10
9.18039e-10
1.53998e-09
2.84598e-10
-9.44601e-10
-1.42581e-09
-1.5535e-09
-1.53927e-09
-1.47005e-09
-1.39126e-09
-1.31559e-09
-1.23383e-09
-1.14393e-09
-1.05088e-09
-9.63168e-10
-8.83753e-10
-8.12359e-10
-7.44156e-10
-6.86093e-10
-6.33761e-10
-5.85506e-10
-5.38062e-10
-4.95135e-10
-4.5546e-10
-4.18098e-10
-3.79546e-10
-3.45276e-10
-3.11331e-10
-2.82286e-10
-2.53857e-10
-2.26968e-10
-2.0019e-10
-1.75222e-10
-1.50977e-10
-1.31543e-10
-1.11433e-10
-9.3663e-11
-7.7246e-11
-6.16272e-11
-5.00588e-11
-3.93305e-11
-2.71407e-11
-1.85001e-12
2.75198e-11
3.36717e-11
2.41187e-11
2.22043e-11
2.45875e-11
3.31365e-11
3.92837e-11
5.19113e-11
5.89672e-11
7.9462e-11
9.42033e-11
1.26054e-10
1.57832e-10
2.19126e-10
3.33017e-10
5.14296e-10
-4.50134e-11
-4.10735e-10
7.65784e-10
1.2967e-09
2.72167e-10
-8.66709e-10
-1.37416e-09
-1.51372e-09
-1.50559e-09
-1.44415e-09
-1.37195e-09
-1.30103e-09
-1.22305e-09
-1.1362e-09
-1.04545e-09
-9.59419e-10
-8.81265e-10
-8.10782e-10
-7.43438e-10
-6.85898e-10
-6.33858e-10
-5.85819e-10
-5.38751e-10
-4.9598e-10
-4.56405e-10
-4.19073e-10
-3.80834e-10
-3.46606e-10
-3.12819e-10
-2.83732e-10
-2.55416e-10
-2.28415e-10
-2.01849e-10
-1.76847e-10
-1.52855e-10
-1.33202e-10
-1.1335e-10
-9.54289e-11