/*--------------------------------*- C++ -*----------------------------------*\
| =========                 |                                                 |
| \\      /  F ield         | OpenFOAM: The Open Source CFD Toolbox           |
|  \\    /   O peration     | Version:  2312                                  |
|   \\  /    A nd           | Website:  www.openfoam.com                      |
|    \\/     M anipulation  |                                                 |
\*---------------------------------------------------------------------------*/
FoamFile
{
    version     2.0;
    format      ascii;
    arch        "LSB;label=32;scalar=64";
    class       volScalarField;
    location    "160";
    object      p;
}
// * * * * * * * * * * * * * * * * * * * * * * * * * * * * * * * * * * * * * //

dimensions      [0 2 -2 0 0 0 0];

internalField   nonuniform List<scalar> 
144000
(
1.23175e-09
3.41567e-10
-8.81947e-10
-1.28237e-09
-9.26693e-10
-5.22369e-10
-1.32294e-10
3.27434e-11
2.07602e-10
2.47094e-10
3.1412e-10
3.01924e-10
3.43243e-10
3.16865e-10
3.57597e-10
3.07569e-10
3.55363e-10
2.91785e-10
3.17105e-10
2.66227e-10
2.93571e-10
2.30994e-10
2.56711e-10
2.11085e-10
2.5544e-10
1.87736e-10
2.5715e-10
1.91176e-10
2.29572e-10
1.91482e-10
2.03736e-10
1.49331e-10
1.8164e-10
8.12529e-11
1.2638e-10
4.78212e-11
8.29798e-11
2.58019e-11
6.14081e-11
2.51685e-11
6.01042e-11
1.70278e-11
7.71802e-11
1.9885e-11
7.06255e-11
1.56142e-11
6.50304e-11
2.19091e-11
5.07581e-11
2.84479e-11
4.10625e-11
3.43677e-11
3.3336e-11
4.18672e-11
-2.73937e-11
6.01967e-11
-1.89969e-11
-2.52567e-11
-1.95892e-09
-3.16079e-10
1.29291e-09
3.75302e-10
-8.98849e-10
-1.29475e-09
-9.30557e-10
-5.22896e-10
-1.3215e-10
3.26354e-11
2.06801e-10
2.46898e-10
3.13246e-10
3.01666e-10
3.42608e-10
3.16612e-10
3.57388e-10
3.07263e-10
3.55161e-10
2.91896e-10
3.16651e-10
2.66394e-10
2.93335e-10
2.31121e-10
2.56341e-10
2.11109e-10
2.55502e-10
1.87499e-10
2.57032e-10
1.91581e-10
2.28884e-10
1.92235e-10
2.03413e-10
1.49446e-10
1.81978e-10
8.11399e-11
1.26264e-10
4.82339e-11
8.25357e-11
2.63014e-11
6.08377e-11
2.56009e-11
5.97507e-11
1.68856e-11
7.69635e-11
2.00797e-11
7.04348e-11
1.5953e-11
6.477e-11
2.253e-11
5.03775e-11
2.91045e-11
4.09384e-11
3.47562e-11
3.35973e-11
4.22322e-11
-2.71861e-11
5.90992e-11
-1.15695e-11
-3.30618e-12
-1.99811e-09
-3.63909e-10
1.36591e-09
3.89235e-10
-9.17945e-10
-1.30077e-09
-9.33483e-10
-5.23891e-10
-1.31437e-10
3.23756e-11
2.06201e-10
2.46538e-10
3.12258e-10
3.01088e-10
3.41972e-10
3.15983e-10
3.57382e-10
3.06475e-10
3.55293e-10
2.91746e-10
3.16258e-10
2.66292e-10
2.93331e-10
2.30957e-10
2.56086e-10
2.10784e-10
2.55994e-10
1.86685e-10
2.57353e-10
1.91803e-10
2.28181e-10
1.93045e-10
2.03237e-10
1.49197e-10
1.82959e-10
8.0435e-11
1.26517e-10
4.83664e-11
8.22454e-11
2.66384e-11
6.03734e-11
2.59376e-11
5.9616e-11
1.62516e-11
7.70751e-11
1.97713e-11
7.06612e-11
1.60093e-11
6.48614e-11
2.29598e-11
5.02618e-11
2.96012e-11
4.11412e-11
3.47695e-11
3.44001e-11
4.2154e-11
-2.65679e-11
5.50027e-11
-5.2068e-12
3.75511e-11
-2.05725e-09
-4.04267e-10
1.43896e-09
3.58575e-10
-9.34647e-10
-1.29148e-09
-9.34564e-10
-5.25516e-10
-1.30398e-10
3.24385e-11
2.05804e-10
2.46216e-10
3.10932e-10
3.003e-10
3.41096e-10
3.15136e-10
3.57283e-10
3.05478e-10
3.55459e-10
2.91516e-10
3.15666e-10
2.66118e-10
2.93296e-10
2.30721e-10
2.55727e-10
2.10344e-10
2.56611e-10
1.85652e-10
2.57787e-10
1.92082e-10
2.27224e-10
1.94057e-10
2.02961e-10
1.48833e-10
1.8423e-10
7.94643e-11
1.2683e-10
4.84678e-11
8.1879e-11
2.70768e-11
5.98511e-11
2.64173e-11
5.94886e-11
1.54432e-11
7.72078e-11
1.90776e-11
7.10745e-11
1.59843e-11
6.51255e-11
2.32576e-11
5.03758e-11
2.98733e-11
4.17707e-11
3.41614e-11
3.6292e-11
4.07086e-11
-2.40501e-11
4.53344e-11
7.61464e-12
8.3193e-11
-2.1308e-09
-4.12408e-10
1.50301e-09
2.48414e-10
-9.47554e-10
-1.25028e-09
-9.29371e-10
-5.28045e-10
-1.29512e-10
3.2906e-11
2.05592e-10
2.45856e-10
3.0909e-10
2.99171e-10
3.39808e-10
3.13988e-10
3.5688e-10
3.0427e-10
3.55453e-10
2.91184e-10
3.14782e-10
2.65864e-10
2.93129e-10
2.30454e-10
2.5522e-10
2.09831e-10
2.57214e-10
1.84552e-10
2.5816e-10
1.92455e-10
2.25957e-10
1.95193e-10
2.02547e-10
1.48408e-10
1.8563e-10
7.84141e-11
1.27103e-10
4.86357e-11
8.14143e-11
2.77078e-11
5.92882e-11
2.71056e-11
5.93269e-11
1.46684e-11
7.71635e-11
1.79929e-11
7.15531e-11
1.59619e-11
6.54723e-11
2.33885e-11
5.07351e-11
2.97944e-11
4.29429e-11
3.26861e-11
3.95798e-11
3.73067e-11
-1.84855e-11
2.88106e-11
3.01756e-11
1.21844e-10
-2.21784e-09
-3.54133e-10
1.56237e-09
2.95517e-11
-9.63379e-10
-1.16537e-09
-9.12137e-10
-5.31582e-10
-1.29315e-10
3.38113e-11
2.05639e-10
2.45389e-10
3.06671e-10
2.97571e-10
3.38021e-10
3.12444e-10
3.56045e-10
3.0282e-10
3.55146e-10
2.90681e-10
3.13583e-10
2.65463e-10
2.92781e-10
2.30137e-10
2.54577e-10
2.09237e-10
2.57718e-10
1.83456e-10
2.58373e-10
1.9288e-10
2.244e-10
1.96322e-10
2.02007e-10
1.47918e-10
1.87054e-10
7.73942e-11
1.27314e-10
4.88959e-11
8.08975e-11
2.8547e-11
5.87616e-11
2.80142e-11
5.9166e-11
1.40185e-11
7.67856e-11
1.64496e-11
7.20453e-11
1.59558e-11
6.58853e-11
2.32584e-11
5.14006e-11
2.92054e-11
4.48068e-11
3.00798e-11
4.45929e-11
3.13282e-11
-8.75536e-12
4.59155e-12
6.41216e-11
1.47509e-10
-2.32404e-09
-2.0389e-10
1.63198e-09
-3.10128e-10
-9.94953e-10
-1.03128e-09
-8.77201e-10
-5.3602e-10
-1.30448e-10
3.51298e-11
2.06048e-10
2.44797e-10
3.0368e-10
2.95438e-10
3.35697e-10
3.10467e-10
3.54694e-10
3.01115e-10
3.54438e-10
2.89951e-10
3.12068e-10
2.64864e-10
2.92208e-10
2.29752e-10
2.53805e-10
2.08552e-10
2.58048e-10
1.82421e-10
2.58345e-10
1.93309e-10
2.22585e-10
1.9733e-10
2.01343e-10
1.47366e-10
1.884e-10
7.64911e-11
1.27454e-10
4.92609e-11
8.03775e-11
2.95927e-11
5.83512e-11
2.91413e-11
5.9111e-11
1.35691e-11
7.58597e-11
1.43629e-11
7.25347e-11
1.5958e-11
6.63784e-11
2.27628e-11
5.24486e-11
2.79531e-11
4.75046e-11
2.6124e-11
5.16085e-11
2.23152e-11
5.74976e-12
-2.72004e-11
1.09044e-10
1.59938e-10
-2.45684e-09
4.52069e-11
1.7263e-09
-7.66164e-10
-1.05475e-09
-8.48437e-10
-8.20339e-10
-5.40988e-10
-1.33656e-10
3.67016e-11
2.06876e-10
2.44072e-10
3.00139e-10
2.92748e-10
3.32817e-10
3.0805e-10
3.52775e-10
2.99159e-10
3.53259e-10
2.88957e-10
3.10246e-10
2.64037e-10
2.91369e-10
2.29287e-10
2.52905e-10
2.07781e-10
2.58131e-10
1.81499e-10
2.58013e-10
1.93696e-10
2.20549e-10
1.98134e-10
2.00547e-10
1.46771e-10
1.89569e-10
7.57743e-11
1.27517e-10
4.97316e-11
7.98983e-11
3.08298e-11
5.81299e-11
3.0478e-11
5.93352e-11
1.33316e-11
7.40956e-11
1.16513e-11
7.3037e-11
1.59525e-11
6.69785e-11
2.18135e-11
5.39381e-11
2.59388e-11
5.11042e-11
2.07234e-11
6.06541e-11
1.02942e-11
2.49009e-11
-6.50502e-11
1.61682e-10
1.62865e-10
-2.61815e-09
3.84346e-10
1.8571e-09
-1.31744e-09
-1.15291e-09
-6.23951e-10
-7.39254e-10
-5.45636e-10
-1.39608e-10
3.82248e-11
2.0812e-10
2.43204e-10
2.96073e-10
2.89503e-10
3.29369e-10
3.05206e-10
3.50266e-10
2.96962e-10
3.51568e-10
2.87679e-10
3.08138e-10
2.62971e-10
2.90227e-10
2.28738e-10
2.51877e-10
2.06932e-10
2.5791e-10
1.80725e-10
2.57343e-10
1.93999e-10
2.18336e-10
1.98687e-10
1.99606e-10
1.4616e-10
1.90477e-10
7.52925e-11
1.27503e-10
5.0291e-11
7.95015e-11
3.2229e-11
5.81636e-11
3.19994e-11
6.01011e-11
1.3284e-11
7.11169e-11
8.23105e-12
7.35939e-11
1.59254e-11
6.77089e-11
2.03701e-11
5.58733e-11
2.31705e-11
5.55735e-11
1.39491e-11
7.14697e-11
-4.17645e-12
4.77035e-11
-1.06233e-10
2.17197e-10
1.62079e-10
-2.80506e-09
7.92291e-10
2.02823e-09
-1.92815e-09
-1.29335e-09
-3.70569e-10
-6.33757e-10
-5.48735e-10
-1.48775e-10
3.92685e-11
2.097e-10
2.42181e-10
2.91512e-10
2.85728e-10
3.2535e-10
3.01952e-10
3.47177e-10
2.94532e-10
3.49346e-10
2.86109e-10
3.05767e-10
2.6167e-10
2.88755e-10
2.28108e-10
2.50721e-10
2.06013e-10
2.57347e-10
1.80119e-10
2.56327e-10
1.94178e-10
2.15986e-10
1.98971e-10
1.98504e-10
1.45559e-10
1.91066e-10
7.50718e-11
1.27424e-10
5.09082e-11
7.92189e-11
3.37563e-11
5.85042e-11
3.36733e-11
6.17526e-11
1.33245e-11
6.64765e-11
4.06099e-12
7.42583e-11
1.58724e-11
6.85661e-11
1.84639e-11
5.81865e-11
1.97514e-11
6.07577e-11
6.10283e-12
8.34746e-11
-2.00441e-11
7.23895e-11
-1.4716e-10
2.69637e-10
1.63489e-10
-3.0087e-09
1.23301e-09
2.23446e-09
-2.55411e-09
-1.4734e-09
-1.04096e-10
-5.05488e-10
-5.48725e-10
-1.61293e-10
3.93398e-11
2.11459e-10
2.40998e-10
2.86488e-10
2.81464e-10
3.20773e-10
2.98292e-10
3.43541e-10
2.91884e-10
3.46586e-10
2.84255e-10
3.0316e-10
2.60149e-10
2.8693e-10
2.27401e-10
2.4944e-10
2.05024e-10
2.5643e-10
1.79677e-10
2.54974e-10
1.94212e-10
2.13527e-10
1.98995e-10
1.97233e-10
1.4499e-10
1.91288e-10
7.51184e-11
1.27298e-10
5.15518e-11
7.90611e-11
3.5383e-11
5.91889e-11
3.54561e-11
6.47161e-11
1.31528e-11
5.96329e-11
-8.27785e-13
7.50782e-11
1.58046e-11
6.94972e-11
1.61968e-11
6.0749e-11
1.58553e-11
6.63153e-11
-2.27855e-12
9.58222e-11
-3.59114e-11
9.67336e-11
-1.83999e-10
3.13358e-10
1.71776e-10
-3.21537e-09
1.66554e-09
2.46249e-09
-3.16512e-09
-1.68627e-09
1.57371e-10
-3.58699e-10
-5.44029e-10
-1.76955e-10
3.79235e-11
2.13147e-10
2.39642e-10
2.81038e-10
2.76759e-10
3.15673e-10
2.94228e-10
3.39405e-10
2.89038e-10
3.43288e-10
2.82137e-10
3.0034e-10
2.58435e-10
2.84741e-10
2.26622e-10
2.48045e-10
2.03953e-10
2.55168e-10
1.79386e-10
2.53296e-10
1.94099e-10
2.10971e-10
1.98786e-10
1.95792e-10
1.44464e-10
1.91135e-10
7.54226e-11
1.27145e-10
5.22031e-11
7.90168e-11
3.70841e-11
6.02433e-11
3.72671e-11
6.96975e-11
1.25086e-11
4.98469e-11
-6.34847e-12
7.60658e-11
1.5751e-11
7.03979e-11
1.37219e-11
6.33739e-11
1.17425e-11
7.18716e-11
-1.05244e-11
1.075e-10
-5.02522e-11
1.18474e-10
-2.13365e-10
3.4415e-10
1.88792e-10
-3.40625e-09
2.05659e-09
2.69603e-09
-3.69261e-09
-1.92307e-09
3.94723e-10
-2.00285e-10
-5.33279e-10
-1.95172e-10
3.45607e-11
2.14433e-10
2.38094e-10
2.75213e-10
2.71657e-10
3.10107e-10
2.89757e-10
3.34822e-10
2.8603e-10
3.39458e-10
2.79785e-10
2.9733e-10
2.56558e-10
2.82184e-10
2.25773e-10
2.4656e-10
2.02781e-10
2.53586e-10
1.79236e-10
2.513e-10
1.9386e-10
2.08323e-10
1.98373e-10
1.94195e-10
1.43981e-10
1.90614e-10
7.59696e-11
1.26967e-10
5.28637e-11
7.90735e-11
3.8871e-11
6.16459e-11
3.90989e-11
7.75933e-11
1.10106e-11
3.64177e-11
-1.22371e-11
7.72285e-11
1.57844e-11
7.1152e-11
1.12315e-11
6.58466e-11
7.7344e-12
7.69979e-11
-1.79274e-11
1.17482e-10
-6.16722e-11
1.35711e-10
-2.32914e-10
3.60113e-10
2.13776e-10
-3.56227e-09
2.37622e-09
2.91436e-09
-4.122e-09
-2.16908e-09
5.93784e-10
-3.76781e-11
-5.15282e-10
-2.14922e-10
2.89451e-11
2.14958e-10
2.3632e-10
2.69086e-10
2.66204e-10
3.04146e-10
2.84888e-10
3.29843e-10
2.82905e-10
3.35108e-10
2.77235e-10
2.94155e-10
2.54554e-10
2.79272e-10
2.24849e-10
2.45021e-10
2.01486e-10
2.51715e-10
1.79224e-10
2.48981e-10
1.9353e-10
2.0559e-10
1.97779e-10
1.9247e-10
1.43531e-10
1.89738e-10
7.67497e-11
1.26749e-10
5.35585e-11
7.9117e-11
4.08143e-11
6.35725e-11
4.11593e-11
8.89819e-11
7.05439e-12
1.88035e-11
-1.79764e-11
7.85946e-11
1.60206e-11
7.16687e-11
8.94487e-12
6.79621e-11
4.1649e-12
8.1263e-11
-2.38117e-11
1.24892e-10
-6.90972e-11
1.47112e-10
-2.41376e-10
3.60978e-10
2.44669e-10
-3.66904e-09
2.60597e-09
3.10147e-09
-4.43239e-09
-2.40492e-09
7.4592e-10
1.22053e-10
-4.89218e-10
-2.34884e-10
2.0936e-11
2.14352e-10
2.3426e-10
2.62744e-10
2.60444e-10
2.97861e-10
2.79634e-10
3.24509e-10
2.79713e-10
3.30259e-10
2.74526e-10
2.9084e-10
2.52454e-10
2.76031e-10
2.23838e-10
2.43468e-10
2.00051e-10
2.49577e-10
1.79363e-10
2.46339e-10
1.93144e-10
2.02787e-10
1.97022e-10
1.90653e-10
1.43104e-10
1.88526e-10
7.77604e-11
1.26464e-10
5.43236e-11
7.90832e-11
4.29613e-11
6.50883e-11
4.30974e-11
1.06723e-10
-1.33181e-12
-4.89872e-12
-2.3461e-11
7.99529e-11
1.64986e-11
7.18288e-11
7.04424e-12
6.95247e-11
1.33733e-12
8.42851e-11
-2.76504e-11
1.29122e-10
-7.17389e-11
1.52028e-10
-2.38463e-10
3.47687e-10
2.78897e-10
-3.71156e-09
2.73555e-09
3.22027e-09
-4.61021e-09
-2.61403e-09
8.456e-10
2.71469e-10
-4.55015e-10
-2.53715e-10
1.05316e-11
2.12241e-10
2.3181e-10
2.56265e-10
2.54417e-10
2.91312e-10
2.7402e-10
3.18847e-10
2.76501e-10
3.24938e-10
2.71691e-10
2.87407e-10
2.50281e-10
2.725e-10
2.22727e-10
2.41936e-10
1.98473e-10
2.4719e-10
1.79671e-10
2.43371e-10
1.92728e-10
1.9994e-10
1.96111e-10
1.88783e-10
1.42694e-10
1.86996e-10
7.89979e-11
1.26092e-10
5.51699e-11
7.89489e-11
4.5296e-11
6.66817e-11
4.36868e-11
1.33691e-10
-4.40789e-12
-3.62621e-11
-2.88156e-11
8.04646e-11
1.71445e-11
7.14776e-11
5.64688e-12
7.03438e-11
-5.17271e-13
8.57737e-11
-2.91213e-11
1.29882e-10
-6.95138e-11
1.50469e-10
-2.25286e-10
3.22467e-10
3.11964e-10
-3.68477e-09
2.76166e-09
3.26564e-09
-4.65366e-09
-2.77603e-09
8.90342e-10
4.03029e-10
-4.13403e-10
-2.70169e-10
-2.09544e-12
2.08318e-10
2.28847e-10
2.49723e-10
2.48172e-10
2.84551e-10
2.68075e-10
3.12887e-10
2.73305e-10
3.19181e-10
2.68761e-10
2.83886e-10
2.4805e-10
2.68727e-10
2.21508e-10
2.40447e-10
1.96761e-10
2.44568e-10
1.80164e-10
2.40091e-10
1.92299e-10
1.97081e-10
1.95054e-10
1.86892e-10
1.42305e-10
1.85161e-10
8.04736e-11
1.25595e-10
5.61448e-11
7.86081e-11
4.8043e-11
6.7581e-11
4.41864e-11
1.50221e-10
-2.55321e-14
-5.87294e-11
-3.16086e-11
8.00302e-11
1.80686e-11
7.06137e-11
4.89783e-12
7.034e-11
-1.23613e-12
8.55777e-11
-2.81065e-11
1.27158e-10
-6.26125e-11
1.42929e-10
-2.03217e-10
2.8879e-10
3.39824e-10
-3.58806e-09
2.6904e-09
3.23272e-09
-4.57261e-09
-2.88459e-09
8.80865e-10
5.11708e-10
-3.65514e-10
-2.83065e-10
-1.65596e-11
2.02377e-10
2.25251e-10
2.43185e-10
2.41766e-10
2.77622e-10
2.61839e-10
3.06653e-10
2.70148e-10
3.1302e-10
2.65756e-10
2.80305e-10
2.45771e-10
2.64756e-10
2.20181e-10
2.39016e-10
1.94933e-10
2.41723e-10
1.8085e-10
2.36526e-10
1.91863e-10
1.94246e-10
1.93862e-10
1.84999e-10
1.41949e-10
1.83027e-10
8.2204e-11
1.24927e-10
5.73135e-11
7.79222e-11
5.14496e-11
6.68591e-11
4.66075e-11
1.32768e-10
1.9613e-12
-3.67563e-11
-2.89769e-11
7.91579e-11
1.94503e-11
6.92971e-11
4.91333e-12
6.95028e-11
-7.60713e-13
8.37029e-11
-2.46698e-11
1.21164e-10
-5.15163e-11
1.30699e-10
-1.74185e-10
2.50183e-10
3.5953e-10
-3.42633e-09
2.53609e-09
3.12033e-09
-4.38549e-09
-2.9346e-09
8.27133e-10
5.94515e-10
-3.12999e-10
-2.91528e-10
-3.23636e-11
1.94298e-10
2.20887e-10
2.36691e-10
2.35259e-10
2.70562e-10
2.55352e-10
3.00165e-10
2.67043e-10
3.06496e-10
2.62691e-10
2.76691e-10
2.43449e-10
2.60629e-10
2.18752e-10
2.37645e-10
1.9301e-10
2.38673e-10
1.8173e-10
2.32712e-10
1.91419e-10
1.91468e-10
1.92551e-10
1.83121e-10
1.41632e-10
1.80624e-10
8.41674e-11
1.24118e-10
5.86112e-11
7.70089e-11
5.52242e-11
6.53708e-11
4.88508e-11
1.04592e-10
1.08432e-11
-5.1626e-12
-2.35698e-11
7.72059e-11
2.11119e-11
6.74104e-11
5.66486e-12
6.78257e-11
8.3569e-13
8.02574e-11
-1.90474e-11
1.12261e-10
-3.7037e-11
1.15214e-10
-1.40536e-10
2.09639e-10
3.69037e-10
-3.20734e-09
2.31588e-09
2.9327e-09
-4.11417e-09
-2.92416e-09
7.37876e-10
6.50246e-10
-2.57989e-10
-2.95088e-10
-4.89482e-11
1.84053e-10
2.15628e-10
2.30258e-10
2.28707e-10
2.634e-10
2.48645e-10
2.93442e-10
2.63993e-10
2.99652e-10
2.5957e-10
2.73065e-10
2.41085e-10
2.56378e-10
2.17235e-10
2.36329e-10
1.91011e-10
2.3544e-10
1.82792e-10
2.28691e-10
1.90961e-10
1.88775e-10
1.91136e-10
1.81265e-10
1.41361e-10
1.77982e-10
8.63354e-11
1.2321e-10
5.99561e-11
7.60078e-11
5.90817e-11
6.38433e-11
4.97996e-11
8.656e-11
2.51451e-11
1.76375e-11
-1.80057e-11
7.41521e-11
2.2954e-11
6.49155e-11
7.09936e-12
6.53809e-11
3.44543e-12
7.54573e-11
-1.16067e-11
1.01401e-10
-2.02177e-11
9.79224e-11
-1.04615e-10
1.70007e-10
3.67616e-10
-2.94184e-09
2.048e-09
2.67642e-09
-3.78081e-09
-2.8541e-09
6.23081e-10
6.78994e-10
-2.02754e-10
-2.93631e-10
-6.5721e-11
1.7172e-10
2.09373e-10
2.2388e-10
2.22164e-10
2.56162e-10
2.41753e-10
2.86507e-10
2.60991e-10
2.92529e-10
2.56396e-10
2.69441e-10
2.38678e-10
2.52026e-10
2.15648e-10
2.35058e-10
1.88949e-10
2.32049e-10
1.84019e-10
2.2451e-10
1.90483e-10
1.86185e-10
1.89639e-10
1.79428e-10
1.41146e-10
1.75127e-10
8.86943e-11
1.22211e-10
6.13302e-11
7.49325e-11
6.29824e-11
6.22046e-11
5.04347e-11
7.53134e-11
3.33287e-11
3.3323e-11
-1.17578e-11
7.10942e-11
2.51348e-11
6.1939e-11
9.17687e-12
6.23242e-11
6.93741e-12
6.95323e-11
-2.83417e-12
8.92206e-11
-2.1202e-12
8.02467e-11
-6.84569e-11
1.33103e-10
3.55618e-10
-2.64057e-09
1.74941e-09
2.36232e-09
-3.40728e-09
-2.72969e-09
4.92644e-10
6.82372e-10
-1.49363e-10
-2.87346e-10
-8.21321e-11
1.57459e-10
2.02041e-10
2.17533e-10
2.15676e-10
2.48873e-10
2.34707e-10
2.79388e-10
2.58026e-10
2.85168e-10
2.5317e-10
2.6583e-10
2.36223e-10
2.47592e-10
2.14008e-10
2.33822e-10
1.86831e-10
2.2853e-10
1.85386e-10
2.20213e-10
1.8998e-10
1.83715e-10
1.88082e-10
1.77611e-10
1.40986e-10
1.72094e-10
9.12134e-11
1.21154e-10
6.26888e-11
7.38408e-11
6.68149e-11
6.06071e-11
5.09603e-11
6.78469e-11
3.87612e-11
4.44946e-11
-4.58228e-12
6.83331e-11
2.76703e-11
5.85531e-11
1.17851e-11
5.88264e-11
1.10885e-11
6.30006e-11
6.74012e-12
7.6427e-11
1.62952e-11
6.34755e-11
-3.37336e-11
1.00157e-10
3.34025e-10
-2.31481e-09
1.43588e-09
2.00119e-09
-3.00395e-09
-2.55748e-09
3.56686e-10
6.63644e-10
-9.94854e-11
-2.76692e-10
-9.7704e-11
1.41505e-10
1.93597e-10
2.11185e-10
2.09281e-10
2.41556e-10
2.2754e-10
2.7212e-10
2.55079e-10
2.77606e-10
2.49893e-10
2.6224e-10
2.33715e-10
2.43084e-10
2.12334e-10
2.32611e-10
1.84658e-10
2.24915e-10
1.86868e-10
2.15839e-10
1.89445e-10
1.81375e-10
1.86483e-10
1.75812e-10
1.40873e-10
1.68921e-10
9.38554e-11
1.20083e-10
6.39715e-11
7.2821e-11
7.04728e-11
5.92353e-11
5.12331e-11
6.29782e-11
4.28977e-11
5.2166e-11
3.05107e-12
6.58265e-11
3.04611e-11
5.48135e-11
1.47764e-11
5.50788e-11
1.56364e-11
5.61765e-11
1.66146e-11
6.37188e-11
3.42141e-11
4.86417e-11
-1.7061e-12
7.1702e-11
3.03944e-10
-1.97509e-09
1.12276e-09
1.60336e-09
-2.6147e-09
-2.34462e-09
2.2463e-10
6.27344e-10
-5.42675e-11
-2.62268e-10
-1.1205e-10
1.2413e-10
1.84037e-10
2.04796e-10
2.03001e-10
2.34224e-10
2.20274e-10
2.64734e-10
2.52124e-10
2.69874e-10
2.46567e-10
2.58676e-10
2.31144e-10
2.38506e-10
2.10642e-10
2.31415e-10
1.82423e-10
2.21232e-10
1.88431e-10
2.1142e-10
1.88874e-10
1.79175e-10
1.84861e-10
1.74029e-10
1.40799e-10
1.6564e-10
9.65892e-11
1.1903e-10
6.51322e-11
7.19278e-11
7.39124e-11
5.81197e-11
5.1262e-11
5.99991e-11
4.66041e-11
5.70098e-11
1.0678e-11
6.35581e-11
3.34479e-11
5.08366e-11
1.80124e-11
5.12836e-11
2.03443e-11
4.94165e-11
2.63474e-11
5.17027e-11
5.09919e-11
3.65058e-11
2.67827e-11
4.80419e-11
2.66158e-10
-1.63146e-09
8.25396e-10
1.18204e-09
-2.24475e-09
-2.10094e-09
1.03254e-10
5.77795e-10
-1.44892e-11
-2.44728e-10
-1.24875e-10
1.0558e-10
1.73356e-10
1.9831e-10
1.96852e-10
2.26878e-10
2.12922e-10
2.57255e-10
2.49136e-10
2.61992e-10
2.432e-10
2.55139e-10
2.28502e-10
2.33851e-10
2.08949e-10
2.30222e-10
1.80117e-10
2.17505e-10
1.9005e-10
2.06979e-10
1.88267e-10
1.77113e-10
1.83237e-10
1.72257e-10
1.4075e-10
1.62281e-10
9.93897e-11
1.18018e-10
6.61388e-11
7.11782e-11
7.71419e-11
5.7236e-11
5.10993e-11
5.83759e-11
5.00522e-11
5.95635e-11
1.80293e-11
6.15601e-11
3.65976e-11
4.6746e-11
2.13567e-11
4.76171e-11
2.49943e-11
4.30194e-11
3.556e-11
4.08509e-11
6.61454e-11
2.75915e-11
5.12014e-11
2.9284e-11
2.21397e-10
-1.29296e-09
5.55777e-10
1.24167e-09
3.43446e-10
-8.83235e-10
-1.2821e-09
-9.25656e-10
-5.19511e-10
-1.28565e-10
3.62333e-11
2.10102e-10
2.48304e-10
3.14358e-10
3.01526e-10
3.42494e-10
3.15847e-10
3.56471e-10
3.06368e-10
3.54369e-10
2.9104e-10
3.1658e-10
2.65791e-10
2.93314e-10
2.30835e-10
2.56645e-10
2.10974e-10
2.55383e-10
1.87569e-10
2.57138e-10
1.91143e-10
2.29657e-10
1.91404e-10
2.03788e-10
1.4912e-10
1.81614e-10
8.08891e-11
1.2634e-10
4.74057e-11
8.30941e-11
2.53904e-11
6.17824e-11
2.5148e-11
6.12067e-11
1.85013e-11
7.76405e-11
2.04003e-11
7.06863e-11
1.5029e-11
6.41548e-11
2.08914e-11
4.96963e-11
2.72615e-11
3.98319e-11
3.29586e-11
3.21405e-11
4.07893e-11
-2.80895e-11
6.02346e-11
-1.77799e-11
-2.59906e-11
-1.96648e-09
-3.14716e-10
1.30304e-09
3.77372e-10
-9.00208e-10
-1.29446e-09
-9.29494e-10
-5.20024e-10
-1.28389e-10
3.61398e-11
2.09306e-10
2.48101e-10
3.13473e-10
3.01255e-10
3.41847e-10
3.15579e-10
3.56248e-10
3.06045e-10
3.54157e-10
2.91143e-10
3.16121e-10
2.65949e-10
2.93076e-10
2.30961e-10
2.56274e-10
2.10994e-10
2.55443e-10
1.87328e-10
2.57023e-10
1.91555e-10
2.28973e-10
1.92162e-10
2.03465e-10
1.49238e-10
1.81951e-10
8.07843e-11
1.26219e-10
4.78275e-11
8.26414e-11
2.5903e-11
6.12056e-11
2.56086e-11
6.09155e-11
1.84527e-11
7.75277e-11
2.06326e-11
7.04913e-11
1.53603e-11
6.38877e-11
2.15037e-11
4.93082e-11
2.79101e-11
3.96995e-11
3.33352e-11
3.2399e-11
4.11493e-11
-2.78788e-11
5.91546e-11
-1.02947e-11
-3.94293e-12
-2.00582e-09
-3.62739e-10
1.37619e-09
3.91653e-10
-9.19348e-10
-1.30047e-09
-9.32383e-10
-5.21022e-10
-1.27641e-10
3.59014e-11
2.08725e-10
2.47741e-10
3.12475e-10
3.00661e-10
3.41194e-10
3.14931e-10
3.56225e-10
3.05232e-10
3.54272e-10
2.9098e-10
3.15721e-10
2.65836e-10
2.9307e-10
2.30797e-10
2.56019e-10
2.10665e-10
2.55933e-10
1.86509e-10
2.57347e-10
1.91786e-10
2.28278e-10
1.92979e-10
2.03293e-10
1.48994e-10
1.82931e-10
8.00889e-11
1.26467e-10
4.79682e-11
8.23442e-11
2.62488e-11
6.07392e-11
2.59472e-11
6.0872e-11
1.79238e-11
7.7806e-11
2.04566e-11
7.07436e-11
1.54033e-11
6.39737e-11
2.19252e-11
4.9187e-11
2.83992e-11
3.98953e-11
3.33333e-11
3.31982e-11
4.10662e-11
-2.72644e-11
5.50622e-11
-3.87298e-12
3.71565e-11
-2.06507e-09
-4.0357e-10
1.44921e-09
3.61442e-10
-9.36034e-10
-1.29116e-09
-9.3341e-10
-5.22658e-10
-1.2656e-10
3.60017e-11
2.0836e-10
2.47428e-10
3.1114e-10
2.99854e-10
3.40299e-10
3.14063e-10
3.56105e-10
3.04205e-10
3.54411e-10
2.90732e-10
3.15119e-10
2.65648e-10
2.93028e-10
2.30562e-10
2.55662e-10
2.10221e-10
2.56548e-10
1.8547e-10
2.5778e-10
1.92077e-10
2.27332e-10
1.94003e-10
2.03021e-10
1.48638e-10
1.84199e-10
7.91329e-11
1.26773e-10
4.80834e-11
8.19659e-11
2.66954e-11
6.02111e-11
2.63856e-11
6.08734e-11
1.7199e-11
7.81743e-11
2.00546e-11
7.1229e-11
1.53594e-11
6.42325e-11
2.22186e-11
4.9297e-11
2.86641e-11
4.05193e-11
3.27065e-11
3.50816e-11
3.96146e-11
-2.47616e-11
4.53871e-11
9.00453e-12
8.31398e-11
-2.13861e-09
-4.12355e-10
1.51295e-09
2.5173e-10
-9.48863e-10
-1.24996e-09
-9.2814e-10
-5.25191e-10
-1.25625e-10
3.65243e-11
2.08197e-10
2.47089e-10
3.09292e-10
2.98707e-10
3.38991e-10
3.12893e-10
3.55682e-10
3.02964e-10
3.54371e-10
2.90377e-10
3.14221e-10
2.65376e-10
2.92847e-10
2.30295e-10
2.55159e-10
2.09708e-10
2.57146e-10
1.84363e-10
2.58145e-10
1.92465e-10
2.26076e-10
1.95157e-10
2.02608e-10
1.4823e-10
1.85588e-10
7.81076e-11
1.27027e-10
4.8278e-11
8.14764e-11
2.73408e-11
5.96304e-11
2.69772e-11
6.08827e-11
1.64213e-11
7.84355e-11
1.9477e-11
7.18425e-11
1.53097e-11
6.45748e-11
2.23513e-11
4.96554e-11
2.85798e-11
4.16885e-11
3.12128e-11
3.8357e-11
3.62081e-11
-1.92191e-11
2.88438e-11
3.16051e-11
1.2218e-10
-2.22547e-09
-3.54762e-10
1.57174e-09
3.32278e-11
-9.64534e-10
-1.16506e-09
-9.10824e-10
-5.28717e-10
-1.25372e-10
3.74997e-11
2.08309e-10
2.46656e-10
3.06876e-10
2.97094e-10
3.37188e-10
3.11332e-10
3.54829e-10
3.01482e-10
3.54023e-10
2.89847e-10
3.13004e-10
2.64958e-10
2.9248e-10
2.29979e-10
2.54518e-10
2.09115e-10
2.57644e-10
1.83261e-10
2.58341e-10
1.92906e-10
2.24526e-10
1.96313e-10
2.02064e-10
1.47767e-10
1.86989e-10
7.71263e-11
1.27206e-10
4.85847e-11
8.09145e-11
2.82083e-11
5.90641e-11
2.77232e-11
6.09293e-11
1.56518e-11
7.84625e-11
1.87169e-11
7.25431e-11
1.52674e-11
6.49873e-11
2.22336e-11
5.03264e-11
2.79894e-11
4.35539e-11
2.8591e-11
4.3355e-11
3.02271e-11
-9.51085e-12
4.5892e-12
6.55528e-11
1.48236e-10
-2.33128e-09
-2.0512e-10
1.64051e-09
-3.06187e-10
-9.9586e-10
-1.031e-09
-8.75827e-10
-5.33136e-10
-1.26447e-10
3.88976e-11
2.08794e-10
2.46113e-10
3.03897e-10
2.94955e-10
3.34854e-10
3.09342e-10
3.53463e-10
2.99751e-10
3.53273e-10
2.89088e-10
3.11469e-10
2.64341e-10
2.91884e-10
2.29594e-10
2.53749e-10
2.08438e-10
2.57964e-10
1.82223e-10
2.58287e-10
1.93354e-10
2.22711e-10
1.97358e-10
2.01388e-10
1.47256e-10
1.88298e-10
7.6279e-11
1.27293e-10
4.90221e-11
8.03214e-11
2.93073e-11
5.85764e-11
2.86229e-11
6.10573e-11
1.49326e-11
7.81491e-11
1.77679e-11
7.33127e-11
1.52205e-11
6.54864e-11
2.17649e-11
5.13896e-11
2.67416e-11
4.62587e-11
2.46244e-11
5.03543e-11
2.12134e-11
4.97826e-12
-2.72511e-11
1.10429e-10
1.61042e-10
-2.46349e-09
4.34677e-11
1.73369e-09
-7.62062e-10
-1.0553e-09
-8.48211e-10
-8.18945e-10
-5.38082e-10
-1.29601e-10
4.05519e-11
2.09706e-10
2.45448e-10
3.00378e-10
2.92267e-10
3.3197e-10
3.0692e-10
3.51534e-10
2.97776e-10
3.52053e-10
2.88066e-10
3.09625e-10
2.63497e-10
2.91017e-10
2.29128e-10
2.52849e-10
2.07679e-10
2.58034e-10
1.81302e-10
2.57921e-10
1.93762e-10
2.20667e-10
1.98209e-10
2.0057e-10
1.46716e-10
1.89414e-10
7.56376e-11
1.27279e-10
4.95969e-11
7.97322e-11
3.06384e-11
5.82154e-11
2.9677e-11
6.13173e-11
1.42879e-11
7.74041e-11
1.66324e-11
7.41499e-11
1.51435e-11
6.61005e-11
2.08596e-11
5.29061e-11
2.47391e-11
4.98717e-11
1.9219e-11
5.93838e-11
9.19382e-12
2.41233e-11
-6.51554e-11
1.62961e-10
1.64291e-10
-2.62399e-09
3.82226e-10
1.86335e-09
-1.31335e-09
-1.15308e-09
-6.23787e-10
-7.3788e-10
-5.42707e-10
-1.355e-10
4.21575e-11
2.11034e-10
2.44649e-10
2.96343e-10
2.89033e-10
3.28525e-10
3.0408e-10
3.49021e-10
2.95567e-10
3.50327e-10
2.86761e-10
3.07492e-10
2.62416e-10
2.89843e-10
2.28579e-10
2.51818e-10
2.06847e-10
2.57797e-10
1.80535e-10
2.57211e-10
1.94087e-10
2.18436e-10
1.98818e-10
1.99596e-10
1.46172e-10
1.90253e-10
7.52521e-11
1.27159e-10
5.02974e-11
7.91793e-11
3.21916e-11
5.80134e-11
3.08828e-11
6.17691e-11
1.37272e-11
7.61522e-11
1.53192e-11
7.50637e-11
1.50093e-11
6.68516e-11
1.94768e-11
5.4881e-11
2.1991e-11
5.4361e-11
1.24464e-11
7.01867e-11
-5.27472e-12
4.69316e-11
-1.06396e-10
2.18358e-10
1.63742e-10
-2.81009e-09
7.90115e-10
2.03346e-09
-1.92428e-09
-1.29317e-09
-3.70466e-10
-6.32446e-10
-5.45791e-10
-1.44619e-10
4.3281e-11
2.12696e-10
2.43698e-10
2.91819e-10
2.85277e-10
3.24515e-10
3.00836e-10
3.45933e-10
2.93136e-10
3.48074e-10
2.8517e-10
3.05097e-10
2.61104e-10
2.88337e-10
2.27947e-10
2.50654e-10
2.05949e-10
2.57216e-10
1.79941e-10
2.56148e-10
1.94291e-10
2.16059e-10
1.99165e-10
1.98453e-10
1.4565e-10
1.90752e-10
7.51482e-11
1.26946e-10
5.1096e-11
7.86876e-11
3.39543e-11
5.7979e-11
3.22333e-11
6.24782e-11
1.32481e-11
7.43522e-11
1.38482e-11
7.60571e-11
1.4804e-11
6.77339e-11
1.76444e-11
5.72452e-11
1.86004e-11
5.95726e-11
4.60877e-12
8.21844e-11
-2.11404e-11
7.16347e-11
-1.4738e-10
2.70684e-10
1.65288e-10
-3.01301e-09
1.2309e-09
2.23883e-09
-2.55063e-09
-1.47291e-09
-1.04033e-10
-5.0428e-10
-5.45785e-10
-1.57097e-10
4.34248e-11
2.1453e-10
2.42586e-10
2.86836e-10
2.81038e-10
3.19951e-10
2.97195e-10
3.42302e-10
2.90493e-10
3.4529e-10
2.83301e-10
3.02466e-10
2.59577e-10
2.86479e-10
2.27239e-10
2.49361e-10
2.04983e-10
2.56278e-10
1.79516e-10
2.54746e-10
1.94351e-10
2.13565e-10
1.99257e-10
1.97131e-10
1.4517e-10
1.90875e-10
7.53287e-11
1.26661e-10
5.19589e-11
7.82663e-11
3.59171e-11
5.80975e-11
3.3711e-11
6.35045e-11
1.28363e-11
7.19967e-11
1.22544e-11
7.71157e-11
1.4541e-11
6.86973e-11
1.5461e-11
5.98676e-11
1.47393e-11
6.51623e-11
-3.75843e-12
9.45306e-11
-3.70061e-11
9.6005e-11
-1.8427e-10
3.14299e-10
1.73633e-10
-3.21908e-09
1.66379e-09
2.46611e-09
-3.16205e-09
-1.6855e-09
1.57423e-10
-3.57627e-10
-5.41122e-10
-1.72736e-10
4.20685e-11
2.1628e-10
2.41297e-10
2.81426e-10
2.7636e-10
3.14868e-10
2.93154e-10
3.38177e-10
2.87661e-10
3.41975e-10
2.81175e-10
2.99624e-10
2.5786e-10
2.84257e-10
2.26461e-10
2.47951e-10
2.03938e-10
2.54994e-10
1.79245e-10
2.53018e-10
1.94264e-10
2.10969e-10
1.99118e-10
1.95634e-10
1.44739e-10
1.90615e-10
7.57777e-11
1.26328e-10
5.28597e-11
7.79051e-11
3.80757e-11
5.83398e-11
3.52769e-11
6.48951e-11
1.25131e-11
6.91006e-11
1.05896e-11
7.81938e-11
1.42667e-11
6.96485e-11
1.30813e-11
6.25608e-11
1.06683e-11
7.07555e-11
-1.19849e-11
1.06213e-10
-5.13452e-11
1.17777e-10
-2.13674e-10
3.44978e-10
1.90658e-10
-3.40942e-09
2.05525e-09
2.69912e-09
-3.68993e-09
-1.92209e-09
3.94772e-10
-1.99372e-10
-5.30435e-10
-1.90947e-10
3.87518e-11
2.17617e-10
2.39807e-10
2.75639e-10
2.71287e-10
3.09321e-10
2.88711e-10
3.33609e-10
2.84672e-10
3.38134e-10
2.7882e-10
2.96596e-10
2.55985e-10
2.8167e-10
2.25613e-10
2.46449e-10
2.02792e-10
2.53389e-10
1.79117e-10
2.50972e-10
1.94052e-10
2.08276e-10
1.98772e-10
1.93979e-10
1.44352e-10
1.89985e-10
7.64723e-11
1.25962e-10
5.37866e-11
7.75778e-11
4.04279e-11
5.86701e-11
3.68814e-11
6.66527e-11
1.23115e-11
6.57352e-11
8.93809e-12
7.92151e-11
1.40578e-11
7.04678e-11
1.06945e-11
6.51076e-11
6.70711e-12
7.59238e-11
-1.93625e-11
1.16205e-10
-6.27632e-11
1.35049e-10
-2.33249e-10
3.60847e-10
2.15614e-10
-3.56506e-09
2.37531e-09
2.91721e-09
-4.11977e-09
-2.168e-09
5.93837e-10
-3.69211e-11
-5.12521e-10
-2.1071e-10
3.31669e-11
2.18178e-10
2.38083e-10
2.69546e-10
2.65861e-10
3.03376e-10
2.83869e-10
3.28647e-10
2.8157e-10
3.33779e-10
2.76273e-10
2.93406e-10
2.53986e-10
2.7873e-10
2.24691e-10
2.44892e-10
2.01522e-10
2.51495e-10
1.79127e-10
2.48607e-10
1.93745e-10
2.05499e-10
1.98241e-10
1.922e-10
1.43993e-10
1.89009e-10
7.73913e-11
1.25565e-10
5.47412e-11
7.72494e-11
4.29695e-11
5.90445e-11
3.848e-11
6.87358e-11
1.22949e-11
6.20747e-11
7.42338e-12
8.008e-11
1.40042e-11
7.10301e-11
8.49843e-12
6.7291e-11
3.18248e-12
8.02316e-11
-2.52173e-11
1.23629e-10
-7.01821e-11
1.46482e-10
-2.4172e-10
3.61642e-10
2.46435e-10
-3.67164e-09
2.60556e-09
3.10453e-09
-4.43065e-09
-2.40385e-09
7.46018e-10
1.22687e-10
-4.86558e-10
-2.30705e-10
2.51703e-11
2.17592e-10
2.36061e-10
2.63233e-10
2.60127e-10
2.97106e-10
2.78644e-10
3.2333e-10
2.78404e-10
3.2893e-10
2.73571e-10
2.90078e-10
2.51894e-10
2.75466e-10
2.23682e-10
2.43321e-10
2.00109e-10
2.49337e-10
1.79287e-10
2.45923e-10
1.93377e-10
2.02655e-10
1.97538e-10
1.90336e-10
1.43647e-10
1.87712e-10
7.85207e-11
1.25126e-10
5.57299e-11
7.68874e-11
4.56859e-11
5.94177e-11
4.00112e-11
7.09564e-11
1.26026e-11
5.84144e-11
6.20319e-12
8.06846e-11
1.41945e-11
7.12165e-11
6.6716e-12
6.89102e-11
3.96294e-13
8.32929e-11
-2.90267e-11
1.27875e-10
-7.28168e-11
1.51425e-10
-2.38797e-10
3.48305e-10
2.80553e-10
-3.71414e-09
2.73568e-09
3.22343e-09
-4.6089e-09
-2.61299e-09
8.45796e-10
2.72016e-10
-4.52473e-10
-2.49595e-10
1.47572e-11
2.15485e-10
2.33637e-10
2.56777e-10
2.54123e-10
2.9057e-10
2.73057e-10
3.17684e-10
2.75219e-10
3.23612e-10