/*--------------------------------*- C++ -*----------------------------------*\
| =========                 |                                                 |
| \\      /  F ield         | OpenFOAM: The Open Source CFD Toolbox           |
|  \\    /   O peration     | Version:  2312                                  |
|   \\  /    A nd           | Website:  www.openfoam.com                      |
|    \\/     M anipulation  |                                                 |
\*---------------------------------------------------------------------------*/
FoamFile
{
    version     2.0;
    format      ascii;
    arch        "LSB;label=32;scalar=64";
    class       volScalarField;
    location    "840";
    object      pMean;
}
// * * * * * * * * * * * * * * * * * * * * * * * * * * * * * * * * * * * * * //

dimensions      [0 2 -2 0 0 0 0];

internalField   nonuniform List<scalar> 
144000
(
6.66312e-10
3.3671e-10
-3.50293e-10
-6.70776e-10
-5.72084e-10
-3.96248e-10
-2.28108e-10
-1.37505e-10
-5.85429e-11
-3.7748e-11
-1.60186e-12
-4.89824e-12
1.93968e-11
8.04075e-12
2.98198e-11
1.64481e-11
3.46619e-11
1.56894e-11
3.58286e-11
1.9224e-11
3.94641e-11
1.90965e-11
3.99567e-11
2.0078e-11
4.21096e-11
2.17096e-11
4.37294e-11
2.07243e-11
4.37873e-11
2.13061e-11
4.59987e-11
2.34956e-11
4.71697e-11
2.06053e-11
4.53147e-11
2.01804e-11
4.57329e-11
2.01904e-11
4.50619e-11
1.74964e-11
4.17722e-11
1.6208e-11
4.1181e-11
1.35519e-11
3.77243e-11
9.93498e-12
3.35855e-11
1.14378e-11
3.24615e-11
1.47566e-11
3.16774e-11
2.44003e-11
2.61746e-11
2.69607e-11
-2.24526e-12
2.66056e-11
-2.58226e-11
2.51485e-12
-9.53174e-10
-2.17312e-10
6.94374e-10
3.5354e-10
-3.57258e-10
-6.76556e-10
-5.74049e-10
-3.96444e-10
-2.28318e-10
-1.37714e-10
-5.89406e-11
-3.80786e-11
-2.00326e-12
-5.14453e-12
1.90816e-11
7.86986e-12
2.95759e-11
1.63614e-11
3.44582e-11
1.56046e-11
3.56426e-11
1.92025e-11
3.93055e-11
1.90774e-11
3.9806e-11
2.00991e-11
4.19764e-11
2.17494e-11
4.3599e-11
2.07637e-11
4.36573e-11
2.13695e-11
4.58811e-11
2.35816e-11
4.70484e-11
2.06762e-11
4.51868e-11
2.02866e-11
4.56167e-11
2.03077e-11
4.49456e-11
1.76011e-11
4.1586e-11
1.62235e-11
4.09667e-11
1.37137e-11
3.76109e-11
1.01313e-11
3.34697e-11
1.16968e-11
3.23748e-11
1.50338e-11
3.16356e-11
2.47384e-11
2.62239e-11
2.7253e-11
-2.11643e-12
2.66116e-11
-2.25587e-11
1.18501e-11
-9.70661e-10
-2.3925e-10
7.31893e-10
3.59362e-10
-3.6807e-10
-6.79185e-10
-5.74902e-10
-3.96298e-10
-2.28189e-10
-1.37855e-10
-5.91918e-11
-3.85673e-11
-2.43121e-12
-5.60739e-12
1.87667e-11
7.48998e-12
2.93395e-11
1.61009e-11
3.43323e-11
1.53476e-11
3.55023e-11
1.90154e-11
3.92418e-11
1.88983e-11
3.97428e-11
1.99677e-11
4.1954e-11
2.16387e-11
4.35956e-11
2.0647e-11
4.36475e-11
2.12796e-11
4.58937e-11
2.35189e-11
4.70892e-11
2.0587e-11
4.51981e-11
2.02379e-11
4.56614e-11
2.0271e-11
4.50038e-11
1.75634e-11
4.15357e-11
1.60118e-11
4.08507e-11
1.36742e-11
3.77094e-11
1.02009e-11
3.35377e-11
1.18327e-11
3.2504e-11
1.5184e-11
3.17754e-11
2.49354e-11
2.65198e-11
2.74103e-11
-1.59794e-12
2.53701e-11
-1.90882e-11
2.80911e-11
-1.00059e-09
-2.55091e-10
7.7172e-10
3.41569e-10
-3.79709e-10
-6.74692e-10
-5.74378e-10
-3.95853e-10
-2.27635e-10
-1.37605e-10
-5.91822e-11
-3.90223e-11
-2.93115e-12
-6.19251e-12
1.83599e-11
7.00209e-12
2.90109e-11
1.5762e-11
3.41805e-11
1.50132e-11
3.52878e-11
1.87623e-11
3.91605e-11
1.86646e-11
3.96404e-11
1.97921e-11
4.1915e-11
2.14983e-11
4.3597e-11
2.04974e-11
4.36239e-11
2.11599e-11
4.59036e-11
2.34391e-11
4.71613e-11
2.04752e-11
4.52033e-11
2.01673e-11
4.57267e-11
2.02227e-11
4.51019e-11
1.75362e-11
4.14834e-11
1.57288e-11
4.06561e-11
1.353e-11
3.78778e-11
1.02754e-11
3.36537e-11
1.19467e-11
3.27509e-11
1.52652e-11
3.20774e-11
2.49573e-11
2.72513e-11
2.70585e-11
-1.23583e-13
2.17876e-11
-1.17501e-11
4.3986e-11
-1.03921e-09
-2.51796e-10
8.07377e-10
2.88125e-10
-3.90086e-10
-6.56457e-10
-5.71077e-10
-3.95425e-10
-2.26872e-10
-1.36911e-10
-5.88715e-11
-3.94054e-11
-3.53153e-12
-6.89238e-12
1.78214e-11
6.40552e-12
2.8548e-11
1.53512e-11
3.39634e-11
1.4615e-11
3.49593e-11
1.84534e-11
3.90247e-11
1.83972e-11
3.94565e-11
1.95894e-11
4.18227e-11
2.13495e-11
4.3564e-11
2.03423e-11
4.35433e-11
2.1033e-11
4.58701e-11
2.33735e-11
4.72255e-11
2.03745e-11
4.51575e-11
2.01026e-11
4.57736e-11
2.01929e-11
4.52058e-11
1.75663e-11
4.13974e-11
1.54571e-11
4.02958e-11
1.32723e-11
3.80625e-11
1.03991e-11
3.37746e-11
1.20389e-11
3.30893e-11
1.5248e-11
3.25664e-11
2.46977e-11
2.85418e-11
2.5927e-11
2.7033e-12
1.54492e-11
5.79508e-13
5.58359e-11
-1.08418e-09
-2.18643e-10
8.39021e-10
1.91627e-10
-4.00461e-10
-6.20941e-10
-5.63356e-10
-3.95383e-10
-2.26203e-10
-1.35857e-10
-5.82999e-11
-3.97354e-11
-4.25949e-12
-7.72671e-12
1.7134e-11
5.69016e-12
2.79406e-11
1.48554e-11
3.36704e-11
1.41596e-11
3.45137e-11
1.80864e-11
3.88259e-11
1.8101e-11
3.91872e-11
1.93573e-11
4.16714e-11
2.11943e-11
4.349e-11
2.01864e-11
4.33987e-11
2.09009e-11
4.57879e-11
2.33224e-11
4.72713e-11
2.02915e-11
4.50538e-11
2.00407e-11
4.57949e-11
2.0183e-11
4.53119e-11
1.76718e-11
4.1285e-11
1.52135e-11
3.9712e-11
1.28576e-11
3.82423e-11
1.0572e-11
3.39025e-11
1.20823e-11
3.35338e-11
1.50781e-11
3.32943e-11
2.40283e-11
3.05346e-11
2.37707e-11
7.23927e-12
6.11156e-12
1.81612e-11
6.25225e-11
-1.13654e-09
-1.49687e-10
8.70519e-10
4.98576e-11
-4.14615e-10
-5.66684e-10
-5.49533e-10
-3.95806e-10
-2.25923e-10
-1.34537e-10
-5.74999e-11
-4.00474e-11
-5.14849e-12
-8.72412e-12
1.6274e-11
4.84608e-12
2.71792e-11
1.42631e-11
3.3291e-11
1.36513e-11
3.39535e-11
1.76599e-11
3.85604e-11
1.77838e-11
3.88337e-11
1.90979e-11
4.14606e-11
2.10365e-11
4.337e-11
2.00372e-11
4.319e-11
2.07673e-11
4.56548e-11
2.32877e-11
4.72931e-11
2.02339e-11
4.48935e-11
1.99815e-11
4.57896e-11
2.01927e-11
4.54246e-11
1.78591e-11
4.1195e-11
1.50074e-11
3.88218e-11
1.22355e-11
3.84218e-11
1.07893e-11
3.40496e-11
1.20356e-11
3.41043e-11
1.46939e-11
3.43253e-11
2.2844e-11
3.33297e-11
2.04296e-11
1.35975e-11
-5.96424e-12
4.01953e-11
6.47476e-11
-1.19716e-09
-4.42404e-11
9.05954e-10
-1.328e-10
-4.36364e-10
-4.94641e-10
-5.28251e-10
-3.96574e-10
-2.26278e-10
-1.33043e-10
-5.64989e-11
-4.03613e-11
-6.21935e-12
-9.90986e-12
1.52136e-11
3.86022e-12
2.62486e-11
1.35615e-11
3.28041e-11
1.30898e-11
3.32783e-11
1.7172e-11
3.82177e-11
1.74499e-11
3.83961e-11
1.88141e-11
4.11875e-11
2.08801e-11
4.31998e-11
1.99015e-11
4.2918e-11
2.06373e-11
4.54701e-11
2.32735e-11
4.72832e-11
2.0208e-11
4.4679e-11
1.99238e-11
4.57592e-11
2.02175e-11
4.55561e-11
1.81273e-11
4.12114e-11
1.48096e-11
3.75077e-11
1.13534e-11
3.86101e-11
1.10368e-11
3.42371e-11
1.1862e-11
3.48241e-11
1.40468e-11
3.57021e-11
2.10842e-11
3.69373e-11
1.59617e-11
2.15795e-11
-1.9965e-11
6.47652e-11
6.4582e-11
-1.26531e-09
9.13599e-11
9.4915e-10
-3.46968e-10
-4.69133e-10
-4.08009e-10
-4.98631e-10
-3.9732e-10
-2.2748e-10
-1.31499e-10
-5.53332e-11
-4.06867e-11
-7.49399e-12
-1.12925e-11
1.39401e-11
2.72291e-12
2.51393e-11
1.27384e-11
3.21883e-11
1.24714e-11
3.24851e-11
1.66198e-11
3.77839e-11
1.70985e-11
3.78717e-11
1.85068e-11
4.0847e-11
2.07255e-11
4.2973e-11
1.97836e-11
4.25827e-11
2.05147e-11
4.52337e-11
2.32814e-11
4.72357e-11
2.02171e-11
4.44172e-11
1.9866e-11
4.57074e-11
2.02468e-11
4.57269e-11
1.8464e-11
4.14669e-11
1.4575e-11
3.56073e-11
1.01675e-11
3.88293e-11
1.12993e-11
3.44868e-11
1.15351e-11
3.57049e-11
1.31215e-11
3.74304e-11
1.87676e-11
4.1255e-11
1.0593e-11
3.06903e-11
-3.47417e-11
8.96011e-11
6.45235e-11
-1.33908e-09
2.46302e-10
1.00171e-09
-5.80816e-10
-5.15047e-10
-3.11441e-10
-4.60467e-10
-3.97553e-10
-2.29657e-10
-1.30044e-10
-5.40354e-11
-4.10214e-11
-8.96249e-12
-1.28668e-11
1.24508e-11
1.43571e-12
2.38504e-11
1.1793e-11
3.14296e-11
1.17923e-11
3.15757e-11
1.60015e-11
3.72482e-11
1.67273e-11
3.72604e-11
1.81746e-11
4.04342e-11
2.05739e-11
4.26825e-11
1.96809e-11
4.21848e-11
2.03997e-11
4.49451e-11
2.33114e-11
4.71438e-11
2.02613e-11
4.41134e-11
1.98054e-11
4.5638e-11
2.02708e-11
4.59556e-11
1.88547e-11
4.21301e-11
1.42178e-11
3.29202e-11
8.64647e-12
3.91062e-11
1.15604e-11
3.48171e-11
1.10453e-11
3.67423e-11
1.19306e-11
3.94709e-11
1.59969e-11
4.60746e-11
4.71785e-12
4.02613e-11
-4.90233e-11
1.12566e-10
6.65555e-11
-1.41491e-09
4.09458e-10
1.06303e-09
-8.20531e-10
-5.74764e-10
-2.10422e-10
-4.14219e-10
-3.96683e-10
-2.32842e-10
-1.2883e-10
-5.26692e-11
-4.13586e-11
-1.06107e-11
-1.46201e-11
1.07511e-11
5.84102e-15
2.23879e-11
1.07261e-11
3.05213e-11
1.10531e-11
3.05525e-11
1.53184e-11
3.66043e-11
1.63332e-11
3.65625e-11
1.7817e-11
3.99453e-11
2.04214e-11
4.23236e-11
1.95927e-11
4.17269e-11
2.02936e-11
4.46032e-11
2.33614e-11
4.70028e-11
2.03363e-11
4.37744e-11
1.97416e-11
4.55509e-11
2.02755e-11
4.62684e-11
1.92847e-11
4.3418e-11
1.35434e-11
2.92007e-11
6.77946e-12
3.94634e-11
1.18092e-11
3.52275e-11
1.04039e-11
3.79048e-11
1.05198e-11
4.17331e-11
1.29324e-11
5.11181e-11
-1.21233e-12
4.95794e-11
-6.16688e-11
1.32032e-10
7.19044e-11
-1.48828e-09
5.69665e-10
1.13058e-09
-1.05431e-09
-6.47072e-10
-1.10175e-10
-3.60935e-10
-3.94107e-10
-2.36962e-10
-1.28022e-10
-5.13039e-11
-4.16941e-11
-1.24176e-11
-1.65354e-11
8.85005e-12
-1.557e-12
2.07576e-11
9.54407e-12
2.94605e-11
1.02547e-11
2.94212e-11
1.45746e-11
3.58475e-11
1.59132e-11
3.57802e-11
1.74335e-11
3.93776e-11
2.02667e-11
4.18935e-11
1.95158e-11
4.12114e-11
2.01955e-11
4.42074e-11
2.34281e-11
4.68117e-11
2.04388e-11
4.34028e-11
1.96739e-11
4.54464e-11
2.02472e-11
4.66878e-11
1.97228e-11
4.57069e-11
1.23633e-11
2.40927e-11
4.58864e-12
3.99129e-11
1.20304e-11
3.57005e-11
9.6425e-12
3.91547e-11
8.96139e-12
4.40938e-11
9.77411e-12
5.60844e-11
-6.72946e-12
5.80069e-11
-7.17866e-11
1.46981e-10
8.10198e-11
-1.55481e-09
7.17512e-10
1.20099e-09
-1.2719e-09
-7.2955e-10
-1.54813e-11
-3.02088e-10
-3.89236e-10
-2.41814e-10
-1.27764e-10
-5.00346e-11
-4.20264e-11
-1.4357e-11
-1.85915e-11
6.76187e-12
-3.24287e-12
1.8971e-11
8.25278e-12
2.82491e-11
9.39933e-12
2.81902e-11
1.37751e-11
3.49772e-11
1.54656e-11
3.49177e-11
1.70261e-11
3.87318e-11
2.0107e-11
4.13933e-11
1.94472e-11
4.06408e-11
2.0104e-11
4.37575e-11
2.35086e-11
4.65667e-11
2.05656e-11
4.30014e-11
1.96049e-11
4.5319e-11
2.01819e-11
4.72121e-11
2.01644e-11
4.94211e-11
1.04705e-11
1.72343e-11
2.17459e-12
4.04701e-11
1.22243e-11
3.62131e-11
8.80182e-12
4.041e-11
7.35906e-12
4.64149e-11
6.73363e-12
6.06764e-11
-1.14414e-11
6.50529e-11
-7.88224e-11
1.5705e-10
9.34695e-11
-1.6108e-09
8.46232e-10
1.27043e-09
-1.46586e-09
-8.19022e-10
6.9835e-11
-2.39465e-10
-3.81581e-10
-2.47105e-10
-1.28175e-10
-4.89606e-11
-4.236e-11
-1.64008e-11
-2.07634e-11
4.50231e-12
-5.03602e-12
1.70423e-11
6.86435e-12
2.68923e-11
8.49107e-12
2.68692e-11
1.29255e-11
3.3995e-11
1.49895e-11
3.39807e-11
1.65971e-11
3.80094e-11
1.99401e-11
4.08241e-11
1.93838e-11
4.00186e-11
2.00192e-11
4.32549e-11
2.36003e-11
4.62644e-11
2.07151e-11
4.25682e-11
1.9546e-11
4.51503e-11
2.01035e-11
4.77704e-11
2.06941e-11
5.48329e-11
7.33521e-12
8.34518e-12
-2.51763e-13
4.11782e-11
1.24267e-11
3.67512e-11
7.94217e-12
4.16071e-11
5.82092e-12
4.85583e-11
4.01595e-12
6.46419e-11
-1.50502e-11
7.04073e-11
-8.25552e-11
1.62429e-10
1.08288e-10
-1.65346e-09
9.51837e-10
1.3348e-09
-1.63085e-09
-9.11689e-10
1.42935e-10
-1.75046e-10
-3.70817e-10
-2.52495e-10
-1.2934e-10
-4.81934e-11
-4.27092e-11
-1.85209e-11
-2.3027e-11
2.08808e-12
-6.92449e-12
1.49842e-11
5.38897e-12
2.53975e-11
7.53298e-12
2.5467e-11
1.20319e-11
3.2906e-11
1.44837e-11
3.2975e-11
1.61486e-11
3.7213e-11
1.97644e-11
4.0188e-11
1.93237e-11
3.93492e-11
1.99414e-11
4.27009e-11
2.37018e-11
4.59031e-11
2.08879e-11
4.20997e-11
1.95101e-11
4.49231e-11
2.004e-11
4.82823e-11
2.1304e-11
6.30142e-11
1.1433e-12
-3.56961e-12
-2.7358e-12
4.19486e-11
1.26431e-11
3.72867e-11
7.13149e-12
4.26748e-11
4.44949e-12
5.03959e-11
1.78712e-12
6.77906e-11
-1.7364e-11
7.39333e-11
-8.30461e-11
1.63624e-10
1.24341e-10
-1.68084e-09
1.03223e-09
1.39027e-09
-1.76381e-09
-1.00357e-09
2.01992e-10
-1.10865e-10
-3.56804e-10
-2.57614e-10
-1.3131e-10
-4.78514e-11
-4.30989e-11
-2.06929e-11
-2.53594e-11
-4.64693e-13
-8.89876e-12
1.28093e-11
3.83667e-12
2.37745e-11
6.52788e-12
2.39921e-11
1.11003e-11
3.17162e-11
1.39479e-11
3.19064e-11
1.56828e-11
3.63466e-11
1.95783e-11
3.94886e-11
1.92654e-11
3.86366e-11
1.98709e-11
4.20975e-11
2.38111e-11
4.54836e-11
2.10812e-11
4.15985e-11
1.94973e-11
4.46429e-11
1.99845e-11
4.87467e-11
2.13557e-11
7.64225e-11
-2.05238e-12
-1.94084e-11
-5.5978e-12
4.23553e-11
1.27979e-11
3.77363e-11
6.41323e-12
4.35318e-11
3.33221e-12
5.18182e-11
1.75952e-13
6.99977e-11
-1.82905e-11
7.56518e-11
-8.05604e-11
1.61405e-10
1.40463e-10
-1.69179e-09
1.08709e-09
1.43348e-09
-1.86333e-09
-1.09084e-09
2.46028e-10
-4.88313e-11
-3.3957e-10
-2.62084e-10
-1.34091e-10
-4.80488e-11
-4.35621e-11
-2.28949e-11
-2.77383e-11
-3.14076e-12
-1.09497e-11
1.05293e-11
2.21758e-12
2.2034e-11
5.4791e-12
2.24527e-11
1.01362e-11
3.04332e-11
1.33818e-11
3.07799e-11
1.52015e-11
3.5414e-11
1.93804e-11
3.87308e-11
1.92079e-11
3.7885e-11
1.9808e-11
4.14462e-11
2.39281e-11
4.50055e-11
2.12994e-11
4.10533e-11
1.95356e-11
4.42549e-11
2.00769e-11
4.88413e-11
2.13049e-11
8.48981e-11
-2.25712e-14
-2.93437e-11
-7.61051e-12
4.2401e-11
1.29523e-11
3.80979e-11
5.85865e-12
4.41204e-11
2.54683e-12
5.27427e-11
-7.30921e-13
7.12029e-11
-1.78228e-11
7.57158e-11
-7.54936e-11
1.56663e-10
1.55539e-10
-1.68594e-09
1.11724e-09
1.46197e-09
-1.92948e-09
-1.1702e-09
2.7484e-10
9.32254e-12
-3.19296e-10
-2.65542e-10
-1.37648e-10
-4.88869e-11
-4.41368e-11
-2.5107e-11
-3.01417e-11
-5.92399e-12
-1.3069e-11
8.1565e-12
5.40543e-13
2.01866e-11
4.39001e-12
2.08571e-11
9.14498e-12
2.90646e-11
1.27856e-11
2.96022e-11
1.4707e-11
3.44213e-11
1.91699e-11
3.79186e-11
1.91502e-11
3.70979e-11
1.97542e-11
4.07484e-11
2.40541e-11
4.44654e-11
2.15509e-11
4.04464e-11
1.96667e-11
4.36777e-11
2.05076e-11
4.81377e-11
2.23597e-11
7.55321e-11
3.49052e-13
-1.9756e-11
-6.72202e-12
4.23111e-11
1.32459e-11
3.84022e-11
5.54896e-12
4.44058e-11
2.15803e-12
5.31229e-11
-8.85271e-13
7.14087e-11
-1.60342e-11
7.4361e-11
-6.83224e-11
1.50195e-10
1.68618e-10
-1.66366e-09
1.12448e-09
1.47368e-09
-1.96352e-09
-1.23866e-09
2.88869e-10
6.20998e-11
-2.96328e-10
-2.6768e-10
-1.41905e-10
-5.04525e-11
-4.4867e-11
-2.73146e-11
-3.25493e-11
-8.79855e-12
-1.52477e-11
5.70177e-12
-1.18651e-12
1.8243e-11
3.26359e-12
1.92128e-11
8.1312e-12
2.76185e-11
1.21599e-11
2.83781e-11
1.4201e-11
3.33731e-11
1.89456e-11
3.70568e-11
1.90916e-11
3.62792e-11
1.97097e-11
4.00074e-11
2.41872e-11
4.38677e-11
2.18285e-11
3.97899e-11
1.98666e-11
4.29704e-11
2.11307e-11
4.69863e-11
2.33767e-11
6.09497e-11
5.31931e-12
-2.85912e-12
-4.57746e-12
4.17748e-11
1.35629e-11
3.85461e-11
5.49201e-12
4.43433e-11
2.19356e-12
5.29321e-11
-2.8768e-13
7.06691e-11
-1.30572e-11
7.18466e-11
-5.95421e-11
1.42733e-10
1.79048e-10
-1.62562e-09
1.1109e-09
1.46729e-09
-1.96714e-09
-1.2938e-09
2.89022e-10
1.08312e-10
-2.71127e-10
-2.68268e-10
-1.46772e-10
-5.28177e-11
-4.58042e-11
-2.95121e-11
-3.49455e-11
-1.17511e-11
-1.74812e-11
3.1733e-12
-2.95709e-12
1.62139e-11
2.10243e-12
1.75257e-11
7.09844e-12
2.61026e-11
1.15048e-11
2.71119e-11
1.36847e-11
3.22744e-11
1.87074e-11
3.615e-11
1.90319e-11
3.54324e-11
1.96746e-11
3.92265e-11
2.43261e-11
4.32171e-11
2.21275e-11
3.90947e-11
2.01111e-11
4.21919e-11
2.17842e-11
4.57607e-11
2.37763e-11
5.13898e-11
1.28454e-11
9.03738e-12
-2.56487e-12
4.07992e-11
1.38744e-11
3.84796e-11
5.70601e-12
4.39137e-11
2.66633e-12
5.21799e-11
1.03335e-12
6.90756e-11
-9.0555e-12
6.84583e-11
-4.96116e-11
1.34881e-10
1.86502e-10
-1.57282e-09
1.07864e-09
1.44195e-09
-1.94231e-09
-1.33373e-09
2.7658e-10
1.47072e-10
-2.44253e-10
-2.6716e-10
-1.52132e-10
-5.60305e-11
-4.70009e-11
-3.17011e-11
-3.73178e-11
-1.47696e-11
-1.97653e-11
5.7767e-13
-4.76628e-12
1.41101e-11
9.09201e-13
1.58006e-11
6.04928e-12
2.45251e-11
1.08205e-11
2.5807e-11
1.31586e-11
3.11296e-11
1.84549e-11
3.52032e-11
1.89706e-11
3.45599e-11
1.96491e-11
3.84077e-11
2.44717e-11
4.25162e-11
2.2451e-11
3.83557e-11
2.04122e-11
4.13246e-11
2.24919e-11
4.44218e-11
2.41227e-11
4.51968e-11
1.66036e-11
1.78448e-11
-1.60105e-14
3.98122e-11
1.43053e-11
3.82189e-11
6.22172e-12
4.31293e-11
3.57319e-12
5.08975e-11
3.02087e-12
6.67436e-11
-4.20383e-12
6.44562e-11
-3.8933e-11
1.27005e-10
1.90969e-10
-1.50634e-09
1.02948e-09
1.39759e-09
-1.89151e-09
-1.35743e-09
2.53063e-10
1.77905e-10
-2.16291e-10
-2.64295e-10
-1.57858e-10
-6.01087e-11
-4.85047e-11
-3.38863e-11
-3.9656e-11
-1.78417e-11
-2.20953e-11
-2.07832e-12
-6.61034e-12
1.1941e-11
-3.13481e-13
1.40424e-11
4.98517e-12
2.28929e-11
1.01079e-11
2.4467e-11
1.26231e-11
2.99433e-11
1.81877e-11
3.42208e-11
1.89075e-11
3.36646e-11
1.96326e-11
3.75546e-11
2.46218e-11
4.17706e-11
2.27947e-11
3.75797e-11
2.07573e-11
4.03872e-11
2.32191e-11
4.30383e-11
2.4533e-11
4.08553e-11
1.88968e-11
2.45485e-11
2.96356e-12
3.88717e-11
1.48539e-11
3.77425e-11
7.03104e-12
4.2007e-11
4.88937e-12
4.91348e-11
5.59771e-12
6.38088e-11
1.32044e-12
6.00816e-11
-2.78249e-11
1.19266e-10
1.92644e-10
-1.42733e-09
9.65178e-10
1.33471e-09
-1.81746e-09
-1.36463e-09
2.20206e-10
2.00766e-10
-1.87829e-10
-2.59714e-10
-1.63823e-10
-6.50419e-11
-5.03556e-11
-3.60764e-11
-4.19537e-11
-2.09555e-11
-2.44668e-11
-4.78759e-12
-8.48776e-12
9.71557e-12
-1.56231e-12
1.22561e-11
3.90594e-12
2.12127e-11
9.36817e-12
2.30954e-11
1.20773e-11
2.87204e-11
1.79048e-11
3.32074e-11
1.88424e-11
3.27503e-11
1.96239e-11
3.6672e-11
2.47727e-11
4.09868e-11
2.3153e-11
3.67784e-11
2.11252e-11
3.94141e-11
2.39062e-11
4.17263e-11
2.49071e-11
3.78196e-11
2.0279e-11
2.94975e-11
6.14146e-12
3.79601e-11
1.55146e-11
3.70403e-11
8.11287e-12
4.05771e-11
6.57855e-12
4.69679e-11
8.66836e-12
6.04176e-11
7.33904e-12
5.55496e-11
-1.651e-11
1.11551e-10
1.91888e-10
-1.33691e-09
8.87419e-10
1.25461e-09
-1.72331e-09
-1.35609e-09
1.79822e-10
2.16075e-10
-1.59396e-10
-2.53539e-10
-1.69933e-10
-7.08163e-11
-5.2594e-11
-3.82885e-11
-4.42134e-11
-2.41066e-11
-2.68801e-11
-7.54666e-12
-1.04021e-11
7.43846e-12
-2.83517e-12
1.04457e-11
2.80895e-12
1.94881e-11
8.60206e-12
2.16949e-11
1.15191e-11
2.74645e-11
1.7604e-11
3.21659e-11
1.87753e-11
3.18207e-11
1.96211e-11
3.57649e-11
2.49202e-11
4.01702e-11
2.35221e-11
3.59604e-11
2.15025e-11
3.84243e-11
2.45372e-11
4.05128e-11
2.52183e-11
3.57302e-11
2.11755e-11
3.30158e-11
9.3657e-12
3.70777e-11
1.63009e-11
3.61275e-11
9.44225e-12
3.88868e-11
8.59147e-12
4.44887e-11
1.21286e-11
5.67275e-11
1.3688e-11
5.104e-11
-5.06679e-12
1.03545e-10
1.89194e-10
-1.23618e-09
7.97845e-10
1.15933e-09
-1.61148e-09
-1.33324e-09
1.33449e-10
2.24527e-10
-1.31414e-10
-2.45917e-10
-1.76113e-10
-7.74217e-11
-5.52603e-11
-4.05437e-11
-4.64394e-11
-2.72953e-11
-2.93369e-11
-1.03566e-11
-1.2358e-11
5.1107e-12
-4.12864e-12
8.61312e-12
1.6926e-12
1.77201e-11
7.81212e-12
2.0266e-11
1.09469e-11
2.61764e-11
1.72844e-11
3.10978e-11
1.87073e-11
3.08772e-11
1.96234e-11
3.48355e-11
2.50613e-11
3.93242e-11
2.39015e-11
3.51317e-11
2.188e-11
3.74249e-11
2.51118e-11
3.93898e-11
2.54836e-11
3.43027e-11
2.18361e-11
3.53772e-11
1.25403e-11
3.62249e-11
1.72227e-11
3.5027e-11
1.09825e-11
3.69839e-11
1.08689e-11
4.17893e-11
1.58699e-11
5.28758e-11
2.02369e-11
4.66566e-11
6.59857e-12
9.46854e-11
1.85149e-10
-1.12609e-09
6.97487e-10
6.67781e-10
3.37219e-10
-3.50338e-10
-6.70978e-10
-5.72265e-10
-3.9563e-10
-2.27082e-10
-1.36515e-10
-5.79126e-11
-3.76039e-11
-1.82114e-12
-5.34855e-12
1.88138e-11
7.37546e-12
2.91336e-11
1.57567e-11
3.40985e-11
1.52785e-11
3.55332e-11
1.89875e-11
3.93216e-11
1.90136e-11
3.99149e-11
2.0024e-11
4.20788e-11
2.1628e-11
4.37169e-11
2.07045e-11
4.38071e-11
2.12504e-11
4.60001e-11
2.3376e-11
4.71369e-11
2.04159e-11
4.52961e-11
1.99872e-11
4.58315e-11
2.00273e-11
4.53688e-11
1.75528e-11
4.25769e-11
1.70196e-11
4.16009e-11
1.40586e-11
3.79471e-11
9.95302e-12
3.34956e-11
1.13871e-11
3.23802e-11
1.4748e-11
3.16187e-11
2.44149e-11
2.62448e-11
2.72722e-11
-1.92663e-12
2.7364e-11
-2.51371e-11
1.94388e-12
-9.55661e-10
-2.18496e-10
6.9588e-10
3.54165e-10
-3.5734e-10
-6.76771e-10
-5.74212e-10
-3.95815e-10
-2.27278e-10
-1.36717e-10
-5.83087e-11
-3.79375e-11
-2.227e-12
-5.60096e-12
1.84925e-11
7.19727e-12
2.88825e-11
1.56609e-11
3.38904e-11
1.51898e-11
3.53447e-11
1.89618e-11
3.91628e-11
1.89942e-11
3.97635e-11
2.00434e-11
4.19448e-11
2.1666e-11
4.35889e-11
2.07474e-11
4.36794e-11
2.13164e-11
4.58832e-11
2.34634e-11
4.70158e-11
2.04905e-11
4.51662e-11
2.00977e-11
4.57116e-11
2.01522e-11
4.52488e-11
1.76763e-11
4.24246e-11
1.71027e-11
4.1444e-11
1.42373e-11
3.78347e-11
1.01494e-11
3.33802e-11
1.16449e-11
3.22935e-11
1.50248e-11
3.15753e-11
2.47514e-11
2.62964e-11
2.7566e-11
-1.79202e-12
2.73795e-11
-2.18575e-11
1.13126e-11
-9.73161e-10
-2.40533e-10
7.33486e-10
3.60251e-10
-3.68203e-10
-6.79449e-10
-5.75051e-10
-3.95656e-10
-2.27129e-10
-1.36849e-10
-5.85535e-11
-3.84283e-11
-2.66093e-12
-6.07246e-12
1.81696e-11
6.80785e-12
2.8637e-11
1.53877e-11
3.37563e-11
1.49266e-11
3.52013e-11
1.8769e-11
3.90984e-11
1.88153e-11
3.97008e-11
1.99097e-11
4.1922e-11
2.15526e-11
4.35885e-11
2.06354e-11
4.36747e-11
2.12294e-11
4.58986e-11
2.34019e-11
4.7058e-11
2.0405e-11
4.51772e-11
2.00523e-11
4.57536e-11
2.01214e-11
4.53057e-11
1.76479e-11
4.24233e-11
1.69776e-11
4.14266e-11
1.4251e-11
3.79381e-11
1.02171e-11
3.34472e-11
1.17796e-11
3.24209e-11
1.51749e-11
3.17145e-11
2.49453e-11
2.65941e-11
2.77242e-11
-1.27439e-12
2.61327e-11
-1.83622e-11
2.77118e-11
-1.00314e-09
-2.56713e-10
7.73357e-10
3.4284e-10
-3.79883e-10
-6.75029e-10
-5.74514e-10
-3.95194e-10
-2.2655e-10
-1.3658e-10
-5.85331e-11
-3.88831e-11
-3.16659e-12
-6.66679e-12
1.77537e-11
6.30902e-12
2.82977e-11
1.50331e-11
3.3592e-11
1.45833e-11
3.49822e-11
1.85087e-11
3.90147e-11
1.85822e-11
3.95998e-11
1.97318e-11
4.18825e-11
2.14085e-11
4.35915e-11
2.04918e-11
4.36577e-11
2.11141e-11
4.59122e-11
2.33244e-11
4.71309e-11
2.02986e-11
4.51809e-11
1.99872e-11
4.58138e-11
2.008e-11
4.5399e-11
1.76156e-11
4.24351e-11
1.67869e-11
4.13813e-11
1.42231e-11
3.81235e-11
1.02859e-11
3.35651e-11
1.18929e-11
3.26674e-11
1.52543e-11
3.20173e-11
2.49586e-11
2.73306e-11
2.73698e-11
2.00005e-13
2.25389e-11
-1.10081e-11
4.38379e-11
-1.04176e-09
-2.53875e-10
8.08883e-10
2.89756e-10
-3.90276e-10
-6.56867e-10
-5.71188e-10
-3.94758e-10
-2.25751e-10
-1.35856e-10
-5.82009e-11
-3.92608e-11
-3.77013e-12
-7.37455e-12
1.72065e-11
5.7013e-12
2.78239e-11
1.4605e-11
3.33582e-11
1.41737e-11
3.46479e-11
1.81911e-11
3.88742e-11
1.83156e-11
3.9418e-11
1.95274e-11
4.17888e-11
2.12554e-11
4.35572e-11
2.03437e-11
4.35845e-11
2.09947e-11
4.58819e-11
2.32641e-11
4.7193e-11
2.02076e-11
4.51297e-11
1.99337e-11
4.58483e-11
2.00628e-11
4.54878e-11
1.76223e-11
4.24289e-11
1.65779e-11
4.12274e-11
1.41748e-11
3.83451e-11
1.04006e-11
3.36893e-11
1.19854e-11
3.30085e-11
1.52355e-11
3.25092e-11
2.46933e-11
2.86236e-11
2.62321e-11
3.021e-12
1.61877e-11
1.33466e-12
5.59031e-11
-1.08665e-09
-2.2118e-10
8.40364e-10
1.93523e-10
-4.00648e-10
-6.21421e-10
-5.63435e-10
-3.94696e-10
-2.25043e-10
-1.34764e-10
-5.76044e-11
-3.95814e-11
-4.49916e-12
-8.21507e-12
1.65119e-11
4.9768e-12
2.72066e-11
1.40925e-11
3.3046e-11
1.37052e-11
3.41952e-11
1.78151e-11
3.86683e-11
1.80202e-11
3.91515e-11
1.92949e-11
4.16355e-11
2.1096e-11
4.34784e-11
2.01957e-11
4.34467e-11
2.08734e-11
4.58009e-11
2.32228e-11
4.7232e-11
2.01403e-11
4.50135e-11
1.98926e-11
4.58466e-11
2.00752e-11
4.55626e-11
1.76828e-11
4.24051e-11
1.63538e-11
4.09238e-11
1.40915e-11
3.859e-11
1.05604e-11
3.38239e-11
1.20329e-11
3.34581e-11
1.50636e-11
3.32436e-11
2.40152e-11
3.06155e-11
2.40692e-11
7.54884e-12
6.82831e-12
1.89176e-11
6.28039e-11
-1.13887e-09
-1.52549e-10
8.71592e-10
5.18957e-11
-4.14776e-10
-5.67228e-10
-5.49589e-10
-3.95093e-10
-2.24723e-10
-1.33405e-10
-5.67728e-11
-3.98753e-11
-5.38416e-12
-9.21478e-12
1.56475e-11
4.12596e-12
2.64372e-11
1.34857e-11
3.26464e-11
1.31828e-11
3.36266e-11
1.73798e-11
3.83936e-11
1.77036e-11
3.88007e-11
1.90369e-11
4.14216e-11
2.09352e-11
4.33499e-11
2.00551e-11
4.32425e-11
2.07546e-11
4.56657e-11
2.32036e-11
4.72412e-11
2.0106e-11
4.48313e-11
1.98675e-11
4.58028e-11
2.01226e-11
4.56196e-11
1.78056e-11
4.23797e-11
1.61115e-11
4.04362e-11
1.3959e-11
3.88627e-11
1.07597e-11
3.39826e-11
1.19962e-11
3.4037e-11
1.46796e-11
3.42832e-11
2.28228e-11
3.34087e-11
2.07237e-11
1.39002e-11
-5.27561e-12
4.09517e-11
6.52117e-11
-1.19928e-09
-4.7293e-11
9.06722e-10
-1.30746e-10
-4.36474e-10
-4.95235e-10
-5.28301e-10
-3.95834e-10
-2.25037e-10
-1.31871e-10
-5.57375e-11
-4.01655e-11
-6.44816e-12
-1.04002e-11
1.45857e-11
3.13659e-12
2.55008e-11
1.27727e-11
3.21397e-11
1.2607e-11
3.2942e-11
1.68832e-11
3.80397e-11
1.73698e-11
3.83651e-11
1.87565e-11
4.1144e-11
2.07773e-11
4.31674e-11
1.99286e-11
4.29717e-11
2.06438e-11
4.54745e-11
2.32113e-11
4.72108e-11
2.01128e-11
4.45829e-11
1.98593e-11
4.57144e-11
2.02067e-11
4.56591e-11
1.79954e-11
4.2381e-11
1.58379e-11
3.97436e-11
1.37612e-11
3.91668e-11
1.09827e-11
3.41865e-11
1.18399e-11
3.47697e-11
1.4034e-11
3.56697e-11
2.10561e-11
3.70133e-11
1.6249e-11
2.18822e-11
-1.93092e-11
6.55243e-11
6.5191e-11
-1.26722e-09
8.82554e-11
9.49659e-10
-3.45039e-10
-4.69207e-10
-4.08637e-10
-4.98683e-10
-3.96557e-10
-2.26201e-10
-1.30284e-10
-5.45328e-11
-4.0463e-11
-7.71173e-12
-1.17788e-11
1.3314e-11
1.99934e-12
2.43882e-11
1.19421e-11
3.15056e-11
1.19749e-11
3.21387e-11
1.63232e-11
3.7593e-11
1.70182e-11
3.78418e-11
1.84548e-11
4.0798e-11
2.06234e-11
4.29246e-11
1.98206e-11
4.26335e-11
2.0545e-11
4.5227e-11
2.32478e-11
4.71345e-11
2.01646e-11
4.42736e-11
1.98693e-11
4.55807e-11
2.03273e-11
4.56869e-11
1.82498e-11
4.24413e-11
1.55168e-11
3.88259e-11
1.34967e-11
3.95126e-11
1.12084e-11
3.44579e-11
1.15377e-11
3.5668e-11
1.31127e-11
3.74094e-11
1.87348e-11
4.13277e-11
1.08713e-11
3.09977e-11
-3.41233e-11
9.03662e-11
6.52204e-11
-1.34081e-09
2.43319e-10
1.00205e-09
-5.79144e-10
-5.15123e-10
-3.12092e-10
-4.60531e-10
-3.96771e-10
-2.28342e-10
-1.28786e-10
-5.31957e-11
-4.07681e-11
-9.16618e-12
-1.33458e-11
1.18292e-11
7.15943e-13
2.30991e-11
1.09933e-11
3.07309e-11
1.12837e-11
3.12187e-11
1.56984e-11
3.70433e-11
1.66464e-11
3.723e-11
1.81302e-11
4.03783e-11
2.04748e-11
4.26151e-11
1.97289e-11
4.22288e-11
2.04577e-11
4.49223e-11
2.33125e-11
4.70063e-11
2.02614e-11
4.39088e-11
1.98968e-11
4.54023e-11
2.04818e-11
4.57002e-11
1.85672e-11
4.25969e-11
1.51241e-11
3.76708e-11
1.31608e-11
3.99072e-11
1.1418e-11
3.48147e-11
1.10794e-11
3.67276e-11
1.19284e-11
3.94641e-11
1.59608e-11
4.6145e-11
4.98503e-12
4.05808e-11
-4.84431e-11
1.13343e-10
6.72906e-11
-1.41655e-09
4.06766e-10
1.06332e-09
-8.19179e-10
-5.74887e-10
-2.11086e-10
-4.14307e-10
-3.95893e-10
-2.31499e-10
-1.27533e-10
-5.1792e-11
-4.1075e-11
-1.07983e-11
-1.5089e-11
1.01365e-11
-7.06585e-13
2.16391e-11
9.9268e-12
2.98097e-11
1.05347e-11
3.01851e-11
1.50103e-11
3.63846e-11
1.62516e-11
3.65296e-11
1.77818e-11
3.98811e-11
2.03277e-11
4.22353e-11
1.96522e-11
4.17594e-11
2.03822e-11
4.45597e-11
2.34027e-11
4.68222e-11
2.03984e-11
4.34953e-11
1.99406e-11
4.51799e-11
2.06651e-11
4.57021e-11
1.89405e-11
4.28805e-11
1.46348e-11
3.62819e-11
1.27538e-11
4.03515e-11
1.16001e-11
3.52564e-11
1.04748e-11
3.79163e-11
1.0527e-11
4.17416e-11
1.2894e-11
5.11881e-11
-9.57651e-13
4.99175e-11
-6.11231e-11
1.32827e-10
7.26456e-11
-1.48989e-09
5.67357e-10
1.13091e-09
-1.05329e-09
-6.47262e-10
-1.1084e-10
-3.61057e-10
-3.93323e-10
-2.35599e-10
-1.26692e-10
-5.03939e-11
-4.1381e-11
-1.25881e-11
-1.69925e-11
8.24487e-12
-2.25904e-12
2.00138e-11
8.74868e-12
2.87391e-11
9.72884e-12
2.90437e-11
1.4263e-11
3.56128e-11
1.58309e-11
3.57431e-11
1.74091e-11
3.93042e-11
2.01803e-11
4.1783e-11
1.95874e-11
4.12286e-11
2.03164e-11
4.41399e-11
2.35136e-11
4.65824e-11
2.05696e-11
4.30383e-11
1.99964e-11
4.49126e-11
2.08698e-11
4.56915e-11
1.93538e-11
4.3324e-11
1.40471e-11
3.46685e-11
1.22908e-11
4.08389e-11
1.17483e-11
3.57697e-11
9.75566e-12
3.91949e-11
8.98001e-12
4.41187e-11
9.7338e-12
5.61552e-11
-6.48799e-12
5.83673e-11
-7.12684e-11
1.47791e-10
8.17502e-11
-1.55644e-09
7.15614e-10
1.20148e-09
-1.27123e-09
-7.29836e-10
-1.61383e-11
-3.02249e-10
-3.88471e-10
-2.40439e-10
-1.26408e-10
-4.90968e-11
-4.16858e-11
-1.45102e-11
-1.90352e-11
6.16705e-12
-3.93183e-12
1.82344e-11
7.46454e-12
2.7521e-11
8.869e-12
2.78035e-11
1.34617e-11
3.47279e-11
1.53827e-11
3.48748e-11
1.70128e-11
3.86485e-11
2.00293e-11
4.12599e-11
1.95307e-11
4.06402e-11
2.02578e-11
4.3664e-11
2.36402e-11
4.6286e-11
2.0769e-11
4.25445e-11
2.00616e-11
4.46018e-11
2.10903e-11
4.56616e-11
1.9791e-11
4.39386e-11
1.33775e-11
3.28627e-11
1.17922e-11
4.13484e-11
1.18655e-11
3.63316e-11
8.96166e-12
4.04821e-11
7.39012e-12
4.6457e-11
6.69249e-12
6.07486e-11
-1.12132e-11
6.54368e-11
-7.83244e-11
1.57876e-10
9.41777e-11
-1.61251e-09
8.44749e-10
1.27114e-09
-1.46551e-09
-8.19431e-10
6.91952e-11
-2.39662e-10
-3.80846e-10
-2.4573e-10
-1.268e-10
-4.8001e-11
-4.19951e-11
-1.65377e-11
-2.11935e-11
3.91834e-12
-5.71035e-12
1.63139e-11
6.0856e-12
2.61605e-11
7.95866e-12
2.64744e-11
1.26119e-11
3.37321e-11
1.49061e-11
3.39308e-11
1.6595e-11
3.79159e-11
1.9872e-11
4.06684e-11
1.94787e-11
3.99988e-11
2.02047e-11
4.31354e-11
2.37777e-11
4.59337e-11
2.09894e-11
4.20204e-11
2.01359e-11
4.42477e-11
2.13225e-11
4.56009e-11
2.02338e-11
4.47014e-11
1.26861e-11
3.09431e-11
1.1286e-11
4.18489e-11
1.19652e-11
3.69118e-11
8.14508e-12
4.1709e-11
5.86386e-12
4.86171e-11
3.97468e-12
6.47166e-11
-1.48351e-11
7.08143e-11
-8.20695e-11
1.63275e-10
1.08964e-10
-1.65531e-09
9.50766e-10
1.33579e-09
-1.63079e-09
-9.12222e-10
1.42324e-10
-1.75275e-10
-3.70121e-10
-2.51131e-10
-1.27955e-10
-4.72188e-11
-4.2324e-11
-1.86428e-11
-2.34439e-11
1.51502e-12
-7.58398e-12
1.42655e-11
4.62167e-12
2.46645e-11
7.00075e-12
2.50654e-11
1.17195e-11
3.26305e-11
1.44e-11
3.29173e-11
1.61572e-11
3.71097e-11
1.97059e-11
4.00114e-11
1.94284e-11
3.93101e-11
2.0156e-11
4.25576e-11
2.39214e-11
4.55277e-11
2.12258e-11
4.14708e-11
2.02191e-11
4.38502e-11
2.1564e-11
4.54926e-11
2.06578e-11
4.55199e-11
1.20851e-11
2.907e-11
1.08063e-11
4.22966e-11
1.20647e-11
3.74723e-11
7.36879e-12
4.2802e-11
4.50206e-12
5.04693e-11
1.74547e-12
6.78674e-11
-1.71614e-11
7.43601e-11
-8.25643e-11
1.64489e-10
1.24984e-10