/*--------------------------------*- C++ -*----------------------------------*\
| =========                 |                                                 |
| \\      /  F ield         | OpenFOAM: The Open Source CFD Toolbox           |
|  \\    /   O peration     | Version:  2312                                  |
|   \\  /    A nd           | Website:  www.openfoam.com                      |
|    \\/     M anipulation  |                                                 |
\*---------------------------------------------------------------------------*/
FoamFile
{
    version     2.0;
    format      ascii;
    arch        "LSB;label=32;scalar=64";
    class       volScalarField;
    location    "400";
    object      k;
}
// * * * * * * * * * * * * * * * * * * * * * * * * * * * * * * * * * * * * * //

dimensions      [0 2 -2 0 0 0 0];

internalField   nonuniform List<scalar> 
144000
(
1.25569e-05
1.25545e-05
1.25598e-05
1.25535e-05
1.26046e-05
1.25554e-05
1.26078e-05
1.26014e-05
1.26069e-05
1.25606e-05
1.2558e-05
1.25564e-05
1.25605e-05
1.25571e-05
1.26036e-05
1.26031e-05
1.25576e-05
1.25596e-05
1.25582e-05
1.26034e-05
1.26018e-05
1.25611e-05
1.25584e-05
1.26073e-05
1.25605e-05
1.25561e-05
1.26037e-05
1.25592e-05
1.25558e-05
1.26007e-05
1.25506e-05
1.26079e-05
1.25599e-05
1.26085e-05
1.26028e-05
1.26102e-05
1.25639e-05
1.26101e-05
1.25629e-05
1.25602e-05
1.26078e-05
1.2554e-05
1.25614e-05
1.25577e-05
1.26071e-05
1.2604e-05
1.25585e-05
1.25639e-05
1.25573e-05
1.25601e-05
1.25532e-05
1.26003e-05
1.25552e-05
1.25632e-05
1.26022e-05
1.26057e-05
1.25573e-05
1.25604e-05
1.25551e-05
1.25536e-05
2.56027e-05
2.55993e-05
2.56058e-05
2.56028e-05
2.55717e-05
2.55915e-05
2.55754e-05
2.55586e-05
2.55577e-05
2.55888e-05
2.56007e-05
2.55999e-05
2.56049e-05
2.56041e-05
2.55764e-05
2.55603e-05
2.55861e-05
2.56001e-05
2.56058e-05
2.55766e-05
2.55539e-05
2.55853e-05
2.5602e-05
2.55738e-05
2.55949e-05
2.56033e-05
2.55722e-05
2.55941e-05
2.56023e-05
2.55706e-05
2.55858e-05
2.55679e-05
2.55938e-05
2.5576e-05
2.55597e-05
2.55605e-05
2.55949e-05
2.55749e-05
2.55947e-05
2.56046e-05
2.55777e-05
2.55895e-05
2.56032e-05
2.56034e-05
2.55786e-05
2.55619e-05
2.55855e-05
2.56057e-05
2.56041e-05
2.56081e-05
2.56046e-05
2.5569e-05
2.55852e-05
2.5607e-05
2.55753e-05
2.55616e-05
2.55865e-05
2.55998e-05
2.56018e-05
2.55994e-05
3.09245e-05
3.09205e-05
3.09238e-05
3.09257e-05
3.08867e-05
3.09068e-05
3.08862e-05
3.08683e-05
3.08586e-05
3.08926e-05
3.09154e-05
3.09173e-05
3.09214e-05
3.09239e-05
3.08936e-05
3.08687e-05
3.0895e-05
3.09122e-05
3.09241e-05
3.08948e-05
3.08617e-05
3.08891e-05
3.0916e-05
3.08836e-05
3.09046e-05
3.09225e-05
3.08861e-05
3.0906e-05
3.09219e-05
3.08872e-05
3.09045e-05
3.08753e-05
3.09037e-05
3.08851e-05
3.0868e-05
3.08595e-05
3.08987e-05
3.08799e-05
3.09018e-05
3.09194e-05
3.08895e-05
3.09051e-05
3.09173e-05
3.09222e-05
3.08928e-05
3.08702e-05
3.08929e-05
3.09164e-05
3.09222e-05
3.09262e-05
3.0929e-05
3.08879e-05
3.0899e-05
3.09203e-05
3.0892e-05
3.08681e-05
3.08957e-05
3.09115e-05
3.09213e-05
3.09205e-05
3.30269e-05
3.30235e-05
3.3023e-05
3.30276e-05
3.29975e-05
3.30083e-05
3.2993e-05
3.29795e-05
3.29641e-05
3.29854e-05
3.30101e-05
3.30159e-05
3.30184e-05
3.30236e-05
3.3004e-05
3.29784e-05
3.29935e-05
3.3007e-05
3.30212e-05
3.30048e-05
3.29735e-05
3.29857e-05
3.30109e-05
3.29889e-05
3.30001e-05
3.30205e-05
3.29949e-05
3.30042e-05
3.3021e-05
3.29975e-05
3.30092e-05
3.29833e-05
3.30008e-05
3.29894e-05
3.29774e-05
3.29632e-05
3.29908e-05
3.29808e-05
3.29953e-05
3.30146e-05
3.2995e-05
3.30058e-05
3.30136e-05
3.30214e-05
3.30011e-05
3.29791e-05
3.2991e-05
3.30089e-05
3.30196e-05
3.30228e-05
3.30307e-05
3.30015e-05
3.30032e-05
3.30154e-05
3.3001e-05
3.29764e-05
3.29939e-05
3.30062e-05
3.30197e-05
3.30207e-05
3.36252e-05
3.36235e-05
3.36201e-05
3.3625e-05
3.36056e-05
3.36098e-05
3.35988e-05
3.3591e-05
3.35748e-05
3.3584e-05
3.36029e-05
3.36116e-05
3.36133e-05
3.36191e-05
3.36095e-05
3.35891e-05
3.35952e-05
3.36025e-05
3.3615e-05
3.36081e-05
3.35875e-05
3.35893e-05
3.36045e-05
3.35932e-05
3.3598e-05
3.36142e-05
3.36007e-05
3.36038e-05
3.36162e-05
3.36036e-05
3.36118e-05
3.35927e-05
3.36002e-05
3.35932e-05
3.3587e-05
3.35725e-05
3.35878e-05
3.3583e-05
3.35911e-05
3.36077e-05
3.35978e-05
3.36053e-05
3.3609e-05
3.36173e-05
3.36061e-05
3.35888e-05
3.35931e-05
3.36023e-05
3.36138e-05
3.36164e-05
3.36257e-05
3.36104e-05
3.36072e-05
3.36113e-05
3.36054e-05
3.35871e-05
3.35951e-05
3.36018e-05
3.36143e-05
3.36165e-05
3.3487e-05
3.34867e-05
3.3483e-05
3.34866e-05
3.34753e-05
3.34762e-05
3.34682e-05
3.34639e-05
3.34515e-05
3.34535e-05
3.34628e-05
3.34723e-05
3.34738e-05
3.34791e-05
3.34752e-05
3.34629e-05
3.3464e-05
3.34664e-05
3.34743e-05
3.34726e-05
3.34631e-05
3.34592e-05
3.34667e-05
3.34616e-05
3.34632e-05
3.34735e-05
3.34684e-05
3.34691e-05
3.34768e-05
3.34711e-05
3.34776e-05
3.34653e-05
3.3467e-05
3.34616e-05
3.3459e-05
3.34481e-05
3.34544e-05
3.34514e-05
3.34557e-05
3.34671e-05
3.34634e-05
3.34693e-05
3.34709e-05
3.34777e-05
3.34726e-05
3.34615e-05
3.34625e-05
3.3465e-05
3.34735e-05
3.34756e-05
3.34841e-05
3.34782e-05
3.34753e-05
3.34745e-05
3.34721e-05
3.34607e-05
3.34635e-05
3.3466e-05
3.3474e-05
3.34768e-05
3.29706e-05
3.29713e-05
3.29684e-05
3.29705e-05
3.29642e-05
3.29639e-05
3.29579e-05
3.29557e-05
3.29481e-05
3.29461e-05
3.29493e-05
3.29565e-05
3.29576e-05
3.29619e-05
3.29608e-05
3.29551e-05
3.29544e-05
3.29545e-05
3.2958e-05
3.2958e-05
3.29556e-05
3.2951e-05
3.29537e-05
3.29514e-05
3.29516e-05
3.29569e-05
3.29561e-05
3.29562e-05
3.29607e-05
3.29585e-05
3.29638e-05
3.2957e-05
3.29564e-05
3.29515e-05
3.29507e-05
3.29439e-05
3.29455e-05
3.29426e-05
3.29446e-05
3.29511e-05
3.29502e-05
3.29553e-05
3.29559e-05
3.29609e-05
3.29589e-05
3.29534e-05
3.29535e-05
3.2953e-05
3.29574e-05
3.29588e-05
3.29651e-05
3.29639e-05
3.29636e-05
3.29609e-05
3.29598e-05
3.29534e-05
3.29541e-05
3.29543e-05
3.29581e-05
3.29604e-05
3.2247e-05
3.22483e-05
3.22461e-05
3.22471e-05
3.22435e-05
3.22432e-05
3.22387e-05
3.22375e-05
3.22335e-05
3.22303e-05
3.22308e-05
3.22345e-05
3.22352e-05
3.22382e-05
3.22381e-05
3.22364e-05
3.22359e-05
3.22349e-05
3.2236e-05
3.22361e-05
3.22362e-05
3.2234e-05
3.2234e-05
3.22326e-05
3.22324e-05
3.22345e-05
3.22351e-05
3.22352e-05
3.22378e-05
3.22372e-05
3.22414e-05
3.22382e-05
3.22374e-05
3.22331e-05
3.2233e-05
3.22293e-05
3.22289e-05
3.22259e-05
3.22267e-05
3.22298e-05
3.22296e-05
3.22337e-05
3.2234e-05
3.22373e-05
3.22368e-05
3.22348e-05
3.22352e-05
3.22337e-05
3.22358e-05
3.22363e-05
3.224e-05
3.22404e-05
3.22423e-05
3.22396e-05
3.22391e-05
3.22358e-05
3.22358e-05
3.22353e-05
3.22366e-05
3.22379e-05
3.13995e-05
3.14004e-05
3.13989e-05
3.13992e-05
3.1397e-05
3.13967e-05
3.13935e-05
3.13928e-05
3.13909e-05
3.13883e-05
3.13872e-05
3.1389e-05
3.13892e-05
3.13908e-05
3.1391e-05
3.13909e-05
3.1391e-05
3.13903e-05
3.139e-05
3.13895e-05
3.13907e-05
3.139e-05
3.13894e-05
3.13879e-05
3.13881e-05
3.13883e-05
3.13891e-05
3.13893e-05
3.13907e-05
3.13907e-05
3.13938e-05
3.13925e-05
3.13922e-05
3.13892e-05
3.13894e-05
3.13874e-05
3.13866e-05
3.13836e-05
3.13838e-05
3.13849e-05
3.13845e-05
3.13876e-05
3.13877e-05
3.13898e-05
3.13898e-05
3.13895e-05
3.13905e-05
3.13891e-05
3.139e-05
3.139e-05
3.13917e-05
3.13923e-05
3.1395e-05
3.1393e-05
3.13927e-05
3.13912e-05
3.13914e-05
3.13908e-05
3.1391e-05
3.13916e-05
3.04692e-05
3.04694e-05
3.04684e-05
3.04681e-05
3.04663e-05
3.04663e-05
3.04641e-05
3.04637e-05
3.04626e-05
3.04612e-05
3.04597e-05
3.04605e-05
3.04604e-05
3.04609e-05
3.04609e-05
3.04612e-05
3.04618e-05
3.04614e-05
3.04608e-05
3.04599e-05
3.04612e-05
3.04612e-05
3.04607e-05
3.04596e-05
3.04598e-05
3.04596e-05
3.04598e-05
3.046e-05
3.04606e-05
3.04606e-05
3.0463e-05
3.04625e-05
3.04628e-05
3.04609e-05
3.04612e-05
3.04601e-05
3.04594e-05
3.0457e-05
3.04568e-05
3.0457e-05
3.04564e-05
3.04584e-05
3.04584e-05
3.04596e-05
3.04596e-05
3.04599e-05
3.04613e-05
3.04603e-05
3.04608e-05
3.04606e-05
3.04613e-05
3.04615e-05
3.04639e-05
3.04627e-05
3.04625e-05
3.0462e-05
3.04624e-05
3.04621e-05
3.04616e-05
3.04621e-05
2.94774e-05
2.94774e-05
2.94763e-05
2.94757e-05
2.94741e-05
2.94741e-05
2.94726e-05
2.94723e-05
2.94717e-05
2.94711e-05
2.94698e-05
2.94704e-05
2.947e-05
2.94699e-05
2.94696e-05
2.94698e-05
2.94706e-05
2.94704e-05
2.94699e-05
2.94688e-05
2.94699e-05
2.94701e-05
2.94699e-05
2.94692e-05
2.94696e-05
2.94692e-05
2.94689e-05
2.94692e-05
2.94692e-05
2.94693e-05
2.94709e-05
2.94708e-05
2.94713e-05
2.94701e-05
2.94705e-05
2.947e-05
2.94695e-05
2.94677e-05
2.94677e-05
2.94676e-05
2.94666e-05
2.94679e-05
2.94679e-05
2.94684e-05
2.94684e-05
2.94686e-05
2.947e-05
2.94695e-05
2.94698e-05
2.94695e-05
2.94698e-05
2.94698e-05
2.94716e-05
2.94708e-05
2.94705e-05
2.94706e-05
2.9471e-05
2.94709e-05
2.94706e-05
2.94709e-05
2.84368e-05
2.84366e-05
2.84354e-05
2.84348e-05
2.84332e-05
2.84331e-05
2.84321e-05
2.84318e-05
2.84314e-05
2.84311e-05
2.84305e-05
2.84309e-05
2.84306e-05
2.84302e-05
2.84296e-05
2.84297e-05
2.84304e-05
2.84303e-05
2.84299e-05
2.8429e-05
2.84297e-05
2.843e-05
2.84299e-05
2.84296e-05
2.84299e-05
2.84296e-05
2.84292e-05
2.84294e-05
2.84293e-05
2.84291e-05
2.84302e-05
2.84302e-05
2.84307e-05
2.84299e-05
2.84304e-05
2.84302e-05
2.843e-05
2.84289e-05
2.84289e-05
2.84288e-05
2.84278e-05
2.84286e-05
2.84286e-05
2.84286e-05
2.84285e-05
2.84285e-05
2.84297e-05
2.84295e-05
2.84298e-05
2.84296e-05
2.84295e-05
2.84293e-05
2.84307e-05
2.84302e-05
2.84299e-05
2.84301e-05
2.84305e-05
2.84305e-05
2.84306e-05
2.84307e-05
2.73554e-05
2.73552e-05
2.73542e-05
2.73535e-05
2.7352e-05
2.73519e-05
2.7351e-05
2.73507e-05
2.73505e-05
2.73506e-05
2.73504e-05
2.73507e-05
2.73504e-05
2.73499e-05
2.73492e-05
2.73491e-05
2.73498e-05
2.73497e-05
2.73494e-05
2.73486e-05
2.73491e-05
2.73493e-05
2.73494e-05
2.73492e-05
2.73495e-05
2.73493e-05
2.73489e-05
2.73491e-05
2.73489e-05
2.73486e-05
2.73494e-05
2.73494e-05
2.73497e-05
2.73492e-05
2.73497e-05
2.73496e-05
2.73497e-05
2.7349e-05
2.73491e-05
2.7349e-05
2.73481e-05
2.73487e-05
2.73486e-05
2.73485e-05
2.7348e-05
2.73481e-05
2.73491e-05
2.73489e-05
2.73492e-05
2.7349e-05
2.73488e-05
2.73485e-05
2.73496e-05
2.73493e-05
2.73489e-05
2.73491e-05
2.73495e-05
2.73496e-05
2.73496e-05
2.73497e-05
2.62401e-05
2.62399e-05
2.62391e-05
2.62384e-05
2.62371e-05
2.62369e-05
2.62361e-05
2.62358e-05
2.6236e-05
2.6236e-05
2.62359e-05
2.62361e-05
2.62359e-05
2.62355e-05
2.62348e-05
2.62347e-05
2.62352e-05
2.62351e-05
2.62349e-05
2.62343e-05
2.62347e-05
2.62348e-05
2.62348e-05
2.62346e-05
2.6235e-05
2.62349e-05
2.62345e-05
2.62347e-05
2.62345e-05
2.62341e-05
2.62347e-05
2.62347e-05
2.6235e-05
2.62346e-05
2.6235e-05
2.6235e-05
2.62351e-05
2.62348e-05
2.62349e-05
2.62348e-05
2.62342e-05
2.62346e-05
2.62345e-05
2.62342e-05
2.62338e-05
2.62337e-05
2.62345e-05
2.62345e-05
2.62347e-05
2.62345e-05
2.62342e-05
2.62339e-05
2.62348e-05
2.62346e-05
2.62342e-05
2.62344e-05
2.62346e-05
2.62346e-05
2.62347e-05
2.62348e-05
2.50966e-05
2.50964e-05
2.50957e-05
2.50952e-05
2.5094e-05
2.50938e-05
2.5093e-05
2.50928e-05
2.50929e-05
2.50929e-05
2.50929e-05
2.50932e-05
2.50931e-05
2.50928e-05
2.50921e-05
2.5092e-05
2.50924e-05
2.50924e-05
2.50922e-05
2.50916e-05
2.50919e-05
2.5092e-05
2.50919e-05
2.50919e-05
2.50922e-05
2.50921e-05
2.50919e-05
2.5092e-05
2.50919e-05
2.50915e-05
2.50919e-05
2.50918e-05
2.50921e-05
2.50917e-05
2.5092e-05
2.5092e-05
2.50922e-05
2.5092e-05
2.50921e-05
2.50921e-05
2.50917e-05
2.5092e-05
2.50919e-05
2.50917e-05
2.50912e-05
2.50911e-05
2.50917e-05
2.50917e-05
2.50919e-05
2.50918e-05
2.50915e-05
2.50912e-05
2.50919e-05
2.50917e-05
2.50914e-05
2.50915e-05
2.50916e-05
2.50917e-05
2.50917e-05
2.50918e-05
2.39303e-05
2.39301e-05
2.39296e-05
2.39291e-05
2.3928e-05
2.39278e-05
2.39271e-05
2.39269e-05
2.39271e-05
2.39271e-05
2.39271e-05
2.39273e-05
2.39273e-05
2.3927e-05
2.39266e-05
2.39264e-05
2.39267e-05
2.39267e-05
2.39265e-05
2.39261e-05
2.39264e-05
2.39264e-05
2.39263e-05
2.39263e-05
2.39265e-05
2.39265e-05
2.39263e-05
2.39264e-05
2.39263e-05
2.39259e-05
2.39262e-05
2.39262e-05
2.39263e-05
2.39261e-05
2.39262e-05
2.39262e-05
2.39264e-05
2.39263e-05
2.39264e-05
2.39264e-05
2.39261e-05
2.39264e-05
2.39264e-05
2.39262e-05
2.39258e-05
2.39256e-05
2.39262e-05
2.39261e-05
2.39263e-05
2.39262e-05
2.3926e-05
2.39256e-05
2.39262e-05
2.39261e-05
2.39258e-05
2.39257e-05
2.3926e-05
2.3926e-05
2.3926e-05
2.39261e-05
2.27465e-05
2.27464e-05
2.2746e-05
2.27455e-05
2.27446e-05
2.27444e-05
2.27439e-05
2.27436e-05
2.27438e-05
2.27438e-05
2.27437e-05
2.2744e-05
2.27439e-05
2.27438e-05
2.27435e-05
2.27432e-05
2.27435e-05
2.27435e-05
2.27434e-05
2.2743e-05
2.27432e-05
2.27432e-05
2.27433e-05
2.27432e-05
2.27434e-05
2.27433e-05
2.27432e-05
2.27433e-05
2.27431e-05
2.27428e-05
2.2743e-05
2.2743e-05
2.27431e-05
2.27429e-05
2.2743e-05
2.2743e-05
2.27432e-05
2.27431e-05
2.27432e-05
2.27432e-05
2.2743e-05
2.27432e-05
2.27432e-05
2.27431e-05
2.27428e-05
2.27427e-05
2.27431e-05
2.27431e-05
2.27432e-05
2.27431e-05
2.27429e-05
2.27426e-05
2.2743e-05
2.2743e-05
2.27427e-05
2.27428e-05
2.27429e-05
2.27429e-05
2.27429e-05
2.27429e-05
2.15508e-05
2.15507e-05
2.15503e-05
2.15499e-05
2.15492e-05
2.1549e-05
2.15485e-05
2.15483e-05
2.15484e-05
2.15484e-05
2.15484e-05
2.15486e-05
2.15486e-05
2.15485e-05
2.15483e-05
2.1548e-05
2.15483e-05
2.15483e-05
2.15482e-05
2.15479e-05
2.15481e-05
2.15481e-05
2.15481e-05
2.1548e-05
2.15482e-05
2.15482e-05
2.1548e-05
2.1548e-05
2.15478e-05
2.15475e-05
2.15477e-05
2.15477e-05
2.15478e-05
2.15477e-05
2.15477e-05
2.15478e-05
2.15479e-05
2.15478e-05
2.15478e-05
2.15479e-05
2.15478e-05
2.1548e-05
2.1548e-05
2.15479e-05
2.15477e-05
2.15476e-05
2.15479e-05
2.15479e-05
2.1548e-05
2.15479e-05
2.15478e-05
2.15475e-05
2.15479e-05
2.15478e-05
2.15477e-05
2.15476e-05
2.15477e-05
2.15477e-05
2.15478e-05
2.15478e-05
2.03485e-05
2.03485e-05
2.03482e-05
2.03479e-05
2.03473e-05
2.03471e-05
2.03467e-05
2.03466e-05
2.03466e-05
2.03466e-05
2.03466e-05
2.03468e-05
2.03468e-05
2.03467e-05
2.03465e-05
2.03464e-05
2.03465e-05
2.03465e-05
2.03465e-05
2.03463e-05
2.03464e-05
2.03464e-05
2.03464e-05
2.03463e-05
2.03465e-05
2.03465e-05
2.03464e-05
2.03463e-05
2.03461e-05
2.03458e-05
2.03459e-05
2.03459e-05
2.0346e-05
2.0346e-05
2.03459e-05
2.0346e-05
2.03461e-05
2.03461e-05
2.03461e-05
2.03461e-05
2.03461e-05
2.03462e-05
2.03462e-05
2.03462e-05
2.03461e-05
2.0346e-05
2.03463e-05
2.03463e-05
2.03463e-05
2.03463e-05
2.03462e-05
2.03459e-05
2.03462e-05
2.03462e-05
2.0346e-05
2.03461e-05
2.03461e-05
2.03461e-05
2.03461e-05
2.03461e-05
1.91456e-05
1.91456e-05
1.91454e-05
1.91452e-05
1.91447e-05
1.91446e-05
1.91443e-05
1.91441e-05
1.91442e-05
1.91442e-05
1.91442e-05
1.91443e-05
1.91443e-05
1.91442e-05
1.91441e-05
1.9144e-05
1.91441e-05
1.91441e-05
1.91441e-05
1.91439e-05
1.9144e-05
1.9144e-05
1.9144e-05
1.9144e-05
1.91441e-05
1.91441e-05
1.9144e-05
1.91439e-05
1.91437e-05
1.91435e-05
1.91436e-05
1.91436e-05
1.91437e-05
1.91436e-05
1.91436e-05
1.91436e-05
1.91437e-05
1.91437e-05
1.91437e-05
1.91438e-05
1.91437e-05
1.91438e-05
1.91438e-05
1.91438e-05
1.91437e-05
1.91438e-05
1.91439e-05
1.91439e-05
1.91439e-05
1.91439e-05
1.91438e-05
1.91436e-05
1.91439e-05
1.91438e-05
1.91438e-05
1.91437e-05
1.91438e-05
1.91438e-05
1.91438e-05
1.91438e-05
1.79481e-05
1.79481e-05
1.7948e-05
1.79478e-05
1.79475e-05
1.79474e-05
1.79472e-05
1.79471e-05
1.79471e-05
1.79471e-05
1.79471e-05
1.79472e-05
1.79472e-05
1.79472e-05
1.79471e-05
1.7947e-05
1.79471e-05
1.79471e-05
1.79471e-05
1.7947e-05
1.7947e-05
1.79471e-05
1.7947e-05
1.7947e-05
1.79471e-05
1.79471e-05
1.7947e-05
1.7947e-05
1.79468e-05
1.79466e-05
1.79467e-05
1.79467e-05
1.79467e-05
1.79467e-05
1.79467e-05
1.79467e-05
1.79468e-05
1.79468e-05
1.79468e-05
1.79469e-05
1.79468e-05
1.79469e-05
1.79469e-05
1.79469e-05
1.79469e-05
1.79469e-05
1.7947e-05
1.7947e-05
1.7947e-05
1.7947e-05
1.79469e-05
1.79468e-05
1.79469e-05
1.79469e-05
1.79469e-05
1.79468e-05
1.79469e-05
1.79469e-05
1.79469e-05
1.79469e-05
1.67627e-05
1.67627e-05
1.67627e-05
1.67626e-05
1.67624e-05
1.67623e-05
1.67622e-05
1.67621e-05
1.67621e-05
1.67622e-05
1.67622e-05
1.67622e-05
1.67623e-05
1.67622e-05
1.67622e-05
1.67622e-05
1.67622e-05
1.67622e-05
1.67622e-05
1.67621e-05
1.67621e-05
1.67622e-05
1.67622e-05
1.67622e-05
1.67622e-05
1.67622e-05
1.67621e-05
1.67621e-05
1.6762e-05
1.67618e-05
1.67619e-05
1.67619e-05
1.67619e-05
1.67618e-05
1.67618e-05
1.67618e-05
1.67619e-05
1.67619e-05
1.67619e-05
1.6762e-05
1.67619e-05
1.6762e-05
1.6762e-05
1.6762e-05
1.6762e-05
1.6762e-05
1.67621e-05
1.67621e-05
1.67621e-05
1.67621e-05
1.67621e-05
1.6762e-05
1.67621e-05
1.67621e-05
1.6762e-05
1.6762e-05
1.67621e-05
1.67621e-05
1.67621e-05
1.67621e-05
1.5597e-05
1.5597e-05
1.5597e-05
1.5597e-05
1.55969e-05
1.55968e-05
1.55968e-05
1.55968e-05
1.55968e-05
1.55968e-05
1.55969e-05
1.55969e-05
1.5597e-05
1.5597e-05
1.55969e-05
1.55969e-05
1.55969e-05
1.55969e-05
1.55969e-05
1.55969e-05
1.55969e-05
1.55969e-05
1.5597e-05
1.5597e-05
1.5597e-05
1.5597e-05
1.55969e-05
1.55969e-05
1.55968e-05
1.55967e-05
1.55967e-05
1.55967e-05
1.55967e-05
1.55966e-05
1.55966e-05
1.55966e-05
1.55967e-05
1.55967e-05
1.55967e-05
1.55967e-05
1.55967e-05
1.55967e-05
1.55967e-05
1.55967e-05
1.55968e-05
1.55968e-05
1.55969e-05
1.55969e-05
1.55969e-05
1.55969e-05
1.55969e-05
1.55968e-05
1.55969e-05
1.55969e-05
1.55968e-05
1.55968e-05
1.55969e-05
1.55969e-05
1.55969e-05
1.55969e-05
1.44602e-05
1.44603e-05
1.44603e-05
1.44603e-05
1.44603e-05
1.44603e-05
1.44603e-05
1.44603e-05
1.44604e-05
1.44605e-05
1.44605e-05
1.44606e-05
1.44607e-05
1.44606e-05
1.44606e-05
1.44606e-05
1.44606e-05
1.44606e-05
1.44606e-05
1.44606e-05
1.44606e-05
1.44606e-05
1.44607e-05
1.44607e-05
1.44607e-05
1.44607e-05
1.44606e-05
1.44606e-05
1.44606e-05
1.44605e-05
1.44605e-05
1.44604e-05
1.44604e-05
1.44604e-05
1.44604e-05
1.44604e-05
1.44604e-05
1.44604e-05
1.44604e-05
1.44604e-05
1.44604e-05
1.44604e-05
1.44604e-05
1.44605e-05
1.44605e-05
1.44605e-05
1.44606e-05
1.44607e-05
1.44607e-05
1.44607e-05
1.44607e-05
1.44606e-05
1.44607e-05
1.44606e-05
1.44606e-05
1.44606e-05
1.44606e-05
1.44606e-05
1.44607e-05
1.44607e-05
1.33648e-05
1.33649e-05
1.33649e-05
1.3365e-05
1.33651e-05
1.33651e-05
1.33652e-05
1.33653e-05
1.33653e-05
1.33655e-05
1.33655e-05
1.33656e-05
1.33657e-05
1.33657e-05
1.33657e-05
1.33657e-05
1.33657e-05
1.33657e-05
1.33657e-05
1.33657e-05
1.33657e-05
1.33657e-05
1.33658e-05
1.33657e-05
1.33657e-05
1.33657e-05
1.33657e-05
1.33657e-05
1.33656e-05
1.33656e-05
1.33656e-05
1.33656e-05
1.33656e-05
1.33655e-05
1.33655e-05
1.33655e-05
1.33655e-05
1.33655e-05
1.33655e-05
1.33655e-05
1.33655e-05
1.33655e-05
1.33655e-05
1.33655e-05
1.33656e-05
1.33657e-05
1.33658e-05
1.33659e-05
1.33658e-05
1.33658e-05
1.33658e-05
1.33658e-05
1.33658e-05
1.33658e-05
1.33658e-05
1.33658e-05
1.33657e-05
1.33658e-05
1.33657e-05
1.33657e-05
1.26067e-05
1.25581e-05
1.25622e-05
1.25538e-05
1.2556e-05
1.25538e-05
1.26031e-05
1.26025e-05
1.25657e-05
1.25584e-05
1.26076e-05
1.25582e-05
1.26081e-05
1.2605e-05
1.25642e-05
1.25603e-05
1.26066e-05
1.25619e-05
1.25592e-05
1.26059e-05
1.26011e-05
1.26109e-05
1.25615e-05
1.25613e-05
1.25581e-05
1.25527e-05
1.2557e-05
1.25522e-05
1.26056e-05
1.25524e-05
1.26038e-05
1.25585e-05
1.25581e-05
1.26035e-05
1.26068e-05
1.25619e-05
1.25665e-05
1.2554e-05
1.26079e-05
1.25521e-05
1.2612e-05
1.25553e-05
1.26106e-05
1.25539e-05
1.25565e-05
1.25553e-05
1.25534e-05
1.25537e-05
1.25572e-05
1.25591e-05
1.25998e-05
1.26061e-05
1.25573e-05
1.26095e-05
1.25591e-05
1.25629e-05
1.26055e-05
1.26104e-05
1.2562e-05
1.26078e-05
2.55649e-05
2.55874e-05
2.56067e-05
2.56037e-05
2.56017e-05
2.56014e-05
2.55754e-05
2.55527e-05
2.55899e-05
2.56042e-05
2.55749e-05
2.5595e-05
2.55773e-05
2.55594e-05
2.5591e-05
2.56059e-05
2.55742e-05
2.55962e-05
2.56071e-05
2.55796e-05
2.55569e-05
2.55592e-05
2.55906e-05
2.56034e-05
2.56062e-05
2.56015e-05
2.56026e-05
2.56e-05
2.55733e-05
2.55893e-05
2.55665e-05
2.55881e-05
2.56031e-05
2.55735e-05
2.55586e-05
2.55858e-05
2.56109e-05
2.56041e-05
2.55759e-05
2.55894e-05
2.55737e-05
2.55908e-05
2.55751e-05
2.55899e-05
2.55983e-05
2.55997e-05
2.55989e-05
2.55991e-05
2.56007e-05
2.56082e-05
2.5574e-05
2.55581e-05
2.55881e-05
2.55726e-05
2.55898e-05
2.56073e-05
2.55771e-05
2.55651e-05
2.55954e-05
2.5575e-05
3.08722e-05
3.08961e-05
3.09193e-05
3.09263e-05
3.09235e-05
3.09239e-05
3.0895e-05
3.08594e-05
3.08905e-05
3.0919e-05
3.08856e-05
3.09081e-05
3.08888e-05
3.0865e-05
3.08936e-05
3.09208e-05
3.08855e-05
3.09059e-05
3.09245e-05
3.08965e-05
3.08682e-05
3.08576e-05
3.08937e-05
3.09148e-05
3.09246e-05
3.09251e-05
3.09238e-05
3.09231e-05
3.08874e-05
3.0907e-05
3.08776e-05
3.08973e-05
3.09194e-05
3.08892e-05
3.08629e-05
3.08881e-05
3.09197e-05
3.09252e-05
3.08892e-05
3.0907e-05
3.08802e-05
3.09038e-05
3.08817e-05
3.09041e-05
3.09148e-05
3.09192e-05
3.09198e-05
3.09207e-05
3.09195e-05
3.09273e-05
3.08952e-05
3.08638e-05
3.0897e-05
3.08781e-05
3.08979e-05
3.09207e-05
3.08919e-05
3.08683e-05
3.0903e-05
3.0883e-05
3.29801e-05
3.29941e-05
3.30122e-05
3.30262e-05
3.30253e-05
3.30262e-05
3.30079e-05
3.2972e-05
3.29847e-05
3.30129e-05
3.29911e-05
3.30061e-05
3.29947e-05
3.29731e-05
3.2987e-05
3.30152e-05
3.29917e-05
3.30019e-05
3.30207e-05
3.30046e-05
3.29823e-05
3.29622e-05
3.29861e-05
3.30072e-05
3.30201e-05
3.30268e-05
3.30254e-05
3.30264e-05
3.29975e-05
3.30101e-05
3.29874e-05
3.29962e-05
3.3016e-05
3.29986e-05
3.29715e-05
3.29834e-05
3.30076e-05
3.30239e-05
3.29968e-05
3.30094e-05
3.29859e-05
3.30028e-05
3.29853e-05
3.30027e-05
3.30129e-05
3.30192e-05
3.30209e-05
3.30232e-05
3.30204e-05
3.30257e-05
3.30081e-05
3.2974e-05
3.29951e-05
3.29817e-05
3.29938e-05
3.30147e-05
3.29992e-05
3.29739e-05
3.29977e-05
3.29859e-05
3.35897e-05
3.35954e-05
3.36051e-05
3.36202e-05
3.36222e-05
3.3624e-05
3.36144e-05
3.35884e-05
3.3588e-05
3.3605e-05
3.35947e-05
3.36039e-05
3.35982e-05
3.35837e-05
3.35874e-05
3.36068e-05
3.35957e-05
3.36e-05
3.36135e-05
3.36072e-05
3.35954e-05
3.35735e-05
3.35846e-05
3.35999e-05
3.36116e-05
3.36226e-05
3.36226e-05
3.3625e-05
3.36053e-05
3.36118e-05
3.35969e-05
3.35986e-05
3.36106e-05
3.36034e-05
3.35837e-05
3.35862e-05
3.35968e-05
3.36171e-05
3.36011e-05
3.36098e-05
3.35925e-05
3.36025e-05
3.35899e-05
3.3601e-05
3.36089e-05
3.36158e-05
3.36181e-05
3.36217e-05
3.36191e-05
3.36212e-05
3.36134e-05
3.35878e-05
3.35965e-05
3.35871e-05
3.35929e-05
3.36072e-05
3.36016e-05
3.35831e-05
3.35952e-05
3.35895e-05
3.34612e-05
3.34635e-05
3.3467e-05
3.34778e-05
3.34822e-05
3.34851e-05
3.34809e-05
3.34672e-05
3.34583e-05
3.34669e-05
3.34622e-05
3.34677e-05
3.34649e-05
3.34575e-05
3.34559e-05
3.34665e-05
3.34628e-05
3.34646e-05
3.34727e-05
3.3471e-05
3.3467e-05
3.34513e-05
3.34539e-05
3.34613e-05
3.34695e-05
3.3481e-05
3.34825e-05
3.34867e-05
3.34748e-05
3.34778e-05
3.34691e-05
3.3467e-05
3.34725e-05
3.34702e-05
3.34593e-05
3.34569e-05
3.34591e-05
3.34741e-05
3.34671e-05
3.34741e-05
3.34627e-05
3.34684e-05
3.34593e-05
3.34657e-05
3.34707e-05
3.3477e-05
3.34793e-05
3.34837e-05
3.34823e-05
3.3482e-05
3.34793e-05
3.34636e-05
3.34652e-05
3.34578e-05
3.346e-05
3.34671e-05
3.34664e-05
3.34559e-05
3.34606e-05
3.34575e-05
3.29526e-05
3.29535e-05
3.29539e-05
3.29595e-05
3.29641e-05
3.29679e-05
3.29664e-05
3.29615e-05
3.29515e-05
3.29543e-05
3.29515e-05
3.29547e-05
3.29528e-05
3.29504e-05
3.29469e-05
3.29518e-05
3.29511e-05
3.29519e-05
3.29562e-05
3.29559e-05
3.29562e-05
3.29481e-05
3.29464e-05
3.29486e-05
3.29529e-05
3.2962e-05
3.29642e-05
3.29694e-05
3.29632e-05
3.29648e-05
3.29602e-05
3.29571e-05
3.29587e-05
3.2958e-05
3.29529e-05
3.29502e-05
3.29473e-05
3.29564e-05
3.29538e-05
3.29597e-05
3.2953e-05
3.29566e-05
3.29502e-05
3.29536e-05
3.2956e-05
3.29608e-05
3.2963e-05
3.29671e-05
3.29671e-05
3.2966e-05
3.29651e-05
3.29572e-05
3.29561e-05
3.29495e-05
3.29503e-05
3.29522e-05
3.29531e-05
3.29479e-05
3.29493e-05
3.2947e-05
3.22348e-05
3.2235e-05
3.22342e-05
3.22365e-05
3.22395e-05
3.22432e-05
3.22429e-05
3.2242e-05
3.22361e-05
3.22354e-05
3.22326e-05
3.22345e-05
3.22326e-05
3.22325e-05
3.22303e-05
3.22313e-05
3.22313e-05
3.22317e-05
3.22337e-05
3.22337e-05
3.22357e-05
3.22323e-05
3.22299e-05
3.22301e-05
3.22317e-05
3.22369e-05
3.22391e-05
3.22442e-05
3.22417e-05
3.2243e-05
3.22408e-05
3.22386e-05
3.22378e-05
3.22375e-05
3.22354e-05
3.22339e-05
3.22293e-05
3.22342e-05
3.2233e-05
3.22377e-05
3.2234e-05
3.22366e-05
3.22323e-05
3.22341e-05
3.22351e-05
3.22377e-05
3.22399e-05
3.22428e-05
3.2244e-05
3.22428e-05
3.22425e-05
3.22393e-05
3.22379e-05
3.22325e-05
3.22328e-05
3.2232e-05
3.22327e-05
3.22302e-05
3.22303e-05
3.22284e-05
3.13909e-05
3.13909e-05
3.13896e-05
3.13903e-05
3.13915e-05
3.13944e-05
3.13943e-05
3.13955e-05
3.13928e-05
3.13913e-05
3.13882e-05
3.13894e-05
3.13877e-05
3.13885e-05
3.13875e-05
3.13864e-05
3.13866e-05
3.13866e-05
3.13873e-05
3.13872e-05
3.13894e-05
3.13884e-05
3.13869e-05
3.13861e-05
3.13867e-05
3.13892e-05
3.13907e-05
3.13946e-05
3.1394e-05
3.13955e-05
3.13945e-05
3.13938e-05
3.13922e-05
3.13919e-05
3.1391e-05
3.13905e-05
3.13867e-05
3.13888e-05
3.13878e-05
3.13911e-05
3.13891e-05
3.13911e-05
3.13884e-05
3.13895e-05
3.13897e-05
3.13909e-05
3.13926e-05
3.13941e-05
3.1396e-05
3.13951e-05
3.1395e-05
3.13939e-05
3.13931e-05
3.13893e-05
3.13895e-05
3.13878e-05
3.13877e-05
3.13863e-05
3.1386e-05
3.13842e-05
3.04628e-05
3.04628e-05
3.04614e-05
3.04611e-05
3.04614e-05
3.0463e-05
3.0463e-05
3.04647e-05
3.04637e-05
3.04625e-05
3.046e-05
3.04607e-05
3.04593e-05
3.046e-05
3.04596e-05
3.04583e-05
3.0458e-05
3.04578e-05
3.0458e-05
3.04576e-05
3.04593e-05
3.04592e-05
3.04587e-05
3.0458e-05
3.04583e-05
3.04592e-05
3.046e-05
3.04626e-05
3.04626e-05
3.04643e-05
3.04639e-05
3.04641e-05
3.04631e-05
3.04626e-05
3.0462e-05
3.04623e-05
3.04597e-05
3.04603e-05
3.04593e-05
3.04614e-05
3.04602e-05
3.04617e-05
3.04601e-05
3.04608e-05
3.04608e-05
3.04613e-05
3.04624e-05
3.0463e-05
3.04647e-05
3.04642e-05
3.0464e-05
3.04637e-05
3.04638e-05
3.04614e-05
3.04616e-05
3.046e-05
3.04593e-05
3.04579e-05
3.04576e-05
3.04563e-05
2.94726e-05
2.94726e-05
2.94712e-05
2.94705e-05
2.94701e-05
2.94709e-05
2.94708e-05
2.94722e-05
2.9472e-05
2.94713e-05
2.94695e-05
2.947e-05
2.9469e-05
2.94694e-05
2.94693e-05
2.94683e-05
2.94677e-05
2.94673e-05
2.94671e-05
2.94664e-05
2.94678e-05
2.94678e-05
2.94678e-05
2.94678e-05
2.94679e-05
2.94681e-05
2.94685e-05
2.94699e-05
2.94699e-05
2.94716e-05
2.94716e-05
2.94723e-05
2.94716e-05
2.94711e-05
2.94711e-05
2.94716e-05
2.94698e-05
2.94699e-05
2.9469e-05
2.94702e-05
2.94694e-05
2.94706e-05
2.94696e-05
2.94701e-05
2.94701e-05
2.94703e-05
2.9471e-05
2.94712e-05
2.94723e-05
2.94721e-05
2.94716e-05
2.9472e-05
2.94722e-05
2.94708e-05
2.94712e-05
2.947e-05
2.9469e-05
2.94677e-05
2.94674e-05
2.94663e-05
2.84331e-05
2.8433e-05
2.84319e-05
2.84309e-05
2.84302e-05
2.84305e-05
2.84302e-05
2.84312e-05
2.84312e-05
2.84308e-05
2.84297e-05
2.84301e-05
2.84293e-05
2.84295e-05
2.84296e-05
2.84289e-05
2.84283e-05
2.84277e-05
2.84274e-05
2.84265e-05
2.84275e-05
2.84275e-05
2.8428e-05
2.8428e-05
2.84281e-05
2.84281e-05
2.84284e-05
2.8429e-05
2.84291e-05
2.84304e-05
2.84304e-05
2.84313e-05
2.84309e-05
2.84307e-05
2.84308e-05
2.84313e-05
2.84302e-05
2.84301e-05
2.84292e-05
2.84301e-05
2.84296e-05
2.84305e-05
2.84299e-05
2.84303e-05
2.84303e-05
2.84303e-05
2.84308e-05
2.84308e-05
2.84315e-05
2.84313e-05
2.84309e-05
2.84312e-05
2.84316e-05
2.84307e-05
2.84312e-05
2.84305e-05
2.84295e-05
2.84284e-05
2.84281e-05
2.84272e-05
2.73528e-05
2.73527e-05
2.73518e-05
2.73508e-05
2.73499e-05
2.73498e-05
2.73492e-05
2.735e-05
2.735e-05
2.73498e-05
2.73491e-05
2.73494e-05
2.7349e-05
2.73488e-05
2.73492e-05
2.73486e-05
2.73482e-05
2.73476e-05
2.73472e-05
2.73463e-05
2.7347e-05
2.73471e-05
2.73474e-05
2.73474e-05
2.73476e-05
2.73477e-05
2.73478e-05
2.73482e-05
2.73482e-05
2.73491e-05
2.73491e-05
2.73499e-05
2.73497e-05
2.73496e-05
2.73498e-05
2.73503e-05
2.73496e-05
2.73494e-05
2.73488e-05
2.73495e-05
2.73492e-05
2.73499e-05
2.73494e-05
2.73498e-05
2.73497e-05
2.73498e-05
2.73501e-05
2.73501e-05
2.73505e-05
2.73503e-05
2.73499e-05
2.73501e-05
2.73506e-05
2.735e-05
2.73505e-05
2.73501e-05
2.73492e-05
2.73483e-05
2.73481e-05
2.73473e-05
2.62383e-05
2.62382e-05
2.62375e-05
2.62366e-05
2.62356e-05
2.62353e-05
2.62346e-05
2.62351e-05
2.62351e-05
2.6235e-05
2.62345e-05
2.62348e-05
2.62344e-05
2.62343e-05
2.62346e-05
2.62343e-05
2.62339e-05
2.62333e-05
2.62329e-05
2.62321e-05
2.62327e-05
2.62327e-05
2.62329e-05
2.6233e-05
2.62331e-05
2.62331e-05
2.62332e-05
2.62336e-05
2.62335e-05
2.62342e-05
2.62342e-05
2.62349e-05
2.62347e-05
2.62346e-05
2.62348e-05
2.62353e-05
2.62348e-05
2.62347e-05
2.62342e-05
2.62348e-05
2.62346e-05
2.62352e-05
2.62349e-05
2.62352e-05
2.62352e-05
2.62352e-05
2.62354e-05
2.62355e-05
2.62357e-05
2.62355e-05
2.62351e-05
2.62353e-05
2.62357e-05
2.62353e-05
2.62357e-05
2.62354e-05
2.62348e-05
2.62341e-05
2.62339e-05
2.62333e-05
2.50954e-05
2.50953e-05
2.50947e-05
2.50939e-05
2.5093e-05
2.50927e-05
2.50919e-05
2.50922e-05
2.50922e-05
2.50921e-05
2.50916e-05
2.50919e-05
2.50916e-05
2.50915e-05
2.50918e-05
2.50915e-05
2.50912e-05
2.50907e-05
2.50904e-05
2.50897e-05
2.50901e-05
2.50901e-05
2.50902e-05
2.50902e-05
2.50904e-05
2.50904e-05
2.50904e-05
2.50908e-05
2.50907e-05
2.50913e-05
2.50913e-05
2.50918e-05
2.50916e-05
2.50915e-05
2.50917e-05
2.50921e-05
2.50918e-05
2.50916e-05
2.50912e-05
2.50917e-05
2.50917e-05
2.50922e-05
2.50921e-05
2.50923e-05
2.50923e-05
2.50923e-05
2.50925e-05
2.50925e-05
2.50927e-05
2.50925e-05
2.50922e-05
2.50923e-05
2.50926e-05
2.50923e-05
2.50927e-05
2.50925e-05
2.50921e-05
2.50915e-05
2.50913e-05
2.50908e-05
2.39294e-05
2.39293e-05
2.39289e-05
2.39282e-05
2.39274e-05
2.39271e-05
2.39264e-05
2.39266e-05
2.39266e-05
2.39264e-05
2.3926e-05
2.39262e-05
2.3926e-05
2.39258e-05
2.39261e-05
2.39259e-05
2.39256e-05
2.39252e-05
2.39249e-05
2.39243e-05
2.39246e-05
2.39247e-05
2.39247e-05
2.39247e-05
2.39247e-05
2.39248e-05
2.39248e-05
2.39251e-05
2.39251e-05
2.39255e-05
2.39256e-05
2.39259e-05
2.39258e-05
2.39257e-05
2.39258e-05
2.39261e-05
2.3926e-05
2.39257e-05
2.39254e-05
2.39259e-05
2.39259e-05
2.39263e-05
2.39263e-05
2.39265e-05
2.39265e-05
2.39265e-05
2.39266e-05
2.39266e-05