/*--------------------------------*- C++ -*----------------------------------*\
| =========                 |                                                 |
| \\      /  F ield         | OpenFOAM: The Open Source CFD Toolbox           |
|  \\    /   O peration     | Version:  2312                                  |
|   \\  /    A nd           | Website:  www.openfoam.com                      |
|    \\/     M anipulation  |                                                 |
\*---------------------------------------------------------------------------*/
FoamFile
{
    version     2.0;
    format      ascii;
    arch        "LSB;label=32;scalar=64";
    class       volScalarField;
    location    "400";
    object      k_0;
}
// * * * * * * * * * * * * * * * * * * * * * * * * * * * * * * * * * * * * * //

dimensions      [0 2 -2 0 0 0 0];

internalField   nonuniform List<scalar> 
144000
(
1.25619e-05
1.25595e-05
1.25648e-05
1.25585e-05
1.26096e-05
1.25604e-05
1.26128e-05
1.26064e-05
1.26119e-05
1.25656e-05
1.25629e-05
1.25614e-05
1.25655e-05
1.25621e-05
1.26086e-05
1.26081e-05
1.25626e-05
1.25646e-05
1.25632e-05
1.26084e-05
1.26068e-05
1.25661e-05
1.25634e-05
1.26123e-05
1.25655e-05
1.25611e-05
1.26087e-05
1.25642e-05
1.25608e-05
1.26058e-05
1.25556e-05
1.26129e-05
1.25649e-05
1.26135e-05
1.26078e-05
1.26152e-05
1.25689e-05
1.26151e-05
1.25679e-05
1.25652e-05
1.26128e-05
1.2559e-05
1.25664e-05
1.25627e-05
1.26121e-05
1.2609e-05
1.25635e-05
1.25689e-05
1.25622e-05
1.25651e-05
1.25582e-05
1.26053e-05
1.25602e-05
1.25682e-05
1.26072e-05
1.26107e-05
1.25623e-05
1.25654e-05
1.25601e-05
1.25586e-05
2.56121e-05
2.56088e-05
2.56153e-05
2.56122e-05
2.55812e-05
2.56009e-05
2.55848e-05
2.5568e-05
2.55671e-05
2.55982e-05
2.56101e-05
2.56093e-05
2.56143e-05
2.56135e-05
2.55858e-05
2.55697e-05
2.55955e-05
2.56096e-05
2.56152e-05
2.5586e-05
2.55633e-05
2.55947e-05
2.56114e-05
2.55832e-05
2.56044e-05
2.56127e-05
2.55816e-05
2.56035e-05
2.56118e-05
2.558e-05
2.55953e-05
2.55773e-05
2.56032e-05
2.55855e-05
2.55692e-05
2.55699e-05
2.56043e-05
2.55843e-05
2.56042e-05
2.56141e-05
2.55872e-05
2.55989e-05
2.56126e-05
2.56129e-05
2.5588e-05
2.55713e-05
2.55949e-05
2.56152e-05
2.56135e-05
2.56175e-05
2.56141e-05
2.55784e-05
2.55946e-05
2.56165e-05
2.55847e-05
2.55711e-05
2.55959e-05
2.56092e-05
2.56112e-05
2.56088e-05
3.09354e-05
3.09313e-05
3.09347e-05
3.09366e-05
3.08975e-05
3.09176e-05
3.0897e-05
3.08791e-05
3.08694e-05
3.09034e-05
3.09262e-05
3.09281e-05
3.09322e-05
3.09348e-05
3.09045e-05
3.08796e-05
3.09058e-05
3.09231e-05
3.09349e-05
3.09056e-05
3.08725e-05
3.08999e-05
3.09268e-05
3.08944e-05
3.09155e-05
3.09333e-05
3.0897e-05
3.09169e-05
3.09328e-05
3.0898e-05
3.09153e-05
3.08862e-05
3.09145e-05
3.08959e-05
3.08788e-05
3.08703e-05
3.09096e-05
3.08907e-05
3.09127e-05
3.09303e-05
3.09004e-05
3.09159e-05
3.09281e-05
3.0933e-05
3.09037e-05
3.0881e-05
3.09038e-05
3.09273e-05
3.0933e-05
3.0937e-05
3.09399e-05
3.08987e-05
3.09099e-05
3.09312e-05
3.09029e-05
3.08789e-05
3.09065e-05
3.09223e-05
3.09321e-05
3.09314e-05
3.30381e-05
3.30347e-05
3.30342e-05
3.30388e-05
3.30086e-05
3.30195e-05
3.30041e-05
3.29907e-05
3.29752e-05
3.29965e-05
3.30213e-05
3.3027e-05
3.30296e-05
3.30347e-05
3.30151e-05
3.29895e-05
3.30047e-05
3.30181e-05
3.30324e-05
3.30159e-05
3.29847e-05
3.29969e-05
3.30221e-05
3.3e-05
3.30113e-05
3.30317e-05
3.30061e-05
3.30154e-05
3.30322e-05
3.30086e-05
3.30203e-05
3.29945e-05
3.30119e-05
3.30005e-05
3.29885e-05
3.29743e-05
3.3002e-05
3.2992e-05
3.30065e-05
3.30257e-05
3.30061e-05
3.3017e-05
3.30248e-05
3.30326e-05
3.30123e-05
3.29903e-05
3.30022e-05
3.30201e-05
3.30307e-05
3.3034e-05
3.30418e-05
3.30126e-05
3.30144e-05
3.30265e-05
3.30122e-05
3.29875e-05
3.3005e-05
3.30174e-05
3.30308e-05
3.30319e-05
3.36363e-05
3.36345e-05
3.36312e-05
3.36361e-05
3.36167e-05
3.36208e-05
3.36099e-05
3.3602e-05
3.35859e-05
3.3595e-05
3.36139e-05
3.36226e-05
3.36244e-05
3.36302e-05
3.36205e-05
3.36002e-05
3.36063e-05
3.36135e-05
3.3626e-05
3.36192e-05
3.35985e-05
3.36003e-05
3.36156e-05
3.36043e-05
3.3609e-05
3.36252e-05
3.36118e-05
3.36149e-05
3.36273e-05
3.36147e-05
3.36229e-05
3.36038e-05
3.36113e-05
3.36042e-05
3.35981e-05
3.35836e-05
3.35988e-05
3.35941e-05
3.36022e-05
3.36187e-05
3.36088e-05
3.36163e-05
3.362e-05
3.36284e-05
3.36172e-05
3.35999e-05
3.36042e-05
3.36133e-05
3.36249e-05
3.36275e-05
3.36368e-05
3.36214e-05
3.36182e-05
3.36223e-05
3.36164e-05
3.35981e-05
3.36062e-05
3.36129e-05
3.36253e-05
3.36276e-05
3.34977e-05
3.34974e-05
3.34938e-05
3.34973e-05
3.3486e-05
3.34869e-05
3.34789e-05
3.34746e-05
3.34622e-05
3.34642e-05
3.34735e-05
3.34831e-05
3.34845e-05
3.34898e-05
3.34859e-05
3.34736e-05
3.34747e-05
3.34772e-05
3.3485e-05
3.34833e-05
3.34739e-05
3.347e-05
3.34775e-05
3.34724e-05
3.34739e-05
3.34842e-05
3.34791e-05
3.34798e-05
3.34875e-05
3.34818e-05
3.34883e-05
3.34761e-05
3.34777e-05
3.34724e-05
3.34697e-05
3.34588e-05
3.34651e-05
3.34621e-05
3.34664e-05
3.34778e-05
3.34741e-05
3.34801e-05
3.34816e-05
3.34884e-05
3.34834e-05
3.34723e-05
3.34732e-05
3.34758e-05
3.34842e-05
3.34864e-05
3.34948e-05
3.34889e-05
3.3486e-05
3.34852e-05
3.34828e-05
3.34715e-05
3.34742e-05
3.34767e-05
3.34848e-05
3.34875e-05
3.29809e-05
3.29816e-05
3.29787e-05
3.29808e-05
3.29745e-05
3.29743e-05
3.29682e-05
3.2966e-05
3.29584e-05
3.29564e-05
3.29596e-05
3.29668e-05
3.29679e-05
3.29722e-05
3.29711e-05
3.29654e-05
3.29647e-05
3.29648e-05
3.29683e-05
3.29683e-05
3.29659e-05
3.29613e-05
3.2964e-05
3.29617e-05
3.29619e-05
3.29672e-05
3.29664e-05
3.29665e-05
3.2971e-05
3.29688e-05
3.29741e-05
3.29673e-05
3.29667e-05
3.29618e-05
3.2961e-05
3.29542e-05
3.29558e-05
3.29529e-05
3.29549e-05
3.29614e-05
3.29605e-05
3.29656e-05
3.29662e-05
3.29712e-05
3.29692e-05
3.29637e-05
3.29638e-05
3.29633e-05
3.29677e-05
3.29691e-05
3.29754e-05
3.29742e-05
3.29739e-05
3.29712e-05
3.29701e-05
3.29637e-05
3.29644e-05
3.29646e-05
3.29684e-05
3.29707e-05
3.22568e-05
3.22581e-05
3.22559e-05
3.22569e-05
3.22533e-05
3.2253e-05
3.22485e-05
3.22473e-05
3.22434e-05
3.22401e-05
3.22406e-05
3.22443e-05
3.2245e-05
3.2248e-05
3.2248e-05
3.22462e-05
3.22457e-05
3.22447e-05
3.22458e-05
3.22458e-05
3.2246e-05
3.22438e-05
3.22438e-05
3.22424e-05
3.22422e-05
3.22443e-05
3.22449e-05
3.2245e-05
3.22476e-05
3.22471e-05
3.22512e-05
3.2248e-05
3.22472e-05
3.22429e-05
3.22428e-05
3.22392e-05
3.22387e-05
3.22357e-05
3.22365e-05
3.22396e-05
3.22394e-05
3.22435e-05
3.22438e-05
3.22472e-05
3.22466e-05
3.22446e-05
3.2245e-05
3.22435e-05
3.22456e-05
3.22461e-05
3.22498e-05
3.22502e-05
3.22521e-05
3.22495e-05
3.22489e-05
3.22456e-05
3.22456e-05
3.22451e-05
3.22464e-05
3.22478e-05
3.14088e-05
3.14097e-05
3.14082e-05
3.14084e-05
3.14063e-05
3.1406e-05
3.14028e-05
3.14021e-05
3.14002e-05
3.13976e-05
3.13965e-05
3.13983e-05
3.13984e-05
3.14001e-05
3.14002e-05
3.14002e-05
3.14003e-05
3.13996e-05
3.13993e-05
3.13988e-05
3.14e-05
3.13993e-05
3.13986e-05
3.13972e-05
3.13973e-05
3.13976e-05
3.13984e-05
3.13986e-05
3.14e-05
3.14e-05
3.14031e-05
3.14018e-05
3.14015e-05
3.13984e-05
3.13987e-05
3.13967e-05
3.13959e-05
3.13929e-05
3.13931e-05
3.13941e-05
3.13938e-05
3.13969e-05
3.1397e-05
3.13991e-05
3.13991e-05
3.13988e-05
3.13998e-05
3.13983e-05
3.13993e-05
3.13993e-05
3.1401e-05
3.14015e-05
3.14043e-05
3.14023e-05
3.1402e-05
3.14005e-05
3.14007e-05
3.14e-05
3.14002e-05
3.14009e-05
3.04779e-05
3.04781e-05
3.04771e-05
3.04768e-05
3.0475e-05
3.0475e-05
3.04728e-05
3.04724e-05
3.04713e-05
3.04699e-05
3.04684e-05
3.04692e-05
3.04691e-05
3.04696e-05
3.04696e-05
3.04699e-05
3.04705e-05
3.04701e-05
3.04694e-05
3.04686e-05
3.04699e-05
3.04699e-05
3.04694e-05
3.04682e-05
3.04685e-05
3.04683e-05
3.04685e-05
3.04687e-05
3.04693e-05
3.04693e-05
3.04716e-05
3.04712e-05
3.04715e-05
3.04696e-05
3.04699e-05
3.04688e-05
3.04681e-05
3.04657e-05
3.04655e-05
3.04657e-05
3.04651e-05
3.04671e-05
3.04671e-05
3.04683e-05
3.04683e-05
3.04686e-05
3.04699e-05
3.0469e-05
3.04695e-05
3.04693e-05
3.047e-05
3.04702e-05
3.04726e-05
3.04714e-05
3.04712e-05
3.04707e-05
3.04711e-05
3.04707e-05
3.04703e-05
3.04707e-05
2.94855e-05
2.94855e-05
2.94844e-05
2.94838e-05
2.94822e-05
2.94822e-05
2.94807e-05
2.94804e-05
2.94798e-05
2.94791e-05
2.94779e-05
2.94784e-05
2.94781e-05
2.9478e-05
2.94777e-05
2.94779e-05
2.94787e-05
2.94784e-05
2.94779e-05
2.94769e-05
2.9478e-05
2.94781e-05
2.9478e-05
2.94773e-05
2.94776e-05
2.94773e-05
2.9477e-05
2.94773e-05
2.94773e-05
2.94774e-05
2.9479e-05
2.94789e-05
2.94793e-05
2.94782e-05
2.94786e-05
2.94781e-05
2.94776e-05
2.94757e-05
2.94758e-05
2.94757e-05
2.94747e-05
2.9476e-05
2.9476e-05
2.94765e-05
2.94765e-05
2.94767e-05
2.94781e-05
2.94775e-05
2.94779e-05
2.94776e-05
2.94779e-05
2.94779e-05
2.94797e-05
2.94789e-05
2.94786e-05
2.94787e-05
2.94791e-05
2.9479e-05
2.94787e-05
2.9479e-05
2.84442e-05
2.8444e-05
2.84429e-05
2.84422e-05
2.84407e-05
2.84406e-05
2.84395e-05
2.84392e-05
2.84388e-05
2.84386e-05
2.8438e-05
2.84384e-05
2.8438e-05
2.84376e-05
2.8437e-05
2.84372e-05
2.84378e-05
2.84377e-05
2.84373e-05
2.84364e-05
2.84371e-05
2.84374e-05
2.84374e-05
2.8437e-05
2.84374e-05
2.8437e-05
2.84366e-05
2.84368e-05
2.84368e-05
2.84366e-05
2.84377e-05
2.84377e-05
2.84381e-05
2.84374e-05
2.84379e-05
2.84376e-05
2.84374e-05
2.84363e-05
2.84364e-05
2.84362e-05
2.84352e-05
2.84361e-05
2.8436e-05
2.84361e-05
2.8436e-05
2.8436e-05
2.84372e-05
2.84369e-05
2.84372e-05
2.8437e-05
2.84369e-05
2.84367e-05
2.84381e-05
2.84376e-05
2.84373e-05
2.84375e-05
2.8438e-05
2.8438e-05
2.8438e-05
2.84381e-05
2.73622e-05
2.7362e-05
2.7361e-05
2.73603e-05
2.73588e-05
2.73587e-05
2.73578e-05
2.73575e-05
2.73573e-05
2.73574e-05
2.73572e-05
2.73575e-05
2.73572e-05
2.73567e-05
2.7356e-05
2.73559e-05
2.73566e-05
2.73565e-05
2.73562e-05
2.73554e-05
2.73559e-05
2.73561e-05
2.73561e-05
2.73559e-05
2.73563e-05
2.73561e-05
2.73557e-05
2.73559e-05
2.73557e-05
2.73554e-05
2.73562e-05
2.73561e-05
2.73565e-05
2.7356e-05
2.73565e-05
2.73564e-05
2.73565e-05
2.73558e-05
2.73559e-05
2.73558e-05
2.73549e-05
2.73555e-05
2.73554e-05
2.73552e-05
2.73548e-05
2.73549e-05
2.73558e-05
2.73557e-05
2.7356e-05
2.73558e-05
2.73556e-05
2.73553e-05
2.73564e-05
2.7356e-05
2.73557e-05
2.73559e-05
2.73563e-05
2.73564e-05
2.73564e-05
2.73565e-05
2.62462e-05
2.6246e-05
2.62452e-05
2.62445e-05
2.62432e-05
2.6243e-05
2.62422e-05
2.62419e-05
2.62421e-05
2.62421e-05
2.6242e-05
2.62423e-05
2.62421e-05
2.62416e-05
2.62409e-05
2.62408e-05
2.62413e-05
2.62413e-05
2.6241e-05
2.62404e-05
2.62408e-05
2.62409e-05
2.62408e-05
2.62408e-05
2.62411e-05
2.6241e-05
2.62406e-05
2.62408e-05
2.62406e-05
2.62402e-05
2.62408e-05
2.62408e-05
2.62411e-05
2.62407e-05
2.62411e-05
2.62411e-05
2.62412e-05
2.62409e-05
2.6241e-05
2.62409e-05
2.62403e-05
2.62407e-05
2.62406e-05
2.62403e-05
2.62399e-05
2.62398e-05
2.62406e-05
2.62406e-05
2.62408e-05
2.62406e-05
2.62403e-05
2.624e-05
2.62409e-05
2.62407e-05
2.62403e-05
2.62405e-05
2.62407e-05
2.62407e-05
2.62408e-05
2.62409e-05
2.5102e-05
2.51018e-05
2.51012e-05
2.51006e-05
2.50994e-05
2.50992e-05
2.50984e-05
2.50982e-05
2.50984e-05
2.50983e-05
2.50983e-05
2.50986e-05
2.50985e-05
2.50982e-05
2.50975e-05
2.50974e-05
2.50978e-05
2.50978e-05
2.50976e-05
2.5097e-05
2.50973e-05
2.50973e-05
2.50973e-05
2.50973e-05
2.50976e-05
2.50975e-05
2.50973e-05
2.50974e-05
2.50973e-05
2.50969e-05
2.50973e-05
2.50973e-05
2.50975e-05
2.50971e-05
2.50974e-05
2.50974e-05
2.50976e-05
2.50974e-05
2.50975e-05
2.50975e-05
2.50971e-05
2.50974e-05
2.50973e-05
2.50971e-05
2.50966e-05
2.50965e-05
2.50971e-05
2.50971e-05
2.50973e-05
2.50972e-05
2.50969e-05
2.50966e-05
2.50973e-05
2.50971e-05
2.50968e-05
2.50969e-05
2.50971e-05
2.50971e-05
2.50971e-05
2.50972e-05
2.3935e-05
2.39349e-05
2.39343e-05
2.39338e-05
2.39327e-05
2.39325e-05
2.39319e-05
2.39316e-05
2.39318e-05
2.39318e-05
2.39318e-05
2.3932e-05
2.3932e-05
2.39317e-05
2.39313e-05
2.39311e-05
2.39314e-05
2.39314e-05
2.39312e-05
2.39308e-05
2.3931e-05
2.39311e-05
2.39311e-05
2.3931e-05
2.39312e-05
2.39312e-05
2.3931e-05
2.39311e-05
2.3931e-05
2.39306e-05
2.39309e-05
2.39309e-05
2.3931e-05
2.39308e-05
2.3931e-05
2.3931e-05
2.39311e-05
2.3931e-05
2.39311e-05
2.39311e-05
2.39309e-05
2.39311e-05
2.39311e-05
2.39309e-05
2.39305e-05
2.39303e-05
2.39309e-05
2.39309e-05
2.3931e-05
2.39309e-05
2.39307e-05
2.39304e-05
2.39309e-05
2.39308e-05
2.39305e-05
2.39305e-05
2.39307e-05
2.39307e-05
2.39307e-05
2.39308e-05
2.27505e-05
2.27504e-05
2.275e-05
2.27495e-05
2.27486e-05
2.27484e-05
2.27479e-05
2.27476e-05
2.27478e-05
2.27478e-05
2.27478e-05
2.2748e-05
2.2748e-05
2.27478e-05
2.27475e-05
2.27473e-05
2.27476e-05
2.27475e-05
2.27474e-05
2.2747e-05
2.27472e-05
2.27473e-05
2.27472e-05
2.27472e-05
2.27474e-05
2.27474e-05
2.27472e-05
2.27473e-05
2.27471e-05
2.27468e-05
2.2747e-05
2.2747e-05
2.27471e-05
2.27469e-05
2.2747e-05
2.2747e-05
2.27472e-05
2.27471e-05
2.27472e-05
2.27472e-05
2.2747e-05
2.27473e-05
2.27472e-05
2.27471e-05
2.27468e-05
2.27467e-05
2.27471e-05
2.27471e-05
2.27472e-05
2.27471e-05
2.27469e-05
2.27466e-05
2.2747e-05
2.2747e-05
2.27467e-05
2.27468e-05
2.27469e-05
2.27469e-05
2.27469e-05
2.27469e-05
2.15541e-05
2.1554e-05
2.15536e-05
2.15532e-05
2.15525e-05
2.15523e-05
2.15518e-05
2.15516e-05
2.15517e-05
2.15517e-05
2.15517e-05
2.15519e-05
2.15519e-05
2.15518e-05
2.15516e-05
2.15514e-05
2.15516e-05
2.15516e-05
2.15515e-05
2.15512e-05
2.15514e-05
2.15513e-05
2.15514e-05
2.15513e-05
2.15515e-05
2.15515e-05
2.15514e-05
2.15513e-05
2.15511e-05
2.15508e-05
2.1551e-05
2.1551e-05
2.15511e-05
2.1551e-05
2.1551e-05
2.1551e-05
2.15512e-05
2.15512e-05
2.15511e-05
2.15512e-05
2.15511e-05
2.15513e-05
2.15513e-05
2.15512e-05
2.15511e-05
2.15509e-05
2.15513e-05
2.15513e-05
2.15513e-05
2.15512e-05
2.15511e-05
2.15508e-05
2.15512e-05
2.15511e-05
2.1551e-05
2.15509e-05
2.1551e-05
2.1551e-05
2.15511e-05
2.15511e-05
2.03511e-05
2.03511e-05
2.03508e-05
2.03505e-05
2.03499e-05
2.03498e-05
2.03494e-05
2.03492e-05
2.03493e-05
2.03493e-05
2.03493e-05
2.03494e-05
2.03494e-05
2.03493e-05
2.03491e-05
2.0349e-05
2.03492e-05
2.03492e-05
2.03491e-05
2.03489e-05
2.0349e-05
2.0349e-05
2.0349e-05
2.0349e-05
2.03491e-05
2.03491e-05
2.0349e-05
2.03489e-05
2.03487e-05
2.03484e-05
2.03486e-05
2.03485e-05
2.03487e-05
2.03486e-05
2.03485e-05
2.03486e-05
2.03487e-05
2.03487e-05
2.03487e-05
2.03488e-05
2.03487e-05
2.03489e-05
2.03489e-05
2.03488e-05
2.03487e-05
2.03486e-05
2.03489e-05
2.03489e-05
2.03489e-05
2.03489e-05
2.03488e-05
2.03486e-05
2.03488e-05
2.03488e-05
2.03486e-05
2.03487e-05
2.03487e-05
2.03487e-05
2.03487e-05
2.03487e-05
1.91476e-05
1.91475e-05
1.91473e-05
1.91471e-05
1.91466e-05
1.91465e-05
1.91462e-05
1.91461e-05
1.91461e-05
1.91461e-05
1.91461e-05
1.91462e-05
1.91462e-05
1.91462e-05
1.91461e-05
1.91459e-05
1.91461e-05
1.91461e-05
1.9146e-05
1.91459e-05
1.91459e-05
1.91459e-05
1.91459e-05
1.91459e-05
1.9146e-05
1.9146e-05
1.91459e-05
1.91459e-05
1.91457e-05
1.91454e-05
1.91455e-05
1.91455e-05
1.91456e-05
1.91455e-05
1.91456e-05
1.91456e-05
1.91457e-05
1.91457e-05
1.91456e-05
1.91457e-05
1.91457e-05
1.91458e-05
1.91458e-05
1.91457e-05
1.91457e-05
1.91457e-05
1.91459e-05
1.91459e-05
1.91459e-05
1.91459e-05
1.91458e-05
1.91456e-05
1.91458e-05
1.91458e-05
1.91457e-05
1.91456e-05
1.91457e-05
1.91457e-05
1.91458e-05
1.91458e-05
1.79494e-05
1.79494e-05
1.79493e-05
1.79491e-05
1.79488e-05
1.79487e-05
1.79485e-05
1.79484e-05
1.79484e-05
1.79484e-05
1.79484e-05
1.79485e-05
1.79485e-05
1.79485e-05
1.79484e-05
1.79483e-05
1.79484e-05
1.79484e-05
1.79484e-05
1.79483e-05
1.79483e-05
1.79483e-05
1.79483e-05
1.79483e-05
1.79484e-05
1.79484e-05
1.79483e-05
1.79483e-05
1.79481e-05
1.79479e-05
1.7948e-05
1.7948e-05
1.7948e-05
1.7948e-05
1.7948e-05
1.7948e-05
1.79481e-05
1.79481e-05
1.79481e-05
1.79481e-05
1.79481e-05
1.79482e-05
1.79482e-05
1.79482e-05
1.79482e-05
1.79482e-05
1.79483e-05
1.79483e-05
1.79483e-05
1.79483e-05
1.79482e-05
1.79481e-05
1.79482e-05
1.79482e-05
1.79481e-05
1.79481e-05
1.79482e-05
1.79482e-05
1.79482e-05
1.79482e-05
1.67634e-05
1.67634e-05
1.67634e-05
1.67633e-05
1.6763e-05
1.6763e-05
1.67629e-05
1.67628e-05
1.67628e-05
1.67628e-05
1.67628e-05
1.67629e-05
1.67629e-05
1.67629e-05
1.67629e-05
1.67628e-05
1.67629e-05
1.67629e-05
1.67628e-05
1.67628e-05
1.67628e-05
1.67628e-05
1.67629e-05
1.67628e-05
1.67629e-05
1.67629e-05
1.67628e-05
1.67628e-05
1.67627e-05
1.67625e-05
1.67625e-05
1.67625e-05
1.67625e-05
1.67625e-05
1.67625e-05
1.67625e-05
1.67625e-05
1.67625e-05
1.67625e-05
1.67626e-05
1.67626e-05
1.67626e-05
1.67626e-05
1.67626e-05
1.67627e-05
1.67627e-05
1.67628e-05
1.67628e-05
1.67628e-05
1.67628e-05
1.67627e-05
1.67626e-05
1.67628e-05
1.67628e-05
1.67627e-05
1.67627e-05
1.67627e-05
1.67627e-05
1.67627e-05
1.67628e-05
1.55971e-05
1.55971e-05
1.55971e-05
1.5597e-05
1.55969e-05
1.55969e-05
1.55969e-05
1.55968e-05
1.55969e-05
1.55969e-05
1.55969e-05
1.5597e-05
1.5597e-05
1.5597e-05
1.5597e-05
1.5597e-05
1.5597e-05
1.5597e-05
1.5597e-05
1.55969e-05
1.55969e-05
1.5597e-05
1.5597e-05
1.5597e-05
1.5597e-05
1.5597e-05
1.5597e-05
1.5597e-05
1.55969e-05
1.55968e-05
1.55968e-05
1.55967e-05
1.55967e-05
1.55967e-05
1.55967e-05
1.55967e-05
1.55967e-05
1.55967e-05
1.55967e-05
1.55968e-05
1.55967e-05
1.55968e-05
1.55968e-05
1.55968e-05
1.55968e-05
1.55969e-05
1.55969e-05
1.5597e-05
1.5597e-05
1.5597e-05
1.5597e-05
1.55969e-05
1.5597e-05
1.5597e-05
1.55969e-05
1.55969e-05
1.55969e-05
1.5597e-05
1.5597e-05
1.5597e-05
1.44598e-05
1.44598e-05
1.44598e-05
1.44598e-05
1.44598e-05
1.44598e-05
1.44598e-05
1.44598e-05
1.44599e-05
1.446e-05
1.446e-05
1.44601e-05
1.44602e-05
1.44602e-05
1.44602e-05
1.44601e-05
1.44601e-05
1.44601e-05
1.44601e-05
1.44601e-05
1.44601e-05
1.44601e-05
1.44602e-05
1.44602e-05
1.44602e-05
1.44602e-05
1.44601e-05
1.44601e-05
1.44601e-05
1.446e-05
1.446e-05
1.44599e-05
1.446e-05
1.44599e-05
1.44599e-05
1.44599e-05
1.44599e-05
1.44599e-05
1.44599e-05
1.446e-05
1.44599e-05
1.44599e-05
1.44599e-05
1.446e-05
1.446e-05
1.44601e-05
1.44601e-05
1.44602e-05
1.44602e-05
1.44602e-05
1.44602e-05
1.44601e-05
1.44602e-05
1.44602e-05
1.44601e-05
1.44601e-05
1.44601e-05
1.44602e-05
1.44602e-05
1.44602e-05
1.33638e-05
1.33639e-05
1.33639e-05
1.3364e-05
1.3364e-05
1.33641e-05
1.33642e-05
1.33643e-05
1.33643e-05
1.33645e-05
1.33645e-05
1.33646e-05
1.33647e-05
1.33647e-05
1.33647e-05
1.33647e-05
1.33647e-05
1.33647e-05
1.33647e-05
1.33646e-05
1.33647e-05
1.33647e-05
1.33648e-05
1.33647e-05
1.33647e-05
1.33647e-05
1.33647e-05
1.33647e-05
1.33646e-05
1.33646e-05
1.33646e-05
1.33646e-05
1.33646e-05
1.33645e-05
1.33645e-05
1.33645e-05
1.33645e-05
1.33645e-05
1.33645e-05
1.33645e-05
1.33645e-05
1.33645e-05
1.33645e-05
1.33645e-05
1.33646e-05
1.33647e-05
1.33648e-05
1.33649e-05
1.33648e-05
1.33648e-05
1.33648e-05
1.33648e-05
1.33648e-05
1.33648e-05
1.33648e-05
1.33648e-05
1.33648e-05
1.33648e-05
1.33647e-05
1.33647e-05
1.26117e-05
1.25631e-05
1.25672e-05
1.25588e-05
1.2561e-05
1.25588e-05
1.26081e-05
1.26075e-05
1.25707e-05
1.25634e-05
1.26126e-05
1.25632e-05
1.26131e-05
1.261e-05
1.25691e-05
1.25653e-05
1.26116e-05
1.25669e-05
1.25642e-05
1.26109e-05
1.26062e-05
1.26159e-05
1.25665e-05
1.25663e-05
1.25631e-05
1.25577e-05
1.2562e-05
1.25572e-05
1.26106e-05
1.25574e-05
1.26088e-05
1.25635e-05
1.25631e-05
1.26085e-05
1.26118e-05
1.25669e-05
1.25715e-05
1.2559e-05
1.26129e-05
1.25571e-05
1.2617e-05
1.25603e-05
1.26156e-05
1.25589e-05
1.25615e-05
1.25602e-05
1.25584e-05
1.25587e-05
1.25622e-05
1.25641e-05
1.26048e-05
1.26111e-05
1.25623e-05
1.26145e-05
1.25641e-05
1.25679e-05
1.26105e-05
1.26154e-05
1.2567e-05
1.26128e-05
2.55743e-05
2.55969e-05
2.56161e-05
2.56131e-05
2.56111e-05
2.56109e-05
2.55849e-05
2.55621e-05
2.55993e-05
2.56137e-05
2.55844e-05
2.56045e-05
2.55868e-05
2.55688e-05
2.56004e-05
2.56153e-05
2.55836e-05
2.56057e-05
2.56165e-05
2.5589e-05
2.55663e-05
2.55686e-05
2.56e-05
2.56128e-05
2.56157e-05
2.56109e-05
2.5612e-05
2.56095e-05
2.55827e-05
2.55987e-05
2.55759e-05
2.55976e-05
2.56125e-05
2.55829e-05
2.55681e-05
2.55952e-05
2.56203e-05
2.56135e-05
2.55853e-05
2.55989e-05
2.55832e-05
2.56003e-05
2.55846e-05
2.55993e-05
2.56077e-05
2.56091e-05
2.56083e-05
2.56086e-05
2.56102e-05
2.56176e-05
2.55835e-05
2.55675e-05
2.55975e-05
2.5582e-05
2.55992e-05
2.56168e-05
2.55865e-05
2.55745e-05
2.56049e-05
2.55844e-05
3.08831e-05
3.09069e-05
3.09302e-05
3.09371e-05
3.09343e-05
3.09348e-05
3.09058e-05
3.08702e-05
3.09013e-05
3.09299e-05
3.08965e-05
3.0919e-05
3.08996e-05
3.08759e-05
3.09045e-05
3.09316e-05
3.08964e-05
3.09167e-05
3.09354e-05
3.09073e-05
3.08791e-05
3.08684e-05
3.09046e-05
3.09256e-05
3.09354e-05
3.09359e-05
3.09346e-05
3.0934e-05
3.08982e-05
3.09179e-05
3.08885e-05
3.09082e-05
3.09302e-05
3.09e-05
3.08737e-05
3.08989e-05
3.09305e-05
3.0936e-05
3.09e-05
3.09179e-05
3.0891e-05
3.09146e-05
3.08925e-05
3.09149e-05
3.09256e-05
3.093e-05
3.09306e-05
3.09316e-05
3.09303e-05
3.09381e-05
3.09061e-05
3.08746e-05
3.09079e-05
3.0889e-05
3.09088e-05
3.09316e-05
3.09027e-05
3.08791e-05
3.09139e-05
3.08938e-05
3.29913e-05
3.30052e-05
3.30234e-05
3.30374e-05
3.30365e-05
3.30373e-05
3.30191e-05
3.29831e-05
3.29959e-05
3.30241e-05
3.30022e-05
3.30173e-05
3.30059e-05
3.29843e-05
3.29982e-05
3.30263e-05
3.30029e-05
3.30131e-05
3.30319e-05
3.30158e-05
3.29935e-05
3.29734e-05
3.29973e-05
3.30184e-05
3.30312e-05
3.3038e-05
3.30366e-05
3.30375e-05
3.30086e-05
3.30213e-05
3.29985e-05
3.30073e-05
3.30271e-05
3.30097e-05
3.29827e-05
3.29946e-05
3.30187e-05
3.30351e-05
3.30079e-05
3.30206e-05
3.29971e-05
3.30139e-05
3.29965e-05
3.30138e-05
3.30241e-05
3.30304e-05
3.30321e-05
3.30344e-05
3.30315e-05
3.30368e-05
3.30192e-05
3.29852e-05
3.30062e-05
3.29928e-05
3.30049e-05
3.30258e-05
3.30104e-05
3.29851e-05
3.30089e-05
3.29971e-05
3.36008e-05
3.36064e-05
3.36161e-05
3.36313e-05
3.36333e-05
3.3635e-05
3.36255e-05
3.35995e-05
3.3599e-05
3.3616e-05
3.36057e-05
3.36149e-05
3.36092e-05
3.35947e-05
3.35985e-05
3.36178e-05
3.36067e-05
3.3611e-05
3.36246e-05
3.36182e-05
3.36064e-05
3.35845e-05
3.35956e-05
3.3611e-05
3.36227e-05
3.36336e-05
3.36336e-05
3.36361e-05
3.36164e-05
3.36229e-05
3.36079e-05
3.36097e-05
3.36217e-05
3.36144e-05
3.35948e-05
3.35973e-05
3.36078e-05
3.36282e-05
3.36121e-05
3.36209e-05
3.36036e-05
3.36136e-05
3.36009e-05
3.3612e-05
3.362e-05
3.36269e-05
3.36291e-05
3.36328e-05
3.36301e-05
3.36322e-05
3.36245e-05
3.35988e-05
3.36075e-05
3.35981e-05
3.36039e-05
3.36182e-05
3.36126e-05
3.35941e-05
3.36063e-05
3.36005e-05
3.34719e-05
3.34742e-05
3.34778e-05
3.34885e-05
3.34929e-05
3.34958e-05
3.34917e-05
3.34779e-05
3.3469e-05
3.34776e-05
3.34729e-05
3.34784e-05
3.34757e-05
3.34682e-05
3.34666e-05
3.34772e-05
3.34735e-05
3.34753e-05
3.34834e-05
3.34817e-05
3.34777e-05
3.3462e-05
3.34646e-05
3.3472e-05
3.34802e-05
3.34918e-05
3.34932e-05
3.34974e-05
3.34855e-05
3.34885e-05
3.34798e-05
3.34777e-05
3.34833e-05
3.34809e-05
3.347e-05
3.34677e-05
3.34698e-05
3.34848e-05
3.34778e-05
3.34848e-05
3.34734e-05
3.34791e-05
3.347e-05
3.34764e-05
3.34814e-05
3.34877e-05
3.34901e-05
3.34944e-05
3.3493e-05
3.34927e-05
3.349e-05
3.34744e-05
3.34759e-05
3.34685e-05
3.34707e-05
3.34778e-05
3.34771e-05
3.34666e-05
3.34713e-05
3.34682e-05
3.29629e-05
3.29638e-05
3.29642e-05
3.29698e-05
3.29745e-05
3.29782e-05
3.29767e-05
3.29718e-05
3.29618e-05
3.29646e-05
3.29618e-05
3.2965e-05
3.29631e-05
3.29607e-05
3.29572e-05
3.29621e-05
3.29614e-05
3.29622e-05
3.29665e-05
3.29662e-05
3.29665e-05
3.29584e-05
3.29567e-05
3.29589e-05
3.29632e-05
3.29723e-05
3.29745e-05
3.29797e-05
3.29735e-05
3.29751e-05
3.29705e-05
3.29674e-05
3.2969e-05
3.29683e-05
3.29632e-05
3.29605e-05
3.29576e-05
3.29667e-05
3.29641e-05
3.297e-05
3.29633e-05
3.29669e-05
3.29605e-05
3.29639e-05
3.29663e-05
3.29711e-05
3.29733e-05
3.29774e-05
3.29774e-05
3.29763e-05
3.29754e-05
3.29675e-05
3.29664e-05
3.29598e-05
3.29606e-05
3.29625e-05
3.29634e-05
3.29582e-05
3.29596e-05
3.29573e-05
3.22447e-05
3.22448e-05
3.2244e-05
3.22463e-05
3.22493e-05
3.2253e-05
3.22527e-05
3.22518e-05
3.22459e-05
3.22452e-05
3.22424e-05
3.22443e-05
3.22424e-05
3.22423e-05
3.22401e-05
3.22411e-05
3.22412e-05
3.22416e-05
3.22435e-05
3.22435e-05
3.22456e-05
3.22422e-05
3.22397e-05
3.22399e-05
3.22415e-05
3.22467e-05
3.22489e-05
3.2254e-05
3.22515e-05
3.22528e-05
3.22506e-05
3.22485e-05
3.22477e-05
3.22473e-05
3.22452e-05
3.22437e-05
3.22391e-05
3.2244e-05
3.22429e-05
3.22475e-05
3.22438e-05
3.22464e-05
3.22421e-05
3.22439e-05
3.22449e-05
3.22476e-05
3.22497e-05
3.22526e-05
3.22539e-05
3.22526e-05
3.22524e-05
3.22491e-05
3.22477e-05
3.22423e-05
3.22426e-05
3.22418e-05
3.22425e-05
3.224e-05
3.22401e-05
3.22382e-05
3.14002e-05
3.14002e-05
3.13989e-05
3.13995e-05
3.14008e-05
3.14037e-05
3.14036e-05
3.14048e-05
3.14021e-05
3.14006e-05
3.13975e-05
3.13987e-05
3.1397e-05
3.13977e-05
3.13968e-05
3.13956e-05
3.13959e-05
3.13959e-05
3.13966e-05
3.13964e-05
3.13986e-05
3.13977e-05
3.13961e-05
3.13954e-05
3.1396e-05
3.13984e-05
3.13999e-05
3.14039e-05
3.14033e-05
3.14048e-05
3.14038e-05
3.14031e-05
3.14014e-05
3.14012e-05
3.14002e-05
3.13998e-05
3.1396e-05
3.13981e-05
3.13971e-05
3.14004e-05
3.13983e-05
3.14003e-05
3.13977e-05
3.13987e-05
3.1399e-05
3.14001e-05
3.14019e-05
3.14033e-05
3.14053e-05
3.14043e-05
3.14042e-05
3.14032e-05
3.14024e-05
3.13985e-05
3.13988e-05
3.13971e-05
3.13969e-05
3.13956e-05
3.13952e-05
3.13935e-05
3.04715e-05
3.04715e-05
3.04701e-05
3.04698e-05
3.04701e-05
3.04717e-05
3.04717e-05
3.04734e-05
3.04724e-05
3.04712e-05
3.04687e-05
3.04694e-05
3.0468e-05
3.04687e-05
3.04683e-05
3.0467e-05
3.04667e-05
3.04665e-05
3.04667e-05
3.04662e-05
3.0468e-05
3.04679e-05
3.04674e-05
3.04667e-05
3.0467e-05
3.04679e-05
3.04687e-05
3.04713e-05
3.04713e-05
3.04729e-05
3.04726e-05
3.04728e-05
3.04718e-05
3.04713e-05
3.04706e-05
3.0471e-05
3.04684e-05
3.0469e-05
3.0468e-05
3.04701e-05
3.04689e-05
3.04704e-05
3.04688e-05
3.04695e-05
3.04695e-05
3.047e-05
3.04711e-05
3.04717e-05
3.04734e-05
3.04729e-05
3.04727e-05
3.04724e-05
3.04725e-05
3.04701e-05
3.04703e-05
3.04687e-05
3.0468e-05
3.04666e-05
3.04663e-05
3.0465e-05
2.94807e-05
2.94806e-05
2.94793e-05
2.94786e-05
2.94782e-05
2.9479e-05
2.94789e-05
2.94803e-05
2.94801e-05
2.94793e-05
2.94776e-05
2.94781e-05
2.9477e-05
2.94775e-05
2.94774e-05
2.94764e-05
2.94758e-05
2.94754e-05
2.94752e-05
2.94745e-05
2.94758e-05
2.94759e-05
2.94759e-05
2.94759e-05
2.9476e-05
2.94761e-05
2.94766e-05
2.94779e-05
2.9478e-05
2.94797e-05
2.94797e-05
2.94804e-05
2.94797e-05
2.94792e-05
2.94792e-05
2.94797e-05
2.94779e-05
2.9478e-05
2.94771e-05
2.94783e-05
2.94775e-05
2.94787e-05
2.94777e-05
2.94782e-05
2.94782e-05
2.94783e-05
2.9479e-05
2.94793e-05
2.94804e-05
2.94801e-05
2.94797e-05
2.94801e-05
2.94803e-05
2.94789e-05
2.94793e-05
2.94781e-05
2.94771e-05
2.94758e-05
2.94755e-05
2.94744e-05
2.84406e-05
2.84405e-05
2.84393e-05
2.84384e-05
2.84376e-05
2.84379e-05
2.84376e-05
2.84386e-05
2.84386e-05
2.84382e-05
2.84372e-05
2.84375e-05
2.84368e-05
2.8437e-05
2.8437e-05
2.84363e-05
2.84358e-05
2.84352e-05
2.84348e-05
2.8434e-05
2.84349e-05
2.8435e-05
2.84354e-05
2.84354e-05
2.84356e-05
2.84356e-05
2.84358e-05
2.84365e-05
2.84365e-05
2.84378e-05
2.84378e-05
2.84387e-05
2.84384e-05
2.84381e-05
2.84383e-05
2.84387e-05
2.84377e-05
2.84375e-05
2.84367e-05
2.84376e-05
2.84371e-05
2.84379e-05
2.84373e-05
2.84377e-05
2.84377e-05
2.84377e-05
2.84382e-05
2.84382e-05
2.84389e-05
2.84387e-05
2.84383e-05
2.84386e-05
2.84391e-05
2.84382e-05
2.84387e-05
2.84379e-05
2.84369e-05
2.84358e-05
2.84356e-05
2.84346e-05
2.73596e-05
2.73595e-05
2.73586e-05
2.73576e-05
2.73567e-05
2.73566e-05
2.7356e-05
2.73568e-05
2.73568e-05
2.73566e-05
2.73559e-05
2.73562e-05
2.73558e-05
2.73556e-05
2.73559e-05
2.73554e-05
2.7355e-05
2.73544e-05
2.73539e-05
2.73531e-05
2.73538e-05
2.73538e-05
2.73542e-05
2.73542e-05
2.73544e-05
2.73544e-05
2.73546e-05
2.7355e-05
2.73549e-05
2.73559e-05
2.73559e-05
2.73567e-05
2.73565e-05
2.73564e-05
2.73566e-05
2.73571e-05
2.73564e-05
2.73562e-05
2.73556e-05
2.73562e-05
2.73559e-05
2.73566e-05
2.73562e-05
2.73565e-05
2.73565e-05
2.73566e-05
2.73569e-05
2.73569e-05
2.73573e-05
2.73571e-05
2.73567e-05
2.73569e-05
2.73574e-05
2.73568e-05
2.73573e-05
2.73568e-05
2.7356e-05
2.73551e-05
2.73549e-05
2.73541e-05
2.62444e-05
2.62443e-05
2.62436e-05
2.62427e-05
2.62417e-05
2.62414e-05
2.62407e-05
2.62413e-05
2.62413e-05
2.62411e-05
2.62406e-05
2.62409e-05
2.62405e-05
2.62404e-05
2.62407e-05
2.62404e-05
2.624e-05
2.62394e-05
2.6239e-05
2.62382e-05
2.62388e-05
2.62388e-05
2.6239e-05
2.6239e-05
2.62392e-05
2.62393e-05
2.62393e-05
2.62397e-05
2.62397e-05
2.62404e-05
2.62404e-05
2.6241e-05
2.62408e-05
2.62407e-05
2.62409e-05
2.62414e-05
2.62409e-05
2.62408e-05
2.62403e-05
2.62409e-05
2.62407e-05
2.62413e-05
2.6241e-05
2.62413e-05
2.62413e-05
2.62414e-05
2.62415e-05
2.62415e-05
2.62418e-05
2.62416e-05
2.62412e-05
2.62414e-05
2.62418e-05
2.62414e-05
2.62418e-05
2.62415e-05
2.62409e-05
2.62402e-05
2.624e-05
2.62394e-05
2.51008e-05
2.51007e-05
2.51001e-05
2.50993e-05
2.50984e-05
2.50981e-05
2.50973e-05
2.50976e-05
2.50977e-05
2.50975e-05
2.5097e-05
2.50973e-05
2.5097e-05
2.50969e-05
2.50972e-05
2.50969e-05
2.50966e-05
2.50961e-05
2.50958e-05
2.50951e-05
2.50955e-05
2.50955e-05
2.50956e-05
2.50956e-05
2.50958e-05
2.50958e-05
2.50958e-05
2.50962e-05
2.50961e-05
2.50967e-05
2.50967e-05
2.50972e-05
2.50971e-05
2.50969e-05
2.50971e-05
2.50975e-05
2.50972e-05
2.5097e-05
2.50966e-05
2.50972e-05
2.50971e-05
2.50976e-05
2.50975e-05
2.50977e-05
2.50977e-05
2.50977e-05
2.50979e-05
2.50979e-05
2.50981e-05
2.5098e-05
2.50976e-05
2.50977e-05
2.50981e-05
2.50977e-05
2.50981e-05
2.50979e-05
2.50975e-05
2.50969e-05
2.50967e-05
2.50962e-05
2.39341e-05
2.39341e-05
2.39336e-05
2.39329e-05
2.39321e-05
2.39318e-05
2.39311e-05
2.39313e-05
2.39313e-05
2.39311e-05
2.39307e-05
2.39309e-05
2.39307e-05
2.39305e-05
2.39308e-05
2.39306e-05
2.39303e-05
2.39299e-05
2.39296e-05
2.3929e-05
2.39294e-05
2.39294e-05
2.39294e-05
2.39294e-05
2.39294e-05
2.39295e-05
2.39295e-05
2.39298e-05
2.39298e-05
2.39303e-05
2.39303e-05
2.39306e-05
2.39305e-05
2.39304e-05
2.39305e-05
2.39308e-05
2.39307e-05
2.39305e-05
2.39302e-05
2.39306e-05
2.39306e-05
2.3931e-05
2.3931e-05
2.39312e-05
2.39312e-05
2.39312e-05
2.39313e-05
2.39313e-05
2.39315e-05