/*--------------------------------*- C++ -*----------------------------------*\
| =========                 |                                                 |
| \\      /  F ield         | OpenFOAM: The Open Source CFD Toolbox           |
|  \\    /   O peration     | Version:  2312                                  |
|   \\  /    A nd           | Website:  www.openfoam.com                      |
|    \\/     M anipulation  |                                                 |
\*---------------------------------------------------------------------------*/
FoamFile
{
    version     2.0;
    format      ascii;
    arch        "LSB;label=32;scalar=64";
    class       volScalarField;
    location    "400";
    object      nut;
}
// * * * * * * * * * * * * * * * * * * * * * * * * * * * * * * * * * * * * * //

dimensions      [0 2 -1 0 0 0 0];

internalField   nonuniform List<scalar> 
144000
(
9.95159e-06
9.95064e-06
9.95274e-06
9.95024e-06
9.97047e-06
9.951e-06
9.97174e-06
9.96921e-06
9.97135e-06
9.95306e-06
9.952e-06
9.9514e-06
9.95302e-06
9.95167e-06
9.97006e-06
9.96985e-06
9.95187e-06
9.95266e-06
9.95211e-06
9.97e-06
9.96935e-06
9.95323e-06
9.95219e-06
9.97154e-06
9.953e-06
9.95128e-06
9.9701e-06
9.95249e-06
9.95114e-06
9.96894e-06
9.94909e-06
9.97178e-06
9.95278e-06
9.97201e-06
9.96975e-06
9.97269e-06
9.95437e-06
9.97263e-06
9.95397e-06
9.95289e-06
9.97173e-06
9.95044e-06
9.95335e-06
9.95189e-06
9.97147e-06
9.97022e-06
9.9522e-06
9.95434e-06
9.95172e-06
9.95287e-06
9.95012e-06
9.96878e-06
9.95092e-06
9.95409e-06
9.9695e-06
9.97088e-06
9.95173e-06
9.95295e-06
9.95087e-06
9.95027e-06
1.421e-05
1.4209e-05
1.42108e-05
1.421e-05
1.42014e-05
1.42069e-05
1.42024e-05
1.41977e-05
1.41975e-05
1.42061e-05
1.42094e-05
1.42092e-05
1.42106e-05
1.42104e-05
1.42027e-05
1.41982e-05
1.42054e-05
1.42093e-05
1.42108e-05
1.42027e-05
1.41964e-05
1.42051e-05
1.42098e-05
1.4202e-05
1.42078e-05
1.42101e-05
1.42015e-05
1.42076e-05
1.42099e-05
1.42011e-05
1.42053e-05
1.42003e-05
1.42075e-05
1.42026e-05
1.41981e-05
1.41983e-05
1.42078e-05
1.42023e-05
1.42078e-05
1.42105e-05
1.42031e-05
1.42063e-05
1.42101e-05
1.42102e-05
1.42033e-05
1.41987e-05
1.42052e-05
1.42108e-05
1.42104e-05
1.42115e-05
1.42105e-05
1.42006e-05
1.42051e-05
1.42112e-05
1.42024e-05
1.41986e-05
1.42055e-05
1.42092e-05
1.42097e-05
1.42091e-05
1.56172e-05
1.56162e-05
1.5617e-05
1.56175e-05
1.56076e-05
1.56127e-05
1.56075e-05
1.5603e-05
1.56005e-05
1.56091e-05
1.56149e-05
1.56153e-05
1.56164e-05
1.5617e-05
1.56094e-05
1.56031e-05
1.56097e-05
1.56141e-05
1.56171e-05
1.56097e-05
1.56013e-05
1.56082e-05
1.5615e-05
1.56068e-05
1.56121e-05
1.56166e-05
1.56075e-05
1.56125e-05
1.56165e-05
1.56077e-05
1.56121e-05
1.56047e-05
1.56119e-05
1.56072e-05
1.56029e-05
1.56007e-05
1.56107e-05
1.56059e-05
1.56114e-05
1.56159e-05
1.56083e-05
1.56123e-05
1.56153e-05
1.56166e-05
1.56092e-05
1.56034e-05
1.56092e-05
1.56151e-05
1.56166e-05
1.56176e-05
1.56183e-05
1.56079e-05
1.56107e-05
1.56161e-05
1.5609e-05
1.56029e-05
1.56099e-05
1.56139e-05
1.56164e-05
1.56162e-05
1.61393e-05
1.61385e-05
1.61384e-05
1.61395e-05
1.61321e-05
1.61348e-05
1.6131e-05
1.61277e-05
1.61239e-05
1.61292e-05
1.61352e-05
1.61366e-05
1.61372e-05
1.61385e-05
1.61337e-05
1.61274e-05
1.61311e-05
1.61344e-05
1.61379e-05
1.61339e-05
1.61262e-05
1.61292e-05
1.61354e-05
1.613e-05
1.61328e-05
1.61377e-05
1.61315e-05
1.61338e-05
1.61379e-05
1.61321e-05
1.6135e-05
1.61287e-05
1.61329e-05
1.61301e-05
1.61272e-05
1.61237e-05
1.61305e-05
1.6128e-05
1.61316e-05
1.61363e-05
1.61315e-05
1.61342e-05
1.6136e-05
1.6138e-05
1.6133e-05
1.61276e-05
1.61305e-05
1.61349e-05
1.61375e-05
1.61383e-05
1.61402e-05
1.61331e-05
1.61335e-05
1.61365e-05
1.6133e-05
1.6127e-05
1.61312e-05
1.61342e-05
1.61375e-05
1.61378e-05
1.62848e-05
1.62844e-05
1.62836e-05
1.62848e-05
1.62801e-05
1.62811e-05
1.62784e-05
1.62765e-05
1.62726e-05
1.62748e-05
1.62794e-05
1.62815e-05
1.6282e-05
1.62834e-05
1.6281e-05
1.62761e-05
1.62776e-05
1.62793e-05
1.62824e-05
1.62807e-05
1.62757e-05
1.62761e-05
1.62798e-05
1.62771e-05
1.62782e-05
1.62822e-05
1.62789e-05
1.62796e-05
1.62826e-05
1.62796e-05
1.62816e-05
1.6277e-05
1.62788e-05
1.62771e-05
1.62756e-05
1.62721e-05
1.62758e-05
1.62746e-05
1.62766e-05
1.62806e-05
1.62782e-05
1.628e-05
1.62809e-05
1.62829e-05
1.62802e-05
1.6276e-05
1.62771e-05
1.62793e-05
1.62821e-05
1.62827e-05
1.6285e-05
1.62812e-05
1.62805e-05
1.62815e-05
1.628e-05
1.62756e-05
1.62775e-05
1.62792e-05
1.62822e-05
1.62827e-05
1.62513e-05
1.62512e-05
1.62504e-05
1.62512e-05
1.62485e-05
1.62487e-05
1.62468e-05
1.62457e-05
1.62427e-05
1.62432e-05
1.62455e-05
1.62478e-05
1.62481e-05
1.62494e-05
1.62485e-05
1.62455e-05
1.62457e-05
1.62463e-05
1.62482e-05
1.62478e-05
1.62455e-05
1.62446e-05
1.62464e-05
1.62452e-05
1.62455e-05
1.62481e-05
1.62468e-05
1.6247e-05
1.62488e-05
1.62475e-05
1.6249e-05
1.62461e-05
1.62465e-05
1.62452e-05
1.62445e-05
1.62419e-05
1.62434e-05
1.62427e-05
1.62437e-05
1.62465e-05
1.62456e-05
1.6247e-05
1.62474e-05
1.62491e-05
1.62478e-05
1.62451e-05
1.62454e-05
1.6246e-05
1.6248e-05
1.62486e-05
1.62506e-05
1.62492e-05
1.62485e-05
1.62483e-05
1.62477e-05
1.6245e-05
1.62456e-05
1.62462e-05
1.62482e-05
1.62488e-05
1.61255e-05
1.61257e-05
1.6125e-05
1.61255e-05
1.6124e-05
1.61239e-05
1.61224e-05
1.61219e-05
1.612e-05
1.61195e-05
1.61203e-05
1.61221e-05
1.61224e-05
1.61234e-05
1.61231e-05
1.61218e-05
1.61216e-05
1.61216e-05
1.61225e-05
1.61225e-05
1.61219e-05
1.61207e-05
1.61214e-05
1.61208e-05
1.61209e-05
1.61222e-05
1.6122e-05
1.6122e-05
1.61231e-05
1.61226e-05
1.61239e-05
1.61222e-05
1.61221e-05
1.61209e-05
1.61207e-05
1.6119e-05
1.61194e-05
1.61187e-05
1.61192e-05
1.61208e-05
1.61205e-05
1.61218e-05
1.6122e-05
1.61232e-05
1.61227e-05
1.61213e-05
1.61213e-05
1.61212e-05
1.61223e-05
1.61227e-05
1.61242e-05
1.61239e-05
1.61238e-05
1.61232e-05
1.61229e-05
1.61213e-05
1.61215e-05
1.61215e-05
1.61225e-05
1.6123e-05
1.59476e-05
1.59479e-05
1.59474e-05
1.59476e-05
1.59467e-05
1.59467e-05
1.59456e-05
1.59453e-05
1.59443e-05
1.59435e-05
1.59436e-05
1.59445e-05
1.59447e-05
1.59454e-05
1.59454e-05
1.5945e-05
1.59449e-05
1.59446e-05
1.59449e-05
1.59449e-05
1.59449e-05
1.59444e-05
1.59444e-05
1.59441e-05
1.5944e-05
1.59445e-05
1.59447e-05
1.59447e-05
1.59453e-05
1.59452e-05
1.59462e-05
1.59454e-05
1.59452e-05
1.59442e-05
1.59441e-05
1.59432e-05
1.59431e-05
1.59424e-05
1.59426e-05
1.59433e-05
1.59433e-05
1.59443e-05
1.59444e-05
1.59452e-05
1.59451e-05
1.59446e-05
1.59447e-05
1.59443e-05
1.59448e-05
1.5945e-05
1.59459e-05
1.5946e-05
1.59464e-05
1.59458e-05
1.59456e-05
1.59448e-05
1.59448e-05
1.59447e-05
1.5945e-05
1.59454e-05
1.57366e-05
1.57369e-05
1.57365e-05
1.57366e-05
1.5736e-05
1.5736e-05
1.57351e-05
1.5735e-05
1.57345e-05
1.57338e-05
1.57336e-05
1.5734e-05
1.57341e-05
1.57345e-05
1.57345e-05
1.57345e-05
1.57345e-05
1.57343e-05
1.57343e-05
1.57341e-05
1.57345e-05
1.57343e-05
1.57341e-05
1.57337e-05
1.57338e-05
1.57338e-05
1.5734e-05
1.57341e-05
1.57344e-05
1.57344e-05
1.57352e-05
1.57349e-05
1.57348e-05
1.57341e-05
1.57341e-05
1.57336e-05
1.57334e-05
1.57327e-05
1.57327e-05
1.5733e-05
1.57329e-05
1.57337e-05
1.57337e-05
1.57342e-05
1.57342e-05
1.57342e-05
1.57344e-05
1.5734e-05
1.57343e-05
1.57343e-05
1.57347e-05
1.57348e-05
1.57355e-05
1.5735e-05
1.5735e-05
1.57346e-05
1.57346e-05
1.57345e-05
1.57345e-05
1.57347e-05
1.55018e-05
1.55018e-05
1.55016e-05
1.55015e-05
1.5501e-05
1.5501e-05
1.55005e-05
1.55004e-05
1.55001e-05
1.54997e-05
1.54993e-05
1.54996e-05
1.54995e-05
1.54997e-05
1.54997e-05
1.54997e-05
1.54999e-05
1.54998e-05
1.54996e-05
1.54994e-05
1.54997e-05
1.54997e-05
1.54996e-05
1.54993e-05
1.54994e-05
1.54993e-05
1.54994e-05
1.54994e-05
1.54996e-05
1.54996e-05
1.55002e-05
1.55001e-05
1.55001e-05
1.54997e-05
1.54997e-05
1.54995e-05
1.54993e-05
1.54987e-05
1.54986e-05
1.54987e-05
1.54985e-05
1.5499e-05
1.5499e-05
1.54993e-05
1.54993e-05
1.54994e-05
1.54997e-05
1.54995e-05
1.54996e-05
1.54996e-05
1.54998e-05
1.54998e-05
1.55004e-05
1.55001e-05
1.55001e-05
1.54999e-05
1.55e-05
1.55e-05
1.54998e-05
1.55e-05
1.52474e-05
1.52474e-05
1.52471e-05
1.5247e-05
1.52465e-05
1.52465e-05
1.52462e-05
1.52461e-05
1.52459e-05
1.52457e-05
1.52454e-05
1.52456e-05
1.52455e-05
1.52454e-05
1.52454e-05
1.52454e-05
1.52456e-05
1.52456e-05
1.52454e-05
1.52452e-05
1.52454e-05
1.52455e-05
1.52455e-05
1.52453e-05
1.52454e-05
1.52453e-05
1.52452e-05
1.52453e-05
1.52453e-05
1.52453e-05
1.52457e-05
1.52457e-05
1.52458e-05
1.52455e-05
1.52456e-05
1.52455e-05
1.52453e-05
1.52449e-05
1.52449e-05
1.52448e-05
1.52446e-05
1.52449e-05
1.52449e-05
1.52451e-05
1.5245e-05
1.52451e-05
1.52455e-05
1.52453e-05
1.52454e-05
1.52454e-05
1.52454e-05
1.52454e-05
1.52459e-05
1.52457e-05
1.52456e-05
1.52456e-05
1.52457e-05
1.52457e-05
1.52456e-05
1.52457e-05
1.49758e-05
1.49758e-05
1.49755e-05
1.49753e-05
1.49749e-05
1.49749e-05
1.49746e-05
1.49745e-05
1.49744e-05
1.49743e-05
1.49742e-05
1.49743e-05
1.49742e-05
1.49741e-05
1.49739e-05
1.4974e-05
1.49742e-05
1.49741e-05
1.4974e-05
1.49738e-05
1.4974e-05
1.4974e-05
1.4974e-05
1.49739e-05
1.4974e-05
1.49739e-05
1.49738e-05
1.49739e-05
1.49739e-05
1.49738e-05
1.49741e-05
1.49741e-05
1.49742e-05
1.4974e-05
1.49742e-05
1.49741e-05
1.4974e-05
1.49737e-05
1.49738e-05
1.49737e-05
1.49735e-05
1.49737e-05
1.49737e-05
1.49737e-05
1.49737e-05
1.49737e-05
1.4974e-05
1.49739e-05
1.4974e-05
1.49739e-05
1.49739e-05
1.49739e-05
1.49742e-05
1.49741e-05
1.4974e-05
1.49741e-05
1.49742e-05
1.49742e-05
1.49742e-05
1.49742e-05
1.46883e-05
1.46883e-05
1.4688e-05
1.46878e-05
1.46874e-05
1.46874e-05
1.46872e-05
1.46871e-05
1.4687e-05
1.4687e-05
1.4687e-05
1.46871e-05
1.4687e-05
1.46868e-05
1.46867e-05
1.46866e-05
1.46868e-05
1.46868e-05
1.46867e-05
1.46865e-05
1.46866e-05
1.46867e-05
1.46867e-05
1.46866e-05
1.46867e-05
1.46867e-05
1.46866e-05
1.46866e-05
1.46866e-05
1.46865e-05
1.46867e-05
1.46867e-05
1.46868e-05
1.46867e-05
1.46868e-05
1.46868e-05
1.46868e-05
1.46866e-05
1.46866e-05
1.46866e-05
1.46864e-05
1.46865e-05
1.46865e-05
1.46865e-05
1.46863e-05
1.46864e-05
1.46866e-05
1.46866e-05
1.46867e-05
1.46866e-05
1.46866e-05
1.46865e-05
1.46868e-05
1.46867e-05
1.46866e-05
1.46866e-05
1.46868e-05
1.46868e-05
1.46868e-05
1.46868e-05
1.43858e-05
1.43857e-05
1.43855e-05
1.43853e-05
1.4385e-05
1.43849e-05
1.43847e-05
1.43846e-05
1.43846e-05
1.43846e-05
1.43846e-05
1.43847e-05
1.43846e-05
1.43845e-05
1.43843e-05
1.43843e-05
1.43844e-05
1.43844e-05
1.43844e-05
1.43842e-05
1.43843e-05
1.43843e-05
1.43843e-05
1.43843e-05
1.43844e-05
1.43843e-05
1.43843e-05
1.43843e-05
1.43843e-05
1.43841e-05
1.43843e-05
1.43843e-05
1.43844e-05
1.43843e-05
1.43844e-05
1.43844e-05
1.43844e-05
1.43843e-05
1.43844e-05
1.43843e-05
1.43842e-05
1.43843e-05
1.43842e-05
1.43842e-05
1.4384e-05
1.4384e-05
1.43842e-05
1.43842e-05
1.43843e-05
1.43843e-05
1.43842e-05
1.43841e-05
1.43843e-05
1.43843e-05
1.43842e-05
1.43842e-05
1.43843e-05
1.43843e-05
1.43843e-05
1.43843e-05
1.40688e-05
1.40688e-05
1.40686e-05
1.40684e-05
1.40681e-05
1.4068e-05
1.40678e-05
1.40678e-05
1.40678e-05
1.40678e-05
1.40678e-05
1.40679e-05
1.40678e-05
1.40678e-05
1.40676e-05
1.40675e-05
1.40677e-05
1.40676e-05
1.40676e-05
1.40674e-05
1.40675e-05
1.40675e-05
1.40675e-05
1.40675e-05
1.40676e-05
1.40676e-05
1.40675e-05
1.40675e-05
1.40675e-05
1.40674e-05
1.40675e-05
1.40675e-05
1.40676e-05
1.40675e-05
1.40676e-05
1.40675e-05
1.40676e-05
1.40675e-05
1.40676e-05
1.40676e-05
1.40675e-05
1.40676e-05
1.40675e-05
1.40675e-05
1.40673e-05
1.40673e-05
1.40675e-05
1.40675e-05
1.40675e-05
1.40675e-05
1.40674e-05
1.40673e-05
1.40675e-05
1.40675e-05
1.40674e-05
1.40674e-05
1.40674e-05
1.40675e-05
1.40675e-05
1.40675e-05
1.3738e-05
1.3738e-05
1.37378e-05
1.37377e-05
1.37374e-05
1.37373e-05
1.37371e-05
1.37371e-05
1.37371e-05
1.37371e-05
1.37371e-05
1.37372e-05
1.37372e-05
1.37371e-05
1.3737e-05
1.37369e-05
1.3737e-05
1.3737e-05
1.3737e-05
1.37368e-05
1.37369e-05
1.37369e-05
1.37369e-05
1.37369e-05
1.3737e-05
1.37369e-05
1.37369e-05
1.37369e-05
1.37369e-05
1.37368e-05
1.37369e-05
1.37369e-05
1.37369e-05
1.37368e-05
1.37369e-05
1.37369e-05
1.37369e-05
1.37369e-05
1.37369e-05
1.37369e-05
1.37368e-05
1.37369e-05
1.37369e-05
1.37369e-05
1.37367e-05
1.37367e-05
1.37369e-05
1.37368e-05
1.37369e-05
1.37369e-05
1.37368e-05
1.37367e-05
1.37369e-05
1.37368e-05
1.37367e-05
1.37367e-05
1.37368e-05
1.37368e-05
1.37368e-05
1.37368e-05
1.33939e-05
1.33939e-05
1.33938e-05
1.33936e-05
1.33934e-05
1.33933e-05
1.33932e-05
1.33931e-05
1.33931e-05
1.33931e-05
1.33931e-05
1.33932e-05
1.33932e-05
1.33931e-05
1.3393e-05
1.3393e-05
1.33931e-05
1.33931e-05
1.3393e-05
1.33929e-05
1.3393e-05
1.3393e-05
1.3393e-05
1.3393e-05
1.3393e-05
1.3393e-05
1.3393e-05
1.3393e-05
1.33929e-05
1.33928e-05
1.33929e-05
1.33929e-05
1.33929e-05
1.33929e-05
1.33929e-05
1.33929e-05
1.3393e-05
1.33929e-05
1.33929e-05
1.33929e-05
1.33929e-05
1.3393e-05
1.3393e-05
1.33929e-05
1.33928e-05
1.33928e-05
1.33929e-05
1.33929e-05
1.33929e-05
1.33929e-05
1.33929e-05
1.33928e-05
1.33929e-05
1.33929e-05
1.33928e-05
1.33928e-05
1.33929e-05
1.33929e-05
1.33929e-05
1.33929e-05
1.30371e-05
1.30371e-05
1.3037e-05
1.30369e-05
1.30367e-05
1.30366e-05
1.30365e-05
1.30364e-05
1.30364e-05
1.30364e-05
1.30364e-05
1.30365e-05
1.30365e-05
1.30365e-05
1.30364e-05
1.30363e-05
1.30364e-05
1.30364e-05
1.30364e-05
1.30363e-05
1.30363e-05
1.30363e-05
1.30363e-05
1.30363e-05
1.30363e-05
1.30363e-05
1.30363e-05
1.30363e-05
1.30362e-05
1.30361e-05
1.30362e-05
1.30362e-05
1.30362e-05
1.30362e-05
1.30362e-05
1.30362e-05
1.30363e-05
1.30362e-05
1.30362e-05
1.30363e-05
1.30362e-05
1.30363e-05
1.30363e-05
1.30363e-05
1.30362e-05
1.30362e-05
1.30363e-05
1.30363e-05
1.30363e-05
1.30363e-05
1.30362e-05
1.30362e-05
1.30363e-05
1.30362e-05
1.30362e-05
1.30362e-05
1.30362e-05
1.30362e-05
1.30362e-05
1.30362e-05
1.26683e-05
1.26682e-05
1.26682e-05
1.26681e-05
1.26679e-05
1.26678e-05
1.26677e-05
1.26677e-05
1.26677e-05
1.26677e-05
1.26677e-05
1.26677e-05
1.26677e-05
1.26677e-05
1.26676e-05
1.26676e-05
1.26677e-05
1.26676e-05
1.26676e-05
1.26676e-05
1.26676e-05
1.26676e-05
1.26676e-05
1.26676e-05
1.26676e-05
1.26676e-05
1.26676e-05
1.26676e-05
1.26675e-05
1.26674e-05
1.26675e-05
1.26675e-05
1.26675e-05
1.26675e-05
1.26675e-05
1.26675e-05
1.26675e-05
1.26675e-05
1.26675e-05
1.26675e-05
1.26675e-05
1.26676e-05
1.26676e-05
1.26675e-05
1.26675e-05
1.26675e-05
1.26676e-05
1.26676e-05
1.26676e-05
1.26676e-05
1.26675e-05
1.26675e-05
1.26675e-05
1.26675e-05
1.26675e-05
1.26675e-05
1.26675e-05
1.26675e-05
1.26675e-05
1.26675e-05
1.22881e-05
1.22881e-05
1.2288e-05
1.2288e-05
1.22878e-05
1.22878e-05
1.22877e-05
1.22876e-05
1.22877e-05
1.22877e-05
1.22877e-05
1.22877e-05
1.22877e-05
1.22877e-05
1.22876e-05
1.22876e-05
1.22876e-05
1.22876e-05
1.22876e-05
1.22876e-05
1.22876e-05
1.22876e-05
1.22876e-05
1.22876e-05
1.22876e-05
1.22876e-05
1.22876e-05
1.22876e-05
1.22875e-05
1.22874e-05
1.22875e-05
1.22875e-05
1.22875e-05
1.22875e-05
1.22875e-05
1.22875e-05
1.22875e-05
1.22875e-05
1.22875e-05
1.22875e-05
1.22875e-05
1.22875e-05
1.22875e-05
1.22875e-05
1.22875e-05
1.22875e-05
1.22876e-05
1.22876e-05
1.22876e-05
1.22876e-05
1.22875e-05
1.22875e-05
1.22876e-05
1.22875e-05
1.22875e-05
1.22875e-05
1.22875e-05
1.22875e-05
1.22875e-05
1.22875e-05
1.18976e-05
1.18976e-05
1.18976e-05
1.18975e-05
1.18974e-05
1.18974e-05
1.18973e-05
1.18973e-05
1.18973e-05
1.18973e-05
1.18973e-05
1.18973e-05
1.18973e-05
1.18973e-05
1.18973e-05
1.18973e-05
1.18973e-05
1.18973e-05
1.18973e-05
1.18972e-05
1.18973e-05
1.18973e-05
1.18973e-05
1.18973e-05
1.18973e-05
1.18973e-05
1.18973e-05
1.18972e-05
1.18972e-05
1.18971e-05
1.18971e-05
1.18971e-05
1.18972e-05
1.18971e-05
1.18971e-05
1.18971e-05
1.18972e-05
1.18972e-05
1.18972e-05
1.18972e-05
1.18972e-05
1.18972e-05
1.18972e-05
1.18972e-05
1.18972e-05
1.18972e-05
1.18973e-05
1.18973e-05
1.18973e-05
1.18972e-05
1.18972e-05
1.18972e-05
1.18972e-05
1.18972e-05
1.18972e-05
1.18972e-05
1.18972e-05
1.18972e-05
1.18972e-05
1.18972e-05
1.1498e-05
1.1498e-05
1.1498e-05
1.1498e-05
1.14979e-05
1.14979e-05
1.14978e-05
1.14978e-05
1.14978e-05
1.14978e-05
1.14978e-05
1.14979e-05
1.14979e-05
1.14979e-05
1.14978e-05
1.14978e-05
1.14978e-05
1.14978e-05
1.14978e-05
1.14978e-05
1.14978e-05
1.14978e-05
1.14978e-05
1.14978e-05
1.14978e-05
1.14978e-05
1.14978e-05
1.14978e-05
1.14978e-05
1.14977e-05
1.14977e-05
1.14977e-05
1.14977e-05
1.14977e-05
1.14977e-05
1.14977e-05
1.14977e-05
1.14977e-05
1.14977e-05
1.14978e-05
1.14977e-05
1.14978e-05
1.14978e-05
1.14978e-05
1.14978e-05
1.14978e-05
1.14978e-05
1.14978e-05
1.14978e-05
1.14978e-05
1.14978e-05
1.14978e-05
1.14978e-05
1.14978e-05
1.14978e-05
1.14978e-05
1.14978e-05
1.14978e-05
1.14978e-05
1.14978e-05
1.1091e-05
1.1091e-05
1.1091e-05
1.1091e-05
1.1091e-05
1.1091e-05
1.10909e-05
1.10909e-05
1.10909e-05
1.1091e-05
1.1091e-05
1.1091e-05
1.1091e-05
1.1091e-05
1.1091e-05
1.1091e-05
1.1091e-05
1.1091e-05
1.1091e-05
1.1091e-05
1.1091e-05
1.1091e-05
1.1091e-05
1.1091e-05
1.1091e-05
1.1091e-05
1.1091e-05
1.1091e-05
1.1091e-05
1.10909e-05
1.10909e-05
1.10909e-05
1.10909e-05
1.10909e-05
1.10909e-05
1.10909e-05
1.10909e-05
1.10909e-05
1.10909e-05
1.10909e-05
1.10909e-05
1.10909e-05
1.10909e-05
1.10909e-05
1.10909e-05
1.10909e-05
1.1091e-05
1.1091e-05
1.1091e-05
1.1091e-05
1.1091e-05
1.1091e-05
1.1091e-05
1.1091e-05
1.1091e-05
1.1091e-05
1.1091e-05
1.1091e-05
1.1091e-05
1.1091e-05
1.06792e-05
1.06792e-05
1.06792e-05
1.06792e-05
1.06792e-05
1.06792e-05
1.06792e-05
1.06792e-05
1.06792e-05
1.06793e-05
1.06793e-05
1.06793e-05
1.06794e-05
1.06793e-05
1.06793e-05
1.06793e-05
1.06793e-05
1.06793e-05
1.06793e-05
1.06793e-05
1.06793e-05
1.06793e-05
1.06794e-05
1.06794e-05
1.06794e-05
1.06794e-05
1.06793e-05
1.06793e-05
1.06793e-05
1.06793e-05
1.06793e-05
1.06793e-05
1.06793e-05
1.06792e-05
1.06792e-05
1.06792e-05
1.06793e-05
1.06793e-05
1.06793e-05
1.06793e-05
1.06792e-05
1.06793e-05
1.06793e-05
1.06793e-05
1.06793e-05
1.06793e-05
1.06793e-05
1.06794e-05
1.06794e-05
1.06794e-05
1.06794e-05
1.06793e-05
1.06793e-05
1.06793e-05
1.06793e-05
1.06793e-05
1.06793e-05
1.06793e-05
1.06794e-05
1.06794e-05
1.02667e-05
1.02668e-05
1.02668e-05
1.02668e-05
1.02668e-05
1.02669e-05
1.02669e-05
1.02669e-05
1.02669e-05
1.0267e-05
1.0267e-05
1.0267e-05
1.02671e-05
1.02671e-05
1.02671e-05
1.02671e-05
1.02671e-05
1.02671e-05
1.02671e-05
1.02671e-05
1.02671e-05
1.02671e-05
1.02671e-05
1.02671e-05
1.02671e-05
1.02671e-05
1.02671e-05
1.02671e-05
1.0267e-05
1.0267e-05
1.0267e-05
1.0267e-05
1.0267e-05
1.0267e-05
1.0267e-05
1.0267e-05
1.0267e-05
1.0267e-05
1.0267e-05
1.0267e-05
1.0267e-05
1.0267e-05
1.0267e-05
1.0267e-05
1.0267e-05
1.02671e-05
1.02671e-05
1.02671e-05
1.02671e-05
1.02671e-05
1.02671e-05
1.02671e-05
1.02671e-05
1.02671e-05
1.02671e-05
1.02671e-05
1.02671e-05
1.02671e-05
1.02671e-05
1.02671e-05
9.97129e-06
9.95206e-06
9.95367e-06
9.95037e-06
9.95122e-06
9.95034e-06
9.96986e-06
9.96961e-06
9.95507e-06
9.95219e-06
9.97163e-06
9.9521e-06
9.97185e-06
9.9706e-06
9.95445e-06
9.95294e-06
9.97126e-06
9.95357e-06
9.95251e-06
9.97096e-06
9.9691e-06
9.97296e-06
9.95342e-06
9.95333e-06
9.95205e-06
9.9499e-06
9.9516e-06
9.94972e-06
9.97084e-06
9.9498e-06
9.97015e-06
9.95221e-06
9.95205e-06
9.97002e-06
9.97133e-06
9.95355e-06
9.95537e-06
9.95043e-06
9.97177e-06
9.94967e-06
9.9734e-06
9.95096e-06
9.97282e-06
9.95037e-06
9.95143e-06
9.95093e-06
9.9502e-06
9.95032e-06
9.95169e-06
9.95243e-06
9.96856e-06
9.97106e-06
9.95174e-06
9.9724e-06
9.95247e-06
9.95398e-06
9.97082e-06
9.97275e-06
9.95359e-06
9.97173e-06
1.41995e-05
1.42057e-05
1.42111e-05
1.42103e-05
1.42097e-05
1.42096e-05
1.42024e-05
1.41961e-05
1.42064e-05
1.42104e-05
1.42023e-05
1.42079e-05
1.42029e-05
1.4198e-05
1.42067e-05
1.42109e-05
1.42021e-05
1.42082e-05
1.42112e-05
1.42036e-05
1.41973e-05
1.41979e-05
1.42066e-05
1.42102e-05
1.4211e-05
1.42096e-05
1.42099e-05
1.42092e-05
1.42018e-05
1.42063e-05
1.41999e-05
1.42059e-05
1.42101e-05
1.42019e-05
1.41978e-05
1.42053e-05
1.42123e-05
1.42104e-05
1.42025e-05
1.42063e-05
1.42019e-05
1.42067e-05
1.42023e-05
1.42064e-05
1.42088e-05
1.42091e-05
1.42089e-05
1.4209e-05
1.42094e-05
1.42115e-05
1.4202e-05
1.41976e-05
1.42059e-05
1.42016e-05
1.42064e-05
1.42113e-05
1.42029e-05
1.41996e-05
1.4208e-05
1.42023e-05
1.5604e-05
1.561e-05
1.56159e-05
1.56176e-05
1.56169e-05
1.5617e-05
1.56097e-05
1.56007e-05
1.56086e-05
1.56158e-05
1.56073e-05
1.5613e-05
1.56081e-05
1.56021e-05
1.56094e-05
1.56162e-05
1.56073e-05
1.56125e-05
1.56172e-05
1.56101e-05
1.5603e-05
1.56003e-05
1.56094e-05
1.56147e-05
1.56172e-05
1.56173e-05
1.5617e-05
1.56168e-05
1.56078e-05
1.56127e-05
1.56053e-05
1.56103e-05
1.56159e-05
1.56082e-05
1.56016e-05
1.5608e-05
1.56159e-05
1.56173e-05
1.56082e-05
1.56128e-05
1.5606e-05
1.56119e-05
1.56064e-05
1.5612e-05
1.56147e-05
1.56158e-05
1.5616e-05
1.56162e-05
1.56159e-05
1.56179e-05
1.56098e-05
1.56018e-05
1.56102e-05
1.56055e-05
1.56105e-05
1.56162e-05
1.56089e-05
1.5603e-05
1.56117e-05
1.56067e-05
1.61279e-05
1.61313e-05
1.61357e-05
1.61391e-05
1.61389e-05
1.61391e-05
1.61347e-05
1.61259e-05
1.6129e-05
1.61359e-05
1.61305e-05
1.61342e-05
1.61314e-05
1.61261e-05
1.61296e-05
1.61364e-05
1.61307e-05
1.61332e-05
1.61378e-05
1.61339e-05
1.61284e-05
1.61235e-05
1.61293e-05
1.61345e-05
1.61376e-05
1.61393e-05
1.61389e-05
1.61392e-05
1.61321e-05
1.61352e-05
1.61296e-05
1.61318e-05
1.61366e-05
1.61324e-05
1.61258e-05
1.61287e-05
1.61346e-05
1.61386e-05
1.61319e-05
1.6135e-05
1.61293e-05
1.61334e-05
1.61291e-05
1.61334e-05
1.61359e-05
1.61374e-05
1.61378e-05
1.61384e-05
1.61377e-05
1.6139e-05
1.61347e-05
1.61264e-05
1.61315e-05
1.61282e-05
1.61312e-05
1.61363e-05
1.61325e-05
1.61264e-05
1.61322e-05
1.61293e-05
1.62762e-05
1.62776e-05
1.628e-05
1.62836e-05
1.62841e-05
1.62845e-05
1.62822e-05
1.62759e-05
1.62758e-05
1.62799e-05
1.62774e-05
1.62797e-05
1.62783e-05
1.62748e-05
1.62757e-05
1.62804e-05
1.62777e-05
1.62787e-05
1.6282e-05
1.62805e-05
1.62776e-05
1.62723e-05
1.6275e-05
1.62787e-05
1.62815e-05
1.62842e-05
1.62842e-05
1.62848e-05
1.628e-05
1.62816e-05
1.6278e-05
1.62784e-05
1.62813e-05
1.62795e-05
1.62748e-05
1.62754e-05
1.62779e-05
1.62829e-05
1.6279e-05
1.62811e-05
1.62769e-05
1.62793e-05
1.62763e-05
1.6279e-05
1.62809e-05
1.62826e-05
1.62831e-05
1.6284e-05
1.62833e-05
1.62839e-05
1.6282e-05
1.62758e-05
1.62779e-05
1.62756e-05
1.6277e-05
1.62805e-05
1.62791e-05
1.62746e-05
1.62776e-05
1.62762e-05
1.62451e-05
1.62456e-05
1.62465e-05
1.62491e-05
1.62502e-05
1.62509e-05
1.62499e-05
1.62465e-05
1.62444e-05
1.62464e-05
1.62453e-05
1.62467e-05
1.6246e-05
1.62442e-05
1.62438e-05
1.62463e-05
1.62455e-05
1.62459e-05
1.62479e-05
1.62474e-05
1.62465e-05
1.62427e-05
1.62433e-05
1.62451e-05
1.62471e-05
1.62499e-05
1.62502e-05
1.62513e-05
1.62484e-05
1.62491e-05
1.6247e-05
1.62465e-05
1.62478e-05
1.62472e-05
1.62446e-05
1.6244e-05
1.62446e-05
1.62482e-05
1.62465e-05
1.62482e-05
1.62454e-05
1.62468e-05
1.62446e-05
1.62461e-05
1.62474e-05
1.62489e-05
1.62495e-05
1.62505e-05
1.62502e-05
1.62501e-05
1.62495e-05
1.62457e-05
1.6246e-05
1.62442e-05
1.62448e-05
1.62465e-05
1.62463e-05
1.62438e-05
1.62449e-05
1.62442e-05
1.61211e-05
1.61214e-05
1.61215e-05
1.61228e-05
1.6124e-05
1.61249e-05
1.61245e-05
1.61233e-05
1.61209e-05
1.61215e-05
1.61209e-05
1.61216e-05
1.61212e-05
1.61206e-05
1.61197e-05
1.61209e-05
1.61208e-05
1.6121e-05
1.6122e-05
1.61219e-05
1.6122e-05
1.612e-05
1.61196e-05
1.61201e-05
1.61212e-05
1.61234e-05
1.6124e-05
1.61252e-05
1.61237e-05
1.61241e-05
1.6123e-05
1.61222e-05
1.61226e-05
1.61225e-05
1.61212e-05
1.61205e-05
1.61198e-05
1.61221e-05
1.61214e-05
1.61229e-05
1.61212e-05
1.61221e-05
1.61205e-05
1.61214e-05
1.6122e-05
1.61231e-05
1.61237e-05
1.61247e-05
1.61247e-05
1.61244e-05
1.61242e-05
1.61223e-05
1.6122e-05
1.61204e-05
1.61206e-05
1.6121e-05
1.61213e-05
1.612e-05
1.61203e-05
1.61198e-05
1.59446e-05
1.59446e-05
1.59444e-05
1.5945e-05
1.59458e-05
1.59467e-05
1.59466e-05
1.59464e-05
1.59449e-05
1.59447e-05
1.5944e-05
1.59445e-05
1.59441e-05
1.5944e-05
1.59435e-05
1.59437e-05
1.59437e-05
1.59438e-05
1.59443e-05
1.59443e-05
1.59448e-05
1.5944e-05
1.59434e-05
1.59434e-05
1.59438e-05
1.59451e-05
1.59456e-05
1.59469e-05
1.59463e-05
1.59466e-05
1.59461e-05
1.59455e-05
1.59453e-05
1.59453e-05
1.59447e-05
1.59444e-05
1.59432e-05
1.59444e-05
1.59442e-05
1.59453e-05
1.59444e-05
1.5945e-05
1.5944e-05
1.59444e-05
1.59447e-05
1.59453e-05
1.59458e-05
1.59466e-05
1.59469e-05
1.59466e-05
1.59465e-05
1.59457e-05
1.59454e-05
1.5944e-05
1.59441e-05
1.59439e-05
1.59441e-05
1.59435e-05
1.59435e-05
1.5943e-05
1.57345e-05
1.57345e-05
1.57342e-05
1.57343e-05
1.57347e-05
1.57354e-05
1.57354e-05
1.57356e-05
1.5735e-05
1.57346e-05
1.57338e-05
1.57341e-05
1.57337e-05
1.57339e-05
1.57336e-05
1.57334e-05
1.57334e-05
1.57334e-05
1.57336e-05
1.57336e-05
1.57341e-05
1.57339e-05
1.57335e-05
1.57333e-05
1.57334e-05
1.57341e-05
1.57344e-05
1.57354e-05
1.57353e-05
1.57356e-05
1.57354e-05
1.57352e-05
1.57348e-05
1.57348e-05
1.57345e-05
1.57344e-05
1.57334e-05
1.5734e-05
1.57337e-05
1.57345e-05
1.5734e-05
1.57345e-05
1.57339e-05
1.57341e-05
1.57342e-05
1.57345e-05
1.57349e-05
1.57353e-05
1.57358e-05
1.57355e-05
1.57355e-05
1.57352e-05
1.5735e-05
1.57341e-05
1.57341e-05
1.57337e-05
1.57337e-05
1.57333e-05
1.57332e-05
1.57328e-05
1.55001e-05
1.55001e-05
1.54998e-05
1.54997e-05
1.54998e-05
1.55002e-05
1.55002e-05
1.55006e-05
1.55004e-05
1.55001e-05
1.54994e-05
1.54996e-05
1.54993e-05
1.54994e-05
1.54993e-05
1.5499e-05
1.54989e-05
1.54989e-05
1.54989e-05
1.54988e-05
1.54993e-05
1.54992e-05
1.54991e-05
1.54989e-05
1.5499e-05
1.54992e-05
1.54994e-05
1.55001e-05
1.55001e-05
1.55005e-05
1.55004e-05
1.55005e-05
1.55002e-05
1.55001e-05
1.54999e-05
1.55e-05
1.54993e-05
1.54995e-05
1.54992e-05
1.54998e-05
1.54995e-05
1.54999e-05
1.54995e-05
1.54996e-05
1.54996e-05
1.54997e-05
1.55e-05
1.55002e-05
1.55006e-05
1.55005e-05
1.55004e-05
1.55004e-05
1.55004e-05
1.54998e-05
1.54998e-05
1.54994e-05
1.54993e-05
1.54989e-05
1.54988e-05
1.54985e-05
1.52462e-05
1.52461e-05
1.52458e-05
1.52456e-05
1.52455e-05
1.52457e-05
1.52457e-05
1.5246e-05
1.5246e-05
1.52458e-05
1.52454e-05
1.52455e-05
1.52452e-05
1.52453e-05
1.52453e-05
1.5245e-05
1.52449e-05
1.52448e-05
1.52447e-05
1.52445e-05
1.52449e-05
1.52449e-05
1.52449e-05
1.52449e-05
1.52449e-05
1.5245e-05
1.52451e-05
1.52454e-05
1.52455e-05
1.52459e-05
1.52459e-05
1.52461e-05
1.52459e-05
1.52458e-05
1.52458e-05
1.52459e-05
1.52454e-05
1.52455e-05
1.52452e-05
1.52455e-05
1.52453e-05
1.52456e-05
1.52454e-05
1.52455e-05
1.52455e-05
1.52455e-05
1.52457e-05
1.52458e-05
1.52461e-05
1.5246e-05
1.52459e-05
1.5246e-05
1.5246e-05
1.52457e-05
1.52458e-05
1.52455e-05
1.52452e-05
1.52449e-05
1.52448e-05
1.52445e-05
1.49749e-05
1.49748e-05
1.49745e-05
1.49743e-05
1.49741e-05
1.49742e-05
1.49741e-05
1.49744e-05
1.49744e-05
1.49743e-05
1.4974e-05
1.49741e-05
1.49739e-05
1.49739e-05
1.49739e-05
1.49737e-05
1.49736e-05
1.49735e-05
1.49734e-05
1.49731e-05
1.49734e-05
1.49734e-05
1.49735e-05
1.49735e-05
1.49736e-05
1.49736e-05
1.49736e-05
1.49738e-05
1.49738e-05
1.49742e-05
1.49742e-05
1.49744e-05
1.49743e-05
1.49742e-05
1.49743e-05
1.49744e-05
1.49741e-05
1.49741e-05
1.49738e-05
1.49741e-05
1.49739e-05
1.49742e-05
1.4974e-05
1.49741e-05
1.49741e-05
1.49741e-05
1.49742e-05
1.49743e-05
1.49744e-05
1.49744e-05
1.49743e-05
1.49744e-05
1.49745e-05
1.49742e-05
1.49744e-05
1.49742e-05
1.49739e-05
1.49736e-05
1.49736e-05
1.49733e-05
1.46876e-05
1.46876e-05
1.46874e-05
1.46871e-05
1.46868e-05
1.46868e-05
1.46867e-05
1.46869e-05
1.46869e-05
1.46868e-05
1.46866e-05
1.46867e-05
1.46866e-05
1.46866e-05
1.46867e-05
1.46865e-05
1.46864e-05
1.46862e-05
1.46861e-05
1.46859e-05
1.46861e-05
1.46861e-05
1.46862e-05
1.46862e-05
1.46862e-05
1.46862e-05
1.46863e-05
1.46864e-05
1.46864e-05
1.46866e-05
1.46866e-05
1.46869e-05
1.46868e-05
1.46868e-05
1.46868e-05
1.4687e-05
1.46868e-05
1.46867e-05
1.46865e-05
1.46867e-05
1.46866e-05
1.46868e-05
1.46867e-05
1.46868e-05
1.46868e-05
1.46868e-05
1.46869e-05
1.46869e-05
1.4687e-05
1.4687e-05
1.46868e-05
1.46869e-05
1.4687e-05
1.46869e-05
1.4687e-05
1.46869e-05
1.46867e-05
1.46864e-05
1.46864e-05
1.46862e-05
1.43853e-05
1.43853e-05
1.43851e-05
1.43848e-05
1.43845e-05
1.43845e-05
1.43843e-05
1.43844e-05
1.43844e-05
1.43844e-05
1.43842e-05
1.43843e-05
1.43842e-05
1.43842e-05
1.43843e-05
1.43842e-05
1.43841e-05
1.43839e-05
1.43838e-05
1.43836e-05
1.43837e-05
1.43838e-05
1.43838e-05
1.43838e-05
1.43839e-05
1.43839e-05
1.43839e-05
1.4384e-05
1.4384e-05
1.43842e-05
1.43842e-05
1.43844e-05
1.43843e-05
1.43843e-05
1.43843e-05
1.43845e-05
1.43843e-05
1.43843e-05
1.43842e-05
1.43843e-05
1.43843e-05
1.43844e-05
1.43844e-05
1.43844e-05
1.43844e-05
1.43845e-05
1.43845e-05
1.43845e-05
1.43846e-05
1.43845e-05
1.43844e-05
1.43845e-05
1.43846e-05
1.43845e-05
1.43846e-05
1.43845e-05
1.43843e-05
1.43841e-05
1.43841e-05
1.43839e-05
1.40685e-05
1.40685e-05
1.40683e-05
1.40681e-05
1.40678e-05
1.40677e-05
1.40675e-05
1.40676e-05
1.40676e-05
1.40676e-05
1.40674e-05
1.40675e-05
1.40674e-05
1.40674e-05
1.40675e-05
1.40674e-05
1.40673e-05
1.40672e-05
1.40671e-05
1.40669e-05
1.4067e-05
1.4067e-05
1.40671e-05
1.4067e-05
1.40671e-05
1.40671e-05
1.40671e-05
1.40672e-05
1.40672e-05
1.40673e-05
1.40673e-05
1.40675e-05
1.40674e-05
1.40674e-05
1.40675e-05
1.40676e-05
1.40675e-05
1.40674e-05
1.40673e-05
1.40675e-05
1.40675e-05
1.40676e-05
1.40676e-05
1.40676e-05
1.40676e-05
1.40676e-05
1.40677e-05
1.40677e-05
1.40677e-05
1.40677e-05
1.40676e-05
1.40676e-05
1.40677e-05
1.40676e-05
1.40677e-05
1.40677e-05
1.40676e-05
1.40674e-05
1.40673e-05
1.40672e-05
1.37378e-05
1.37378e-05
1.37376e-05
1.37374e-05
1.37372e-05
1.37371e-05
1.37369e-05
1.3737e-05
1.3737e-05
1.37369e-05
1.37368e-05
1.37369e-05
1.37368e-05
1.37368e-05
1.37368e-05
1.37368e-05
1.37367e-05
1.37366e-05
1.37365e-05
1.37363e-05
1.37364e-05
1.37364e-05
1.37364e-05
1.37364e-05
1.37364e-05
1.37365e-05
1.37365e-05
1.37366e-05
1.37366e-05
1.37367e-05
1.37367e-05
1.37368e-05
1.37368e-05
1.37367e-05
1.37368e-05
1.37368e-05
1.37368e-05
1.37367e-05
1.37366e-05
1.37368e-05
1.37368e-05
1.37369e-05
1.37369e-05
1.37369e-05
1.37369e-05
1.37369e-05
1.3737e-05
1.3737e-05
1.3737e-05