/*--------------------------------*- C++ -*----------------------------------*\
| =========                 |                                                 |
| \\      /  F ield         | OpenFOAM: The Open Source CFD Toolbox           |
|  \\    /   O peration     | Version:  2312                                  |
|   \\  /    A nd           | Website:  www.openfoam.com                      |
|    \\/     M anipulation  |                                                 |
\*---------------------------------------------------------------------------*/
FoamFile
{
    version     2.0;
    format      ascii;
    arch        "LSB;label=32;scalar=64";
    class       volScalarField;
    location    "400";
    object      p;
}
// * * * * * * * * * * * * * * * * * * * * * * * * * * * * * * * * * * * * * //

dimensions      [0 2 -2 0 0 0 0];

internalField   nonuniform List<scalar> 
144000
(
4.93261e-09
-1.70684e-08
-1.26151e-07
-1.64821e-07
5.24167e-08
-1.59525e-08
-5.17388e-08
1.70417e-07
2.03743e-07
5.21982e-08
-7.65995e-09
-1.47902e-09
-7.80776e-08
-1.26019e-07
-2.49172e-08
1.61449e-07
6.84453e-08
-8.88531e-08
-1.71517e-07
1.17843e-08
2.9407e-07
1.41394e-07
-9.60793e-08
5.62038e-08
5.02365e-08
-1.51371e-07
5.00011e-08
-1.12324e-08
-1.56472e-07
8.71662e-08
9.8358e-08
9.91771e-08
1.60622e-08
1.12249e-08
2.2457e-07
2.4258e-07
1.62552e-08
4.14831e-08
1.40764e-07
-9.60885e-08
1.04994e-07
1.6647e-07
-1.3977e-09
-5.02275e-08
9.83394e-09
2.37471e-07
1.24802e-07
-7.69063e-08
-7.4762e-08
-1.24894e-07
-1.60284e-07
1.23593e-07
8.88901e-08
-2.01766e-07
-4.02193e-08
1.67661e-07
6.99814e-08
-3.281e-08
-3.52873e-08
-2.25248e-08
5.0305e-09
-1.6564e-08
-1.24687e-07
-1.50987e-07
5.06797e-08
-1.5045e-08
-3.83368e-08
1.68143e-07
1.88197e-07
3.90005e-08
-6.04354e-09
-8.52217e-10
-7.70712e-08
-1.10346e-07
-1.31416e-08
1.44354e-07
5.49181e-08
-8.61965e-08
-1.55862e-07
2.27144e-08
2.76217e-07
1.29796e-07
-7.91884e-08
5.42985e-08
3.72662e-08
-1.35211e-07
4.80077e-08
-2.45299e-08
-1.41327e-07
8.5863e-08
9.81739e-08
9.90508e-08
1.68762e-08
2.49823e-08
2.2219e-07
2.2839e-07
1.81961e-08
3.99733e-08
1.27891e-07
-8.0123e-08
1.02889e-07
1.5229e-07
6.63941e-10
-3.38999e-08
2.15016e-08
2.20304e-07
1.11889e-07
-7.53177e-08
-7.42127e-08
-1.23374e-07
-1.46348e-07
1.209e-07
7.58803e-08
-1.84755e-07
-2.8502e-08
1.50184e-07
5.65064e-08
-3.14925e-08
-3.47356e-08
-2.26055e-08
4.8048e-09
-1.60689e-08
-1.2198e-07
-1.46264e-07
4.79038e-08
-1.32864e-08
-3.40126e-08
1.63877e-07
1.81163e-07
3.56871e-08
-3.46432e-09
2.77742e-11
-7.53075e-08
-1.0292e-07
-1.15504e-08
1.34846e-07
5.09307e-08
-8.13187e-08
-1.48045e-07
2.31119e-08
2.65506e-07
1.28182e-07
-7.11069e-08
5.05749e-08
3.42583e-08
-1.27975e-07
4.45491e-08
-2.77812e-08
-1.3482e-07
8.3873e-08
9.7546e-08
9.89144e-08
1.85696e-08
2.96031e-08
2.1776e-07
2.23023e-07
2.12106e-08
3.77444e-08
1.24817e-07
-7.27432e-08
9.90455e-08
1.4709e-07
4.51483e-09
-2.58256e-08
2.29343e-08
2.10505e-07
1.0844e-07
-7.26321e-08
-7.34261e-08
-1.20333e-07
-1.41737e-07
1.16072e-07
7.25722e-08
-1.7569e-07
-2.67333e-08
1.40803e-07
5.25009e-08
-2.93117e-08
-3.36619e-08
-2.26512e-08
4.39344e-09
-1.59115e-08
-1.183e-07
-1.4254e-07
4.42788e-08
-1.08564e-08
-3.1111e-08
1.57572e-07
1.74899e-07
3.47517e-08
-4.88445e-10
1.07851e-09
-7.27563e-08
-9.66362e-08
-1.24826e-08
1.25303e-07
4.87546e-08
-7.5269e-08
-1.40184e-07
2.11628e-08
2.5414e-07
1.2862e-07
-6.34967e-08
4.59035e-08
3.32283e-08
-1.21361e-07
3.98238e-08
-2.84832e-08
-1.28902e-07
8.1178e-08
9.67035e-08
9.87031e-08
2.16268e-08
3.27731e-08
2.11449e-07
2.18429e-07
2.49686e-08
3.53798e-08
1.23355e-07
-6.55073e-08
9.39207e-08
1.43131e-07
9.36314e-09
-1.853e-08
2.2167e-08
2.00206e-07
1.06734e-07
-6.90469e-08
-7.2727e-08
-1.16167e-07
-1.38009e-07
1.09264e-07
7.08955e-08
-1.6637e-07
-2.75449e-08
1.316e-07
5.03874e-08
-2.66947e-08
-3.24177e-08
-2.24667e-08
3.89802e-09
-1.60338e-08
-1.1371e-07
-1.38123e-07
4.02175e-08
-7.97674e-09
-2.80522e-08
1.49901e-07
1.67916e-07
3.4171e-08
2.6571e-09
2.43141e-09
-6.94643e-08
-8.97087e-08
-1.39624e-08
1.14608e-07
4.65093e-08
-6.84341e-08
-1.30851e-07
1.89635e-08
2.41096e-07
1.29019e-07
-5.50408e-08
4.05475e-08
3.23052e-08
-1.13963e-07
3.41954e-08
-2.83851e-08
-1.22203e-07
7.79166e-08
9.5707e-08
9.84052e-08
2.56877e-08
3.60321e-08
2.03621e-07
2.12888e-07
2.95957e-08
3.29434e-08
1.21728e-07
-5.70503e-08
8.78785e-08
1.38635e-07
1.47539e-08
-1.04922e-08
2.12518e-08
1.88207e-07
1.04883e-07
-6.4713e-08
-7.20588e-08
-1.11009e-07
-1.33451e-07
1.00651e-07
6.91087e-08
-1.55199e-07
-2.90281e-08
1.20804e-07
4.82627e-08
-2.38557e-08
-3.10202e-08
-2.20171e-08
3.36372e-09
-1.63094e-08
-1.08362e-07
-1.33121e-07
3.5584e-08
-4.86263e-09
-2.49298e-08
1.41332e-07
1.60452e-07
3.36845e-08
5.68692e-09
4.13618e-09
-6.55708e-08
-8.20756e-08
-1.5687e-08
1.02336e-07
4.41107e-08
-6.11761e-08
-1.20479e-07
1.68422e-08
2.26904e-07
1.29126e-07
-4.60911e-08
3.48385e-08
3.13422e-08
-1.0606e-07
2.81323e-08
-2.76138e-08
-1.14976e-07
7.42592e-08
9.45768e-08
9.80501e-08
3.01088e-08
3.9286e-08
1.94899e-07
2.0646e-07
3.50264e-08
3.05141e-08
1.19852e-07
-4.76385e-08
8.13384e-08
1.33686e-07
2.0236e-08
-1.96166e-09
2.05025e-08
1.75016e-07
1.02757e-07
-5.98523e-08
-7.13604e-08
-1.05096e-07
-1.28168e-07
9.09839e-08
6.72077e-08
-1.431e-07
-3.08741e-08
1.0922e-07
4.59622e-08
-2.09889e-08
-2.94618e-08
-2.13501e-08
2.80167e-09
-1.66342e-08
-1.0249e-07
-1.27778e-07
3.05475e-08
-1.67288e-09
-2.18907e-08
1.32211e-07
1.52806e-07
3.32943e-08
8.33507e-09
6.11697e-09
-6.1274e-08
-7.45588e-08
-1.75228e-08
9.01351e-08
4.15558e-08
-5.38456e-08
-1.09634e-07
1.49328e-08
2.1231e-07
1.28736e-07
-3.70683e-08
2.91216e-08
3.03264e-08
-9.80012e-08
2.20134e-08
-2.62034e-08
-1.07474e-07
7.03294e-08
9.32996e-08
9.76592e-08
3.47671e-08
4.24152e-08
1.85738e-07
1.99358e-07
4.09644e-08
2.82621e-08
1.17741e-07
-3.75122e-08
7.44026e-08
1.28558e-07
2.56237e-08
6.65065e-09
2.00589e-08
1.61284e-07
1.00392e-07
-5.46464e-08
-7.06059e-08
-9.87651e-08
-1.22403e-07
8.07643e-08
6.52336e-08
-1.30771e-07
-3.28775e-08
9.76995e-08
4.35233e-08
-1.82334e-08
-2.78067e-08
-2.05685e-08
2.2026e-09
-1.69394e-08
-9.63266e-08
-1.2222e-07
2.53561e-08
1.43659e-09
-1.89327e-08
1.22801e-07
1.45061e-07
3.30153e-08
1.04681e-08
8.24697e-09
-5.67588e-08
-6.74352e-08
-1.92432e-08
7.83001e-08
3.89054e-08
-4.66992e-08
-9.86909e-08
1.33348e-08
1.97678e-07
1.27783e-07
-2.81932e-08
2.36607e-08
2.91887e-08
-8.99464e-08
1.60873e-08
-2.42826e-08
-9.97811e-08
6.62214e-08
9.18388e-08
9.72244e-08
3.95889e-08
4.54708e-08
1.76433e-07
1.91727e-07
4.7103e-08
2.63456e-08
1.15333e-07
-2.69475e-08
6.76597e-08
1.23337e-07
3.06795e-08
1.50617e-08
2.00547e-08
1.47496e-07
9.77531e-08
-4.91977e-08
-6.97474e-08
-9.2332e-08
-1.16309e-07
7.03301e-08
6.31151e-08
-1.18567e-07
-3.48392e-08
8.65277e-08
4.0957e-08
-1.5654e-08
-2.61184e-08
-1.97772e-08
1.55234e-09
-1.71853e-08
-9.00531e-08
-1.16526e-07
2.01864e-08
4.37209e-09
-1.60187e-08
1.13292e-07
1.37251e-07
3.28636e-08
1.20687e-08
1.04216e-08
-5.21437e-08
-6.07735e-08
-2.0681e-08
6.70875e-08
3.62833e-08
-3.98901e-08
-8.7884e-08
1.20855e-08
1.83333e-07
1.26263e-07
-1.96702e-08
1.86238e-08
2.78839e-08
-8.19265e-08
1.0505e-08
-2.20043e-08
-9.19695e-08
6.20312e-08
9.01641e-08
9.67075e-08
4.44836e-08
4.85087e-08
1.67067e-07
1.83724e-07
5.31827e-08
2.48028e-08
1.12543e-07
-1.62483e-08
6.12231e-08
1.18069e-07
3.52302e-08
2.27855e-08
2.05551e-08
1.34e-07
9.48053e-08
-4.35748e-08
-6.87102e-08
-8.60195e-08
-1.10002e-07
5.99828e-08
6.0767e-08
-1.06707e-07
-3.65288e-08
7.57751e-08
3.83023e-08
-1.3271e-08
-2.44288e-08
-1.90293e-08
8.46732e-10
-1.73499e-08
-8.38034e-08
-1.10764e-07
1.51491e-08
7.06119e-09
-1.31309e-08
1.03848e-07
1.2943e-07
3.28415e-08
1.3188e-08
1.25638e-08
-4.7492e-08
-5.46046e-08
-2.17479e-08
5.66599e-08
3.37e-08
-3.35145e-08
-7.73701e-08
1.11907e-08
1.69495e-07
1.24187e-07
-1.15733e-08
1.41176e-08
2.64513e-08
-7.40543e-08
5.36688e-09
-1.95207e-08
-8.4156e-08
5.78694e-08
8.8276e-08
9.6063e-08
4.93311e-08
5.14298e-08
1.57943e-07
1.75511e-07
5.89964e-08
2.37666e-08
1.09351e-07
-6.08241e-09
5.56682e-08
1.12819e-07
3.91911e-08
2.96747e-08
2.15563e-08
1.2109e-07
9.15343e-08
-3.7854e-08
-6.7419e-08
-7.99709e-08
-1.03586e-07
4.99445e-08
5.81243e-08
-9.53519e-08
-3.78807e-08
6.53082e-08
3.56252e-08
-1.10865e-08
-2.27507e-08
-1.83248e-08
9.5072e-11
-1.74201e-08
-7.76772e-08
-1.04993e-07
1.03208e-08
9.43747e-09
-1.02738e-08
9.46307e-08
1.21668e-07
3.29321e-08
1.38901e-08
1.46014e-08
-4.28403e-08
-4.8941e-08
-2.24104e-08
4.71017e-08
3.11334e-08
-2.76359e-08
-6.73167e-08
1.06452e-08
1.56313e-07
1.21576e-07
-3.97485e-09
1.02292e-08
2.49287e-08
-6.64035e-08
7.51468e-10
-1.69679e-08
-7.64345e-08
5.38397e-08
8.62028e-08
9.52553e-08
5.39956e-08
5.41765e-08
1.49285e-07
1.67218e-07
6.43804e-08
2.33413e-08
1.05802e-07
3.99067e-09
5.07884e-08
1.07657e-07
4.25451e-08
3.56507e-08
2.30085e-08
1.08973e-07
8.79358e-08
-3.21282e-08
-6.58117e-08
-7.42818e-08
-9.71482e-08
4.04058e-08
5.5151e-08
-8.46243e-08
-3.88671e-08
5.57923e-08
3.29681e-08
-9.08409e-09
-2.10901e-08
-1.76449e-08
-6.86799e-10
-1.739e-08
-7.17452e-08
-9.92489e-08
5.76167e-09
1.14448e-08
-7.46349e-09
8.57829e-08
1.1387e-07
3.31016e-08
1.42328e-08
1.64625e-08
-3.82172e-08
-4.37736e-08
-2.26684e-08
3.84543e-08
2.85749e-08
-2.23044e-08
-5.7827e-08
1.04376e-08
1.43886e-07
1.18469e-07
3.06874e-09
7.01504e-09
2.33203e-08
-5.90465e-08
-3.24874e-09
-1.44502e-08
-6.88621e-08
5.00003e-08
8.39941e-08
9.42647e-08
5.83636e-08
5.67479e-08
1.41208e-07
1.58952e-07
6.9191e-08
2.357e-08
1.01937e-07
1.35856e-08
4.67307e-08
1.02645e-07
4.53115e-08
4.06838e-08
2.48341e-08
9.77852e-08
8.40173e-08
-2.64998e-08
-6.38433e-08
-6.90139e-08
-9.07725e-08
3.15176e-08
5.18444e-08
-7.46152e-08
-3.9468e-08
4.68222e-08
3.03277e-08
-7.29733e-09
-1.94535e-08
-1.69715e-08
-1.48025e-09
-1.72608e-08
-6.60533e-08
-9.35591e-08
1.5211e-09
1.30482e-08
-4.71983e-09
7.74192e-08
1.06618e-07
3.33192e-08
1.42858e-08
1.80788e-08
-3.36517e-08
-3.9073e-08
-2.25427e-08
3.07324e-08
2.6031e-08
-1.75285e-08
-4.89654e-08
1.05414e-08
1.32277e-07
1.14928e-07
9.51835e-09
4.49605e-09
2.16292e-08
-5.20296e-08
-6.58162e-09
-1.20372e-08
-6.14815e-08
4.63958e-08
8.17073e-08
9.30872e-08
6.2354e-08
5.9141e-08
1.33767e-07
1.50809e-07
7.32451e-08
2.42977e-08
9.78111e-08
2.25374e-08
4.35621e-08
9.78325e-08
4.75289e-08
4.47838e-08
2.69349e-08
8.76155e-08
7.9806e-08
-2.10702e-08
-6.14919e-08
-6.41961e-08
-8.45307e-08
2.33859e-08
4.82318e-08
-6.53884e-08
-3.96802e-08
3.8726e-08
2.76815e-08
-5.78319e-09
-1.786e-08
-1.62861e-08
-2.27058e-09
-1.7045e-08
-6.06363e-08
-8.79393e-08
-2.3598e-09
1.42415e-08
-2.06739e-09
6.96059e-08
9.94323e-08
3.35592e-08
1.41182e-08
1.93945e-08
-2.9178e-08
-3.47956e-08
-2.20597e-08
2.39293e-08
2.35131e-08
-1.33118e-08
-4.07649e-08
1.09142e-08
1.21514e-07
1.11025e-07
1.535e-08
2.66275e-09
1.98743e-08
-4.53931e-08
-9.24971e-09
-9.76746e-09
-5.43272e-08
4.30829e-08
7.93939e-08
9.1731e-08
6.5916e-08
6.13463e-08
1.26972e-07
1.42881e-07
7.69936e-08
2.56937e-08
9.35091e-08
3.07479e-08
4.12823e-08
9.32444e-08
4.92807e-08
4.80102e-08
2.92003e-08
7.85136e-08
7.53495e-08
-1.59332e-08
-5.87636e-08
-5.98344e-08
-7.84786e-08
1.60767e-08
4.43641e-08
-5.6987e-08
-3.95127e-08
3.09644e-08
2.50336e-08
-4.54847e-09
-1.63432e-08
-1.57056e-08
-3.04942e-09
-1.6772e-08
-5.55244e-08
-8.23985e-08
-5.84664e-09
1.49636e-08
4.64124e-10
6.23853e-08
9.23356e-08
3.37935e-08
1.3793e-08
2.0379e-08
-2.48371e-08
-3.08857e-08
-2.12307e-08
1.80206e-08
2.10348e-08
-9.65086e-09
-3.32318e-08
1.15044e-08
1.11606e-07
1.06843e-07
2.05522e-08
1.48264e-09
1.80898e-08
-3.91743e-08
-1.12779e-08
-7.65796e-09
-4.74276e-08
4.01055e-08
7.70955e-08
9.02113e-08
6.90234e-08
6.33632e-08
1.20809e-07
1.35244e-07
7.99373e-08
2.75585e-08
8.91258e-08
3.81355e-08
3.98458e-08
8.88971e-08
5.06611e-08
5.04484e-08
3.15184e-08
7.04908e-08
7.07141e-08
-1.11719e-08
-5.56932e-08
-5.59085e-08
-7.26575e-08
9.62212e-09
4.03129e-08
-4.94323e-08
-3.89751e-08
2.40554e-08
2.24103e-08
-3.57021e-09
-1.49402e-08
-1.51328e-08
-3.7972e-09
-1.64836e-08
-5.07533e-08
-7.69441e-08
-8.91239e-09
1.53194e-08
2.84161e-09
5.57885e-08
8.53808e-08
3.39865e-08
1.33728e-08
2.10229e-08
-2.06739e-08
-2.7288e-08
-2.00958e-08
1.29716e-08
1.86168e-08
-6.50555e-09
-2.63734e-08
1.22604e-08
1.02552e-07
1.02464e-07
2.51234e-08
9.06639e-10
1.63193e-08
-3.34011e-08
-1.2694e-08
-5.71702e-09
-4.08084e-08
3.7492e-08
7.48459e-08
8.85488e-08
7.16663e-08
6.51919e-08
1.15245e-07
1.27966e-07
8.21064e-08
2.98124e-08
8.47552e-08
4.46428e-08
3.91775e-08
8.48212e-08
5.1737e-08
5.21822e-08
3.37885e-08
6.34783e-08
6.59813e-08
-6.85071e-09
-5.23381e-08
-5.23767e-08
-6.70977e-08
4.02519e-09
3.61673e-08
-4.27177e-08
-3.81067e-08
1.78766e-08
1.98288e-08
-2.82755e-09
-1.368e-08
-1.45455e-08
-4.49845e-09
-1.62176e-08
-4.63334e-08
-7.15883e-08
-1.15443e-08
1.53376e-08
5.03256e-09
4.98354e-08
7.86029e-08
3.40984e-08
1.29154e-08
2.13241e-08
-1.67327e-08
-2.39652e-08
-1.87062e-08
8.74399e-09
1.62862e-08
-3.84191e-09
-2.01905e-08
1.31344e-08
9.43286e-08
9.79625e-08
2.90728e-08
8.75936e-10
1.46104e-08
-2.80895e-08
-1.35381e-08
-3.95235e-09
-3.4492e-08
3.52587e-08
7.26729e-08
8.67685e-08
7.38438e-08
6.68091e-08
1.10231e-07
1.21117e-07
8.35396e-08
3.23539e-08
8.04836e-08
5.02394e-08
3.91812e-08
8.10351e-08
5.25689e-08
5.33071e-08
3.59284e-08
5.75491e-08
6.12428e-08
-2.9965e-09
-4.87666e-08
-4.91838e-08
-6.18233e-08
-7.36226e-10
3.20242e-08
-3.67851e-08
-3.69654e-08
1.2397e-08
1.72998e-08
-2.3209e-09
-1.25747e-08
-1.39215e-08
-5.1563e-09
-1.59976e-08
-4.22634e-08
-6.63498e-08
-1.37444e-08
1.50486e-08
7.00979e-09
4.45308e-08
7.20581e-08
3.40883e-08
1.24713e-08
2.13003e-08
-1.30543e-08
-2.08878e-08
-1.71538e-08
5.29466e-09
1.40728e-08
-1.61704e-09
-1.46746e-08
1.4081e-08
8.69007e-08
9.34103e-08
3.24209e-08
1.32399e-09
1.30082e-08
-2.32437e-08
-1.38614e-08
-2.36694e-09
-2.84987e-08
3.34115e-08
7.05996e-08
8.4899e-08
7.55642e-08
6.82026e-08
1.05719e-07
1.14746e-07
8.42894e-08
3.50787e-08
7.63868e-08
5.49212e-08
3.97473e-08
7.75341e-08
5.32137e-08
5.39229e-08
3.78725e-08
5.25382e-08
5.65901e-08
3.64238e-10
-4.50467e-08
-4.62609e-08
-5.68533e-08
-4.70598e-09
2.79694e-08
-3.16036e-08
-3.56109e-08
7.57411e-09
1.48316e-08
-2.04217e-09
-1.16232e-08
-1.32391e-08
-5.76243e-09
-1.58353e-08
-3.8541e-08
-6.12516e-08
-1.55246e-08
1.4489e-08
8.75193e-09
3.98605e-08
6.57856e-08
3.39194e-08
1.20804e-08
2.09823e-08
-9.67285e-09
-1.80331e-08
-1.54161e-08
2.57575e-09
1.20062e-08
2.17073e-10
-9.80735e-09
1.50571e-08
8.02211e-08
8.88713e-08
3.51975e-08
2.17953e-09
1.15604e-08
-1.88581e-08
-1.37184e-08
-9.4311e-10
-2.2846e-08
3.19441e-08
6.86428e-08
8.29718e-08
7.68432e-08
6.95229e-08
1.01665e-07
1.08889e-07
8.44219e-08
3.79026e-08
7.25291e-08
5.87049e-08
4.07635e-08
7.43284e-08
5.3716e-08
5.41259e-08
3.95666e-08
4.83885e-08
5.2105e-08
3.21841e-09
-4.12438e-08
-4.35421e-08
-5.22e-08
-7.94674e-09
2.40655e-08
-2.71272e-08
-3.40942e-08
3.35677e-09
1.24365e-08
-1.96399e-09
-1.08193e-08
-1.25051e-08
-6.30876e-09
-1.57314e-08
-3.5162e-08
-5.63179e-08
-1.69019e-08
1.37042e-08
1.02452e-08
3.58045e-08
5.98151e-08
3.35679e-08
1.17683e-08
2.04068e-08
-6.61419e-09
-1.53863e-08
-1.35691e-08
5.35339e-10
1.01139e-08
1.70493e-09
-5.55864e-09
1.60243e-08
7.4233e-08
8.44008e-08
3.74388e-08
3.37863e-09
1.02916e-08
-1.4917e-08
-1.3164e-08
3.39822e-10
-1.75478e-08
3.08361e-08
6.68136e-08
8.1022e-08
7.76985e-08
7.05986e-08
9.80258e-08
1.03559e-07
8.40134e-08
4.07214e-08
6.89615e-08
6.16266e-08
4.2121e-08
7.14278e-08
5.41072e-08
5.40094e-08
4.09861e-08
4.50158e-08
4.78586e-08
5.57791e-09
-3.74227e-08
-4.09725e-08
-4.78683e-08
-1.05338e-08
2.03409e-08
-2.32905e-08
-3.24523e-08
-3.11641e-10
1.01229e-08
-2.05318e-09
-1.01573e-08
-1.1727e-08
-6.78553e-09
-1.56769e-08
-3.21197e-08
-5.15725e-08
-1.78968e-08
1.27419e-08
1.14828e-08
3.23329e-08
5.43499e-08
3.30267e-08
1.15451e-08
1.96182e-08
-3.89312e-09
-1.29371e-08
-1.16583e-08
-8.83927e-10
8.42293e-09
2.8918e-09
-1.88435e-09
1.69563e-08
6.88689e-08
8.00448e-08
3.91852e-08
4.83086e-09
9.23309e-09
-1.14002e-08
-1.22536e-08
1.49956e-09
-1.26128e-08
3.00535e-08
6.5113e-08
7.90904e-08
7.81602e-08
7.14505e-08
9.47552e-08
9.87556e-08
8.31473e-08
4.34586e-08
6.57201e-08
6.37384e-08
4.37163e-08
6.88313e-08
5.44073e-08
5.36641e-08
4.21184e-08
4.2312e-08
4.39108e-08
7.48152e-09
-3.36454e-08
-3.8509e-08
-4.38578e-08
-1.25456e-08
1.68341e-08
-2.00226e-08
-3.07289e-08
-3.47897e-09
7.88962e-09
-2.27671e-09
-9.63591e-09
-1.09274e-08
-7.17894e-09
-1.56558e-08
-2.94028e-08
-4.70372e-08
-1.85342e-08
1.16488e-08
1.24637e-08
2.94004e-08
4.92429e-08
3.22969e-08
1.14085e-08
1.86665e-08
-1.5117e-09
-1.06782e-08
-9.7353e-09
-1.75566e-09
6.9645e-09
3.82499e-09
1.27015e-09
1.78427e-08
6.40564e-08
7.58387e-08
4.04828e-08
6.47471e-09
8.39975e-09
-8.28114e-09
-1.10429e-08
2.56833e-09
-8.04419e-09
2.95523e-08
6.35232e-08
7.72187e-08
7.82728e-08
7.20893e-08
9.18051e-08
9.44645e-08
8.19105e-08
4.60471e-08
6.28293e-08
6.51071e-08
4.54494e-08
6.65274e-08
5.46215e-08
5.31675e-08
4.29658e-08
4.01756e-08
4.03048e-08
8.96391e-09
-2.99643e-08
-3.61195e-08
-4.01635e-08
-1.40596e-08
1.35738e-08
-1.72557e-08
-2.89216e-08
-6.18225e-09
5.75396e-09
-2.60421e-09
-9.25768e-09
-1.01411e-08
-7.47798e-09
-1.56492e-08
-2.69963e-08
-4.2731e-08
-1.88435e-08
1.04694e-08
1.31936e-08
2.69555e-08
4.45408e-08
3.13884e-08
1.135e-08
1.76042e-08
5.35031e-10
-8.60585e-09
-7.85455e-09
-2.17593e-09
5.77044e-09
4.55096e-09
3.95979e-09
1.86675e-08
5.97264e-08
7.18082e-08
4.13834e-08
8.24715e-09
7.79637e-09
-5.5282e-09
-9.58675e-09
3.56829e-09
-3.83904e-09
2.92865e-08
6.20264e-08
7.54414e-08
7.80886e-08
7.25254e-08
8.91295e-08
9.06581e-08
8.03899e-08
4.84322e-08
6.03031e-08
6.58192e-08
4.72244e-08
6.44965e-08
5.47511e-08
5.25858e-08
4.35444e-08
3.85108e-08
3.70638e-08
1.00689e-08
-2.64207e-08
-3.37822e-08
-3.67682e-08
-1.51496e-08
1.05665e-08
-1.49247e-08
-2.71102e-08
-8.45493e-09
3.72539e-09
-3.00277e-09
-9.01906e-09
-9.40694e-09
-7.67996e-09
-1.56387e-08
-2.48821e-08
-3.86686e-08
-1.88604e-08
9.31004e-09
1.36873e-08
2.49429e-08
4.02592e-08
3.03206e-08
1.13586e-08
1.64799e-08
2.26499e-09
-6.71831e-09
-6.06285e-09
-2.22579e-09
4.86103e-09
5.12348e-09
6.23425e-09
1.9412e-08
5.58171e-08
6.7971e-08
4.19406e-08
1.00916e-08
7.42088e-09
-3.10461e-09
-7.9395e-09
4.52305e-09
1.21715e-11
2.92148e-08
6.06144e-08
7.3776e-08
7.76645e-08
7.2773e-08
8.66821e-08
8.73029e-08
7.86705e-08
5.05744e-08
5.81449e-08
6.59688e-08
4.89551e-08
6.27162e-08
5.48053e-08
5.19713e-08
4.38804e-08
3.72294e-08
3.41971e-08
1.08474e-08
-2.3047e-08
-3.14868e-08
-3.36564e-08
-1.58814e-08
7.82105e-09
-1.29668e-08
-2.53164e-08
-1.0332e-08
1.80601e-09
-3.43499e-09
-8.8932e-09
-8.76149e-09
-7.78783e-09
-1.56074e-08
-2.30418e-08
-3.48589e-08
-1.86242e-08
8.02323e-09
1.39665e-08
2.33043e-08
3.6399e-08
2.91212e-08
1.14241e-08
1.53314e-08
3.6968e-09
-5.01163e-09
-4.39461e-09
-1.96442e-09
4.23758e-09
5.58324e-09
8.13889e-09
2.00676e-08
5.22748e-08
6.43343e-08
4.22067e-08
1.19626e-08
7.26423e-09
-9.72351e-10
-6.15264e-09
5.44937e-09
3.52667e-09
2.93028e-08
5.92778e-08
7.22289e-08
7.70518e-08
7.28527e-08
8.44158e-08
8.43436e-08
7.68995e-08
5.24506e-08
5.63488e-08
6.56439e-08
5.057e-08
6.11638e-08
5.47898e-08
5.13579e-08
4.40078e-08
3.62415e-08
3.1701e-08
1.1353e-08
-1.98652e-08
-2.92329e-08
-3.08079e-08
-1.63098e-08
5.3363e-09
-1.13238e-08
-2.35541e-08
-1.18507e-08
-7.85987e-12
-3.86581e-09
-8.84999e-09
-8.23598e-09
1.94597e-07
7.80758e-08
-1.27056e-07
-9.41325e-08
-4.41965e-08
-1.43925e-07
-3.24253e-09
2.7187e-07
4.15746e-08
-1.76143e-07
4.96683e-08
-2.31608e-08
-6.43843e-08
2.04063e-07
2.9588e-08
-1.63758e-07
4.97462e-08
1.0278e-08
-2.00024e-07
9.23611e-09
2.47696e-07
2.49528e-07
6.99818e-08
-3.66998e-08
-4.56144e-08
-4.79587e-08
-1.72498e-08
-1.17386e-07
3.96017e-08
7.04102e-08
1.12083e-07
1.44026e-07
-9.57139e-08
9.14178e-08
2.98788e-07
1.25115e-07
-9.31516e-08
-7.23366e-08
1.29163e-07
7.92789e-08
1.1843e-07
7.55004e-08
4.95503e-08
1.49479e-07
2.60957e-08
3.37366e-08
1.36804e-08
-2.31968e-08
-8.17435e-08
-2.27743e-07
-5.85226e-08
2.23178e-07
-2.35989e-08
-2.58523e-10
5.20003e-08
-1.85585e-07
-4.44303e-08
1.42664e-07
-6.25309e-08
-8.07072e-08
1.77768e-07
6.56118e-08
-1.25193e-07
-9.41e-08
-4.2979e-08
-1.28309e-07
7.50667e-09
2.54231e-07
3.00764e-08
-1.60145e-07
4.86805e-08
-2.18004e-08
-5.18639e-08
1.86886e-07
1.76677e-08
-1.47624e-07
4.77288e-08
-2.68761e-09
-1.83468e-07
2.12278e-08
2.44921e-07
2.34179e-07
5.74938e-08
-3.50669e-08
-4.46994e-08
-4.80367e-08
-1.59367e-08
-1.02964e-07
3.79149e-08
7.02146e-08
1.10311e-07
1.30835e-07
-7.85065e-08
1.0262e-07
2.81816e-07
1.1227e-07
-9.0426e-08
-5.80362e-08
1.28198e-07
7.91497e-08
1.18128e-07
7.62021e-08
4.8264e-08
1.35468e-07
2.73011e-08
3.4184e-08
1.41805e-08
-2.28489e-08
-8.03305e-08
-2.12171e-07
-4.82296e-08
2.06843e-07
-2.23853e-08
-1.57871e-09
3.89445e-08
-1.68503e-07
-3.29003e-08
1.26438e-07
-6.00476e-08
-6.80148e-08
1.68336e-07
6.27522e-08
-1.22019e-07
-9.39061e-08
-4.07058e-08
-1.20645e-07
7.79983e-09
2.44122e-07
2.88294e-08
-1.53058e-07
4.70033e-08
-1.94219e-08
-4.90345e-08
1.77942e-07
1.62542e-08
-1.40402e-07
4.40853e-08
-5.72073e-09
-1.74126e-07
2.39094e-08
2.39927e-07
2.26649e-07
5.45676e-08
-3.20853e-08
-4.3358e-08
-4.84959e-08
-1.34826e-08
-9.75263e-08
3.55405e-08
6.98405e-08
1.0728e-07
1.27591e-07
-6.91654e-08
1.03697e-07
2.7204e-07
1.09001e-07
-8.5462e-08
-5.29163e-08
1.26526e-07
7.84191e-08
1.17697e-07
7.71181e-08
4.59429e-08
1.30435e-07
2.93103e-08
3.46677e-08
1.46683e-08
-2.26352e-08
-7.76058e-08
-2.04557e-07
-4.85224e-08
1.99137e-07
-2.04257e-08
-3.64819e-09
3.59385e-08
-1.59161e-07
-3.16562e-08
1.18628e-07
-5.57434e-08
-6.48434e-08
1.58379e-07
6.16417e-08
-1.17731e-07
-9.35391e-08
-3.82124e-08
-1.13274e-07
5.68364e-09
2.33272e-07
3.02517e-08
-1.46444e-07
4.4354e-08
-1.62403e-08
-4.79903e-08
1.68714e-07
1.75513e-08
-1.33492e-07
3.91527e-08
-6.65941e-09
-1.64494e-07
2.46435e-08
2.33229e-07
2.1948e-07
5.3664e-08
-2.86766e-08
-4.16718e-08
-4.84824e-08
-1.06221e-08
-9.31067e-08
3.27439e-08
6.95699e-08
1.03637e-07
1.25991e-07
-5.97029e-08
1.02108e-07
2.62016e-07
1.07676e-07
-7.88603e-08
-4.9093e-08
1.24151e-07
7.76806e-08
1.16699e-07
7.80851e-08
4.3485e-08
1.2643e-07
3.19411e-08
3.50708e-08
1.50909e-08
-2.26146e-08
-7.43476e-08
-1.96954e-07
-5.14572e-08
1.91424e-07
-1.75949e-08
-6.33385e-09
3.4676e-08
-1.49553e-07
-3.29184e-08
1.11008e-07
-5.0328e-08
-6.32103e-08
1.46721e-07
6.03763e-08
-1.12439e-07
-9.29377e-08
-3.55381e-08
-1.04642e-07
3.23413e-09
2.20516e-07
3.22702e-08
-1.38985e-07
4.0899e-08
-1.23515e-08
-4.69663e-08
1.5766e-07
1.95663e-08
-1.25509e-07
3.32824e-08
-7.23197e-09
-1.53368e-07
2.52419e-08
2.25067e-07
2.11122e-07
5.28302e-08
-2.51002e-08
-3.9496e-08
-4.81017e-08
-7.50438e-09
-8.79614e-08
2.95711e-08
6.93845e-08
9.95298e-08
1.24155e-07
-4.90404e-08
9.98635e-08
2.50719e-07
1.06325e-07
-7.09846e-08
-4.48606e-08
1.21204e-07
7.66918e-08
1.15044e-07
7.92969e-08
4.09893e-08
1.21883e-07
3.50167e-08
3.54559e-08
1.55656e-08
-2.26234e-08
-7.07195e-08
-1.87849e-07
-5.49369e-08
1.823e-07
-1.405e-08
-1.02782e-08
3.33894e-08
-1.37902e-07
-3.45679e-08
1.02175e-07
-4.41115e-08
-6.13373e-08
1.33871e-07
5.88472e-08
-1.06369e-07
-9.21103e-08
-3.27952e-08
-9.50355e-08
7.9966e-10
2.06361e-07
3.45955e-08
-1.30969e-07
3.68015e-08
-7.97319e-09
-4.58924e-08
1.45078e-07
2.20286e-08
-1.16763e-07
2.69055e-08
-7.51707e-09
-1.41269e-07
2.57185e-08
2.1587e-07
2.01871e-07
5.19313e-08
-2.15987e-08
-3.68311e-08
-4.74007e-08
-4.28088e-09
-8.20853e-08
2.61609e-08
6.92455e-08
9.51751e-08
1.22001e-07
-3.76355e-08
9.7234e-08
2.38563e-07
1.04879e-07
-6.23486e-08
-4.03669e-08
1.17862e-07
7.57649e-08
1.12766e-07
8.07843e-08
3.85663e-08
1.16855e-07
3.82857e-08
3.58551e-08
1.61524e-08
-2.25425e-08
-6.68519e-08
-1.7753e-07
-5.86483e-08
1.71962e-07
-9.98625e-09
-1.45455e-08
3.1959e-08
-1.2513e-07
-3.63016e-08
9.24825e-08
-3.75159e-08
-5.91896e-08
1.20452e-07
5.70885e-08
-9.97701e-08
-9.10871e-08
-3.02089e-08
-8.50741e-08
-1.44077e-09
1.91541e-07
3.71919e-08
-1.22693e-07
3.21863e-08
-3.40872e-09
-4.47526e-08
1.32163e-07
2.47981e-08
-1.07631e-07
2.04167e-08
-7.51875e-09
-1.28856e-07
2.59301e-08
2.06093e-07
1.9245e-07
5.10762e-08
-1.83975e-08
-3.3804e-08
-4.64587e-08
-1.21861e-09
-7.56455e-08
2.26915e-08
6.91362e-08
9.08783e-08
1.19614e-07
-2.613e-08
9.42673e-08
2.26187e-07
1.03572e-07
-5.33823e-08
-3.59507e-08
1.14224e-07
7.48622e-08
1.0993e-07
8.24293e-08
3.64394e-08
1.11529e-07
4.15004e-08
3.62565e-08
1.68407e-08
-2.23159e-08
-6.292e-08
-1.66442e-07
-6.23791e-08
1.60837e-07
-5.52245e-09
-1.87271e-08
3.02892e-08
-1.12226e-07
-3.78837e-08
8.24107e-08
-3.09382e-08
-5.68343e-08
1.06915e-07
5.50348e-08
-9.28352e-08
-8.98599e-08
-2.79812e-08
-7.50081e-08
-3.34608e-09
1.76628e-07
4.00142e-08
-1.14285e-07
2.71869e-08
1.0604e-09
-4.34406e-08
1.19347e-07
2.7711e-08
-9.83915e-08
1.41268e-08
-7.33957e-09
-1.16599e-07
2.5873e-08
1.96051e-07
1.83232e-07
5.02861e-08
-1.56039e-08
-3.05461e-08
-4.53477e-08
1.43202e-09
-6.87818e-08
1.92964e-08
6.9033e-08
8.69056e-08
1.1704e-07
-1.49517e-08
9.10055e-08
2.14023e-07
1.02593e-07
-4.43401e-08
-3.16694e-08
1.10319e-07
7.40545e-08
1.06585e-07
8.41312e-08
3.48144e-08
1.06016e-07
4.4485e-08
3.66421e-08
1.75831e-08
-2.193e-08
-5.90997e-08
-1.54911e-07
-6.58505e-08
1.49174e-07
-7.67603e-10
-2.25938e-08
2.82487e-08
-9.96147e-08
-3.90794e-08
7.22698e-08
-2.4707e-08
-5.42383e-08
9.3598e-08
5.26216e-08
-8.57152e-08
-8.8382e-08
-2.62222e-08
-6.5126e-08
-4.86346e-09
1.62128e-07
4.30233e-08
-1.05783e-07
2.19541e-08
5.2236e-09
-4.18785e-08
1.06802e-07
3.04837e-08
-8.92379e-08
8.2626e-09
-7.07304e-09
-1.04792e-07
2.55894e-08
1.85918e-07
1.74373e-07
4.95888e-08
-1.32257e-08
-2.71403e-08
-4.40805e-08
3.62739e-09
-6.16514e-08
1.60719e-08
6.88893e-08
8.34166e-08
1.1433e-07
-4.34456e-09
8.75099e-08
2.02268e-07
1.01772e-07
-3.53158e-08
-2.73672e-08
1.06202e-07
7.3378e-08
1.02802e-07
8.57707e-08
3.38209e-08
1.00424e-07
4.71444e-08
3.70179e-08
1.83242e-08
-2.13854e-08
-5.55386e-08
-1.43201e-07
-6.88329e-08
1.37142e-07
4.14709e-09
-2.59456e-08
2.57948e-08
-8.7509e-08
-3.97705e-08
6.22995e-08
-1.90483e-08
-5.13742e-08
8.07688e-08
4.9821e-08
-7.85465e-08
-8.65976e-08
-2.49598e-08
-5.56969e-08
-5.98293e-09
1.4804e-07
4.56043e-08
-9.71889e-08
1.66528e-08
8.93128e-09
-4.00333e-08
9.46452e-08
3.29319e-08
-8.02712e-08
2.97622e-09
-6.77026e-09
-9.34861e-08
2.5104e-08
1.75793e-07
1.65911e-07
4.90276e-08
-1.12219e-08
-2.37016e-08
-4.26159e-08
5.31623e-09
-5.44103e-08
1.3118e-08
6.86484e-08
8.04728e-08
1.11547e-07
5.57777e-09
8.39775e-08
1.90984e-07
1.01036e-07
-2.63617e-08
-2.3122e-08
1.01916e-07
7.28125e-08
9.86986e-08
8.72081e-08
3.35272e-08
9.48698e-08
4.9433e-08
3.73534e-08
1.90238e-08
-2.06752e-08
-5.22823e-08
-1.31549e-07
-7.11678e-08
1.24902e-07
9.06591e-09
-2.86232e-08
2.29596e-08
-7.59624e-08
-3.99313e-08
5.2672e-08
-1.40972e-08
-4.82507e-08
6.86427e-08
4.66315e-08
-7.14574e-08
-8.44559e-08
-2.41705e-08
-4.69101e-08
-6.68395e-09
1.34509e-07
4.80899e-08
-8.85101e-08
1.14464e-08
1.20773e-08
-3.79013e-08
8.29849e-08
3.49416e-08
-7.15455e-08
-1.63657e-09
-6.44169e-09
-8.27386e-08
2.4428e-08
1.65756e-07
1.57837e-07
4.86281e-08
-9.54263e-09
-2.0337e-08
-4.09016e-08
6.49985e-09
-4.71877e-08
1.05102e-08
6.8226e-08
7.80723e-08
1.08733e-07
1.47641e-08
8.05571e-08
1.80189e-07
1.00351e-07
-1.75598e-08
-1.89558e-08
9.75173e-08
7.23644e-08
9.43665e-08
8.83073e-08
3.38641e-08
8.94709e-08
5.13274e-08
3.76281e-08
1.96641e-08
-1.9785e-08
-4.9367e-08
-1.20163e-07
-7.27498e-08
1.12567e-07
1.38192e-08
-3.05267e-08
1.98124e-08
-6.56361e-08
-3.95776e-08
4.35001e-08
-9.92554e-09
-4.49032e-08
5.73501e-08
4.30732e-08
-6.45699e-08
-8.19402e-08
-2.37987e-08
-3.88814e-08
-6.95355e-09
1.21629e-07
5.0446e-08
-7.97786e-08
6.47899e-09
1.45952e-08
-3.54967e-08
7.19264e-08
3.64386e-08
-6.31081e-08
-5.51831e-09
-6.07649e-09
-7.2618e-08
2.35999e-08
1.55882e-07
1.50141e-07
4.83671e-08
-8.23984e-09
-1.71173e-08
-3.89063e-08
7.19846e-09
-4.0092e-08
8.2983e-09
6.75971e-08
7.61735e-08
1.05914e-07
2.31836e-08
7.73334e-08
1.69894e-07
9.96815e-08
-9.00255e-09
-1.48569e-08
9.30814e-08
7.20285e-08
8.99062e-08
8.8961e-08
3.47536e-08
8.43284e-08
5.28186e-08
3.78426e-08
2.02405e-08
-1.87071e-08
-4.68041e-08
-1.09211e-07
-7.35208e-08
1.00251e-07
1.82434e-08
-3.16155e-08
1.64462e-08
-5.61373e-08
-3.8735e-08
3.49294e-08
-6.56231e-09
-4.13855e-08
4.70504e-08
3.91888e-08
-5.7995e-08
-7.90537e-08
-2.37719e-08
-3.16828e-08
-6.80811e-09
1.09469e-07
5.19901e-08
-7.10572e-08
1.86066e-09
1.64585e-08
-3.285e-08
6.15692e-08
3.73962e-08
-5.5011e-08
-8.64618e-09
-5.68452e-09
-6.31642e-08
2.26836e-08
1.46237e-07
1.42795e-07
4.82222e-08
-7.14949e-09
-1.40994e-08
-3.66282e-08
7.47254e-09
-3.32218e-08
6.51692e-09
6.67316e-08
7.47135e-08
1.0311e-07
3.08189e-08
7.43712e-08
1.60115e-07
9.8987e-08
-8.5911e-10
-1.06601e-08
8.86739e-08
7.1786e-08
8.54259e-08
8.9103e-08
3.61136e-08
7.95167e-08
5.39136e-08
3.80026e-08
2.0752e-08
-1.74449e-08
-4.4573e-08
-9.87902e-08
-7.34619e-08
8.80814e-08
2.21942e-08
-3.19132e-08
1.29516e-08
-4.78373e-08
-3.74413e-08
2.70923e-08
-3.99853e-09
-3.7764e-08
3.77714e-08
3.50457e-08
-5.18189e-08
-7.58216e-08
-2.40124e-08
-2.53601e-08
-6.28574e-09
9.81021e-08
5.31316e-08
-6.24288e-08
-2.31127e-09
1.76729e-08
-3.00047e-08
5.19844e-08
3.77906e-08
-4.73032e-08
-1.10249e-08
-5.27089e-09
-5.43929e-08
2.17445e-08
1.36886e-07
1.3576e-07
4.81759e-08
-6.19662e-09
-1.1328e-08
-3.4087e-08
7.41342e-09
-2.66687e-08
5.18807e-09
6.56179e-08
7.36212e-08
1.00344e-07
3.76779e-08
7.17217e-08
1.50862e-07
9.8235e-08
6.78677e-09
-6.61441e-09
8.4346e-08
7.1604e-08
8.10353e-08
8.87176e-08
3.78142e-08
7.50826e-08
5.46329e-08
3.8112e-08
2.11981e-08
-1.601e-08
-4.26321e-08
-8.90753e-08
-7.25858e-08
7.6193e-08
2.55505e-08
-3.14537e-08
9.39502e-09
-4.02014e-08
-3.57489e-08
2.00482e-08
-2.19017e-09
-3.41197e-08
2.95381e-08
3.07278e-08
-4.611e-08
-7.22874e-08
-2.44372e-08
-1.98564e-08
-5.43689e-09
8.75803e-08
5.3802e-08
-5.39813e-08
-5.94396e-09
1.8271e-08
-2.70148e-08
4.32118e-08
3.75933e-08
-4.00253e-08
-1.26799e-08
-4.83818e-09
-4.63088e-08
2.08421e-08
1.27873e-07
1.29002e-07
4.8211e-08
-5.29713e-09
-8.83338e-09
-3.13209e-08