/*--------------------------------*- C++ -*----------------------------------*\
| =========                 |                                                 |
| \\      /  F ield         | OpenFOAM: The Open Source CFD Toolbox           |
|  \\    /   O peration     | Version:  2312                                  |
|   \\  /    A nd           | Website:  www.openfoam.com                      |
|    \\/     M anipulation  |                                                 |
\*---------------------------------------------------------------------------*/
FoamFile
{
    version     2.0;
    format      ascii;
    arch        "LSB;label=32;scalar=64";
    class       volScalarField;
    location    "400";
    object      pMean;
}
// * * * * * * * * * * * * * * * * * * * * * * * * * * * * * * * * * * * * * //

dimensions      [0 2 -2 0 0 0 0];

internalField   nonuniform List<scalar> 
144000
(
2.17321e-08
-1.9159e-08
-1.96444e-07
-2.51352e-07
9.0506e-08
-1.56224e-08
-7.75026e-08
2.63364e-07
3.14492e-07
7.84956e-08
-2.37091e-08
-6.78653e-09
-1.19983e-07
-2.07819e-07
-4.54395e-08
2.48419e-07
1.02483e-07
-1.51876e-07
-2.78449e-07
2.02769e-08
4.66536e-07
2.15424e-07
-1.72536e-07
7.28945e-08
6.72457e-08
-2.53997e-07
6.3478e-08
-2.23875e-08
-2.5661e-07
1.1669e-07
1.40967e-07
1.38822e-07
6.83994e-09
-7.48005e-09
3.20233e-07
3.46369e-07
-9.10536e-09
3.69187e-08
1.92317e-07
-1.6761e-07
1.37666e-07
2.33702e-07
-2.65274e-08
-1.07442e-07
4.32438e-10
3.51913e-07
1.81201e-07
-1.29824e-07
-1.34729e-07
-2.07807e-07
-2.498e-07
1.93652e-07
1.4477e-07
-3.15051e-07
-6.91301e-08
2.68135e-07
1.20481e-07
-4.46607e-08
-5.8279e-08
-3.12458e-08
2.19496e-08
-1.86488e-08
-1.93874e-07
-2.29936e-07
8.74617e-08
-1.39133e-08
-5.66428e-08
2.59328e-07
2.90297e-07
5.83114e-08
-2.11542e-08
-5.7854e-09
-1.18218e-07
-1.83395e-07
-2.74623e-08
2.21539e-07
8.15976e-08
-1.47361e-07
-2.53766e-07
3.69301e-08
4.38364e-07
1.97718e-07
-1.46169e-07
6.94988e-08
4.73066e-08
-2.28874e-07
5.99495e-08
-4.26294e-08
-2.33173e-07
1.14378e-07
1.40748e-07
1.38679e-07
8.41872e-09
1.38611e-08
3.16024e-07
3.24389e-07
-5.52971e-09
3.43953e-08
1.72498e-07
-1.42769e-07
1.33849e-07
2.11658e-07
-2.29432e-08
-8.1793e-08
1.83116e-08
3.24871e-07
1.61454e-07
-1.27184e-07
-1.34044e-07
-2.05118e-07
-2.2819e-07
1.88801e-07
1.24881e-07
-2.88298e-07
-5.12609e-08
2.4086e-07
9.98056e-08
-4.2498e-08
-5.75865e-08
-3.1203e-08
2.16099e-08
-1.83209e-08
-1.88567e-07
-2.22281e-07
8.17744e-08
-1.03854e-08
-4.96195e-08
2.5059e-07
2.7815e-07
5.40998e-08
-1.61442e-08
-4.23148e-09
-1.14707e-07
-1.70783e-07
-2.63131e-08
2.04337e-07
7.55941e-08
-1.37891e-07
-2.39662e-07
3.60869e-08
4.1859e-07
1.96304e-07
-1.3173e-07
6.21302e-08
4.30455e-08
-2.16144e-07
5.27793e-08
-4.69185e-08
-2.21884e-07
1.10382e-07
1.3951e-07
1.38255e-07
1.21509e-08
2.13255e-08
3.06982e-07
3.15487e-07
6.54201e-10
3.02418e-08
1.68028e-07
-1.29801e-07
1.26199e-07
2.02974e-07
-1.54305e-08
-6.77763e-08
1.93238e-08
3.07088e-07
1.56479e-07
-1.21745e-07
-1.32695e-07
-1.99185e-07
-2.20476e-07
1.78834e-07
1.19922e-07
-2.71718e-07
-4.97246e-08
2.24034e-07
9.39627e-08
-3.80935e-08
-5.54742e-08
-3.09664e-08
2.09186e-08
-1.84709e-08
-1.81479e-07
-2.1613e-07
7.44584e-08
-5.7749e-09
-4.48618e-08
2.38401e-07
2.66924e-07
5.37117e-08
-1.02887e-08
-2.25586e-09
-1.09736e-07
-1.59694e-07
-2.92612e-08
1.86618e-07
7.23184e-08
-1.26207e-07
-2.25096e-07
3.13378e-08
3.97267e-07
1.98124e-07
-1.17621e-07
5.30108e-08
4.19307e-08
-2.04062e-07
4.3362e-08
-4.70376e-08
-2.11223e-07
1.05094e-07
1.37709e-07
1.37603e-07
1.825e-08
2.64734e-08
2.94433e-07
3.07536e-07
8.25491e-09
2.58611e-08
1.66035e-07
-1.16692e-07
1.16472e-07
1.9608e-07
-6.25083e-09
-5.47744e-08
1.68382e-08
2.88126e-07
1.5404e-07
-1.14487e-07
-1.31188e-07
-1.91237e-07
-2.1402e-07
1.65177e-07
1.17432e-07
-2.54258e-07
-5.23616e-08
2.06853e-07
9.09713e-08
-3.27482e-08
-5.28017e-08
-3.033e-08
2.00247e-08
-1.89131e-08
-1.72845e-07
-2.08674e-07
6.63292e-08
-5.90131e-10
-3.97337e-08
2.24099e-07
2.54373e-07
5.35537e-08
-4.35644e-09
2.8833e-10
-1.0351e-07
-1.47161e-07
-3.26143e-08
1.6691e-07
6.85775e-08
-1.13447e-07
-2.08116e-07
2.65339e-08
3.73222e-07
1.99452e-07
-1.01998e-07
4.30202e-08
4.06979e-08
-1.90541e-07
3.27645e-08
-4.60277e-08
-1.99095e-07
9.88903e-08
1.35495e-07
1.36774e-07
2.5583e-08
3.18617e-08
2.79787e-07
2.9773e-07
1.73658e-08
2.1514e-08
1.63371e-07
-1.01421e-07
1.05656e-07
1.88134e-07
3.43702e-09
-4.05694e-08
1.46123e-08
2.66428e-07
1.50891e-07
-1.06026e-07
-1.29491e-07
-1.81717e-07
-2.05998e-07
1.48815e-07
1.14366e-07
-2.33949e-07
-5.56829e-08
1.87102e-07
8.75574e-08
-2.71762e-08
-4.9739e-08
-2.92824e-08
1.89733e-08
-1.94227e-08
-1.62958e-07
-2.00092e-07
5.73416e-08
4.7872e-09
-3.43457e-08
2.08479e-07
2.40895e-07
5.32217e-08
1.08352e-09
3.39505e-09
-9.63183e-08
-1.33668e-07
-3.58457e-08
1.46094e-07
6.42963e-08
-1.00317e-07
-1.89514e-07
2.22341e-08
3.47172e-07
1.99686e-07
-8.54983e-08
3.28161e-08
3.90608e-08
-1.7608e-07
2.18419e-08
-4.41463e-08
-1.85893e-07
9.20684e-08
1.32905e-07
1.35818e-07
3.34184e-08
3.73875e-08
2.64043e-07
2.86178e-07
2.7652e-08
1.74016e-08
1.59846e-07
-8.45011e-08
9.44071e-08
1.79329e-07
1.29828e-08
-2.56589e-08
1.31771e-08
2.42978e-07
1.46837e-07
-9.67962e-08
-1.27526e-07
-1.71125e-07
-1.96598e-07
1.31179e-07
1.10683e-07
-2.12259e-07
-5.91052e-08
1.66354e-07
8.34944e-08
-2.17791e-08
-4.63283e-08
-2.79337e-08
1.77648e-08
-1.98631e-08
-1.52249e-07
-1.90844e-07
4.78384e-08
1.00681e-08
-2.89527e-08
1.92152e-07
2.26991e-07
5.285e-08
5.64523e-09
6.83484e-09
-8.85349e-08
-1.20415e-07
-3.8804e-08
1.25321e-07
5.95796e-08
-8.73541e-08
-1.70328e-07
1.85495e-08
3.20682e-07
1.98684e-07
-6.88856e-08
2.29802e-08
3.70304e-08
-1.61287e-07
1.12088e-08
-4.14492e-08
-1.72081e-07
8.48701e-08
1.29921e-07
1.34745e-07
4.15047e-08
4.28397e-08
2.47883e-07
2.73336e-07
3.85241e-08
1.3857e-08
1.55542e-07
-6.65258e-08
8.33048e-08
1.70165e-07
2.20575e-08
-1.08339e-08
1.26455e-08
2.19035e-07
1.42032e-07
-8.70966e-08
-1.25237e-07
-1.60078e-07
-1.86328e-07
1.12939e-07
1.06523e-07
-1.90377e-07
-6.23331e-08
1.45872e-07
7.89476e-08
-1.67709e-08
-4.27253e-08
-2.64567e-08
1.63727e-08
-2.01786e-08
-1.41144e-07
-1.81185e-07
3.82464e-08
1.49898e-08
-2.35921e-08
1.75608e-07
2.12892e-07
5.25536e-08
9.20966e-09
1.03485e-08
-8.04938e-08
-1.07856e-07
-4.12041e-08
1.05451e-07
5.47061e-08
-7.49521e-08
-1.51248e-07
1.55676e-08
2.94409e-07
1.96423e-07
-5.26529e-08
1.39679e-08
3.45641e-08
-1.46477e-07
1.27669e-09
-3.81708e-08
-1.57932e-07
7.75335e-08
1.26523e-07
1.33514e-07
4.96659e-08
4.8233e-08
2.31813e-07
2.59601e-07
4.94094e-08
1.11679e-08
1.50442e-07
-4.83287e-08
7.29247e-08
1.60865e-07
3.02954e-08
3.02764e-09
1.31153e-08
1.95529e-07
1.36503e-07
-7.71425e-08
-1.22514e-07
-1.49095e-07
-1.75548e-07
9.47489e-08
1.0183e-07
-1.68979e-07
-6.49844e-08
1.26129e-07
7.40198e-08
-1.22476e-08
-3.90526e-08
-2.49668e-08
1.47776e-08
-2.03434e-08
-1.29966e-07
-1.71253e-07
2.8887e-08
1.93537e-08
-1.82545e-08
1.5925e-07
1.98798e-07
5.2373e-08
1.18401e-08
1.37496e-08
-7.24075e-08
-9.61565e-08
-4.28421e-08
8.6999e-08
4.98482e-08
-6.33749e-08
-1.32716e-07
1.33233e-08
2.68955e-07
1.9292e-07
-3.71846e-08
6.08113e-09
3.16891e-08
-1.31892e-07
-7.67686e-09
-3.46027e-08
-1.43715e-07
7.02993e-08
1.22736e-07
1.32053e-07
5.76925e-08
5.35109e-08
2.16212e-07
2.45354e-07
5.98274e-08
9.4849e-09
1.44521e-07
-3.04972e-08
6.37151e-08
1.51569e-07
3.7466e-08
1.54624e-08
1.45766e-08
1.73121e-07
1.30259e-07
-6.71339e-08
-1.1922e-07
-1.3852e-07
-1.64527e-07
7.71711e-08
9.65165e-08
-1.48506e-07
-6.68112e-08
1.07332e-07
6.88271e-08
-8.24121e-09
-3.5388e-08
-2.35196e-08
1.29868e-08
-2.03556e-08
-1.18952e-07
-1.61152e-07
1.99844e-08
2.30313e-08
-1.29645e-08
1.4344e-07
1.84908e-07
5.2288e-08
1.36704e-08
1.68986e-08
-6.43918e-08
-8.53793e-08
-4.36418e-08
7.02231e-08
4.50233e-08
-5.27784e-08
-1.15023e-07
1.18068e-08
2.44729e-07
1.88232e-07
-2.26718e-08
-5.00515e-10
2.85085e-08
-1.17767e-07
-1.54613e-08
-3.1003e-08
-1.29692e-07
6.338e-08
1.18637e-07
1.303e-07
6.53476e-08
5.8526e-08
2.01443e-07
2.30948e-07
6.94045e-08
8.97524e-09
1.37867e-07
-1.34174e-08
5.59326e-08
1.42426e-07
4.34954e-08
2.62465e-08
1.69034e-08
1.52279e-07
1.23345e-07
-5.72821e-08
-1.15268e-07
-1.28549e-07
-1.53479e-07
6.06325e-08
9.05553e-08
-1.29285e-07
-6.77662e-08
8.96441e-08
6.34893e-08
-4.75866e-09
-3.17837e-08
-2.21287e-08
1.10418e-08
-2.02389e-08
-1.08286e-07
-1.50975e-07
1.16974e-08
2.59255e-08
-7.7744e-09
1.28477e-07
1.7134e-07
5.22547e-08
1.48381e-08
1.96709e-08
-5.65285e-08
-7.55404e-08
-4.36236e-08
5.52429e-08
4.02444e-08
-4.3239e-08
-9.84342e-08
1.0972e-08
2.21993e-07
1.82472e-07
-9.28044e-09
-5.6688e-09
2.51228e-08
-1.04264e-07
-2.19562e-08
-2.75575e-08
-1.16052e-07
5.694e-08
1.14335e-07
1.28219e-07
7.24034e-08
6.31864e-08
1.8779e-07
2.16664e-07
7.78703e-08
9.67737e-09
1.30664e-07
2.55997e-09
4.9739e-08
1.33588e-07
4.84148e-08
3.53011e-08
1.99041e-08
1.33287e-07
1.15849e-07
-4.78052e-08
-1.10634e-07
-1.19293e-07
-1.4258e-07
4.54436e-08
8.39868e-08
-1.11551e-07
-6.78593e-08
7.33176e-08
5.80782e-08
-1.82889e-09
-2.82864e-08
-2.07671e-08
8.99998e-09
-2.00315e-08
-9.81019e-08
-1.40803e-07
4.14149e-09
2.79858e-08
-2.75261e-09
1.14577e-07
1.58144e-07
5.22213e-08
1.54797e-08
2.19629e-08
-4.88962e-08
-6.66125e-08
-4.28541e-08
4.21032e-08
3.55521e-08
-3.48039e-08
-8.31068e-08
1.07475e-08
2.0091e-07
1.75803e-07
2.86399e-09
-9.40264e-09
2.16095e-08
-9.15418e-08
-2.70744e-08
-2.43733e-08
-1.02919e-07
5.10957e-08
1.09945e-07
1.2581e-07
7.86999e-08
6.74649e-08
1.75386e-07
2.02734e-07
8.50431e-08
1.15046e-08
1.23099e-07
1.71292e-08
4.51902e-08
1.25179e-07
5.23165e-08
4.26615e-08
2.33596e-08
1.16308e-07
1.07893e-07
-3.88996e-08
-1.05352e-07
-1.108e-07
-1.31976e-07
3.18046e-08
7.69118e-08
-9.54502e-08
-6.71296e-08
5.84622e-08
5.26277e-08
5.11057e-10
-2.4954e-08
-1.94141e-08
6.92168e-09
-1.9783e-08
-8.85014e-08
-1.30702e-07
-2.59809e-09
2.92137e-08
2.02483e-09
1.01868e-07
1.45353e-07
5.21406e-08
1.57283e-08
2.37059e-08
-4.15761e-08
-5.85338e-08
-4.14193e-08
3.07855e-08
3.09981e-08
-2.74532e-08
-6.91175e-08
1.10423e-08
1.81564e-07
1.6841e-07
1.36824e-08
-1.17556e-08
1.80538e-08
-7.97141e-08
-3.08399e-08
-2.14904e-08
-9.0384e-08
4.59349e-08
1.05571e-07
1.23102e-07
8.41446e-08
7.13458e-08
1.64254e-07
1.89354e-07
9.08248e-08
1.42965e-08
1.15368e-07
3.01059e-08
4.22301e-08
1.17282e-07
5.53263e-08
4.844e-08
2.70449e-08
1.01407e-07
9.96397e-08
-3.07199e-08
-9.95047e-08
-1.03066e-07
-1.21781e-07
1.98136e-08
6.94803e-08
-8.10637e-08
-6.56473e-08
4.51268e-08
4.71703e-08
2.26356e-09
-2.18582e-08
-1.80692e-08
4.86191e-09
-1.95494e-08
-7.95615e-08
-1.20732e-07
-8.46151e-09
2.96641e-08
6.47765e-09
9.04142e-08
1.33024e-07
5.19644e-08
1.57026e-08
2.48754e-08
-3.46473e-08
-5.12246e-08
-3.94057e-08
2.12213e-08
2.66287e-08
-2.11479e-08
-5.64868e-08
1.17534e-08
1.63977e-07
1.60491e-07
2.31406e-08
-1.2835e-08
1.45582e-08
-6.8862e-08
-3.33368e-08
-1.89072e-08
-7.85165e-08
4.15105e-08
1.01297e-07
1.2014e-07
8.87052e-08
7.48174e-08
1.54339e-07
1.76687e-07
9.52011e-08
1.78647e-08
1.07676e-07
4.13794e-08
4.07126e-08
1.09944e-07
5.76086e-08
5.28046e-08
3.07522e-08
8.85551e-08
9.12704e-08
-2.33754e-08
-9.32142e-08
-9.60506e-08
-1.12079e-07
9.48812e-09
6.18701e-08
-6.84045e-08
-6.35097e-08
3.33128e-08
4.17796e-08
3.47203e-09
-1.90702e-08
-1.67364e-08
2.86954e-09
-1.9381e-08
-7.13355e-08
-1.10955e-07
-1.34155e-08
2.94324e-08
1.05271e-08
8.0231e-08
1.21235e-07
5.16428e-08
1.55119e-08
2.54865e-08
-2.81836e-08
-4.45908e-08
-3.68898e-08
1.33096e-08
2.24841e-08
-1.58356e-08
-4.5198e-08
1.27776e-08
1.48126e-07
1.5224e-07
3.12434e-08
-1.27878e-08
1.1232e-08
-5.90244e-08
-3.46779e-08
-1.65998e-08
-6.73693e-08
3.78379e-08
9.71895e-08
1.16978e-07
9.23888e-08
7.78855e-08
1.45552e-07
1.64858e-07
9.82263e-08
2.20122e-08
1.00212e-07
5.09079e-08
4.04369e-08
1.03208e-07
5.93102e-08
5.5937e-08
3.43059e-08
7.76616e-08
8.29715e-08
-1.69323e-08
-8.66251e-08
-8.96736e-08
-1.02929e-07
7.80389e-10
5.42691e-08
-5.74176e-08
-6.08394e-08
2.2988e-08
3.65192e-08
4.19761e-09
-1.66402e-08
-1.54074e-08
9.87519e-10
-1.9309e-08
-6.38496e-08
-1.01439e-07
-1.74574e-08
2.86229e-08
1.41057e-08
7.12973e-08
1.10066e-07
5.11331e-08
1.52493e-08
2.55777e-08
-2.22487e-08
-3.85642e-08
-3.39964e-08
6.93114e-09
1.86078e-08
-1.14198e-08
-3.52107e-08
1.40185e-08
1.33946e-07
1.43832e-07
3.80295e-08
-1.17802e-08
8.17927e-09
-5.02077e-08
-3.49915e-08
-1.45382e-08
-5.69791e-08
3.4902e-08
9.32953e-08
1.1368e-07
9.52267e-08
8.05465e-08
1.37786e-07
1.53959e-07
1.00006e-07
2.6526e-08
9.31392e-08
5.87115e-08
4.11733e-08
9.71003e-08
6.05477e-08
5.80295e-08
3.7568e-08
6.85846e-08
7.49189e-08
-1.14144e-08
-7.98849e-08
-8.38366e-08
-9.43683e-08
-6.40628e-09
4.68539e-08
-4.79991e-08
-5.77729e-08
1.40808e-08
3.14334e-08
4.49035e-09
-1.45865e-08
-1.4069e-08
-7.52996e-10
-1.93393e-08
-5.71023e-08
-9.22539e-08
-2.0616e-08
2.73401e-08
1.71667e-08
6.35629e-08
9.95906e-08
5.0399e-08
1.49846e-08
2.52089e-08
-1.6891e-08
-3.30887e-08
-3.08358e-08
1.95474e-09
1.50473e-08
-7.80385e-09
-2.64653e-08
1.5389e-08
1.21335e-07
1.35425e-07
4.35653e-08
-9.98205e-09
5.48925e-09
-4.23867e-08
-3.44188e-08
-1.26858e-08
-4.73656e-08
3.26635e-08
8.96473e-08
1.1031e-07
9.72673e-08
8.28005e-08
1.3093e-07
1.44037e-07
1.00677e-07
3.12012e-08
8.65895e-08
6.48633e-08
4.26861e-08
9.16222e-08
6.14244e-08
5.92735e-08
4.04418e-08
6.11452e-08
6.72665e-08
-6.80839e-09
-7.31297e-08
-7.84347e-08
-8.64191e-08
-1.22035e-08
3.97659e-08
-4.00263e-08
-5.44426e-08
6.49044e-09
2.6555e-08
4.40088e-09
-1.29014e-08
-1.27399e-08
-2.32528e-09
-1.9456e-08
-5.10783e-08
-8.34685e-08
-2.29463e-08
2.56803e-08
1.96884e-08
5.69535e-08
8.98759e-08
4.94167e-08
1.47653e-08
2.4455e-08
-1.21395e-08
-2.81201e-08
-2.75019e-08
-1.76066e-09
1.1849e-08
-4.88282e-09
-1.88861e-08
1.68118e-08
1.1017e-07
1.27151e-07
4.79386e-08
-7.58213e-09
3.22955e-09
-3.55098e-08
-3.31055e-08
-1.10006e-08
-3.85347e-08
3.10634e-08
8.62621e-08
1.06932e-07
9.85742e-08
8.46629e-08
1.24877e-07
1.35104e-07
1.00402e-07
3.58653e-08
8.06547e-08
6.94765e-08
4.47449e-08
8.67645e-08
6.20247e-08
5.98491e-08
4.28666e-08
5.5145e-08
6.01393e-08
-3.07178e-09
-6.64788e-08
-7.33747e-08
-7.90869e-08
-1.67646e-08
3.31004e-08
-3.33673e-08
-5.0961e-08
1.03089e-10
2.19091e-08
3.99005e-09
-1.15592e-08
-1.14378e-08
-3.70828e-09
-1.96284e-08
-4.57515e-08
-7.51434e-08
-2.45187e-08
2.37432e-08
2.16713e-08
5.13769e-08
8.09512e-08
4.81745e-08
1.4623e-08
2.34013e-08
-8.00223e-09
-2.36274e-08
-2.4096e-08
-4.36126e-09
9.0541e-09
-2.5485e-09
-1.23844e-08
1.82225e-08
1.00312e-07
1.1912e-07
5.12542e-08
-4.73866e-09
1.43656e-09
-2.95075e-08
-3.11936e-08
-9.43452e-09
-3.04783e-08
3.00269e-08
8.3141e-08
1.03609e-07
9.92216e-08
8.61453e-08
1.19524e-07
1.2714e-07
9.935e-08
4.03657e-08
7.53916e-08
7.26928e-08
4.71353e-08
8.25156e-08
6.2412e-08
5.99204e-08
4.48167e-08
5.03826e-08
5.36273e-08
-1.32733e-10
-6.00338e-08
-6.8584e-08
-7.23639e-08
-2.02502e-08
2.69188e-08
-2.78726e-08
-4.74192e-08
-5.2011e-09
1.75163e-08
3.32608e-09
-1.05258e-08
-1.01906e-08
-4.89221e-09
-1.98171e-08
-4.10844e-08
-6.7329e-08
-2.54114e-08
2.16275e-08
2.31321e-08
4.67244e-08
7.28266e-08
4.66795e-08
1.45748e-08
2.21375e-08
-4.46696e-09
-1.95871e-08
-2.07128e-08
-5.9974e-09
6.69787e-09
-6.97773e-10
-6.86084e-09
1.95728e-08
9.16215e-08
1.11411e-07
5.36257e-08
-1.60724e-09
1.31877e-10
-2.42981e-08
-2.88165e-08
-7.94496e-09
-2.31757e-08
2.94683e-08
8.02709e-08
1.00399e-07
9.92932e-08
8.72612e-08
1.14775e-07
1.20099e-07
9.76941e-08
4.45762e-08
7.08276e-08
7.46763e-08
4.96769e-08
7.88471e-08
6.26298e-08
5.96324e-08
4.62998e-08
4.66556e-08
4.77877e-08
2.10154e-09
-5.38783e-08
-6.40117e-08
-6.62313e-08
-2.28165e-08
2.12567e-08
-2.3387e-08
-4.38921e-08
-9.53802e-09
1.33913e-08
2.47606e-09
-9.76576e-09
-9.04144e-09
-5.875e-09
-1.99807e-08
-3.703e-08
-6.00623e-08
-2.57063e-08
1.9423e-08
2.41013e-08
4.28758e-08
6.55054e-08
4.49642e-08
1.46157e-08
2.07492e-08
-1.50438e-09
-1.59765e-08
-1.74352e-08
-6.82324e-09
4.80394e-09
7.62769e-10
-2.21117e-09
2.08299e-08
8.39584e-08
1.04084e-07
5.51709e-08
1.66863e-09
-6.81665e-10
-1.97937e-08
-2.60973e-08
-6.49387e-09
-1.65956e-08
2.92993e-08
7.76274e-08
9.73483e-08
9.88796e-08
8.80323e-08
1.10539e-07
1.13919e-07
9.55991e-08
4.84137e-08
6.69612e-08
7.56038e-08
5.22045e-08
7.57116e-08
6.27045e-08
5.911e-08
4.73453e-08
4.37743e-08
4.26444e-08
3.73104e-09
-4.80739e-08
-5.96254e-08
-6.0658e-08
-2.46104e-08
1.61325e-08
-1.97628e-08
-4.04467e-08
-1.30118e-08
9.55031e-09
1.50092e-09
-9.24411e-09
-8.03577e-09
-6.66449e-09
-2.00828e-08
-3.35357e-08
-5.33681e-08
-2.54878e-08
1.72074e-08
2.46201e-08
3.97078e-08
5.89758e-08
4.30703e-08
1.47291e-08
1.93143e-08
9.2819e-10
-1.27711e-08
-1.43317e-08
-6.99343e-09
3.37929e-09
1.92137e-09
1.66761e-09
2.19687e-08
7.71948e-08
9.71753e-08
5.60097e-08
4.98312e-09
-1.02352e-09
-1.59035e-08
-2.31455e-08
-5.04816e-09
-1.06987e-08
2.94363e-08
7.5183e-08
9.44881e-08
9.80751e-08
8.84866e-08
1.06734e-07
1.08517e-07
9.32163e-08
5.18192e-08
6.37713e-08
7.56579e-08
5.45854e-08
7.30498e-08
6.26496e-08
5.84546e-08
4.7999e-08
4.15697e-08
3.81921e-08
4.85935e-09
-4.26612e-08
-5.54078e-08
-5.56057e-08
-2.57652e-08
1.15428e-08
-1.68682e-08
-3.71344e-08
-1.57162e-08
6.00802e-09
4.54604e-10
-8.92065e-09
-7.21163e-09
-7.27895e-09
-2.00947e-08
-3.05431e-08
-4.72568e-08
-2.48423e-08
1.50443e-08
2.4738e-08
3.71018e-08
5.32063e-08
4.10478e-08
1.48968e-08
1.78919e-08
2.88353e-09
-9.94461e-09
-1.14546e-08
-6.64685e-09
2.41586e-09
2.8611e-09
4.87362e-09
2.29694e-08
7.12164e-08
9.07025e-08
5.626e-08
8.24464e-09
-9.30023e-10
-1.25382e-08
-2.00569e-08
-3.58378e-09
-5.43769e-09
2.98065e-08
7.29158e-08
9.18289e-08
9.69717e-08
8.8657e-08
1.03287e-07
1.03807e-07
9.06775e-08
5.47623e-08
6.12159e-08
7.50187e-08
5.6714e-08
7.07997e-08
6.2484e-08
5.77406e-08
4.83167e-08
3.98926e-08
3.44025e-08
5.59027e-09
-3.76624e-08
-5.13531e-08
-5.10322e-08
-2.63977e-08
7.47244e-09
-1.4582e-08
-3.39892e-08
-1.77418e-08
2.76985e-09
-6.16679e-10
-8.74854e-09
-6.59417e-09
-7.7423e-09
-1.99969e-08
-2.79956e-08
-4.17251e-08
-2.38554e-08
1.29784e-08
2.4512e-08
3.49459e-08
4.81516e-08
3.89511e-08
1.5099e-08
1.65273e-08
4.42181e-09
-7.46534e-09
-8.84046e-09
-5.90211e-09
1.88217e-09
3.65455e-09
7.49907e-09
2.38233e-08
6.59227e-08
8.46676e-08
5.60325e-08
1.13836e-08
-4.48661e-10
-9.61132e-09
-1.69136e-08
-2.08744e-09
-7.58719e-10
3.03493e-08
7.08057e-08
8.9365e-08
9.56508e-08
8.85808e-08
1.00134e-07
9.96989e-08
8.80914e-08
5.72393e-08
5.92359e-08
7.38498e-08
5.85196e-08
6.89008e-08
6.22257e-08
5.70168e-08
4.83578e-08
3.86177e-08
3.12319e-08
6.02167e-09
-3.30832e-08
-4.74633e-08
-4.68935e-08
-2.66079e-08
3.89398e-09
-1.27979e-08
-3.10283e-08
-1.91774e-08
-1.65772e-10
-1.67662e-09
-8.68048e-09
-6.1929e-09
-8.0799e-09
-1.97773e-08
-2.58385e-08
-3.67576e-08
-2.26062e-08
1.104e-08
2.40016e-08
3.31404e-08
4.3755e-08
3.68323e-08
1.5324e-08
1.52514e-08
5.60117e-09
-5.29569e-09
-6.50411e-09
-4.86851e-09
1.72627e-09
4.35741e-09
9.63071e-09
2.45339e-08
6.12258e-08
7.90575e-08
5.54267e-08
1.43531e-08
3.67135e-10
-7.04634e-09
-1.37828e-08
-5.54866e-10
3.39722e-09
3.1015e-08
6.88316e-08
8.70807e-08
9.41813e-08
8.83e-08
9.72258e-08
9.61034e-08
8.55427e-08
5.92677e-08
5.77607e-08
7.22953e-08
5.99614e-08
6.72935e-08
6.18866e-08
5.63088e-08
4.81821e-08
3.76441e-08
2.86268e-08
6.24034e-09
-2.89157e-08
-4.37441e-08
-4.31444e-08
-2.64798e-08
7.69078e-10
-1.14235e-08
-2.82563e-08
-2.01061e-08
-2.80504e-09
-2.70073e-09
-8.68089e-09
-6.00462e-09
3.1391e-07
1.30851e-07
-1.98054e-07
-1.51358e-07
-7.17349e-08
-2.23498e-07
4.63785e-09
4.4542e-07
7.90954e-08
-2.87141e-07
6.25927e-08
-3.86357e-08
-1.01762e-07
3.19533e-07
5.12933e-08
-2.61848e-07
7.16137e-08
9.82607e-09
-3.30522e-07
5.81152e-09
3.94376e-07
3.93856e-07
9.20605e-08
-8.25998e-08
-9.17063e-08
-9.0826e-08
-4.57306e-08
-1.95854e-07
4.91072e-08
1.00089e-07
1.65953e-07
2.02833e-07
-1.83417e-07
1.13439e-07
4.58678e-07
1.82687e-07
-1.81235e-07
-1.51054e-07
1.7214e-07
9.91093e-08
1.59136e-07
9.40867e-08
5.84973e-08
2.04772e-07
2.10945e-08
3.66136e-08
2.85236e-09
-5.53517e-08
-1.43591e-07
-3.67021e-07
-9.14553e-08
3.59275e-07
-2.53429e-08
-3.37088e-09
8.06599e-08
-2.85813e-07
-6.43116e-08
2.33082e-07
-9.75119e-08
-1.20088e-07
2.87388e-07
1.11521e-07
-1.94999e-07
-1.51488e-07
-6.97481e-08
-1.98895e-07
2.10711e-08
4.17759e-07
6.17464e-08
-2.62358e-07
6.0732e-08
-3.61755e-08
-8.24663e-08
2.92587e-07
3.33131e-08
-2.36775e-07
6.79981e-08
-1.01346e-08
-3.04458e-07
2.4317e-08
3.89623e-07
3.69902e-07
7.28618e-08
-7.99512e-08
-9.03042e-08
-9.11724e-08
-4.34479e-08
-1.7344e-07
4.63275e-08
9.98618e-08
1.6295e-07
1.82548e-07
-1.56403e-07
1.30586e-07
4.32004e-07
1.6295e-07
-1.76583e-07
-1.29056e-07
1.70382e-07
9.88957e-08
1.58611e-07
9.53309e-08
5.63066e-08
1.82938e-07
2.30759e-08
3.72339e-08
3.56674e-09
-5.48918e-08
-1.41116e-07
-3.42451e-07
-7.58898e-08
3.33746e-07
-2.31138e-08
-5.63161e-09
6.05716e-08
-2.58979e-07
-4.67957e-08
2.07672e-07
-9.31751e-08
-1.0036e-07
2.70387e-07
1.07267e-07
-1.88691e-07
-1.51068e-07
-6.57164e-08
-1.85448e-07
2.00638e-08
3.9901e-07
6.13299e-08
-2.49684e-07
5.70244e-08
-3.14569e-08
-7.84152e-08
2.7614e-07
3.24943e-08
-2.23855e-07
6.05329e-08
-1.43569e-08
-2.87595e-07
2.7883e-08
3.79506e-07
3.56811e-07
6.9195e-08
-7.43248e-08
-8.77511e-08
-9.1845e-08
-3.88544e-08
-1.645e-07
4.1653e-08
9.92412e-08
1.57113e-07
1.77832e-07
-1.39393e-07
1.30905e-07
4.14301e-07
1.58249e-07
-1.66507e-07
-1.207e-07
1.66735e-07
9.7518e-08
1.57534e-07
9.70213e-08
5.2086e-08
1.74665e-07
2.7055e-08
3.80571e-08
4.39762e-09
-5.46743e-08
-1.36102e-07
-3.2879e-07
-7.8152e-08
3.19726e-07
-1.89039e-08
-9.65442e-09
5.6186e-08
-2.42043e-07
-4.63112e-08
1.93723e-07
-8.46962e-08
-9.53114e-08
2.52206e-07
1.05709e-07
-1.80114e-07
-1.50148e-07
-6.131e-08
-1.72198e-07
1.49903e-08
3.78334e-07
6.52826e-08
-2.37203e-07
5.15798e-08
-2.53879e-08
-7.71306e-08
2.58748e-07
3.60087e-08
-2.10984e-07
5.08446e-08
-1.50646e-08
-2.69815e-07
2.81048e-08
3.65925e-07
3.43915e-07
6.89423e-08
-6.77521e-08
-8.43218e-08
-9.16997e-08
-3.36008e-08
-1.56963e-07
3.60778e-08
9.86032e-08
1.50117e-07
1.75726e-07
-1.21806e-07
1.26708e-07
3.95638e-07
1.56647e-07
-1.5306e-07
-1.14179e-07
1.61741e-07
9.59771e-08
1.553e-07
9.88174e-08
4.76823e-08
1.68029e-07
3.21044e-08
3.8833e-08
5.26547e-09
-5.46386e-08
-1.30166e-07
-3.14709e-07
-8.47851e-08
3.05042e-07
-1.30582e-08
-1.48252e-08
5.44675e-08
-2.24095e-07
-4.96528e-08
1.79676e-07
-7.41753e-08
-9.25803e-08
2.31236e-07
1.03575e-07
-1.69793e-07
-1.4867e-07
-5.67688e-08
-1.56823e-07
9.72936e-09
3.54288e-07
6.98276e-08
-2.22992e-07
4.48305e-08
-1.8354e-08
-7.55155e-08
2.37981e-07
4.02532e-08
-1.96155e-07
3.99331e-08
-1.52752e-08
-2.4951e-07
2.81037e-08
3.49842e-07
3.28928e-07
6.86571e-08
-6.10567e-08
-7.99561e-08
-9.07732e-08
-2.80892e-08
-1.47904e-07
2.99555e-08
9.79225e-08
1.42493e-07
1.72969e-07
-1.02189e-07
1.21641e-07
3.74617e-07
1.54807e-07
-1.37602e-07
-1.06741e-07
1.55839e-07
9.45196e-08
1.51829e-07
1.00954e-07
4.3447e-08
1.60341e-07
3.76506e-08
3.95934e-08
6.33616e-09
-5.44739e-08
-1.23712e-07
-2.9796e-07
-9.19201e-08
2.87613e-07
-6.09327e-09
-2.1409e-08
5.22814e-08
-2.02985e-07
-5.31319e-08
1.6356e-07
-6.25915e-08
-8.91853e-08
2.08379e-07
1.00639e-07
-1.58202e-07
-1.46655e-07
-5.23646e-08
-1.39923e-07
4.94574e-09
3.27962e-07
7.44484e-08
-2.07569e-07
3.70918e-08
-1.08367e-08
-7.34077e-08
2.15124e-07
4.47314e-08
-1.79901e-07
2.85767e-08
-1.51762e-08
-2.27683e-07
2.7928e-08
3.32113e-07
3.12666e-07
6.81954e-08
-5.4725e-08
-7.47783e-08
-8.91739e-08
-2.2642e-08
-1.37348e-07
2.35919e-08
9.71528e-08
1.347e-07
1.69428e-07
-8.15083e-08
1.16185e-07
3.52175e-07
1.52656e-07
-1.21043e-07
-9.87833e-08
1.49329e-07
9.32312e-08
1.47282e-07
1.03411e-07
3.96308e-08
1.51718e-07
4.32221e-08
4.03627e-08
7.66175e-09
-5.39868e-08
-1.16998e-07
-2.79097e-07
-9.88982e-08
2.67731e-07
1.60632e-09
-2.80913e-08
4.93694e-08
-1.80544e-07
-5.61685e-08
1.46046e-07
-5.07559e-08
-8.50548e-08
1.8484e-07
9.69678e-08
-1.45822e-07
-1.4413e-07
-4.84603e-08
-1.22576e-07
8.6011e-10
3.00677e-07
7.91058e-08
-1.91463e-07
2.86543e-08
-3.41563e-09
-7.08372e-08
1.91961e-07
4.9216e-08
-1.63006e-07
1.74239e-08
-1.4776e-08
-2.05481e-07
2.73531e-08
3.1349e-07
2.96271e-07
6.77597e-08
-4.90484e-08
-6.90647e-08
-8.70635e-08
-1.77278e-08
-1.25722e-07
1.73217e-08
9.62688e-08
1.2726e-07
1.6534e-07
-6.08994e-08
1.10388e-07
3.29431e-07
1.50611e-07
-1.04047e-07
-9.08091e-08
1.42332e-07
9.20705e-08
1.41832e-07
1.05956e-07
3.65952e-08
1.42573e-07
4.84286e-08
4.11029e-08
9.16257e-09
-5.31114e-08
-1.10322e-07
-2.58993e-07
-1.05332e-07
2.46386e-07
9.76787e-09
-3.41817e-08
4.56745e-08
-1.58338e-07
-5.84646e-08
1.2805e-07
-3.93582e-08
-8.03224e-08
1.61499e-07
9.25068e-08
-1.33049e-07
-1.41052e-07
-4.53373e-08
-1.05428e-07
-2.37849e-09
2.73587e-07
8.36327e-08
-1.74954e-07
1.98696e-08
3.41343e-09
-6.7715e-08
1.69236e-07
5.33739e-08
-1.46069e-07
7.00724e-09
-1.42306e-08
-1.83701e-07
2.64109e-08
2.94476e-07
2.80251e-07
6.74425e-08
-4.40982e-08
-6.30669e-08
-8.45503e-08
-1.36528e-08
-1.13415e-07
1.14193e-08
9.52197e-08
1.20576e-07
1.60854e-07
-4.11142e-08
1.04368e-07
3.07099e-07
1.48833e-07
-8.70292e-08
-8.28573e-08
1.34901e-07
9.11003e-08
1.35609e-07
1.08353e-07
3.46221e-08
1.33216e-07
5.30171e-08
4.17724e-08
1.07161e-08
-5.18362e-08
-1.03971e-07
-2.3835e-07
-1.10766e-07
2.24073e-07
1.8088e-08
-3.92387e-08
4.11552e-08
-1.37136e-07
-5.97612e-08
1.10183e-07
-2.89315e-08
-7.49969e-08
1.38988e-07
8.72198e-08
-1.20202e-07
-1.37323e-07
-4.3086e-08
-8.90457e-08
-4.72429e-09
2.47217e-07
8.77626e-08
-1.58192e-07
1.11193e-08
9.31239e-09
-6.39928e-08
1.47341e-07
5.67843e-08
-1.29486e-07
-2.28392e-09
-1.36774e-08
-1.62791e-07
2.52196e-08
2.7537e-07
2.64756e-07
6.73072e-08
-3.98076e-08
-5.69986e-08
-8.16328e-08
-1.04853e-08
-1.00796e-07
6.10148e-09
9.3923e-08
1.14835e-07
1.56095e-07
-2.25716e-08
9.83873e-08
2.85537e-07
1.47066e-07
-7.02125e-08
-7.47663e-08
1.27167e-07
9.02991e-08
1.28789e-07
1.10354e-07
3.38366e-08
1.23911e-07
5.68656e-08
4.23524e-08
1.22277e-08
-5.01516e-08
-9.8117e-08
-2.17755e-07
-1.14845e-07
2.01238e-07
2.62143e-08
-4.29518e-08
3.59109e-08
-1.17348e-07
-5.99593e-08
9.29473e-08
-1.98364e-08
-6.91329e-08
1.17748e-07
8.11408e-08
-1.07558e-07
-1.32858e-07
-4.1648e-08
-7.38713e-08
-6.17526e-09
2.21953e-07
9.1208e-08
-1.41294e-07
2.76189e-09
1.40875e-08
-5.97074e-08
1.26576e-07
5.91937e-08
-1.13478e-07
-1.02052e-08
-1.31742e-08
-1.42947e-07
2.38791e-08
2.56404e-07
2.49837e-07
6.73828e-08
-3.60571e-08
-5.10703e-08
-7.82495e-08
-8.2247e-09
-8.8194e-08
1.53327e-09
9.22736e-08
1.10056e-07
1.51184e-07
-5.47744e-09
9.27566e-08
2.64896e-07
1.45187e-07
-5.37941e-08
-6.66121e-08
1.19289e-07
8.96337e-08
1.21624e-07
1.11726e-07
3.42041e-08
1.149e-07
5.99317e-08
4.28046e-08
1.36427e-08
-4.80515e-08
-9.28201e-08
-1.97699e-07
-1.17354e-07
1.78296e-07
3.37685e-08
-4.51686e-08
3.01463e-08
-9.92675e-08
-5.90842e-08
7.66612e-08
-1.22752e-08
-6.2869e-08
9.81466e-08
7.43547e-08
-9.53739e-08
-1.27639e-07
-4.08958e-08
-6.01793e-08
-6.75398e-09
1.98069e-07
9.37379e-08
-1.24422e-07
-4.90233e-09
1.76478e-08
-5.49557e-08
1.07177e-07
6.05036e-08
-9.81989e-08
-1.6632e-08
-1.27306e-08
-1.24311e-07
2.24734e-08
2.37791e-07
2.35503e-07
6.76402e-08
-3.27362e-08
-4.54474e-08
-7.43662e-08
-6.78198e-09
-7.58811e-08
-2.17693e-09
9.02076e-08
1.06159e-07
1.46211e-07
1.00566e-08
8.76956e-08
2.4528e-07
1.43129e-07
-3.79971e-08
-5.84232e-08
1.11418e-07
8.90712e-08
1.14332e-07
1.1229e-07
3.55327e-08
1.06381e-07
6.22164e-08
4.31272e-08
1.49312e-08
-4.55509e-08
-8.80741e-08
-1.78564e-07
-1.18211e-07
1.55582e-07
4.04091e-08
-4.5868e-08
2.41034e-08
-8.31068e-08
-5.72257e-08
6.16061e-08
-6.31647e-09
-5.63668e-08
8.03953e-08
6.69963e-08
-8.38783e-08
-1.21711e-07
-4.06582e-08
-4.81098e-08
-6.52823e-09
1.7577e-07
9.52262e-08
-1.07785e-07
-1.16416e-08
1.99878e-08
-4.98575e-08
8.93581e-08
6.07025e-08
-8.37852e-08
-2.15301e-08
-1.2308e-08
-1.07019e-07
2.11062e-08
2.19728e-07
2.21732e-07
6.80138e-08
-2.9731e-08
-4.02306e-08
-7.00065e-08
-6.04189e-09
-6.40782e-08
-4.97182e-09
8.77114e-08
1.03011e-07
1.41236e-07
2.39829e-08
8.33247e-08
2.26777e-07
1.40847e-07
-2.30307e-08
-5.01909e-08
1.03708e-07
8.85688e-08
1.07125e-07
1.11958e-07
3.76092e-08
9.8501e-08
6.37535e-08
4.33336e-08
1.60767e-08
-4.26908e-08
-8.38206e-08
-1.60626e-07
-1.17447e-07
1.33441e-07
4.58761e-08
-4.51357e-08
1.80176e-08
-6.8986e-08
-5.45167e-08
4.80107e-08
-1.92563e-09
-4.97985e-08
6.46047e-08
5.92407e-08
-7.32506e-08
-1.15166e-07
-4.07559e-08
-3.77132e-08
-5.61112e-09
1.55207e-07
9.56305e-08
-9.16249e-08
-1.72909e-08
2.11855e-08
-4.4543e-08
7.32579e-08
5.9832e-08
-7.03559e-08
-2.49405e-08
-1.18902e-08
-9.1151e-08
1.98806e-08
2.02383e-07
2.08489e-07
6.84388e-08
-2.6908e-08
-3.54812e-08
-6.52383e-08
-5.82999e-09
-5.29706e-08
-6.83123e-09
8.48172e-08
1.00457e-07
1.3632e-07
3.6307e-08
7.96972e-08
2.09459e-07
1.38312e-07
-9.05842e-09
-4.19072e-08
9.62954e-08
8.80676e-08
1.002e-07
1.10736e-07
4.02112e-08
9.13512e-08
6.46034e-08
4.3437e-08
1.70687e-08
-3.9535e-08
-7.99605e-08
-1.44112e-07
-1.15176e-07
1.12209e-07
4.99925e-08
-4.31338e-08
1.21039e-08
-5.693e-08
-5.11275e-08
3.60115e-08
1.01529e-09
-4.33407e-08
5.08017e-08
5.12806e-08
-6.36184e-08
-1.08131e-07
-4.10211e-08
-2.89751e-08
-4.13573e-09
1.36477e-07
9.49592e-08
-7.61642e-08
-2.17424e-08
2.13693e-08
-3.91501e-08
5.89283e-08
5.7965e-08
-5.80023e-08
-2.69603e-08
-1.14552e-08
-7.67334e-08
1.88677e-08
1.85886e-07
1.95746e-07
6.88565e-08
-2.41495e-08
-3.12286e-08
-6.01606e-08
-5.97966e-09
-4.27054e-08
-7.76959e-09
8.15868e-08
9.83394e-08
1.31527e-07
4.70731e-08
7.6821e-08
1.93367e-07
1.35511e-07
3.80465e-09
-3.35838e-08
8.92897e-08
8.74995e-08
9.3725e-08
1.087e-07
4.30877e-08
8.49743e-08
6.48431e-08
4.34482e-08
1.78991e-08
-3.61623e-08
-7.63649e-08
-1.29135e-07
-1.11586e-07
9.22134e-08
5.26665e-08
-4.00719e-08
6.55377e-09
-4.68696e-08
-4.7256e-08
2.56534e-08
2.69239e-09
-3.71578e-08
3.89401e-08
4.33084e-08
-5.50658e-08
-1.00759e-07
-4.13066e-08
-2.18338e-08
-2.24492e-09
1.19625e-07
9.32727e-08
-6.15987e-08
-2.49514e-08
2.07046e-08
-3.38106e-08
4.63715e-08
5.5196e-08
-4.6788e-08
-2.77251e-08
-1.09691e-08
-6.37424e-08
1.81061e-08
1.70321e-07