/*--------------------------------*- C++ -*----------------------------------*\
| =========                 |                                                 |
| \\      /  F ield         | OpenFOAM: The Open Source CFD Toolbox           |
|  \\    /   O peration     | Version:  2312                                  |
|   \\  /    A nd           | Website:  www.openfoam.com                      |
|    \\/     M anipulation  |                                                 |
\*---------------------------------------------------------------------------*/
FoamFile
{
    version     2.0;
    format      ascii;
    arch        "LSB;label=32;scalar=64";
    class       volScalarField;
    location    "400";
    object      pPrime2Mean;
}
// * * * * * * * * * * * * * * * * * * * * * * * * * * * * * * * * * * * * * //

dimensions      [0 4 -4 0 0 0 0];

internalField   nonuniform List<scalar> 
144000
(
1.13999e-15
9.89536e-16
1.12945e-14
2.83305e-14
1.07048e-14
1.15089e-15
1.27317e-14
1.61963e-14
2.84851e-14
1.31234e-14
6.89996e-15
1.51532e-15
3.49939e-15
2.09607e-14
1.47106e-14
2.43533e-14
8.35278e-15
1.09398e-14
3.97208e-14
3.37725e-14
7.48382e-14
3.00644e-14
2.55145e-14
5.19245e-16
1.15159e-14
2.71155e-14
4.60084e-15
3.05543e-15
2.8988e-14
7.80269e-15
7.06209e-15
3.85308e-15
9.61314e-16
8.82326e-15
1.30595e-14
2.58865e-14
9.85885e-15
4.52179e-16
1.53153e-14
1.48688e-14
1.65645e-15
1.80344e-14
8.7184e-15
1.61331e-14
4.85661e-15
3.41203e-14
3.01556e-14
1.9533e-14
1.22856e-14
1.31631e-14
2.11037e-14
1.75658e-14
1.6633e-14
2.82428e-14
1.41853e-14
3.16759e-14
1.69046e-14
3.76844e-15
3.23186e-15
4.1006e-16
1.10415e-15
9.37928e-16
1.07129e-14
2.16009e-14
9.68515e-15
1.23358e-15
8.83375e-15
1.50546e-14
2.12797e-14
8.91692e-15
6.38068e-15
1.51713e-15
3.29575e-15
1.48089e-14
1.0309e-14
1.79145e-14
4.55005e-15
1.00727e-14
3.06424e-14
2.84392e-14
6.20594e-14
2.24994e-14
1.93089e-14
4.02321e-16
7.96397e-15
2.02749e-14
3.83962e-15
1.61895e-15
2.22174e-14
7.15479e-15
6.84881e-15
3.72079e-15
8.80415e-16
5.17121e-15
1.20536e-14
1.9399e-14
8.83149e-15
4.99049e-16
1.08415e-14
1.05172e-14
1.50107e-15
1.28826e-14
7.90452e-15
1.11634e-14
2.51633e-15
2.57577e-14
2.2775e-14
1.81734e-14
1.21301e-14
1.25411e-14
1.54153e-14
1.58401e-14
1.13185e-14
2.08783e-14
9.44944e-15
2.40831e-14
1.13116e-14
3.33219e-15
3.09181e-15
3.84513e-16
1.0237e-15
8.63131e-16
9.23555e-15
1.73961e-14
7.65911e-15
1.3808e-15
6.23008e-15
1.21618e-14
1.65148e-14
5.92607e-15
4.75679e-15
1.36842e-15
2.79799e-15
1.09227e-14
6.9395e-15
1.22296e-14
2.75826e-15
7.50435e-15
2.39482e-14
2.1726e-14
4.89243e-14
1.76624e-14
1.45034e-14
3.50128e-16
5.40047e-15
1.57616e-14
2.60645e-15
1.12345e-15
1.78268e-14
6.15605e-15
6.24986e-15
3.38769e-15
6.71877e-16
3.18717e-15
9.55999e-15
1.55978e-14
6.87674e-15
6.443e-16
7.854e-15
7.89543e-15
1.22271e-15
9.79799e-15
6.12443e-15
7.91043e-15
1.13398e-15
1.89818e-14
1.7692e-14
1.51242e-14
1.13597e-14
1.08335e-14
1.21039e-14
1.18143e-14
8.67128e-15
1.50595e-14
6.36222e-15
1.74404e-14
8.52372e-15
2.3453e-15
2.49497e-15
3.52417e-16
9.09324e-16
7.35398e-16
7.74645e-15
1.4348e-14
5.79408e-15
1.50967e-15
4.45118e-15
9.3983e-15
1.3117e-14
3.91955e-15
3.25421e-15
1.14325e-15
2.28352e-15
8.28505e-15
4.66178e-15
8.14474e-15
1.83155e-15
5.30508e-15
1.88997e-14
1.60321e-14
3.84341e-14
1.44297e-14
1.07051e-14
6.17865e-16
3.60315e-15
1.24492e-14
1.74859e-15
1.01249e-15
1.4646e-14
5.16758e-15
5.58074e-15
3.07796e-15
5.20626e-16
2.0226e-15
7.33306e-15
1.28955e-14
5.06208e-15
8.61789e-16
5.77746e-15
5.94136e-15
1.12487e-15
7.73729e-15
4.5897e-15
5.74656e-15
5.68407e-16
1.40539e-14
1.39786e-14
1.20334e-14
1.03455e-14
9.15818e-15
9.79838e-15
8.17922e-15
7.04208e-15
1.08196e-14
4.43234e-15
1.24409e-14
6.84107e-15
1.48819e-15
1.82998e-15
3.16526e-16
7.83049e-16
5.89672e-16
6.35899e-15
1.18832e-14
4.397e-15
1.57382e-15
3.23145e-15
7.15819e-15
1.04288e-14
2.65162e-15
2.2097e-15
9.29193e-16
1.82092e-15
6.24429e-15
3.30209e-15
5.2509e-15
1.27396e-15
3.77896e-15
1.47613e-14
1.1982e-14
2.99713e-14
1.21616e-14
7.76054e-15
9.77568e-16
2.43469e-15
9.77762e-15
1.34482e-15
1.03214e-15
1.20387e-14
4.33901e-15
4.92713e-15
2.81604e-15
4.21155e-16
1.28851e-15
5.66182e-15
1.06365e-14
3.70132e-15
1.07167e-15
4.35237e-15
4.36875e-15
1.10994e-15
6.19886e-15
3.56031e-15
4.27561e-15
5.05866e-16
1.03453e-14
1.11569e-14
9.5519e-15
9.29014e-15
7.68654e-15
7.94049e-15
5.46072e-15
5.79942e-15
7.66813e-15
3.27226e-15
8.6913e-15
5.56785e-15
9.66525e-16
1.29577e-15
2.81296e-16
6.61755e-16
4.52646e-16
5.07936e-15
9.82962e-15
3.36735e-15
1.57765e-15
2.40129e-15
5.35041e-15
8.2263e-15
1.85782e-15
1.51216e-15
7.38207e-16
1.41205e-15
4.63851e-15
2.5008e-15
3.22479e-15
9.14809e-16
2.73111e-15
1.13833e-14
9.12233e-15
2.29404e-14
1.04346e-14
5.4322e-15
1.29395e-15
1.68442e-15
7.56112e-15
1.22082e-15
1.05958e-15
9.84721e-15
3.66638e-15
4.30252e-15
2.57468e-15
3.64304e-16
8.23758e-16
4.38446e-15
8.68933e-15
2.71694e-15
1.22974e-15
3.35317e-15
3.08367e-15
1.11448e-15
5.03096e-15
2.88358e-15
3.23085e-15
6.41593e-16
7.56544e-15
8.99879e-15
7.61256e-15
8.24682e-15
6.39801e-15
6.39845e-15
3.48749e-15
4.77083e-15
5.27805e-15
2.55361e-15
5.8657e-15
4.53145e-15
6.90863e-16
8.81855e-16
2.47314e-16
5.54456e-16
3.34971e-16
3.95048e-15
8.09821e-15
2.61261e-15
1.54305e-15
1.82944e-15
3.90105e-15
6.41261e-15
1.34921e-15
1.04284e-15
5.79096e-16
1.06163e-15
3.40262e-15
1.99863e-15
1.87837e-15
6.76568e-16
2.00947e-15
8.69418e-15
7.03567e-15
1.72733e-14
9.01733e-15
3.67263e-15
1.52508e-15
1.19266e-15
5.74235e-15
1.23676e-15
1.05894e-15
8.01048e-15
3.12213e-15
3.71781e-15
2.3453e-15
3.46607e-16
5.29437e-16
3.38972e-15
7.0124e-15
2.025e-15
1.32387e-15
2.62055e-15
2.1044e-15
1.12482e-15
4.13181e-15
2.4265e-15
2.51315e-15
8.24108e-16
5.56917e-15
7.32123e-15
6.08902e-15
7.24631e-15
5.29704e-15
5.11304e-15
2.08383e-15
3.88594e-15
3.52983e-15
2.07415e-15
3.81082e-15
3.66677e-15
5.59236e-16
5.79099e-16
2.15642e-16
4.62156e-16
2.41506e-16
3.00458e-15
6.63522e-15
2.07653e-15
1.48036e-15
1.43057e-15
2.77545e-15
4.9324e-15
1.01691e-15
7.27902e-16
4.5376e-16
7.75032e-16
2.47353e-15
1.65402e-15
1.05165e-15
5.17227e-16
1.51723e-15
6.60006e-15
5.48882e-15
1.28278e-14
7.78227e-15
2.41733e-15
1.65458e-15
8.73048e-16
4.27977e-15
1.30756e-15
1.03351e-15
6.48361e-15
2.6878e-15
3.18493e-15
2.12499e-15
3.6175e-16
3.47434e-16
2.6235e-15
5.59415e-15
1.56662e-15
1.3482e-15
2.06722e-15
1.41615e-15
1.13292e-15
3.42977e-15
2.1156e-15
2.06115e-15
9.90101e-16
4.20239e-15
6.00094e-15
4.90567e-15
6.30543e-15
4.38448e-15
4.04866e-15
1.13994e-15
3.11305e-15
2.3061e-15
1.72211e-15
2.36843e-15
2.93506e-15
5.04853e-16
3.71649e-16
1.88631e-16
3.82259e-16
1.70378e-16
2.23941e-15
5.39745e-15
1.70895e-15
1.39449e-15
1.15124e-15
1.93658e-15
3.74362e-15
7.95769e-16
5.1647e-16
3.58464e-16
5.50627e-16
1.78977e-15
1.39212e-15
5.85816e-16
4.09878e-16
1.18501e-15
5.00144e-15
4.32779e-15
9.41506e-15
6.66139e-15
1.56715e-15
1.67996e-15
6.73483e-16
3.13979e-15
1.37848e-15
9.94652e-16
5.22896e-15
2.34434e-15
2.71271e-15
1.91121e-15
3.98648e-16
2.40769e-16
2.04468e-15
4.42512e-15
1.28357e-15
1.30408e-15
1.6469e-15
9.80865e-16
1.12763e-15
2.87839e-15
1.89965e-15
1.78209e-15
1.11902e-15
3.31038e-15
4.95517e-15
3.99936e-15
5.43154e-15
3.64342e-15
3.17789e-15
5.5601e-16
2.43777e-15
1.48535e-15
1.4396e-15
1.39992e-15
2.31429e-15
4.85738e-16
2.39809e-16
1.64525e-16
3.12011e-16
1.18636e-16
1.63843e-15
4.35089e-15
1.46119e-15
1.29223e-15
9.56313e-16
1.33697e-15
2.80116e-15
6.44399e-16
3.73239e-16
2.87379e-16
3.81011e-16
1.29222e-15
1.17558e-15
3.52897e-16
3.38546e-16
9.61594e-16
3.80303e-15
3.44531e-15
6.84809e-15
5.62909e-15
1.02568e-15
1.61241e-15
5.58353e-16
2.27317e-15
1.41648e-15
9.50703e-16
4.20983e-15
2.07062e-15
2.30347e-15
1.70399e-15
4.44598e-16
1.83677e-16
1.61384e-15
3.4858e-15
1.1192e-15
1.20694e-15
1.33306e-15
7.34814e-16
1.10108e-15
2.44445e-15
1.74356e-15
1.61725e-15
1.21094e-15
2.74683e-15
4.12713e-15
3.31332e-15
4.63111e-15
3.04659e-15
2.4756e-15
2.33719e-16
1.85624e-15
9.61124e-16
1.19717e-15
7.82998e-16
1.7919e-15
4.75828e-16
1.63681e-16
1.41287e-16
2.50524e-16
8.40934e-17
1.18228e-15
3.47257e-15
1.29152e-15
1.1782e-15
8.21555e-16
9.23049e-16
2.06246e-15
5.36625e-16
2.75047e-16
2.34569e-16
2.57547e-16
9.32912e-16
9.87672e-16
2.57697e-16
2.9351e-16
8.09624e-16
2.91659e-15
2.76733e-15
4.95178e-15
4.68545e-15
7.05174e-16
1.47274e-15
5.0116e-16
1.62817e-15
1.40729e-15
9.0609e-16
3.39152e-15
1.84703e-15
1.95521e-15
1.50533e-15
4.88141e-16
1.58488e-16
1.29412e-15
2.74816e-15
1.02563e-15
1.07918e-15
1.10662e-15
6.18518e-16
1.05355e-15
2.10402e-15
1.62471e-15
1.52089e-15
1.27285e-15
2.39745e-15
3.47665e-15
2.79673e-15
3.91249e-15
2.56764e-15
1.91786e-15
8.47675e-17
1.36907e-15
6.42157e-16
9.8202e-16
4.12601e-16
1.35902e-15
4.60638e-16
1.26022e-16
1.20082e-16
1.97802e-16
6.39298e-17
8.47508e-16
2.74405e-15
1.16889e-15
1.05806e-15
7.29062e-16
6.44628e-16
1.4921e-15
4.55886e-16
2.06857e-16
1.94952e-16
1.71708e-16
6.74527e-16
8.21994e-16
2.35821e-16
2.67873e-16
7.03738e-16
2.26678e-15
2.24167e-15
3.57239e-15
3.83913e-15
5.31537e-16
1.28694e-15
4.81039e-16
1.16151e-15
1.35232e-15
8.63186e-16
2.74143e-15
1.65746e-15
1.66212e-15
1.31816e-15
5.21002e-16
1.52922e-16
1.05669e-15
2.18075e-15
9.66976e-16
9.42817e-16
9.50467e-16
5.80033e-16
9.91339e-16
1.83707e-15
1.52853e-15
1.45759e-15
1.31237e-15
2.17853e-15
2.97281e-15
2.40685e-15
3.28297e-15
2.18342e-15
1.48157e-15
3.89549e-17
9.76163e-16
4.56303e-16
7.90661e-16
2.06886e-16
1.00795e-15
4.35067e-16
1.12962e-16
1.02247e-16
1.53651e-16
5.46307e-17
6.08845e-16
2.14794e-15
1.0718e-15
9.37983e-16
6.64748e-16
4.61023e-16
1.06118e-15
3.915e-16
1.58603e-16
1.64825e-16
1.15275e-16
4.89259e-16
6.76458e-16
2.45557e-16
2.56012e-16
6.27033e-16
1.79222e-15
1.83083e-15
2.58242e-15
3.09762e-15
4.46852e-16
1.07951e-15
4.81253e-16
8.32565e-16
1.26051e-15
8.22252e-16
2.22937e-15
1.49031e-15
1.41693e-15
1.14531e-15
5.38512e-16
1.58216e-16
8.78859e-16
1.75116e-15
9.2051e-16
8.15347e-16
8.47626e-16
5.79605e-16
9.23067e-16
1.62627e-15
1.44684e-15
1.41066e-15
1.33494e-15
2.03243e-15
2.58864e-15
2.10945e-15
2.74574e-15
1.87283e-15
1.14531e-15
4.616e-17
6.7343e-16
3.51633e-16
6.23775e-16
1.05027e-16
7.30712e-16
3.99582e-16
1.13743e-16
8.80598e-17
1.17532e-16
5.25844e-17
4.42872e-16
1.66794e-15
9.86106e-16
8.23652e-16
6.17455e-16
3.41764e-16
7.44473e-16
3.36826e-16
1.23832e-16
1.41784e-16
8.05978e-17
3.57022e-16
5.50618e-16
2.6272e-16
2.53178e-16
5.68393e-16
1.44473e-15
1.50754e-15
1.87951e-15
2.46362e-15
4.09405e-16
8.71138e-16
4.88491e-16
6.06611e-16
1.1436e-15
7.8337e-16
1.8288e-15
1.33853e-15
1.21251e-15
9.88907e-16
5.39407e-16
1.68635e-16
7.43989e-16
1.42899e-15
8.74962e-16
7.07584e-16
7.82236e-16
5.90909e-16
8.571e-16
1.4584e-15
1.37471e-15
1.37051e-15
1.34401e-15
1.92337e-15
2.29918e-15
1.87916e-15
2.29791e-15
1.61831e-15
8.89917e-16
7.43708e-17
4.51093e-16
2.91915e-16
4.82935e-16
6.39026e-17
5.17316e-16
3.56722e-16
1.20485e-16
7.73376e-17
8.86632e-17
5.47817e-17
3.29832e-16
1.28865e-15
9.04062e-16
7.19315e-16
5.78848e-16
2.65226e-16
5.18099e-16
2.88161e-16
9.83931e-17
1.24157e-16
6.09814e-17
2.63475e-16
4.44661e-16
2.75153e-16
2.55337e-16
5.21085e-16
1.18774e-15
1.25162e-15
1.38379e-15
1.93421e-15
3.9171e-16
6.78131e-16
4.93063e-16
4.55442e-16
1.01365e-15
7.45872e-16
1.51645e-15
1.1987e-15
1.04221e-15
8.50117e-16
5.24858e-16
1.8017e-16
6.39629e-16
1.18788e-15
8.26663e-16
6.23982e-16
7.40359e-16
5.99204e-16
7.99629e-16
1.32281e-15
1.30912e-15
1.332e-15
1.34179e-15
1.83136e-15
2.08119e-15
1.69767e-15
1.93215e-15
1.40611e-15
6.9874e-16
1.05588e-16
2.95983e-16
2.54483e-16
3.68423e-16
5.48571e-17
3.57077e-16
3.09589e-16
1.27932e-16
6.97869e-17
6.63665e-17
5.90084e-17
2.54272e-16
9.9504e-16
8.22449e-16
6.27333e-16
5.43214e-16
2.16657e-16
3.60362e-16
2.43907e-16
7.95752e-17
1.10756e-16
5.10613e-17
1.98018e-16
3.57872e-16
2.78371e-16
2.59344e-16
4.81209e-16
9.94332e-16
1.0479e-15
1.03499e-15
1.50185e-15
3.77666e-16
5.10427e-16
4.88915e-16
3.56927e-16
8.81687e-16
7.09106e-16
1.2725e-15
1.06969e-15
9.0006e-16
7.2917e-16
4.97726e-16
1.90445e-16
5.57693e-16
1.0061e-15
7.75939e-16
5.64683e-16
7.11169e-16
5.98945e-16
7.53054e-16
1.21115e-15
1.24844e-15
1.29343e-15
1.32997e-15
1.74537e-15
1.91421e-15
1.5521e-15
1.63844e-15
1.22608e-15
5.5774e-16
1.31368e-16
1.93479e-16
2.2657e-16
2.78586e-16
5.99678e-17
2.39925e-16
2.61728e-16
1.33026e-16
6.45543e-17
4.99112e-17
6.37346e-17
2.04717e-16
7.72403e-16
7.40989e-16
5.48415e-16
5.07513e-16
1.86306e-16
2.53389e-16
2.0376e-16
6.56202e-17
1.00642e-16
4.69611e-17
1.52926e-16
2.88795e-16
2.72449e-16
2.62771e-16
4.46439e-16
8.457e-16
8.84828e-16
7.8902e-16
1.15594e-15
3.59432e-16
3.72336e-16
4.73517e-16
2.94459e-16
7.56138e-16
6.71489e-16
1.08096e-15
9.51523e-16
7.80877e-16
6.25509e-16
4.61626e-16
1.98069e-16
4.92378e-16
8.67086e-16
7.24783e-16
5.25638e-16
6.86925e-16
5.90261e-16
7.17119e-16
1.11747e-15
1.19171e-15
1.25417e-15
1.31028e-15
1.66349e-15
1.78167e-15
1.43357e-15
1.4057e-15
1.07218e-15
4.55266e-16
1.49061e-16
1.29706e-16
2.02151e-16
2.10307e-16
6.89193e-17
1.56762e-16
2.1629e-16
1.3438e-16
6.07651e-17
3.84195e-17
6.79611e-17
1.72652e-16
6.06803e-16
6.61065e-16
4.82075e-16
4.70501e-16
1.6785e-16
1.82235e-16
1.68089e-16
5.54033e-17
9.2986e-17
4.60897e-17
1.22449e-16
2.35491e-16
2.59547e-16
2.63943e-16
4.15492e-16
7.28926e-16
7.53572e-16
6.14486e-16
8.84309e-16
3.34573e-16
2.64776e-16
4.46901e-16
2.55919e-16
6.42558e-16
6.327e-16
9.2908e-16
8.44479e-16
6.80323e-16
5.37904e-16
4.20374e-16
2.02531e-16
4.39496e-16
7.58987e-16
6.75344e-16
5.01595e-16
6.63317e-16
5.75907e-16
6.89967e-16
1.03777e-15
1.13828e-15
1.21433e-15
1.2845e-15
1.58364e-15
1.67138e-15
1.3355e-15
1.22302e-15
9.40643e-16
3.81826e-16
1.59065e-16
9.2893e-17
1.78982e-16
1.59858e-16
7.63931e-17
9.97664e-17
1.75403e-16
1.31799e-16
5.76527e-17
3.08274e-17
7.10499e-17
1.51913e-16
4.85628e-16
5.84725e-16
4.26998e-16
4.32292e-16
1.5705e-16
1.35573e-16
1.37397e-16
4.81385e-17
8.70002e-17
4.68385e-17
1.02427e-16
1.95513e-16
2.42572e-16
2.61727e-16
3.87647e-16
6.35259e-16
6.47264e-16
4.89472e-16
6.74467e-16
3.03905e-16
1.84846e-16
4.10859e-16
2.3274e-16
5.43924e-16
5.92608e-16
8.07048e-16
7.48604e-16
5.94851e-16
4.64642e-16
3.77416e-16
2.03758e-16
3.96115e-16
6.73297e-16
6.29321e-16
4.87375e-16
6.38425e-16
5.59123e-16
6.68953e-16
9.69248e-16
1.08789e-15
1.17428e-15
1.25359e-15
1.50621e-15
1.575e-15
1.25317e-15
1.08034e-15
8.28873e-16
3.29927e-16
1.62961e-16
7.41118e-17
1.56659e-16
1.23594e-16
8.01688e-17
6.23794e-17
1.401e-16
1.25814e-16
5.4523e-17
2.60933e-17
7.2644e-17
1.38224e-16
3.98043e-16
5.13939e-16
3.81477e-16
3.93702e-16
1.50946e-16
1.05329e-16
1.11968e-16
4.31604e-17
8.19499e-17
4.83359e-17
8.97042e-17
1.66458e-16
2.24168e-16
2.55999e-16
3.62223e-16
5.58772e-16
5.60627e-16
3.98908e-16
5.14593e-16
2.69745e-16
1.28231e-16
3.68392e-16
2.18939e-16
4.61091e-16
5.51521e-16
7.07546e-16
6.63551e-16
5.21645e-16
4.037e-16
3.35528e-16
2.02111e-16
3.60009e-16
6.04111e-16
5.87584e-16
4.78705e-16
6.11847e-16
5.426e-16
6.51475e-16
9.09903e-16
1.04032e-15
1.13434e-15
1.21911e-15
1.43184e-15
1.48751e-15
1.18296e-15
9.6896e-16
7.3474e-16
2.9377e-16
1.62557e-16
6.65685e-17
1.3558e-16
9.82746e-17
7.98448e-17
3.91974e-17
1.10592e-16
1.17358e-16
5.10088e-17
2.32946e-17
7.2632e-17
1.28745e-16
3.34977e-16
4.50177e-16
3.43719e-16
3.55846e-16
1.47448e-16
8.59011e-17
9.16798e-17
3.99247e-17
7.73583e-17
5.01479e-17
8.19953e-17
1.4594e-16
2.06099e-16
2.47272e-16
3.38845e-16
4.9542e-16
4.89515e-16
3.32486e-16
3.94197e-16
2.34681e-16
9.00269e-17
3.2291e-16
2.10383e-16
3.93445e-16
5.10033e-16
6.25165e-16
5.88621e-16
4.58591e-16
3.52932e-16
2.96556e-16
1.98086e-16
3.29522e-16
5.4729e-16
5.50228e-16
4.72387e-16
5.84455e-16
5.27951e-16
6.35395e-16
8.5828e-16
9.95416e-16
1.09478e-15
1.18223e-15
1.36107e-15
1.40606e-15
1.12189e-15
8.81611e-16
6.5628e-16
2.68808e-16
1.59498e-16
6.54623e-17
1.16456e-16
8.09583e-17
7.60235e-17
2.58825e-17
8.65171e-17
1.0744e-16
4.7072e-17
2.17099e-17
7.11655e-17
1.21676e-16
2.893e-16
3.94219e-16
3.12083e-16
3.19852e-16
1.45038e-16
7.36103e-17
7.60892e-17
3.80012e-17
7.30104e-17
5.21172e-17
7.76156e-17
1.31699e-16
1.89443e-16
2.36516e-16
3.17142e-16
4.4237e-16
4.30684e-16
2.83117e-16
3.04436e-16
2.00893e-16
6.57074e-17
2.77469e-16
2.04258e-16
3.3942e-16
4.68895e-16
5.55924e-16
5.22899e-16
4.04122e-16
3.10299e-16
2.615e-16
1.92279e-16
3.03467e-16
4.99944e-16
5.16911e-16
4.66364e-16
5.57485e-16
5.15751e-16
6.19284e-16
8.13318e-16
9.53087e-16
1.05587e-15
1.14387e-15
1.29424e-15
1.32926e-15
1.06747e-15
8.12508e-16
5.91576e-16
2.51692e-16
1.55089e-16
6.7633e-17
9.96864e-17
6.92395e-17
6.97748e-17
1.91247e-17
6.72404e-17
9.68219e-17
4.29182e-17
2.08447e-17
6.85681e-17
1.15924e-16
2.55566e-16
3.46198e-16
2.85204e-16
2.86582e-16
1.42664e-16
6.60067e-17
6.45635e-17
3.70553e-17
6.88161e-17
5.41645e-17
7.53562e-17
1.21969e-16
1.74867e-16
2.24738e-16
2.96949e-16
3.97511e-16
3.81652e-16
2.45846e-16
2.38102e-16
1.69924e-16
5.12662e-17
2.34496e-16
1.98826e-16
2.96985e-16
4.2896e-16
4.96934e-16
4.6538e-16
3.569e-16
2.74044e-16
2.30716e-16
1.85321e-16
2.80986e-16
4.5991e-16
4.87167e-16
4.59536e-16
5.32165e-16
5.05753e-16
6.02684e-16
7.74044e-16
9.13296e-16
1.01781e-15
1.10473e-15
1.2314e-15
1.25655e-15
1.01781e-15
7.57093e-16
5.38743e-16
2.40003e-16
1.50262e-16
7.11103e-17
8.56167e-17
6.12519e-17
6.22513e-17
1.64006e-17
5.20114e-17
8.60478e-17
3.88637e-17
2.03916e-17
6.51927e-17
1.10873e-16
2.29858e-16
3.05731e-16
2.62014e-16
2.56588e-16
1.39686e-16
6.15845e-17
5.63514e-17
3.68105e-17
6.48194e-17
5.62273e-17
7.43953e-17
1.15417e-16
1.62695e-16
2.12858e-16
2.78217e-16
3.59305e-16
3.40521e-16
2.17233e-16
1.89448e-16
1.42711e-16
4.35097e-17
1.95773e-16
1.93069e-16
2.63996e-16
3.91015e-16
4.46073e-16
4.15074e-16
3.15801e-16
2.42808e-16
2.04109e-16
1.77785e-16
2.61476e-16
4.25614e-16
4.60505e-16
4.51479e-16
5.09318e-16
4.97339e-16
5.85704e-16
7.39599e-16
8.75946e-16
9.80747e-16
1.06543e-15
1.17244e-15
1.18784e-15
9.71543e-16
7.11878e-16
4.95787e-16
2.32017e-16
1.45639e-16
7.48469e-17
7.42733e-17
5.56589e-17
5.44482e-17
1.5984e-17
4.01089e-17
7.55698e-17
3.52333e-17
2.01806e-17
6.13848e-17
1.06202e-16
2.09479e-16
2.72094e-16
2.41718e-16
2.30117e-16
1.35826e-16
5.93669e-17
5.0713e-17
3.70746e-17
6.11025e-17
5.82324e-17
7.42745e-17
1.11048e-16
1.52907e-16
2.01511e-16
2.60861e-16
3.26564e-16
3.05824e-16
1.94875e-16
1.54015e-16
1.1966e-16
4.0057e-17
1.62322e-16
1.86513e-16
2.38429e-16
3.55682e-16
4.01803e-16
3.71056e-16
2.7993e-16
2.15563e-16
1.81327e-16
1.70106e-16
2.44529e-16
3.95934e-16
4.36486e-16
4.42181e-16
4.89227e-16
4.89734e-16
5.68839e-16
7.09191e-16
8.40918e-16
9.44796e-16
1.02647e-15
1.11721e-15
1.12322e-15
9.27717e-16
6.74251e-16
4.60953e-16
2.26535e-16
1.41592e-16
7.82808e-17
6.55148e-17
5.15724e-17
4.70871e-17
1.66263e-17
3.09307e-17
6.57262e-17
3.22602e-17
3.64274e-14
2.23706e-14
1.76159e-14
7.99591e-15
3.31309e-15
2.71794e-14
3.43995e-14
7.74726e-14
2.5019e-14
3.62692e-14
1.35511e-15
1.23016e-15
1.38707e-14
3.44902e-14
1.18655e-14
2.52498e-14
2.80462e-15
3.7537e-15
4.91676e-14
3.21378e-14
5.18595e-14
5.34974e-14
2.64774e-14
1.70785e-14
9.94837e-15
3.6338e-15
2.40458e-15
2.31846e-14
1.14912e-14
4.85464e-15
9.1502e-15
1.0065e-14
3.06039e-14
1.78224e-14
5.95228e-14
2.94338e-14
3.85301e-14
2.43494e-14
2.0966e-15
9.91466e-16
2.75994e-15
4.30684e-15
1.16548e-15
1.7763e-14
6.04892e-15
5.98001e-15
6.98914e-15
5.06792e-15
8.40945e-15
4.29034e-14
3.49226e-14
5.25813e-14
2.12633e-15
2.03109e-16
8.58753e-15
2.56551e-14
1.2113e-14
2.53572e-14
5.08075e-15
9.98872e-15
2.79884e-14
1.6078e-14
1.63896e-14
7.96117e-15
3.23855e-15
2.01428e-14
2.88433e-14
6.43042e-14
1.82666e-14
2.84869e-14
1.23868e-15
1.09271e-15
9.82703e-15
2.63502e-14
7.55297e-15
1.8721e-14
2.27099e-15
2.1607e-15
3.90001e-14
2.59926e-14
4.90814e-14
4.31386e-14
2.1043e-14
1.6117e-14
9.55811e-15
3.63353e-15
2.25749e-15
1.716e-14
1.05037e-14
4.82234e-15
8.50291e-15
6.35183e-15
2.2487e-14
1.3508e-14
4.79559e-14
2.19924e-14
3.55836e-14
1.80235e-14
1.92968e-15
9.66607e-16
2.68576e-15
4.0856e-15
1.2405e-15
1.31221e-14
5.62769e-15
5.80596e-15
6.76843e-15
5.10653e-15
8.07666e-15
3.37523e-14
2.8171e-14
4.27617e-14
1.85751e-15
1.71735e-16
5.42678e-15
1.8549e-14
8.14658e-15
1.86174e-14
4.21286e-15
6.07006e-15
2.13351e-14
1.18357e-14
1.32778e-14
7.61648e-15
2.90989e-15
1.53423e-14
2.16613e-14
5.06164e-14
1.32386e-14
2.2714e-14
1.27412e-15
7.75678e-16
7.02825e-15
1.92919e-14
4.77981e-15
1.41736e-14
1.39808e-15
1.17848e-15
3.08009e-14
2.02035e-14
4.14337e-14
3.5451e-14
1.58022e-14
1.33054e-14
8.43065e-15
3.62024e-15
1.82324e-15
1.34835e-14
8.66718e-15
4.62339e-15
6.81743e-15
4.52152e-15
1.57585e-14
9.178e-15
3.75276e-14
1.67829e-14
2.8315e-14
1.46354e-14
1.57343e-15
8.37928e-16
2.53064e-15
3.72022e-15
1.35723e-15
1.00286e-14
4.76815e-15
5.34651e-15
6.31482e-15
5.15233e-15
7.19736e-15
2.72453e-14
2.06033e-14
3.4851e-14
1.70879e-15
1.50909e-16
3.55844e-15
1.2739e-14
5.12026e-15
1.38257e-14
2.60845e-15
3.94716e-15
1.61281e-14
8.8641e-15
1.01733e-14
7.12948e-15
2.60263e-15
1.18896e-14
1.55627e-14
3.95631e-14
9.79915e-15
1.79762e-14
1.36448e-15
5.47374e-16
5.07699e-15
1.40035e-14
3.14428e-15
1.07313e-14
8.78155e-16
6.07348e-16
2.43467e-14
1.5402e-14
3.37736e-14
2.946e-14
1.15712e-14
1.05227e-14
7.16951e-15
3.53508e-15
1.49153e-15
1.08495e-14
6.93102e-15
4.30675e-15
5.3183e-15
3.51086e-15
1.08659e-14
5.88028e-15
2.91758e-14
1.30033e-14
2.13902e-14
1.24005e-14
1.28775e-15
7.31614e-16
2.32086e-15
3.33966e-15
1.51901e-15
7.83675e-15
3.96015e-15
4.78799e-15
5.78108e-15
5.1051e-15
6.30091e-15
2.21839e-14
1.45301e-14
2.80723e-14
1.71436e-15
1.87092e-16
2.39301e-15
8.60972e-15
3.15924e-15
1.02342e-14
1.45055e-15
2.6668e-15
1.19091e-14
6.73794e-15
7.62639e-15
6.55698e-15
2.3309e-15
9.11652e-15
1.12699e-14
3.04838e-14
7.6034e-15
1.39662e-14
1.44957e-15
3.9367e-16
3.75692e-15
9.927e-15
2.2561e-15
7.99912e-15
6.82781e-16
3.54025e-16
1.90153e-14
1.17526e-14
2.72537e-14
2.43932e-14
8.51422e-15
8.34877e-15
6.01604e-15
3.37008e-15
1.2603e-15
8.72401e-15
5.59281e-15
3.94171e-15
4.22495e-15
2.88269e-15
7.27248e-15
3.75877e-15
2.24554e-14
1.01831e-14
1.596e-14
1.05855e-14
1.09719e-15
6.64384e-16
2.07658e-15
3.01502e-15
1.62886e-15
6.22862e-15
3.37516e-15
4.27626e-15
5.2518e-15
4.94636e-15
5.52892e-15
1.78421e-14
1.04945e-14
2.20998e-14
1.83384e-15
2.32668e-16
1.67065e-15
5.63664e-15
2.04752e-15
7.43531e-15
8.13856e-16
1.83585e-15
8.48696e-15
5.18511e-15
5.57483e-15
5.92673e-15
2.09009e-15
6.89171e-15
8.29985e-15
2.29811e-14
6.20448e-15
1.05688e-14
1.51958e-15
2.82481e-16
2.84433e-15
6.75875e-15
1.77229e-15
5.79151e-15
6.53525e-16
2.67201e-16
1.46169e-14
9.04974e-15
2.17512e-14
2.0098e-14
6.34613e-15
6.67358e-15
4.98406e-15
3.1448e-15
1.08972e-15
6.95613e-15
4.58163e-15
3.54945e-15
3.40905e-15
2.4458e-15
4.63347e-15
2.43737e-15
1.70274e-14
8.09444e-15
1.17621e-14
9.02189e-15
9.76268e-16
6.27544e-16
1.82791e-15
2.74371e-15
1.67713e-15
5.03455e-15
2.9589e-15
3.82226e-15
4.7426e-15
4.69948e-15
4.86981e-15
1.40691e-14
7.89582e-15
1.68168e-14
2.00151e-15
2.66278e-16
1.19553e-15
3.51061e-15
1.41064e-15
5.2118e-15
4.9635e-16
1.27528e-15
5.84554e-15
4.00721e-15
3.95594e-15
5.26657e-15
1.88779e-15
5.15805e-15
6.19328e-15
1.69396e-14
5.28012e-15
7.753e-15
1.5737e-15
2.09484e-16
2.18083e-15
4.41754e-15
1.48796e-15
4.07014e-15
7.00733e-16
2.54357e-16
1.10758e-14
7.02664e-15
1.71283e-14
1.65008e-14
4.78546e-15
5.359e-15
4.09015e-15
2.88304e-15
9.65655e-16
5.48313e-15
3.81394e-15
3.15154e-15
2.78935e-15
2.10982e-15
2.77589e-15
1.60315e-15
1.27215e-14
6.532e-15
8.52425e-15
7.65863e-15
9.04331e-16
6.12636e-16
1.59691e-15
2.51607e-15
1.67808e-15
4.13469e-15
2.65112e-15
3.42469e-15
4.2684e-15
4.3901e-15
4.30848e-15
1.0872e-14
6.17913e-15
1.23233e-14
2.16915e-15
2.86644e-16
8.54277e-16
2.07997e-15
1.01559e-15
3.51388e-15
3.63255e-16
8.8034e-16
3.90222e-15
3.08459e-15
2.72318e-15
4.59927e-15
1.72423e-15
3.85249e-15
4.67967e-15
1.22559e-14
4.6275e-15
5.48582e-15
1.60844e-15
1.69168e-16
1.67832e-15
2.76691e-15
1.2927e-15
2.78021e-15
7.75217e-16
2.76097e-16
8.295e-15
5.50016e-15
1.33012e-14
1.34905e-14
3.65375e-15
4.31734e-15
3.34406e-15
2.60105e-15
8.78747e-16
4.27345e-15
3.2274e-15
2.76406e-15
2.31992e-15
1.83257e-15
1.54024e-15
1.07713e-15
9.37781e-15
5.33912e-15
6.08015e-15
6.45663e-15
8.68546e-16
6.1146e-16
1.39723e-15
2.3216e-15
1.64344e-15
3.45302e-15
2.41634e-15
3.08125e-15
3.83833e-15
4.04575e-15
3.83583e-15
8.25007e-15
4.9991e-15
8.65452e-15
2.29943e-15
2.92715e-16
5.98312e-16
1.17804e-15
7.49514e-16
2.2757e-15
3.29971e-16
5.95965e-16
2.53148e-15
2.34753e-15
1.81758e-15
3.94058e-15
1.59294e-15
2.89721e-15
3.58214e-15
8.71162e-15
4.11077e-15
3.71417e-15
1.61545e-15
1.51594e-16
1.28677e-15
1.65646e-15
1.1288e-15
1.84996e-15
8.41867e-16
3.11727e-16
6.16064e-15
4.34326e-15
1.01849e-14
1.09717e-14
2.83228e-15
3.4824e-15
2.73841e-15
2.30792e-15
8.20368e-16
3.30288e-15
2.7701e-15
2.39729e-15
1.96092e-15
1.59319e-15
7.71487e-16
7.46978e-16
6.83261e-15
4.40905e-15
4.2874e-15
5.39378e-15
8.61271e-16
6.18326e-16
1.23486e-15
2.14772e-15
1.58533e-15
2.93668e-15
2.23028e-15
2.78666e-15
3.45423e-15
3.68364e-15
3.43867e-15
6.17188e-15
4.13299e-15
5.78908e-15
2.36159e-15
2.85604e-16
4.08404e-16
6.40218e-16
5.55657e-16
1.41016e-15
3.37285e-16
3.93701e-16
1.59548e-15
1.75593e-15
1.17434e-15
3.30452e-15
1.48213e-15
2.21235e-15
2.77669e-15
6.09504e-15
3.6477e-15
2.3875e-15
1.58486e-15
1.48491e-16
9.78469e-16
9.545e-16
9.69986e-16
1.20599e-15
8.78342e-16
3.4964e-16
4.55928e-15
3.46072e-15
7.69265e-15
8.86701e-15
2.23508e-15
2.80456e-15
2.25489e-15
2.01263e-15
7.81676e-16
2.54452e-15
2.40157e-15
2.05776e-15
1.68087e-15
1.38183e-15
3.36193e-16
5.36968e-16
4.92717e-15
3.66698e-15
3.01308e-15
4.45184e-15
8.76157e-16
6.2935e-16
1.10978e-15
1.98533e-15
1.51599e-15
2.54504e-15
2.07635e-15
2.53464e-15
3.11436e-15
3.32079e-15
3.10266e-15
4.57649e-15
3.44287e-15
3.6638e-15
2.33446e-15
2.7095e-16
2.74163e-16
3.39074e-16
4.06347e-16
8.35513e-16
3.47389e-16
2.55245e-16
9.81138e-16
1.28486e-15
7.3523e-16
2.70905e-15
1.38252e-15
1.72735e-15
2.17812e-15
4.2095e-15
3.20109e-15
1.44664e-15
1.50986e-15
1.53177e-16
7.37571e-16
5.41463e-16
8.1044e-16
7.80254e-16
8.75551e-16
3.84139e-16
3.38205e-15
2.78136e-15
5.73728e-15
7.11159e-15
1.79894e-15
2.24785e-15
1.87282e-15
1.72665e-15
7.54774e-16
1.96679e-15
2.09206e-15
1.75139e-15
1.45612e-15
1.19441e-15
1.25492e-16
3.98649e-16
3.52791e-15
3.06225e-15
2.13774e-15
3.62445e-15
9.04842e-16
6.41447e-16
1.01739e-15
1.8305e-15
1.44455e-15
2.24608e-15
1.944e-15
2.31914e-15
2.81555e-15
2.97206e-15
2.81058e-15
3.38483e-15
2.85475e-15
2.16988e-15
2.21277e-15
2.55336e-16
1.8581e-16
1.81883e-16
2.89416e-16
4.74083e-16
3.42782e-16
1.65265e-16
5.89758e-16
9.17331e-16
4.48731e-16
2.173e-15
1.287e-15
1.38317e-15
1.72926e-15
2.88548e-15
2.76047e-15
8.22573e-16
1.39033e-15
1.62815e-16
5.52914e-16
3.208e-16
6.55422e-16
5.13181e-16
8.35402e-16
4.12399e-16
2.53109e-15
2.25303e-15
4.23255e-15
5.65266e-15
1.47732e-15
1.78709e-15
1.57224e-15
1.46077e-15
7.32431e-16
1.53633e-15
1.82203e-15
1.48219e-15
1.27014e-15
1.02932e-15
5.45479e-17
3.02758e-16
2.51999e-15
2.56134e-15
1.55809e-15
2.91049e-15
9.37996e-16
6.52472e-16
9.51198e-16
1.68314e-15
1.37689e-15
2.01499e-15
1.82699e-15
2.13404e-15
2.55394e-15
2.64862e-15
2.54806e-15
2.51623e-15
2.33661e-15
1.18777e-15
2.00734e-15
2.45361e-16
1.32869e-16
1.05003e-16
1.99799e-16
2.59014e-16
3.20636e-16
1.11206e-16
3.47924e-16
6.38853e-16
2.70408e-16
1.70884e-15
1.19123e-15
1.13555e-15
1.39105e-15
1.97618e-15
2.33005e-15
4.4438e-16
1.23295e-15
1.75618e-16
4.14896e-16
2.18103e-16
5.1363e-16
3.56109e-16
7.66773e-16
4.33024e-16
1.92442e-15
1.83815e-15
3.09547e-15
4.4477e-15
1.2357e-15
1.40459e-15
1.33527e-15
1.22306e-15
7.10191e-16
1.22077e-15
1.58097e-15
1.2523e-15
1.11151e-15
8.85586e-16
6.20819e-17
2.32986e-16
1.80667e-15
2.14225e-15
1.18842e-15
2.30865e-15
9.67187e-16
6.60805e-16
9.03703e-16
1.54616e-15
1.31546e-15
1.83222e-15
1.72156e-15
1.97416e-15
2.32531e-15
2.3571e-15
2.30479e-15
1.89848e-15
1.87971e-15
5.94e-16
1.74021e-15
2.44481e-16
1.04583e-16
6.8872e-17
1.34546e-16
1.38033e-16
2.8566e-16
8.23727e-17
2.02736e-16
4.34993e-16
1.64834e-16
1.32022e-15
1.09288e-15
9.52927e-16
1.1353e-15
1.36343e-15
1.92165e-15
2.42614e-16
1.05051e-15
1.90627e-16
3.14619e-16
1.80716e-16
3.93016e-16
2.70871e-16
6.81428e-16
4.45608e-16
1.4953e-15
1.50976e-15
2.25045e-15
3.46186e-15
1.04886e-15
1.08789e-15
1.14682e-15
1.01809e-15
6.85057e-16
9.91225e-16
1.36425e-15
1.06043e-15
9.72506e-16
7.6186e-16
1.06516e-16
1.8123e-16
1.3102e-15
1.79035e-15
9.60569e-16
1.8152e-15
9.85769e-16
6.65325e-16
8.68521e-16
1.42179e-15
1.26041e-15
1.68406e-15
1.62585e-15
1.83505e-15
2.12551e-15
2.10046e-15
2.07516e-15
1.46481e-15
1.48534e-15
2.73375e-16
1.44073e-15
2.52621e-16
9.09251e-17
5.12749e-17
9.02211e-17
7.39917e-17
2.4471e-16
6.97167e-17
1.1745e-16
2.91477e-16
1.05717e-16
1.00639e-15
9.91847e-16
8.14421e-16
9.41022e-16
9.56619e-16
1.54837e-15
1.574e-16
8.58683e-16
2.06213e-16
2.43848e-16
1.74054e-16
2.98635e-16
2.28936e-16
5.90911e-16
4.50093e-16
1.19214e-15
1.24842e-15
1.63257e-15
2.66438e-15
8.98767e-16
8.2829e-16
9.94174e-16
8.4646e-16
6.54963e-16
8.23809e-16
1.1709e-15
9.03273e-16
8.48455e-16
6.56114e-16
1.61515e-16
1.43796e-16
9.69834e-16
1.49556e-15
8.23413e-16
1.42308e-15
9.89505e-16
6.66049e-16
8.40655e-16
1.31144e-15
1.21076e-15
1.56078e-15
1.53871e-15
1.71305e-15
1.95065e-15
1.87841e-15
1.85751e-15
1.16446e-15
1.15552e-15
1.29181e-16
1.13854e-15
2.66406e-16
8.43856e-17
4.1499e-17
6.23815e-17
4.25041e-17
2.03748e-16
6.5933e-17
6.81969e-17
1.94822e-16
7.47433e-17
7.60979e-16
8.89345e-16
7.06355e-16
7.92258e-16
6.88926e-16
1.22021e-15
1.41039e-16
6.72561e-16
2.20362e-16
1.95159e-16
1.77483e-16
2.31241e-16
2.10477e-16
5.04628e-16
4.47014e-16
9.76665e-16
1.03979e-15
1.18776e-15
2.02792e-15
7.7299e-16
6.18881e-16
8.67078e-16
7.06356e-16
6.19165e-16
7.00412e-16
1.0013e-15
7.75758e-16
7.36865e-16
5.65972e-16
2.11958e-16
1.18854e-16
7.39009e-16
1.25073e-15
7.40475e-16
1.12194e-15
9.76838e-16
6.63622e-16
8.16736e-16
1.21555e-15
1.16483e-15
1.45543e-15
1.45904e-15
1.6052e-15
1.79717e-15