/*--------------------------------*- C++ -*----------------------------------*\
| =========                 |                                                 |
| \\      /  F ield         | OpenFOAM: The Open Source CFD Toolbox           |
|  \\    /   O peration     | Version:  2312                                  |
|   \\  /    A nd           | Website:  www.openfoam.com                      |
|    \\/     M anipulation  |                                                 |
\*---------------------------------------------------------------------------*/
FoamFile
{
    version     2.0;
    format      ascii;
    arch        "LSB;label=32;scalar=64";
    class       volScalarField;
    location    "600";
    object      pMean;
}
// * * * * * * * * * * * * * * * * * * * * * * * * * * * * * * * * * * * * * //

dimensions      [0 2 -2 0 0 0 0];

internalField   nonuniform List<scalar> 
144000
(
8.67049e-10
4.14521e-10
-4.71904e-10
-8.59298e-10
-7.16071e-10
-4.82208e-10
-2.66343e-10
-1.4978e-10
-4.98686e-11
-2.28786e-11
2.17944e-11
1.74895e-11
4.6788e-11
3.20261e-11
5.7823e-11
4.02032e-11
6.17233e-11
3.70681e-11
6.05071e-11
3.84834e-11
6.24191e-11
3.60063e-11
6.08102e-11
3.4978e-11
6.14306e-11
3.48584e-11
6.14688e-11
3.1708e-11
5.96898e-11
3.04693e-11
6.0591e-11
3.11647e-11
6.03467e-11
2.59943e-11
5.65121e-11
2.37752e-11
5.5666e-11
2.22692e-11
5.36408e-11
1.77038e-11
4.87653e-11
1.5112e-11
4.72376e-11
1.06197e-11
4.15169e-11
4.66526e-12
3.51735e-11
5.07566e-12
3.2907e-11
8.36266e-12
3.14091e-11
2.02512e-11
2.61206e-11
2.75523e-11
-3.26445e-12
3.71164e-11
-1.56481e-11
4.91162e-11
-1.20746e-09
-2.84446e-10
9.02425e-10
4.35998e-10
-4.80892e-10
-8.66503e-10
-7.18362e-10
-4.82347e-10
-2.66563e-10
-1.50041e-10
-5.03645e-11
-2.33051e-11
2.12912e-11
1.71701e-11
4.63967e-11
3.18049e-11
5.75203e-11
4.00872e-11
6.1474e-11
3.69569e-11
6.02786e-11
3.84503e-11
6.22271e-11
3.5978e-11
6.06264e-11
3.4999e-11
6.12687e-11
3.49034e-11
6.13116e-11
3.17538e-11
5.95314e-11
3.0544e-11
6.04468e-11
3.12677e-11
6.01989e-11
2.60805e-11
5.6353e-11
2.39044e-11
5.55197e-11
2.24139e-11
5.34921e-11
1.78366e-11
4.85338e-11
1.51624e-11
4.69796e-11
1.08221e-11
4.1361e-11
4.90971e-12
3.50073e-11
5.39751e-12
3.27696e-11
8.70833e-12
3.13112e-11
2.06691e-11
2.61136e-11
2.79055e-11
-3.22675e-12
3.69696e-11
-1.16742e-11
6.18455e-11
-1.22921e-09
-3.13348e-10
9.50164e-10
4.4195e-10
-4.95162e-10
-8.69107e-10
-7.18919e-10
-4.81883e-10
-2.66284e-10
-1.50174e-10
-5.06616e-11
-2.39227e-11
2.07492e-11
1.658e-11
4.59998e-11
3.13203e-11
5.72225e-11
3.97516e-11
6.13174e-11
3.66298e-11
6.01053e-11
3.82098e-11
6.21524e-11
3.57501e-11
6.05507e-11
3.48272e-11
6.12451e-11
3.47592e-11
6.13131e-11
3.16028e-11
5.95229e-11
3.04238e-11
6.04667e-11
3.11829e-11
6.02552e-11
2.59635e-11
5.63693e-11
2.38343e-11
5.5577e-11
2.23601e-11
5.35638e-11
1.77829e-11
4.84763e-11
1.49324e-11
4.68623e-11
1.07683e-11
4.1471e-11
4.98038e-12
3.50736e-11
5.54572e-12
3.29042e-11
8.87243e-12
3.14476e-11
2.08799e-11
2.64226e-11
2.80352e-11
-2.67488e-12
3.50666e-11
-7.60877e-12
8.33764e-11
-1.26691e-09
-3.3341e-10
1.00036e-09
4.14979e-10
-5.1067e-10
-8.61637e-10
-7.17256e-10
-4.80863e-10
-2.65376e-10
-1.49758e-10
-5.05988e-11
-2.44819e-11
2.01167e-11
1.58332e-11
4.5482e-11
3.06995e-11
5.68038e-11
3.93156e-11
6.11218e-11
3.62053e-11
5.98342e-11
3.78865e-11
6.2051e-11
3.54545e-11
6.0421e-11
3.45996e-11
6.11956e-11
3.45791e-11
6.13164e-11
3.14123e-11
5.9492e-11
3.02667e-11
6.04781e-11
3.10785e-11
6.03454e-11
2.58207e-11
5.63718e-11
2.37375e-11
5.56525e-11
2.22943e-11
5.36763e-11
1.77427e-11
4.84062e-11
1.46286e-11
4.66603e-11
1.05924e-11
4.16548e-11
5.05409e-12
3.51863e-11
5.66133e-12
3.31711e-11
8.94192e-12
3.17752e-11
2.08512e-11
2.72763e-11
2.74633e-11
-8.76432e-13
2.99299e-11
1.43836e-12
1.03772e-10
-1.31555e-09
-3.26593e-10
1.04474e-09
3.38871e-10
-5.24788e-10
-8.352e-10
-7.11499e-10
-4.79732e-10
-2.64151e-10
-1.48734e-10
-5.01221e-11
-2.49318e-11
1.93614e-11
1.49432e-11
4.4796e-11
2.99424e-11
5.62131e-11
3.87879e-11
6.0838e-11
3.57005e-11
5.94167e-11
3.74924e-11
6.18763e-11
3.51174e-11
6.01842e-11
3.43372e-11
6.10738e-11
3.43894e-11
6.12712e-11
3.12165e-11
5.9384e-11
3.01015e-11
6.0429e-11
3.09947e-11
6.04189e-11
2.56957e-11
5.63027e-11
2.36506e-11
5.56951e-11
2.22567e-11
5.37826e-11
1.77786e-11
4.8277e-11
1.43569e-11
4.62676e-11
1.02899e-11
4.1839e-11
5.19262e-12
3.52868e-11
5.74947e-12
3.35315e-11
8.88509e-12
3.23234e-11
2.04505e-11
2.88339e-11
2.58416e-11
2.69623e-12
2.10357e-11
1.6985e-11
1.18019e-10
-1.3722e-09
-2.78394e-10
1.08408e-09
2.04235e-10
-5.39385e-10
-7.85273e-10
-6.995e-10
-4.79022e-10
-2.63042e-10
-1.47234e-10
-4.92963e-11
-2.53013e-11
1.84469e-11
1.38848e-11
4.39201e-11
2.90374e-11
5.54393e-11
3.81528e-11
6.0454e-11
3.51258e-11
5.88503e-11
3.70259e-11
6.16177e-11
3.47459e-11
5.98367e-11
3.40382e-11
6.0873e-11
3.41933e-11
6.11692e-11
3.10224e-11
5.91901e-11
2.99318e-11
6.03126e-11
3.09324e-11
6.0461e-11
2.55977e-11
5.61527e-11
2.35713e-11
5.56937e-11
2.22517e-11
5.38745e-11
1.79164e-11
4.80916e-11
1.41405e-11
4.56169e-11
9.81044e-12
4.19926e-11
5.39815e-12
3.53776e-11
5.78006e-12
3.40035e-11
8.63606e-12
3.31596e-11
1.95153e-11
3.12846e-11
2.28553e-11
8.51733e-12
8.10048e-12
3.9364e-11
1.24695e-10
-1.43857e-09
-1.81287e-10
1.12392e-09
9.02819e-12
-5.59627e-10
-7.10216e-10
-6.79086e-10
-4.7887e-10
-2.62475e-10
-1.45402e-10
-4.81765e-11
-2.56438e-11
1.73253e-11
1.26183e-11
4.28229e-11
2.79716e-11
5.44711e-11
3.73978e-11
5.9957e-11
3.44875e-11
5.81396e-11
3.64874e-11
6.12717e-11
3.43515e-11
5.93812e-11
3.37069e-11
6.05932e-11
3.39973e-11
6.10041e-11
3.08404e-11
5.89108e-11
2.97637e-11
6.01261e-11
3.08955e-11
6.04644e-11
2.55378e-11
5.59235e-11
2.35018e-11
5.5646e-11
2.22813e-11
5.39555e-11
1.81658e-11
4.79053e-11
1.39951e-11
4.46118e-11
9.09486e-12
4.21207e-11
5.66655e-12
3.54739e-11
5.70336e-12
3.4612e-11
8.11905e-12
3.43657e-11
1.79168e-11
3.4756e-11
1.83102e-11
1.67172e-11
-8.45794e-12
6.74318e-11
1.24902e-10
-1.51586e-09
-3.51729e-11
1.1698e-09
-2.3963e-10
-5.90534e-10
-6.11728e-10
-6.4856e-10
-4.79134e-10
-2.62803e-10
-1.43385e-10
-4.68099e-11
-2.59927e-11
1.59657e-11
1.11074e-11
4.1466e-11
2.67268e-11
5.32879e-11
3.65058e-11
5.93199e-11
3.37848e-11
5.7285e-11
3.58751e-11
6.08254e-11
3.394e-11
5.88189e-11
3.33485e-11
6.02315e-11
3.38072e-11
6.07715e-11
3.06801e-11
5.85483e-11
2.96051e-11
5.98688e-11
3.08903e-11
6.04194e-11
2.55245e-11
5.56185e-11
2.34422e-11
5.55537e-11
2.23414e-11
5.40397e-11
1.85274e-11
4.78171e-11
1.38924e-11
4.31145e-11
8.07934e-12
4.22334e-11
5.98108e-12
3.56038e-11
5.47582e-12
3.53867e-11
7.27575e-12
3.59935e-11
1.55867e-11
3.92492e-11
1.23142e-11
2.69916e-11
-2.74619e-11
9.85078e-11
1.2161e-10
-1.6029e-09
1.50315e-10
1.22656e-09
-5.27798e-10
-6.36425e-10
-4.94574e-10
-6.06906e-10
-4.79335e-10
-2.64323e-10
-1.41366e-10
-4.52549e-11
-2.6366e-11
1.43352e-11
9.33848e-12
3.98315e-11
2.52886e-11
5.18768e-11
3.54606e-11
5.8515e-11
3.30121e-11
5.62822e-11
3.51856e-11
6.02611e-11
3.35101e-11
5.8147e-11
3.29647e-11
5.97818e-11
3.36237e-11
6.04636e-11
3.05474e-11
5.81029e-11
2.94618e-11
5.95414e-11
3.09194e-11
6.0319e-11
2.55625e-11
5.52473e-11
2.33918e-11
5.54219e-11
2.24191e-11
5.41523e-11
1.8986e-11
4.7986e-11
1.37865e-11
4.09334e-11
6.71094e-12
4.23591e-11
6.32346e-12
3.57949e-11
5.06772e-12
3.63405e-11
6.09418e-12
3.80436e-11
1.25664e-11
4.46101e-11
5.20402e-12
3.86307e-11
-4.7285e-11
1.29448e-10
1.18337e-10
-1.69678e-09
3.59465e-10
1.29584e-09
-8.38348e-10
-6.99727e-10
-3.65464e-10
-5.54051e-10
-4.78817e-10
-2.67213e-10
-1.39544e-10
-4.35634e-11
-2.67649e-11
1.24459e-11
7.31733e-12
3.79153e-11
2.3658e-11
5.02359e-11
3.42617e-11
5.75244e-11
3.21631e-11
5.51333e-11
3.44169e-11
5.95656e-11
3.30582e-11
5.73654e-11
3.2554e-11
5.9238e-11
3.34485e-11
6.00717e-11
3.04386e-11
5.7576e-11
2.9334e-11
5.91435e-11
3.09828e-11
6.01553e-11
2.56515e-11
5.48169e-11
2.33472e-11
5.52559e-11
2.25028e-11
5.43163e-11
1.95231e-11
4.86123e-11
1.35844e-11
3.78325e-11
4.951e-12
4.25318e-11
6.6736e-12
3.60706e-11
4.47163e-12
3.74657e-11
4.59909e-12
4.04552e-11
9.01096e-12
5.05422e-11
-2.45878e-12
5.06949e-11
-6.61521e-11
1.57338e-10
1.17817e-10
-1.7923e-09
5.76386e-10
1.37605e-09
-1.1517e-09
-7.80766e-10
-2.32158e-10
-4.90847e-10
-4.76798e-10
-2.71509e-10
-1.38134e-10
-4.18279e-11
-2.71831e-11
1.0316e-11
5.06005e-12
3.57246e-11
2.18442e-11
4.83731e-11
3.29099e-11
5.63407e-11
3.12382e-11
5.38409e-11
3.35705e-11
5.87312e-11
3.25797e-11
5.64746e-11
3.21159e-11
5.85955e-11
3.32761e-11
5.95905e-11
3.03522e-11
5.69716e-11
2.92237e-11
5.86739e-11
3.10776e-11
5.99232e-11
2.57857e-11
5.43367e-11
2.33088e-11
5.50564e-11
2.25742e-11
5.45654e-11
2.01187e-11
4.99496e-11
1.30723e-11
3.35253e-11
2.78626e-12
4.27806e-11
7.01992e-12
3.64284e-11
3.70739e-12
3.87175e-11
2.8591e-12
4.30994e-11
5.14809e-12
5.66585e-11
-1.0044e-11
6.21978e-11
-8.24947e-11
1.80001e-10
1.21687e-10
-1.88292e-09
7.85418e-10
1.46301e-09
-1.45136e-09
-8.77281e-10
-1.01934e-10
-4.18946e-10
-4.72484e-10
-2.77095e-10
-1.3736e-10
-4.01469e-11
-2.76164e-11
7.97378e-12
2.58956e-12
3.3272e-11
1.98598e-11
4.6296e-11
3.14139e-11
5.4961e-11
3.0238e-11
5.24124e-11
3.26518e-11
5.77529e-11
3.20705e-11
5.54774e-11
3.16499e-11
5.78514e-11
3.31044e-11
5.90166e-11
3.0284e-11
5.62927e-11
2.91296e-11
5.81325e-11
3.11992e-11
5.96224e-11
2.59601e-11
5.38104e-11
2.32756e-11
5.48251e-11
2.26149e-11
5.49286e-11
2.07338e-11
5.24348e-11
1.20504e-11
2.7599e-11
2.48636e-13
4.31229e-11
7.34522e-12
3.68435e-11
2.82097e-12
4.00449e-11
9.76313e-13
4.58066e-11
1.25482e-12
6.25487e-11
-1.69116e-11
7.22738e-11
-9.51159e-11
1.96142e-10
1.3049e-10
-1.96241e-09
9.736e-10
1.55139e-09
-1.72335e-09
-9.8535e-10
1.86847e-11
-3.40565e-10
-4.65121e-10
-2.83673e-10
-1.37415e-10
-3.8652e-11
-2.80648e-11
5.45488e-12
-6.52285e-14
3.05773e-11
1.77181e-11
4.40204e-11
2.97816e-11
5.33895e-11
2.91655e-11
5.08587e-11
3.16675e-11
5.66308e-11
3.1528e-11
5.43795e-11
3.11583e-11
5.70074e-11
3.29295e-11
5.83523e-11
3.02294e-11
5.5543e-11
2.90496e-11
5.75194e-11
3.1343e-11
5.9249e-11
2.61699e-11
5.3242e-11
2.32498e-11
5.45567e-11
2.26194e-11
5.54027e-11
2.13658e-11
5.65551e-11
1.02859e-11
1.96376e-11
-2.53537e-12
4.35796e-11
7.65254e-12
3.72852e-11
1.86828e-12
4.13389e-11
-9.08243e-13
4.83912e-11
-2.38322e-12
6.78163e-11
-2.25401e-11
8.02769e-11
-1.03308e-10
2.0538e-10
1.4356e-10
-2.02557e-09
1.13186e-09
1.63541e-09
-1.95785e-09
-1.10014e-09
1.24639e-10
-2.58308e-10
-4.54105e-10
-2.90828e-10
-1.38446e-10
-3.74776e-11
-2.85358e-11
2.79748e-12
-2.87043e-12
2.76623e-11
1.54404e-11
4.15652e-11
2.80296e-11
5.16343e-11
2.80265e-11
4.91923e-11
3.06248e-11
5.53681e-11
3.09513e-11
5.31884e-11
3.06446e-11
5.60657e-11
3.27483e-11
5.75996e-11
3.01844e-11
5.47271e-11
2.89834e-11
5.68372e-11
3.15054e-11
5.87995e-11
2.64123e-11
5.26298e-11
2.32454e-11
5.42294e-11
2.26169e-11
5.59019e-11
2.21017e-11
6.2636e-11
7.04959e-12
9.31036e-12
-5.3208e-12
4.42007e-11
7.98663e-12
3.77343e-11
9.28494e-13
4.25179e-11
-2.65193e-12
5.06732e-11
-5.4973e-12
7.21362e-11
-2.65508e-11
8.58254e-11
-1.0684e-10
2.08115e-10
1.59505e-10
-2.06866e-09
1.25522e-09
1.70916e-09
-2.14838e-09
-1.21611e-09
2.12366e-10
-1.74985e-10
-4.39068e-10
-2.98077e-10
-1.4055e-10
-3.67719e-11
-2.90501e-11
3.95508e-14
-5.79306e-12
2.455e-11
1.30428e-11
3.89479e-11
2.61714e-11
4.97063e-11
2.68253e-11
4.74248e-11
2.95316e-11
5.39725e-11
3.03389e-11
5.19116e-11
3.01111e-11
5.5031e-11
3.25583e-11
5.6762e-11
3.01458e-11
5.3851e-11
2.89307e-11
5.60883e-11
3.16837e-11
5.82729e-11
2.6687e-11
5.19703e-11
2.32771e-11
5.38251e-11
2.26384e-11
5.63393e-11
2.28757e-11
7.18926e-11
7.75288e-13
-4.49278e-12
-8.15938e-12
4.48752e-11
8.35141e-12
3.81547e-11
8.86698e-14
4.34928e-11
-4.12419e-12
5.2492e-11
-7.88002e-12
7.52775e-11
-2.87222e-11
8.87892e-11
-1.05881e-10
2.05177e-10
1.76723e-10
-2.0892e-09
1.34154e-09
1.76738e-09
-2.29175e-09
-1.32767e-09
2.79806e-10
-9.34154e-11
-4.19912e-10
-3.04903e-10
-1.43767e-10
-3.6689e-11
-2.96422e-11
-2.78608e-12
-8.80167e-12
2.1263e-11
1.05382e-11
3.61851e-11
2.42204e-11
4.76197e-11
2.55659e-11
4.55673e-11
2.83958e-11
5.24529e-11
2.96906e-11
5.05572e-11
2.95606e-11
5.39089e-11
3.23573e-11
5.58446e-11
3.01119e-11
5.29205e-11
2.88915e-11
5.52763e-11
3.18744e-11
5.76714e-11
2.69898e-11
5.1268e-11
2.33429e-11
5.33531e-11
2.26727e-11
5.67242e-11
2.30751e-11
8.70581e-11
-2.29486e-12
-2.27217e-11
-1.13494e-11
4.50954e-11
8.65599e-12
3.84419e-11
-5.97037e-13
4.41651e-11
-5.21896e-12
5.37178e-11
-9.38198e-12
7.71063e-11
-2.89783e-11
8.92622e-11
-1.00886e-10
1.97753e-10
1.93607e-10
-2.08603e-09
1.39121e-09
1.80551e-09
-2.38712e-09
-1.42954e-09
3.26184e-10
-1.61814e-11
-3.96784e-10
-3.10792e-10
-1.48078e-10
-3.73738e-11
-3.03576e-11
-5.65029e-12
-1.18656e-11
1.78224e-11
7.93896e-12
3.32929e-11
2.21902e-11
4.53896e-11
2.42533e-11
4.36309e-11
2.72243e-11
5.08202e-11
2.90065e-11
4.91317e-11
2.89952e-11
5.27055e-11
3.21435e-11
5.48545e-11
3.00808e-11
5.19414e-11
2.88656e-11
5.44042e-11
3.20767e-11
5.69961e-11
2.73251e-11
5.051e-11
2.34765e-11
5.27483e-11
2.2888e-11
5.66691e-11
2.31897e-11
9.6486e-11
-2.65641e-14
-3.41488e-11
-1.34213e-11
4.48815e-11
8.97653e-12
3.85968e-11
-1.04395e-12
4.44713e-11
-5.84723e-12
5.42619e-11
-9.91677e-12
7.75829e-11
-2.73662e-11
8.75237e-11
-9.24849e-11
1.87159e-10
2.08679e-10
-2.05904e-09
1.40634e-09
1.82044e-09
-2.43638e-09
-1.5173e-09
3.5187e-10
5.44666e-11
-3.70036e-10
-3.1526e-10
-1.53397e-10
-3.89493e-11
-3.12481e-11
-8.52727e-12
-1.49551e-11
1.42505e-11
5.25631e-12
3.02878e-11
2.00924e-11
4.30305e-11
2.28923e-11
4.16263e-11
2.60237e-11
4.9085e-11
2.82874e-11
4.76442e-11
2.84175e-11
5.14293e-11
3.19153e-11
5.37975e-11
3.00509e-11
5.09188e-11
2.8854e-11
5.34749e-11
3.22916e-11
5.62437e-11
2.77026e-11
4.96755e-11
2.37272e-11
5.19126e-11
2.35059e-11
5.5659e-11
2.44598e-11
8.54501e-11
5.60674e-13
-2.31587e-11
-1.2185e-11
4.45234e-11
9.4767e-12
3.86608e-11
-1.15764e-12
4.43797e-11
-5.94139e-12
5.40882e-11
-9.45456e-12
7.67569e-11
-2.40448e-11
8.39659e-11
-8.14149e-11
1.74567e-10
2.20717e-10
-2.00926e-09
1.39047e-09
1.80987e-09
-2.44268e-09
-1.58721e-09
3.58147e-10
1.16675e-10
-3.40241e-10
-3.17907e-10
-1.59585e-10
-4.15147e-11
-3.23721e-11
-1.13987e-11
-1.80426e-11
1.05689e-11
2.50222e-12
2.7184e-11
1.7937e-11
4.05571e-11
2.14872e-11
3.95633e-11
2.47997e-11
4.72584e-11
2.75339e-11
4.61013e-11
2.78293e-11
5.00873e-11
3.16714e-11
5.26806e-11
3.00211e-11
4.98583e-11
2.88561e-11
5.24937e-11
3.25155e-11
5.54216e-11
2.81118e-11
4.87815e-11
2.40628e-11
5.09231e-11
2.43488e-11
5.41254e-11
2.57163e-11
6.84761e-11
5.77466e-12
-4.00579e-12
-9.42934e-12
4.3649e-11
1.00219e-11
3.85127e-11
-9.38252e-13
4.38481e-11
-5.48529e-12
5.31892e-11
-8.03351e-12
7.47488e-11
-1.92532e-11
7.90104e-11
-6.84315e-11
1.61043e-10
2.28923e-10
-1.93825e-09
1.34755e-09
1.77281e-09
-2.40991e-09
-1.63655e-09
3.46913e-10
1.69074e-10
-3.08118e-10
-3.18449e-10
-1.66481e-10
-4.5144e-11
-3.37962e-11
-1.42579e-11
-2.1107e-11
6.79644e-12
-3.16795e-13
2.39926e-11
1.57326e-11
3.7984e-11
2.00417e-11
3.745e-11
2.35565e-11
4.53512e-11
2.67468e-11
4.45089e-11
2.72317e-11
4.86864e-11
3.14111e-11
5.15101e-11
2.99905e-11
4.8765e-11
2.88714e-11
5.1466e-11
3.27461e-11
5.45371e-11
2.85455e-11
4.78439e-11
2.44517e-11
4.98549e-11
2.5222e-11
5.25231e-11
2.63045e-11
5.73223e-11
1.36928e-11
9.43353e-12
-6.7162e-12
4.22546e-11
1.05711e-11
3.81009e-11
-3.77506e-13
4.28681e-11
-4.48419e-12
5.16069e-11
-5.72946e-12
7.1728e-11
-1.32703e-11
7.31096e-11
-5.42332e-11
1.47471e-10
2.32954e-10
-1.84811e-09
1.28158e-09
1.7089e-09
-2.34232e-09
-1.66336e-09
3.20574e-10
2.10755e-10
-2.74505e-10
-3.16734e-10
-1.73897e-10
-4.98764e-11
-3.55871e-11
-1.71082e-11
-2.41315e-11
2.94987e-12
-3.1949e-12
2.07227e-11
1.34853e-11
3.53251e-11
1.85596e-11
3.5293e-11
2.2297e-11
4.33739e-11
2.59263e-11
4.2872e-11
2.6625e-11
4.7233e-11
3.11341e-11
5.0293e-11
2.99582e-11
4.76428e-11
2.88991e-11
5.03953e-11
3.29834e-11
5.35946e-11
2.90067e-11
4.68577e-11
2.49054e-11
4.86897e-11
2.61467e-11
5.08085e-11
2.6799e-11
5.00853e-11
1.7775e-11
1.92449e-11
-3.45015e-12
4.08473e-11
1.12592e-11
3.74537e-11
5.49031e-13
4.14731e-11
-2.96369e-12
4.94107e-11
-2.65316e-12
6.78926e-11
-6.38356e-12
6.6673e-11
-3.94312e-11
1.34379e-10
2.32896e-10
-1.74094e-09
1.19607e-09
1.61888e-09
-2.24479e-09
-1.66692e-09
2.81791e-10
2.41407e-10
-2.40241e-10
-3.12729e-10
-1.81632e-10
-5.57086e-11
-3.78022e-11
-1.99575e-11
-2.71028e-11
-9.53653e-13
-6.12541e-12
1.73832e-11
1.11998e-11
3.2593e-11
1.70445e-11
3.30988e-11
2.10228e-11
4.13362e-11
2.5074e-11
4.11956e-11
2.6009e-11
4.57336e-11
3.08395e-11
4.90358e-11
2.99234e-11
4.6496e-11
2.89375e-11
4.92872e-11
3.32241e-11
5.26024e-11
2.94891e-11
4.58326e-11
2.54075e-11
4.74514e-11
2.70838e-11
4.90579e-11
2.73413e-11
4.50039e-11
2.01899e-11
2.65317e-11
2.69418e-13
3.95189e-11
1.20934e-11
3.6561e-11
1.8196e-12
3.9702e-11
-9.75503e-13
4.66921e-11
1.05937e-12
6.34609e-11
1.12463e-12
6.00722e-11
-2.4508e-11
1.22025e-10
2.29072e-10
-1.61899e-09
1.09443e-09
1.50425e-09
-2.12252e-09
-1.64762e-09
2.33425e-10
2.61311e-10
-2.0613e-10
-3.06533e-10
-1.89497e-10
-6.25993e-11
-4.0487e-11
-2.28176e-11
-3.00125e-11
-4.89822e-12
-9.10216e-12
1.39837e-11
8.87831e-12
2.9799e-11
1.55009e-11
3.0874e-11
1.97336e-11
3.92465e-11
2.41913e-11
3.94847e-11
2.53825e-11
4.41948e-11
3.05259e-11
4.77444e-11
2.98856e-11
4.533e-11
2.89843e-11
4.81486e-11
3.34627e-11
5.15697e-11
2.99846e-11
4.47842e-11
2.59312e-11
4.61825e-11
2.79642e-11
4.74018e-11
2.78379e-11
4.14141e-11
2.16389e-11
3.17922e-11
4.19561e-12
3.82565e-11
1.30622e-11
3.54203e-11
3.39461e-12
3.7607e-11
1.41051e-12
4.35721e-11
5.25621e-12
5.86546e-11
8.98252e-12
5.36255e-11
-9.81914e-12
1.10365e-10
2.2194e-10
-1.4844e-09
9.80092e-10
1.36756e-09
-1.98114e-09
-1.60717e-09
1.7832e-10
2.71357e-10
-1.72842e-10
-2.98338e-10
-1.97347e-10
-7.05018e-11
-4.3685e-11
-2.57106e-11
-3.28632e-11
-8.8762e-12
-1.21246e-11
1.05291e-11
6.51683e-12
2.69498e-11
1.39315e-11
2.86242e-11
1.8426e-11
3.71098e-11
2.32794e-11
3.77433e-11
2.47426e-11
4.26216e-11
3.01907e-11
4.64233e-11
2.98439e-11
4.415e-11
2.90368e-11
4.69862e-11
3.36937e-11
5.05039e-11
3.04879e-11
4.37242e-11
2.64591e-11
4.4906e-11
2.87688e-11
4.58702e-11
2.82604e-11
3.88997e-11
2.2606e-11
3.54238e-11
8.13826e-12
3.70542e-11
1.41694e-11
3.40583e-11
5.22851e-12
3.526e-11
4.11776e-12
4.01843e-11
9.78386e-12
5.36964e-11
1.69559e-11
4.75868e-11
4.47601e-12
9.91322e-11
2.12025e-10
-1.3393e-09
8.56532e-10
1.21233e-09
-1.82528e-09
-1.54815e-09
1.18861e-10
2.72753e-10
-1.40887e-10
-2.8837e-10
-2.05067e-10
-7.93735e-11
-4.74382e-11
-2.86633e-11
-3.56597e-11
-1.28863e-11
-1.5194e-11
7.01895e-12
4.10997e-12
2.4047e-11
1.23408e-11
2.63525e-11
1.70981e-11
3.49282e-11
2.23414e-11
3.59726e-11
2.40871e-11
4.10157e-11
2.98326e-11
4.50748e-11
2.97994e-11
4.29584e-11
2.90929e-11
4.58039e-11
3.39127e-11
4.94103e-11
3.09974e-11
4.26608e-11
2.69796e-11
4.36306e-11
2.94982e-11
4.44535e-11
2.86271e-11
3.71381e-11
2.33592e-11
3.7748e-11
1.1978e-11
3.59093e-11
1.54182e-11
3.25133e-11
7.26795e-12
3.27319e-11
7.06039e-12
3.66586e-11
1.44913e-11
4.87747e-11
2.48638e-11
4.21097e-11
1.84e-11
8.78266e-11
1.99806e-10
-1.18565e-09
7.26471e-10
8.6916e-10
4.15761e-10
-4.71363e-10
-8.59011e-10
-7.15773e-10
-4.80923e-10
-2.64576e-10
-1.4813e-10
-4.87458e-11
-2.24488e-11
2.16965e-11
1.70419e-11
4.61371e-11
3.12387e-11
5.69905e-11
3.93455e-11
6.10116e-11
3.65331e-11
6.01194e-11
3.81666e-11
6.22238e-11
3.58847e-11
6.07479e-11
3.48996e-11
6.13861e-11
3.47538e-11
6.14538e-11
3.1689e-11
5.9728e-11
3.04179e-11
6.06088e-11
3.10367e-11
6.03192e-11
2.57814e-11
5.6491e-11
2.35502e-11
5.57634e-11
2.2075e-11
5.39545e-11
1.7776e-11
4.96259e-11
1.60593e-11
4.76528e-11
1.1115e-11
4.1671e-11
4.55409e-12
3.48921e-11
4.81936e-12
3.25723e-11
8.09603e-12
3.10341e-11
1.99497e-11
2.58218e-11
2.75498e-11
-3.31894e-12
3.76531e-11
-1.50806e-11
4.83128e-11
-1.21015e-09
-2.85653e-10
9.04588e-10
4.374e-10
-4.80397e-10
-8.66234e-10
-7.18039e-10
-4.81047e-10
-2.64777e-10
-1.48381e-10
-4.92387e-11
-2.28781e-11
2.11881e-11
1.67154e-11
4.57384e-11
3.10088e-11
5.66791e-11
3.92187e-11
6.07567e-11
3.64173e-11
5.98877e-11
3.81287e-11
6.20312e-11
3.58562e-11
6.05632e-11
3.49186e-11
6.1223e-11
3.47969e-11
6.1299e-11
3.17389e-11
5.95721e-11
3.04958e-11
6.04654e-11
3.11417e-11
6.01713e-11
2.5872e-11
5.63293e-11
2.36844e-11
5.56129e-11
2.22281e-11
5.38017e-11
1.79292e-11
4.94334e-11
1.61786e-11
4.74564e-11
1.13374e-11
4.15161e-11
4.79835e-12
3.4726e-11
5.13913e-12
3.24341e-11
8.44051e-12
3.09335e-11
2.03644e-11
2.58167e-11
2.79034e-11
-3.27459e-12
3.75179e-11
-1.10869e-11
6.10893e-11
-1.23193e-09
-3.14691e-10
9.52453e-10
4.43721e-10
-4.94731e-10
-8.68912e-10
-7.1858e-10
-4.80568e-10
-2.64471e-10
-1.48502e-10
-4.9526e-11
-2.34969e-11
2.06396e-11
1.61152e-11
4.53323e-11
3.05131e-11
5.63706e-11
3.8868e-11
6.05902e-11
3.60828e-11
5.97106e-11
3.78815e-11
6.19554e-11
3.56285e-11
6.04881e-11
3.47443e-11
6.11989e-11
3.46494e-11
6.13036e-11
3.15936e-11
5.95696e-11
3.0379e-11
6.04883e-11
3.10583e-11
6.0229e-11
2.57594e-11
5.63451e-11
2.36181e-11
5.56668e-11
2.21805e-11
5.38723e-11
1.7884e-11
4.94323e-11
1.6036e-11
4.7446e-11
1.13445e-11
4.1632e-11
4.86654e-12
3.47904e-11
5.28558e-12
3.25659e-11
8.60403e-12
3.10685e-11
2.05707e-11
2.61271e-11
2.80331e-11
-2.72366e-12
3.56073e-11
-6.98694e-12
8.28346e-11
-1.26969e-09
-3.35217e-10
1.00272e-09
4.17284e-10
-5.10286e-10
-8.61553e-10
-7.16907e-10
-4.79526e-10
-2.63532e-10
-1.48059e-10
-4.94469e-11
-2.40535e-11
2.00014e-11
1.5358e-11
4.48041e-11
2.98797e-11
5.59395e-11
3.84136e-11
6.03791e-11
3.56477e-11
5.94341e-11
3.75496e-11
6.18507e-11
3.53336e-11
6.03601e-11
3.45142e-11
6.11487e-11
3.44648e-11
6.13081e-11
3.14099e-11
5.95464e-11
3.02275e-11
6.05041e-11
3.09566e-11
6.03198e-11
2.5623e-11
5.63457e-11
2.35275e-11
5.57364e-11
2.21216e-11
5.39797e-11
1.78343e-11
4.94373e-11
1.5822e-11
4.74023e-11
1.13032e-11
4.18372e-11
4.93352e-12
3.49051e-11
5.40012e-12
3.28318e-11
8.67075e-12
3.13966e-11
2.05297e-11
2.69875e-11
2.74563e-11
-9.23469e-13
3.04553e-11
2.08154e-12
1.03542e-10
-1.31834e-09
-3.29025e-10
1.04694e-09
3.4168e-10
-5.24412e-10
-8.35224e-10
-7.11126e-10
-4.7839e-10
-2.62258e-10
-1.46995e-10
-4.89399e-11
-2.44938e-11
1.92441e-11
1.44595e-11
4.41082e-11
2.911e-11
5.53364e-11
3.78654e-11
6.00751e-11
3.51291e-11
5.90095e-11
3.71452e-11
6.16699e-11
3.49974e-11
6.01259e-11
3.42501e-11
6.10252e-11
3.42699e-11
6.12606e-11
3.12222e-11
5.94469e-11
3.00713e-11
6.04587e-11
3.08791e-11
6.03902e-11
2.55093e-11
5.62701e-11
2.34534e-11
5.57647e-11
2.20967e-11
5.40701e-11
1.78367e-11
4.94053e-11
1.55997e-11
4.72222e-11
1.12448e-11
4.20689e-11
5.06171e-12
3.50093e-11
5.48859e-12
3.3196e-11
8.61153e-12
3.19486e-11
2.01211e-11
2.85489e-11
2.58243e-11
2.64382e-12
2.15443e-11
1.76445e-11
1.18076e-10
-1.37492e-09
-2.81452e-10
1.08607e-09
2.07418e-10
-5.38986e-10
-7.85397e-10
-6.99095e-10
-4.7766e-10
-2.611e-10
-1.45444e-10
-4.80796e-11
-2.48485e-11
1.83305e-11
1.33949e-11
4.32249e-11
2.8195e-11
5.45515e-11
3.72112e-11
5.96679e-11
3.45387e-11
5.84345e-11
3.66681e-11
6.14023e-11
3.46266e-11
5.97817e-11
3.3951e-11
6.0822e-11
3.40688e-11
6.11518e-11
3.1037e-11
5.92607e-11
2.99147e-11
6.03435e-11
3.08287e-11
6.04236e-11
2.54298e-11
5.61052e-11
2.33984e-11
5.57372e-11
2.21142e-11
5.41295e-11
1.7912e-11
4.93338e-11
1.53748e-11
4.6854e-11
1.11529e-11
4.23077e-11
5.25263e-12
3.51082e-11
5.5244e-12
3.36755e-11
8.36021e-12
3.27939e-11
1.91743e-11
3.09998e-11
2.28276e-11
8.45718e-12
8.58073e-12
4.00225e-11
1.25034e-10
-1.44112e-09
-1.84789e-10
1.12557e-09
1.24122e-11
-5.59171e-10
-7.1043e-10
-6.78661e-10
-4.77479e-10
-2.60483e-10
-1.43561e-10
-4.69169e-11
-2.51648e-11
1.72165e-11
1.21273e-11
4.21237e-11
2.71225e-11
5.35748e-11
3.64397e-11
5.91469e-11
3.38835e-11
5.77137e-11
3.61191e-11
6.10447e-11
3.42326e-11
5.93294e-11
3.3622e-11
6.05384e-11
3.38691e-11
6.09754e-11
3.08647e-11
5.89862e-11
2.97648e-11
6.01541e-11
3.08107e-11
6.04113e-11
2.53975e-11
5.58499e-11
2.33688e-11
5.56457e-11
2.21829e-11
5.41519e-11
1.80726e-11
4.92407e-11
1.51451e-11
4.62543e-11
1.10118e-11
4.2559e-11
5.5014e-12
3.52194e-11
5.46093e-12
3.42964e-11
7.84405e-12
3.4013e-11
1.75653e-11
3.44711e-11
1.82757e-11
1.66513e-11
-8.01403e-12
6.80867e-11
1.2548e-10
-1.51816e-09
-3.89376e-11
1.17103e-09
-2.36219e-10
-5.89984e-10
-6.12009e-10
-6.48138e-10
-4.77715e-10
-2.60762e-10
-1.41492e-10
-4.55048e-11
-2.54803e-11
1.58681e-11
1.06186e-11
4.07666e-11
2.5875e-11
5.23859e-11
3.55353e-11
5.84866e-11
3.31639e-11
5.68477e-11
3.54966e-11
6.05843e-11
3.38209e-11
5.87694e-11
3.32682e-11
6.01711e-11
3.36774e-11
6.07268e-11
3.07149e-11
5.8624e-11
2.96297e-11
5.98886e-11
3.08322e-11
6.03408e-11
2.54231e-11
5.55044e-11
2.33668e-11
5.54874e-11
2.23061e-11
5.41377e-11
1.83251e-11
4.91609e-11
1.48953e-11
4.53981e-11
1.08023e-11
4.28271e-11
5.78906e-12
3.53696e-11
5.25602e-12
3.50897e-11
7.00397e-12
3.56556e-11
1.52271e-11
3.89633e-11
1.22704e-11
2.69296e-11
-2.70602e-11
9.91621e-11
1.22377e-10
-1.60493e-09
1.46472e-10
1.22745e-09
-5.24555e-10
-6.35798e-10
-4.94894e-10
-6.06495e-10
-4.77891e-10
-2.62237e-10
-1.39419e-10
-4.38986e-11
-2.58155e-11
1.42542e-11
8.85638e-12
3.91356e-11
2.44386e-11
5.09721e-11
3.44827e-11
5.76607e-11
3.23754e-11
5.58328e-11
3.47983e-11
6.00041e-11
3.33904e-11
5.80985e-11
3.28919e-11
5.97146e-11
3.3495e-11
6.03986e-11
3.05935e-11
5.8174e-11
2.95153e-11
5.9547e-11
3.08959e-11
6.02051e-11
2.55119e-11
5.50765e-11
2.33952e-11
5.52617e-11
2.24838e-11
5.40954e-11
1.86662e-11
4.91342e-11
1.46069e-11
4.42611e-11
1.05243e-11
4.31259e-11
6.08987e-12
3.55878e-11
4.88008e-12
3.60687e-11
5.8293e-12
3.77233e-11
1.2202e-11
4.4324e-11
5.14855e-12
3.85784e-11
-4.69314e-11
1.30105e-10
1.19216e-10
-1.69861e-09
3.55775e-10
1.29649e-09
-8.35458e-10
-6.99078e-10
-3.65804e-10
-5.53663e-10
-4.77356e-10
-2.65086e-10
-1.37543e-10
-4.21564e-11
-2.61748e-11
1.23848e-11
6.84594e-12
3.72263e-11
2.28145e-11
4.93324e-11
3.32814e-11
5.66523e-11
3.15128e-11
5.46714e-11
3.40222e-11
5.92913e-11
3.29376e-11
5.73158e-11
3.24911e-11
5.91623e-11
3.33239e-11
5.99829e-11
3.04973e-11
5.76376e-11
2.94212e-11
5.91289e-11
3.10014e-11
5.99973e-11
2.56636e-11
5.45734e-11
2.34538e-11
5.49702e-11
2.27127e-11
5.4022e-11
1.90942e-11
4.92052e-11
1.42504e-11
4.28285e-11
1.01723e-11
4.34652e-11
6.38087e-12
3.58961e-11
4.32484e-12
3.72256e-11
4.34518e-12
4.01568e-11
8.6448e-12
5.02578e-11
-2.52751e-12
5.0662e-11
-6.58471e-11
1.58006e-10
1.1874e-10
-1.79401e-09
5.73078e-10
1.37662e-09
-1.14925e-09
-7.80158e-10
-2.32502e-10
-4.90494e-10
-4.75331e-10
-2.6935e-10
-1.36085e-10
-4.03734e-11
-2.65531e-11
1.0277e-11
4.6026e-12
3.50455e-11
2.10113e-11
4.74742e-11
3.19317e-11
5.54547e-11
3.05774e-11
5.33669e-11
3.31705e-11
5.84391e-11
3.24582e-11
5.64214e-11
3.20647e-11
5.85097e-11
3.31584e-11
5.94756e-11
3.04243e-11
5.70179e-11
2.93478e-11
5.86337e-11
3.11448e-11
5.9713e-11
2.58712e-11
5.40049e-11
2.35414e-11
5.46148e-11
2.2986e-11
5.39228e-11
1.95995e-11
4.94141e-11
1.37951e-11
4.11072e-11
9.74662e-12
4.38472e-11
6.64983e-12
3.62921e-11
3.60804e-12
3.85145e-11
2.62018e-12
4.28251e-11
4.7821e-12
5.6379e-11
-1.01268e-11
6.21929e-11
-8.22335e-11
1.80687e-10
1.22612e-10
-1.8846e-09
7.82616e-10
1.46362e-09
-1.44939e-09
-8.76749e-10
-1.02266e-10
-4.18639e-10
-4.71029e-10
-2.74913e-10
-1.3527e-10
-3.86517e-11
-2.69487e-11
7.95778e-12
2.14809e-12
3.26056e-11
1.90412e-11
4.54047e-11
3.04422e-11
5.40651e-11
2.95699e-11
5.19269e-11
3.22485e-11
5.74429e-11
3.19482e-11
5.54186e-11
3.16122e-11
5.77544e-11
3.2996e-11
5.88745e-11
3.037e-11
5.63193e-11
2.92924e-11
5.80627e-11
3.13193e-11
5.93536e-11
2.61269e-11
5.33776e-11
2.36522e-11
5.4195e-11
2.32936e-11
5.37976e-11
2.01615e-11
4.97983e-11
1.32377e-11
3.91104e-11
9.26738e-12
4.42644e-11
6.89018e-12
3.67564e-11
2.77582e-12
3.9882e-11
7.55587e-13
4.5558e-11
8.90191e-13
6.22762e-11
-1.70082e-11
7.23015e-11
-9.48887e-11
1.96843e-10
1.31392e-10
-1.96413e-09
9.71338e-10
1.55217e-09
-1.72185e-09
-9.84936e-10
1.83797e-11
-3.40307e-10
-4.63695e-10
-2.81482e-10
-1.35294e-10
-3.71233e-11
-2.73625e-11
5.46166e-12
-4.89145e-13
2.99244e-11
1.6917e-11
4.31393e-11
2.88204e-11
5.24874e-11
2.8494e-11
5.03629e-11
3.12631e-11
5.63037e-11
3.14054e-11
5.43132e-11
3.11346e-11
5.68983e-11
3.2832e-11
5.81824e-11
3.03294e-11
5.5547e-11
2.92515e-11
5.7418e-11
3.15182e-11
5.89187e-11
2.6422e-11
5.27004e-11
2.37828e-11
5.37139e-11
2.36276e-11
5.36391e-11
2.07591e-11
5.03697e-11
1.25958e-11
3.68784e-11
8.76109e-12
4.46914e-11
7.10752e-12
3.72583e-11
1.88293e-12
4.12208e-11
-1.10916e-12
4.81696e-11
-2.74433e-12
6.75518e-11
-2.26495e-11
8.03388e-11
-1.03105e-10
2.06096e-10
1.44424e-10
-2.02741e-09
1.13014e-09
1.63646e-09
-1.95682e-09
-1.09989e-09
1.24369e-10
-2.58093e-10
-4.52718e-10
-2.8864e-10
-1.36303e-10
-3.59236e-11
-2.78037e-11
2.82518e-12
-3.27686e-12
2.70232e-11
1.46585e-11
4.06954e-11
2.70814e-11
5.07296e-11
2.73545e-11
4.86879e-11
3.02213e-11
5.50253e-11
3.08285e-11
5.31132e-11
3.06346e-11
5.59444e-11
3.26625e-11
5.74029e-11
3.02975e-11
5.47071e-11
2.92225e-11
5.67044e-11
3.17345e-11
5.84102e-11
2.67469e-11
5.19821e-11
2.39323e-11
5.31729e-11
2.39821e-11
5.34346e-11
2.13695e-11
5.11007e-11
1.19362e-11
3.45045e-11
8.26283e-12
4.50902e-11
7.32019e-12
3.77581e-11
9.98214e-13
4.24418e-11
-2.83354e-12
5.04784e-11
-5.85329e-12
7.18815e-11
-2.66718e-11
8.59209e-11
-1.06651e-10
2.08852e-10
1.60316e-10
-2.07067e-09
1.25405e-09
1.71056e-09
-2.14776e-09
-1.21603e-09
2.12145e-10
-1.74805e-10
-4.37732e-10
-2.95906e-10
-1.38398e-10
-3.52017e-11
-2.82936e-11
8.60428e-14
-6.18259e-12
2.39247e-11
1.228e-11
3.80909e-11
2.52386e-11
4.8802e-11
2.61556e-11
4.69135e-11
2.9131e-11
5.36154e-11
3.02162e-11
5.18268e-11
3.01142e-11
5.48979e-11
3.24841e-11
5.65404e-11
3.02702e-11
5.38073e-11
2.92036e-11
5.59273e-11
3.19619e-11
5.78316e-11
2.70948e-11
5.12295e-11
2.40999e-11
5.25734e-11
2.43529e-11
5.31652e-11
2.19625e-11
5.18814e-11
1.13863e-11
3.21798e-11
7.81526e-12
4.54084e-11
7.55027e-12
3.82083e-11
2.02563e-13
4.34528e-11
-4.28905e-12
5.23212e-11
-8.23062e-12
7.50323e-11
-2.8853e-11
8.89142e-11
-1.05693e-10
2.05933e-10
1.77479e-10
-2.09143e-09
1.34086e-09
1.76912e-09
-2.29146e-09
-1.32774e-09
2.79647e-10