/*--------------------------------*- C++ -*----------------------------------*\
| =========                 |                                                 |
| \\      /  F ield         | OpenFOAM: The Open Source CFD Toolbox           |
|  \\    /   O peration     | Version:  2312                                  |
|   \\  /    A nd           | Website:  www.openfoam.com                      |
|    \\/     M anipulation  |                                                 |
\*---------------------------------------------------------------------------*/
FoamFile
{
    version     2.0;
    format      ascii;
    arch        "LSB;label=32;scalar=64";
    class       volScalarField;
    location    "680";
    object      nut;
}
// * * * * * * * * * * * * * * * * * * * * * * * * * * * * * * * * * * * * * //

dimensions      [0 2 -1 0 0 0 0];

internalField   nonuniform List<scalar> 
144000
(
4.32734e-29
8.26676e-30
4.76638e-30
2.8261e-28
5.94111e-29
1.17022e-31
2.81286e-29
6.33438e-30
1.80972e-29
1.15449e-29
1.65483e-29
1.27192e-29
1.81288e-29
1.55845e-29
1.67536e-29
1.36628e-29
1.95592e-29
2.06913e-29
1.9727e-29
1.83504e-29
2.24498e-29
2.30946e-29
2.34134e-29
2.24802e-29
2.24937e-29
2.24799e-29
2.53569e-29
2.53293e-29
2.57775e-29
2.46817e-29
2.32683e-29
2.19709e-29
2.60124e-29
2.5651e-29
2.39125e-29
2.10184e-29
1.90926e-29
1.70247e-29
1.64541e-29
1.22569e-29
1.23939e-29
7.77913e-30
1.77303e-29
1.29979e-29
9.96325e-30
8.49603e-30
3.93881e-30
2.04637e-30
5.1735e-31
1.33824e-31
1.28498e-31
1.45243e-30
1.17964e-29
3.50857e-29
1.82644e-28
7.55613e-29
5.84925e-28
3.89702e-26
7.40921e-26
8.94582e-27
2.87959e-26
2.25662e-27
1.09365e-27
2.81173e-27
3.5186e-29
2.33086e-30
5.11359e-29
1.7861e-29
2.54485e-29
3.58356e-29
2.4543e-29
3.47988e-29
2.94055e-29
3.98868e-29
3.03572e-29
3.16045e-29
3.45196e-29
4.86126e-29
3.84841e-29
3.89963e-29
4.2357e-29
5.13609e-29
4.51165e-29
4.82819e-29
4.32535e-29
4.71874e-29
4.81786e-29
5.39896e-29
4.95825e-29
5.10766e-29
4.51174e-29
4.35045e-29
4.8471e-29
5.23563e-29
4.56992e-29
4.00289e-29
3.5694e-29
3.10612e-29
3.03225e-29
2.40874e-29
2.42962e-29
1.91525e-29
3.9804e-29
1.84018e-29
2.13553e-29
1.50403e-29
8.56293e-30
2.65322e-30
1.12185e-30
9.18704e-32
1.34843e-31
5.89134e-30
1.93343e-29
1.09651e-28
3.12347e-28
3.55711e-28
7.11629e-28
8.85346e-26
4.30605e-25
5.80261e-27
1.03097e-25
7.99967e-27
8.09993e-27
2.6647e-27
1.58273e-28
1.3946e-30
7.13746e-29
2.77943e-29
3.66375e-29
4.63949e-29
3.85098e-29
4.34105e-29
4.5875e-29
5.08961e-29
4.53995e-29
4.27297e-29
5.20375e-29
6.32906e-29
5.65252e-29
5.32154e-29
6.17349e-29
6.86662e-29
6.47634e-29
6.57981e-29
6.14027e-29
6.54476e-29
6.81351e-29
7.34313e-29
6.95505e-29
6.98731e-29
6.22677e-29
6.11922e-29
6.68675e-29
7.04728e-29
6.23004e-29
5.44138e-29
4.83299e-29
4.29001e-29
4.17866e-29
3.42172e-29
3.74859e-29
2.66412e-29
6.07307e-29
2.23321e-29
3.32858e-29
2.00712e-29
1.21288e-29
4.0357e-30
1.51652e-30
2.63762e-31
2.92167e-31
5.74321e-30
3.30044e-29
1.26222e-28
4.80588e-28
2.9965e-28
2.47082e-27
1.53007e-25
4.50346e-25
3.41159e-26
4.63512e-25
9.16166e-26
3.2652e-26
1.083e-26
1.54914e-28
2.13142e-30
7.16586e-29
3.27434e-29
3.72723e-29
4.64268e-29
3.97586e-29
4.28494e-29
4.74031e-29
5.05085e-29
4.68726e-29
4.20981e-29
5.29885e-29
6.29707e-29
5.76946e-29
5.22427e-29
6.28569e-29
6.76749e-29
6.59555e-29
6.45041e-29
6.22266e-29
6.43565e-29
6.82807e-29
7.26017e-29
6.97232e-29
6.83508e-29
6.23198e-29
5.98167e-29
6.60449e-29
6.93979e-29
6.16356e-29
5.3113e-29
4.83986e-29
4.26501e-29
4.3387e-29
3.58726e-29
3.97647e-29
3.39547e-29
5.88055e-29
2.12609e-29
3.84581e-29
1.89467e-29
1.40074e-29
3.84182e-30
2.08085e-30
4.20031e-31
1.39689e-31
6.19813e-30
2.75501e-29
1.19727e-28
4.11176e-28
2.61804e-28
3.11632e-27
2.2556e-25
6.59246e-25
1.62383e-25
1.03892e-24
4.91753e-25
5.98368e-26
3.71467e-26
3.37204e-28
4.36263e-30
8.07366e-29
4.05366e-29
3.76569e-29
4.94149e-29
3.89308e-29
4.52503e-29
4.74435e-29
5.23851e-29
4.71319e-29
4.27672e-29
5.33088e-29
6.47558e-29
5.80451e-29
5.21751e-29
6.381e-29
6.80589e-29
6.67645e-29
6.40405e-29
6.28598e-29
6.39361e-29
6.89444e-29
7.27115e-29
6.99573e-29
6.79852e-29
6.2621e-29
5.93045e-29
6.66314e-29
7.03118e-29
6.20752e-29
5.39215e-29
4.98935e-29
4.47896e-29
4.63977e-29
3.88135e-29
4.19582e-29
3.65837e-29
5.4017e-29
2.44917e-29
4.30072e-29
1.92311e-29
1.60089e-29
4.14024e-30
2.96436e-30
8.27381e-31
5.9459e-32
6.30241e-30
2.2116e-29
1.10464e-28
3.31432e-28
2.02818e-28
4.44269e-27
3.62737e-25
9.07747e-25
6.78845e-25
1.62205e-24
1.58903e-24
7.31428e-26
9.40778e-26
9.16913e-28
1.11693e-29
1.00002e-28
5.04071e-29
4.11541e-29
5.34115e-29
3.90639e-29
4.83744e-29
4.85791e-29
5.55732e-29
4.81927e-29
4.48272e-29
5.5272e-29
6.85703e-29
5.94192e-29
5.40278e-29
6.64596e-29
7.08035e-29
6.92146e-29
6.55518e-29
6.53192e-29
6.56501e-29
7.19915e-29
7.5318e-29
7.26814e-29
6.99677e-29
6.52532e-29
6.1353e-29
7.06917e-29
7.44973e-29
6.57109e-29
5.77186e-29
5.42955e-29
4.97657e-29
5.13627e-29
4.23302e-29
4.32296e-29
4.27362e-29
5.21254e-29
3.17324e-29
4.8204e-29
2.18247e-29
1.86572e-29
5.30788e-30
4.5089e-30
1.78908e-30
6.48526e-32
6.40836e-30
1.6863e-29
9.8508e-29
2.45356e-28
1.35092e-28
6.50179e-27
5.88682e-25
1.16611e-24
2.02565e-24
2.04904e-24
3.85766e-24
6.83077e-26
1.94669e-25
2.34944e-27
2.60343e-29
1.27772e-28
6.19031e-29
4.73721e-29
5.69006e-29
4.05103e-29
5.08747e-29
5.08593e-29
5.85448e-29
4.98449e-29
4.725e-29
5.85775e-29
7.28454e-29
6.13772e-29
5.68178e-29
7.01454e-29
7.45107e-29
7.22924e-29
6.79849e-29
6.87351e-29
6.86853e-29
7.66035e-29
7.90562e-29
7.66954e-29
7.33054e-29
6.94178e-29
6.53308e-29
7.72493e-29
8.05033e-29
7.13821e-29
6.3303e-29
6.07565e-29
5.66499e-29
5.77436e-29
4.64938e-29
4.51294e-29
4.55841e-29
5.16633e-29
4.31732e-29
5.51804e-29
2.67164e-29
2.21987e-29
7.80195e-30
7.35056e-30
4.05251e-30
3.58778e-31
7.00946e-30
1.29704e-29
8.28351e-29
1.64347e-28
8.19676e-29
8.76898e-27
9.20468e-25
1.49794e-24
4.72094e-24
2.22406e-24
7.66422e-24
5.12533e-26
3.46807e-25
5.33338e-27
5.01649e-29
1.6456e-28
7.56357e-29
5.50372e-29
6.03148e-29
4.27773e-29
5.27455e-29
5.38773e-29
6.11618e-29
5.19937e-29
4.95625e-29
6.2654e-29
7.70335e-29
6.36724e-29
5.983e-29
7.43223e-29
7.86781e-29
7.56354e-29
7.08874e-29
7.27783e-29
7.24182e-29
8.18224e-29
8.3602e-29
8.16205e-29
7.74314e-29
7.47076e-29
7.04343e-29
8.52897e-29
8.78219e-29
7.85513e-29
7.02259e-29
6.91774e-29
6.54317e-29
6.58487e-29
5.14952e-29
4.8303e-29
5.22933e-29
5.24163e-29
5.76211e-29
6.53226e-29
3.44796e-29
2.73689e-29
1.26389e-29
1.26652e-29
9.31367e-30
2.01371e-30
1.00358e-29
1.32101e-29
7.13412e-29
1.14205e-28
8.85138e-29
1.11514e-26
1.37243e-24
1.94641e-24
9.03848e-24
2.18193e-24
1.34094e-23
3.08e-26
5.59409e-25
1.12087e-26
8.67099e-29
2.14424e-28
8.9911e-29
6.31456e-29
6.42047e-29
4.55149e-29
5.43119e-29
5.76735e-29
6.3491e-29
5.45959e-29
5.19866e-29
6.78202e-29
8.105e-29
6.6364e-29
6.30151e-29
7.94295e-29
8.30779e-29
7.92156e-29
7.42618e-29
7.74352e-29
7.68248e-29
8.81171e-29
8.87376e-29
8.71077e-29
8.24817e-29
8.10009e-29
7.6706e-29
9.51352e-29
9.63827e-29
8.71008e-29
7.8923e-29
8.02653e-29
7.73414e-29
7.80246e-29
6.11259e-29
5.84795e-29
6.63198e-29
4.90745e-29
7.74578e-29
8.0805e-29
4.64344e-29
3.54758e-29
2.16585e-29
2.31162e-29
2.11673e-29
8.35677e-30
2.07143e-29
2.50937e-29
8.03283e-29
1.38894e-28
2.78176e-28
1.29933e-26
1.96282e-24
2.74135e-24
1.52583e-23
1.96124e-24
2.12025e-23
1.74583e-26
8.26048e-25
2.18642e-26
1.39817e-28
2.7551e-28
1.02779e-28
7.16053e-29
6.88263e-29
4.86061e-29
5.57832e-29
6.21368e-29
6.56776e-29
5.78934e-29
5.43948e-29
7.38238e-29
8.48798e-29
6.96393e-29
6.6236e-29
8.52935e-29
8.76279e-29
8.33771e-29
7.79316e-29
8.2935e-29
8.17557e-29
9.50157e-29
9.45344e-29
9.34809e-29
8.82131e-29
8.84402e-29
8.40392e-29
1.06335e-28
1.06462e-28
9.75628e-29
8.98719e-29
9.51873e-29
9.41437e-29
9.70703e-29
8.04889e-29
8.92515e-29
6.94341e-29
4.0547e-29
1.03136e-28
1.03824e-28
6.50675e-29
4.87239e-29
3.8149e-29
4.37078e-29
4.67295e-29
2.80537e-29
5.26423e-29
7.31869e-29
1.50563e-28
3.5802e-28
1.1193e-27
1.46059e-26
2.71675e-24
4.0398e-24
2.32025e-23
1.73617e-24
3.12022e-23
1.49119e-26
1.14078e-24
4.02046e-26
2.2026e-28
3.52054e-28
1.12158e-28
7.99017e-29
7.4406e-29
5.1926e-29
5.72215e-29
6.73064e-29
6.77457e-29
6.16655e-29
5.6978e-29
8.0855e-29
8.84646e-29
7.34041e-29
6.95602e-29
9.22248e-29
9.20797e-29
8.80347e-29
8.18858e-29
8.92058e-29
8.7176e-29
1.03032e-28
1.00619e-28
1.00528e-28
9.47421e-29
9.70126e-29
9.26411e-29
1.19448e-28
1.17994e-28
1.10085e-28
1.03546e-28
1.14668e-28
1.16503e-28
1.23292e-28
1.08658e-28
1.20587e-28
8.35031e-29
4.25106e-29
1.20514e-28
1.46309e-28
9.13395e-29
7.12641e-29
6.72571e-29
8.35809e-29
9.91771e-29
8.03525e-29
1.38822e-28
2.22774e-28
3.91205e-28
1.12359e-27
3.63068e-27
1.54484e-26
3.69754e-24
6.43372e-24
3.27569e-23
1.53596e-24
4.32182e-23
3.55367e-26
1.48512e-24
6.99399e-26
3.52355e-28
4.52788e-28
1.16764e-28
8.7762e-29
8.17042e-29
5.49699e-29
5.90681e-29
7.25843e-29
7.0183e-29
6.57296e-29
5.97915e-29
8.8318e-29
9.20687e-29
7.74964e-29
7.30418e-29
9.97052e-29
9.65817e-29
9.31824e-29
8.60829e-29
9.63154e-29
9.29544e-29
1.11464e-28
1.07138e-28
1.08629e-28
1.01889e-28
1.06915e-28
1.02353e-28
1.3416e-28
1.31299e-28
1.25152e-28
1.20221e-28
1.39282e-28
1.44029e-28
1.54426e-28
1.45526e-28
1.64897e-28
9.86369e-29
4.68859e-29
1.32848e-28
2.13471e-28
1.29011e-28
1.0956e-28
1.17234e-28
1.57367e-28
2.01272e-28
2.03467e-28
3.45875e-28
6.10284e-28
1.04485e-27
3.16177e-27
9.57983e-27
1.62697e-26
5.01685e-24
1.02281e-23
4.32069e-23
1.60479e-24
5.71228e-23
9.67753e-26
1.8429e-24
1.14672e-25
5.97263e-28
5.99045e-28
1.13069e-28
9.55678e-29
9.04696e-29
5.7733e-29
6.12505e-29
7.7974e-29
7.30062e-29
6.96127e-29
6.30173e-29
9.64252e-29
9.56206e-29
8.16275e-29
7.67912e-29
1.08019e-28
1.01012e-28
9.84622e-29
9.06951e-29
1.03971e-28
9.90428e-29
1.21028e-28
1.13892e-28
1.17323e-28
1.09994e-28
1.18039e-28
1.1334e-28
1.51638e-28
1.46664e-28
1.43527e-28
1.42357e-28
1.7451e-28
1.89283e-28
2.26274e-28
3.03314e-28
6.84938e-28
3.59389e-28
7.78535e-30
2.42558e-28
2.48831e-28
2.05927e-28
1.64414e-28
2.05062e-28
2.88091e-28
3.91468e-28
4.59627e-28
7.91032e-28
1.47028e-27
2.53729e-27
7.6083e-27
2.11023e-26
1.64821e-26
6.77433e-24
1.679e-23
5.40037e-23
2.0498e-24
7.32569e-23
2.34101e-25
2.2174e-24
1.7737e-25
1.07267e-27
7.79929e-28
1.01445e-28
1.04123e-28
1.0016e-28
6.05009e-29
6.35451e-29
8.34294e-29
7.60653e-29
7.37165e-29
6.64807e-29
1.04464e-28
9.92888e-29
8.592e-29
8.07761e-29
1.1645e-28
1.0555e-28
1.04082e-28
9.55637e-29
1.12319e-28
1.05449e-28
1.30885e-28
1.21214e-28
1.27021e-28
1.18821e-28
1.30741e-28
1.25649e-28
1.71164e-28
1.64747e-28
1.66301e-28
1.71129e-28
2.24394e-28
2.61577e-28
3.75462e-28
7.73137e-28
1.44882e-27
4.00005e-29
1.1837e-29
2.77784e-28
2.95511e-28
3.33819e-28
2.46377e-28
3.52019e-28
5.09234e-28
7.24969e-28
9.47693e-28
1.64551e-27
3.15487e-27
5.47771e-27
1.60284e-26
4.08556e-26
1.65929e-26
9.15385e-24
2.69582e-23
6.46502e-23
3.5163e-24
9.22863e-23
4.25784e-25
2.59792e-24
2.60214e-25
2.00933e-27
9.93349e-28
8.64137e-29
1.1104e-28
1.11118e-28
6.33811e-29
6.55113e-29
8.95633e-29
7.88744e-29
7.80423e-29
7.00675e-29
1.13008e-28
1.02687e-28
9.03414e-29
8.49386e-29
1.2549e-28
1.09872e-28
1.09925e-28
1.00786e-28
1.21144e-28
1.12195e-28
1.41681e-28
1.28824e-28
1.37385e-28
1.28672e-28
1.44611e-28
1.39219e-28
1.92572e-28
1.83273e-28
1.886e-28
1.95926e-28
2.58498e-28
2.85382e-28
4.0076e-28
8.08913e-28
2.97087e-29
1.3164e-27
2.66507e-27
2.54498e-29
6.77031e-28
4.05764e-28
4.14799e-28
5.57818e-28
8.79472e-28
1.268e-27
1.79705e-27
3.14217e-27
6.09236e-27
1.06299e-26
2.99761e-26
7.07421e-26
1.63937e-26
1.23985e-23
4.31163e-23
7.41377e-23
5.94268e-24
1.12509e-22
7.50959e-25
3.06097e-24
3.63972e-25
3.93985e-27
1.22257e-27
7.01584e-29
1.14588e-28
1.25675e-28
6.52187e-29
6.79714e-29
9.5469e-29
8.20081e-29
8.24983e-29
7.38296e-29
1.21215e-28
1.06246e-28
9.48046e-29
8.93649e-29
1.34369e-28
1.14338e-28
1.16094e-28
1.06337e-28
1.3059e-28
1.19317e-28
1.52413e-28
1.37063e-28
1.48979e-28
1.39356e-28
1.60059e-28
1.54289e-28
2.15944e-28
2.05347e-28
2.17545e-28
2.33629e-28
3.28048e-28
3.97224e-28
7.65006e-28
2.34609e-27
4.88508e-27
5.41815e-27
1.22561e-30
7.76305e-29
7.93665e-28
6.30834e-28
6.18826e-28
8.78633e-28
1.43983e-27
2.10602e-27
3.1629e-27
5.51879e-27
1.0749e-26
1.8667e-26
5.08472e-26
1.1167e-25
1.71946e-26
1.69321e-23
6.4998e-23
8.14168e-23
1.02573e-23
1.30106e-22
1.21332e-24
3.63501e-24
4.74267e-25
7.43443e-27
1.5142e-27
5.0992e-29
1.21775e-28
1.40025e-28
6.70229e-29
7.03452e-29
1.01618e-28
8.53081e-29
8.6555e-29
7.78305e-29
1.29854e-28
1.09608e-28
9.90957e-29
9.40417e-29
1.43831e-28
1.18704e-28
1.22207e-28
1.125e-28
1.40221e-28
1.26724e-28
1.64138e-28
1.45678e-28
1.61009e-28
1.51397e-28
1.76733e-28
1.71152e-28
2.43461e-28
2.32094e-28
2.56097e-28
2.93089e-28
4.5604e-28
6.62398e-28
1.76403e-27
7.8959e-27
7.81967e-26
1.4812e-28
1.59264e-26
4.24031e-28
6.50643e-28
1.08026e-27
8.38782e-28
1.37661e-27
2.22238e-27
3.33482e-27
5.15688e-27
9.02114e-27
1.74304e-26
3.00805e-26
7.90957e-26
1.6252e-25
1.89567e-26
2.30056e-23
9.62613e-23
8.51603e-23
1.82061e-23
1.53337e-22
1.64962e-24
4.38046e-24
5.90247e-25
1.36854e-26
1.71921e-27
3.62398e-29
1.29538e-28
1.55669e-28
6.80286e-29
7.31417e-29
1.07456e-28
8.88933e-29
9.06546e-29
8.20409e-29
1.37825e-28
1.13272e-28
1.03417e-28
9.90846e-29
1.5284e-28
1.23405e-28
1.28566e-28
1.19039e-28
1.50284e-28
1.34484e-28
1.75809e-28
1.55076e-28
1.73723e-28
1.64017e-28
1.94407e-28
1.88097e-28
2.69304e-28
2.54506e-28
2.81316e-28
3.15179e-28
4.60055e-28
5.66601e-28
1.1073e-27
3.08921e-27
7.7173e-27
5.48076e-27
2.24158e-30
6.8933e-29
1.51153e-27
1.16909e-27
1.30761e-27
1.96284e-27
3.34094e-27
4.95699e-27
7.91028e-27
1.3693e-26
2.6266e-26
4.47205e-26
1.14547e-25
2.21712e-25
2.32906e-26
3.10097e-23
1.37274e-22
8.66716e-23
3.25285e-23
1.82368e-22
1.92145e-24
5.33734e-24
6.95777e-25
2.38648e-26
1.83494e-27
2.93724e-29
1.3986e-28
1.70504e-28
6.90448e-29
7.54536e-29
1.14238e-28
9.1867e-29
9.50149e-29
8.61664e-29
1.46251e-28
1.16487e-28
1.07884e-28
1.04277e-28
1.62271e-28
1.27863e-28
1.35132e-28
1.26015e-28
1.6052e-28
1.42558e-28
1.8827e-28
1.64878e-28
1.86856e-28
1.77886e-28
2.12628e-28
2.06207e-28
2.96983e-28
2.77908e-28
3.07643e-28
3.39099e-28
4.66552e-28
4.95619e-28
6.37287e-28
8.74098e-28
2.43601e-30
2.0847e-27
2.95469e-27
2.36001e-28
1.98478e-27
1.50355e-27
1.79102e-27
2.78478e-27
4.7171e-27
7.03154e-27
1.13331e-26
1.95071e-26
3.67917e-26
6.19991e-26
1.54767e-25
2.84885e-25
3.08771e-26
4.11962e-23
1.91196e-22
8.48165e-23
5.17436e-23
2.13289e-22
2.18699e-24
6.80861e-24
7.72871e-25
3.96587e-26
1.77716e-27
2.99746e-29
1.52661e-28
1.85398e-28
6.90023e-29
7.84678e-29
1.20752e-28
9.50244e-29
9.96806e-29
9.0532e-29
1.53834e-28
1.20024e-28
1.12506e-28
1.09887e-28
1.70989e-28
1.32615e-28
1.42086e-28
1.33359e-28
1.71149e-28
1.51118e-28
2.00226e-28
1.75413e-28
2.01208e-28
1.92644e-28
2.32295e-28
2.26293e-28
3.26374e-28
3.0738e-28
3.47175e-28
3.92529e-28
5.6354e-28
6.49352e-28
9.11164e-28
1.45675e-27
1.67209e-27
6.79102e-29
2.3807e-29
1.79317e-27
1.77791e-27
2.1097e-27
2.29083e-27
3.81712e-27
6.32111e-27
9.43732e-27
1.52913e-26
2.59275e-26
4.82589e-26
8.00138e-26
1.96405e-25
3.4537e-25
4.76052e-26
5.40687e-23
2.51745e-22
7.98484e-23
8.02345e-23
2.43703e-22
2.26763e-24
8.7129e-24
8.04035e-25
6.16958e-26
1.57878e-27
3.95472e-29
1.72609e-28
1.98004e-28
6.79923e-29
8.24051e-29
1.26574e-28
9.87123e-29
1.03564e-28
9.53757e-29
1.60975e-28
1.23605e-28
1.16683e-28
1.15903e-28
1.79419e-28
1.37475e-28
1.48654e-28
1.41433e-28
1.81275e-28
1.59904e-28
2.12373e-28
1.86185e-28
2.152e-28
2.0818e-28
2.51193e-28
2.45793e-28
3.5319e-28
3.30883e-28
3.72583e-28
4.17566e-28
5.77711e-28
6.29142e-28
7.58952e-28
9.31889e-28
1.48756e-27
1.06759e-27
1.40843e-28
1.9063e-27
2.62582e-27
2.32946e-27
3.0895e-27
4.84613e-27
8.13041e-27
1.19201e-26
1.94165e-26
3.23009e-26
5.92754e-26
9.65036e-26
2.34194e-25
3.94078e-25
7.60697e-26
6.93888e-23
3.22119e-22
7.04133e-23
1.18625e-22
2.75719e-22
2.19093e-24
1.12042e-23
7.84454e-25
9.06712e-26
1.2499e-27
5.59524e-29
1.99751e-28
2.08501e-28
6.55474e-29
8.79638e-29
1.30502e-28
1.03427e-28
1.06382e-28
1.00804e-28
1.6654e-28
1.27885e-28
1.20299e-28
1.22378e-28
1.86671e-28
1.42875e-28
1.54603e-28
1.49929e-28
1.90558e-28
1.68744e-28
2.23692e-28
1.97354e-28
2.28295e-28
2.23743e-28
2.69042e-28
2.64247e-28
3.77786e-28
3.5202e-28
3.9265e-28
4.34774e-28
5.69422e-28
5.75373e-28
5.77306e-28
4.84646e-28
4.71953e-28
5.25164e-28
8.02064e-28
2.1857e-27
3.18106e-27
2.74369e-27
3.8241e-27
5.94838e-27
9.86553e-27
1.42609e-26
2.32096e-26
3.77436e-26
6.80831e-26
1.08323e-25
2.61538e-25
4.21516e-25
1.25084e-25
8.65285e-23
3.95225e-22
5.89989e-23
1.68842e-22
3.04448e-22
2.01531e-24
1.41514e-23
7.07099e-25
1.24399e-25
9.38739e-28
8.45797e-29
2.45607e-28
2.09677e-28
6.44809e-29
9.16472e-29
1.35918e-28
1.06308e-28
1.09549e-28
1.04931e-28
1.7247e-28
1.31017e-28
1.23712e-28
1.27892e-28
1.93841e-28
1.47165e-28
1.6008e-28
1.57632e-28
1.98544e-28
1.7667e-28
2.34065e-28
2.07571e-28
2.39472e-28
2.38366e-28
2.83927e-28
2.8112e-28
3.99758e-28
3.71317e-28
4.10606e-28
4.55852e-28
5.76696e-28
5.7077e-28
5.55315e-28
4.29568e-28
3.41743e-28
6.87827e-28
1.28764e-27
2.89301e-27
3.32476e-27
3.23417e-27
4.44883e-27
6.95817e-27
1.12918e-26
1.61848e-26
2.57579e-26
4.12836e-26
7.18944e-26
1.12316e-25
2.67874e-25
4.18129e-25
2.03274e-25
1.04555e-22
4.64852e-22
4.5725e-23
2.30045e-22
3.36871e-22
1.87596e-24
1.79793e-23
5.92602e-25
1.59576e-25
7.3702e-28
1.4141e-28
3.32473e-28
1.96351e-28
6.74355e-29
8.9801e-29
1.47136e-28
1.04331e-28
1.17217e-28
1.04826e-28
1.79851e-28
1.31603e-28
1.29213e-28
1.30299e-28
2.01418e-28
1.49349e-28
1.67199e-28
1.62849e-28
2.07006e-28
1.8282e-28
2.42258e-28
2.16581e-28
2.49717e-28
2.50718e-28
2.96511e-28
2.95099e-28
4.12718e-28
3.87505e-28
4.20741e-28
4.68091e-28
5.69571e-28
5.58463e-28
5.326e-28
4.25346e-28
3.14887e-28
8.62721e-28
1.84121e-27
3.32058e-27
3.46554e-27
3.59332e-27
4.96386e-27
7.75711e-27
1.20795e-26
1.73927e-26
2.64104e-26
4.21432e-26
6.95343e-26
1.08226e-25
2.53835e-25
4.00342e-25
3.10936e-25
1.21868e-22
5.22667e-22
3.50783e-23
3.0398e-22
3.76747e-22
1.8449e-24
2.2745e-23
4.81624e-25
2.05455e-25
5.82838e-28
2.21429e-28
4.7532e-28
1.9225e-28
6.756e-29
9.47716e-29
1.59911e-28
1.08172e-28
1.24634e-28
1.10503e-28
1.92323e-28
1.38051e-28
1.35677e-28
1.39112e-28
2.14196e-28
1.57299e-28
1.76661e-28
1.74061e-28
2.19755e-28
1.94887e-28
2.57422e-28
2.31572e-28
2.64646e-28
2.70453e-28
3.14749e-28
3.16603e-28
4.37845e-28
4.10597e-28
4.3624e-28
4.86868e-28
5.75111e-28
5.58439e-28
5.38874e-28
4.40519e-28
3.36544e-28
1.05475e-27
2.44676e-27
3.5772e-27
3.65057e-27
3.9037e-27
5.46872e-27
8.36255e-27
1.26621e-26
1.78541e-26
2.62666e-26
4.0954e-26
6.51674e-26
9.98695e-26
2.37314e-25
3.82979e-25
4.41397e-25
1.40775e-22
5.8478e-22
2.73562e-23
5.99346e-29
8.07113e-30
4.5437e-30
2.8357e-28
5.20889e-29
2.16241e-31
2.52527e-29
7.19221e-30
1.68853e-29
1.19884e-29
1.61937e-29
1.26958e-29
1.8074e-29
1.53109e-29
1.7098e-29
1.32652e-29
1.99194e-29
2.00813e-29
2.0093e-29
1.79458e-29
2.27384e-29
2.28909e-29
2.3683e-29
2.23961e-29
2.31338e-29
2.24658e-29
2.5997e-29
2.59887e-29
2.63003e-29
2.59087e-29
2.42643e-29
2.35819e-29
2.75943e-29
2.83054e-29
2.64245e-29
2.44757e-29
2.27672e-29
2.16139e-29
2.12104e-29
1.8171e-29
1.51858e-29
1.14563e-29
1.2325e-29
1.29474e-29
9.41246e-30
9.04176e-30
3.67483e-30
2.18313e-30
4.66605e-31
1.50984e-31
1.36434e-31
1.38007e-30
1.19433e-29
3.39841e-29
1.85944e-28
7.88722e-29
5.66614e-28
3.95097e-26
7.69008e-26
8.74148e-27
3.03035e-26
2.3212e-27
1.08627e-27
2.78592e-27
3.04522e-29
2.78477e-30
4.75373e-29
1.95127e-29
2.37565e-29
3.7196e-29
2.35884e-29
3.54449e-29
2.86206e-29
4.02499e-29
3.00739e-29
3.17523e-29
3.43427e-29
4.85381e-29
3.82675e-29
3.92643e-29
4.23277e-29
5.19378e-29
4.53312e-29
4.89633e-29
4.44244e-29
4.80229e-29
4.97796e-29
5.61638e-29
5.12754e-29
5.4523e-29
4.79277e-29
4.78749e-29
5.27713e-29
5.94516e-29
5.22758e-29
4.86741e-29
4.46025e-29
4.17718e-29
4.11957e-29
3.72646e-29
3.09479e-29
2.90196e-29
2.48529e-29
2.07797e-29
1.92685e-29
1.65943e-29
7.64961e-30
3.01574e-30
9.34398e-31
1.21497e-31
1.75468e-31
5.31773e-30
2.06455e-29
1.05039e-28
3.20785e-28
3.64909e-28
6.97448e-28
8.96956e-26
4.41713e-25
5.63609e-27
1.03833e-25
8.03955e-27
8.02577e-27
2.61856e-27
1.49585e-28
1.56284e-30
6.75526e-29
2.96192e-29
3.45733e-29
4.7858e-29
3.70998e-29
4.43489e-29
4.44647e-29
5.17598e-29
4.4623e-29
4.33974e-29
5.13862e-29
6.40655e-29
5.57026e-29
5.4517e-29
6.12063e-29
7.06959e-29
6.47174e-29
6.78636e-29
6.29791e-29
6.77623e-29
7.06063e-29
7.78489e-29
7.24841e-29
7.61266e-29
6.70264e-29
6.89675e-29
7.4157e-29
8.24342e-29
7.30663e-29
6.86003e-29
6.23001e-29
5.99214e-29
5.84156e-29
5.43861e-29
4.77668e-29
4.30109e-29
3.39042e-29
2.91337e-29
2.78743e-29
2.32479e-29
1.02892e-29
4.81546e-30
1.15526e-30
3.49506e-31
4.15812e-31
4.94395e-30
3.62568e-29
1.18128e-28
5.0032e-28
3.01872e-28
2.46183e-27
1.54708e-25
4.59043e-25
3.37096e-26
4.64691e-25
9.14731e-26
3.25217e-26
1.07167e-26
1.46642e-28
2.23898e-30
6.81739e-29
3.44123e-29
3.53608e-29
4.77335e-29
3.8423e-29
4.38933e-29
4.58408e-29
5.16793e-29
4.58893e-29
4.32723e-29
5.22333e-29
6.44853e-29
5.66543e-29
5.45601e-29
6.20305e-29
7.11125e-29
6.5542e-29
6.80375e-29
6.37771e-29
6.82779e-29
7.10207e-29
7.88638e-29
7.31084e-29
7.65649e-29
6.79144e-29
6.96283e-29
7.45398e-29
8.38643e-29
7.37643e-29
6.94133e-29
6.37479e-29
6.14598e-29
6.14823e-29
5.78935e-29
5.26542e-29
4.59669e-29
3.24906e-29
2.98021e-29
2.98146e-29
2.32988e-29
1.13356e-29
4.84634e-30
1.51525e-30
5.4242e-31
2.39397e-31
5.27479e-30
3.0794e-29
1.10651e-28
4.31144e-28
2.60741e-28
3.12241e-27
2.26409e-25
6.7001e-25
1.61804e-25
1.04084e-24
4.91419e-25
5.97705e-26
3.69121e-26
3.22214e-28
4.39741e-30
7.67712e-29
4.25194e-29
3.57881e-29
5.09446e-29
3.76989e-29
4.65793e-29
4.58161e-29
5.39947e-29
4.60831e-29
4.45018e-29
5.25955e-29
6.69468e-29
5.70993e-29
5.5405e-29
6.29511e-29
7.27912e-29
6.61494e-29
6.91509e-29
6.44045e-29
6.95382e-29
7.19719e-29
8.06935e-29
7.37021e-29
7.81e-29
6.87537e-29
7.08781e-29
7.58e-29
8.67848e-29
7.47046e-29
7.16779e-29
6.55971e-29
6.47005e-29
6.52002e-29
6.23162e-29
5.66967e-29
4.68526e-29
3.16637e-29
3.19868e-29
3.18078e-29
2.47836e-29
1.24603e-29
5.45493e-30
2.09948e-30
1.0429e-30
1.1935e-31
5.28758e-30
2.50601e-29
1.01145e-28
3.50703e-28
1.99497e-28
4.47558e-27
3.62568e-25
9.24611e-25
6.78082e-25
1.62466e-24
1.58832e-24
7.32067e-26
9.36057e-26
8.88335e-28
1.10166e-29
9.42262e-29
5.29876e-29
3.90721e-29
5.55408e-29
3.78044e-29
5.01483e-29
4.68931e-29
5.77758e-29
4.71702e-29
4.71946e-29
5.46902e-29
7.14342e-29
5.88019e-29
5.80944e-29
6.5788e-29
7.67196e-29
6.86128e-29
7.22481e-29
6.69222e-29
7.29746e-29
7.52579e-29
8.49859e-29
7.66711e-29
8.1983e-29
7.16049e-29
7.46201e-29
8.00514e-29
9.2702e-29
7.82137e-29
7.66305e-29
6.97378e-29
7.0633e-29
7.06138e-29
6.87149e-29
6.18674e-29
5.08463e-29
3.38172e-29
3.56291e-29
3.55042e-29
2.85241e-29
1.42988e-29
7.07784e-30
3.20309e-30
2.21275e-30
7.923e-32
5.43172e-30
1.92416e-29
8.99232e-29
2.62709e-28
1.30819e-28
6.59111e-27
5.88151e-25
1.18943e-24
2.02443e-24
2.0524e-24
3.85939e-24
6.84344e-26
1.93898e-25
2.30411e-27
2.54137e-29
1.19481e-28
6.53521e-29
4.47606e-29
6.01279e-29
3.89279e-29
5.34327e-29
4.89108e-29
6.16844e-29
4.87179e-29
5.05149e-29
5.79323e-29
7.65518e-29
6.1065e-29
6.17182e-29
6.96912e-29
8.15063e-29
7.1818e-29
7.61701e-29
7.03367e-29
7.76181e-29
7.99533e-29
9.01333e-29
8.07535e-29
8.69041e-29
7.55512e-29
7.99694e-29
8.60933e-29
9.98151e-29
8.29253e-29
8.27212e-29
7.50014e-29
7.78766e-29
7.70296e-29
7.67047e-29
6.92114e-29
5.75965e-29
3.83242e-29
4.03413e-29
4.16387e-29
3.438e-29
1.72161e-29
1.01866e-29
5.39926e-30
4.89487e-30
2.60764e-31
6.35017e-30
1.4517e-29
7.64641e-29
1.78195e-28
7.86073e-29
8.91653e-27
9.20517e-25
1.52873e-24
4.72424e-24
2.22619e-24
7.67076e-24
5.13309e-26
3.45664e-25
5.26499e-27
4.86737e-29
1.54061e-28
8.03367e-29
5.17662e-29
6.4951e-29
4.06478e-29
5.63801e-29
5.14563e-29
6.55319e-29
5.05475e-29
5.398e-29
6.16944e-29
8.1837e-29
6.34953e-29
6.56276e-29
7.39859e-29
8.67039e-29
7.5255e-29
8.03833e-29
7.42242e-29
8.27861e-29
8.49591e-29
9.57955e-29
8.54189e-29
9.21348e-29
8.01006e-29
8.59561e-29
9.28077e-29
1.07438e-28
8.80792e-29
8.91177e-29
8.08065e-29
8.57683e-29
8.39546e-29
8.71724e-29
7.94777e-29
6.88607e-29
4.51126e-29
4.58998e-29
5.0957e-29
4.29533e-29
2.19175e-29
1.5853e-29
9.77398e-30
1.09556e-29
1.50835e-30
1.00675e-29
1.36756e-29
6.83105e-29
1.22361e-28
8.76573e-29
1.13722e-26
1.37325e-24
1.9832e-24
9.04933e-24
2.18275e-24
1.34302e-23
3.06643e-26
5.58075e-25
1.11065e-26
8.4133e-29
2.00315e-28
9.59037e-29
5.92291e-29
7.04238e-29
4.26827e-29
5.92142e-29
5.45483e-29
6.93074e-29
5.25853e-29
5.77226e-29
6.61656e-29
8.72222e-29
6.60305e-29
6.97985e-29
7.89325e-29
9.21143e-29
7.87564e-29
8.49033e-29
7.8469e-29
8.84156e-29
9.06581e-29
1.01718e-28
9.02603e-29
9.7778e-29
8.51143e-29
9.25319e-29
1.00429e-28
1.153e-28
9.33723e-29
9.58964e-29
8.72882e-29
9.46506e-29
9.25092e-29
1.01389e-28
9.3265e-29
8.48666e-29
5.33803e-29
5.29935e-29
6.51204e-29
5.54143e-29
2.97233e-29
2.59619e-29
1.88297e-29
2.42684e-29
6.80011e-30
2.22624e-29
2.36975e-29
8.15965e-29
1.40246e-28
2.85756e-28
1.3265e-26
1.96387e-24
2.7869e-24
1.5288e-23
1.9603e-24
2.12461e-23
1.70171e-26
8.2455e-25
2.17e-26
1.35895e-28
2.57797e-28
1.09521e-28
6.72854e-29
7.65576e-29
4.50452e-29
6.19725e-29
5.81561e-29
7.30059e-29
5.51277e-29
6.15283e-29
7.11192e-29
9.26472e-29
6.88395e-29
7.40999e-29
8.42959e-29
9.76861e-29
8.25792e-29
8.95606e-29
8.32591e-29
9.43829e-29
9.65436e-29
1.08048e-28
9.55593e-29
1.03615e-28
9.07239e-29
9.95813e-29
1.08471e-28
1.2362e-28
9.92407e-29
1.03286e-28
9.50408e-29
1.05109e-28
1.02967e-28
1.20649e-28
1.12246e-28
1.01805e-28
6.42062e-29
6.24231e-29
8.54983e-29
7.40741e-29
4.29526e-29
4.38818e-29
3.75133e-29
5.24725e-29
2.42324e-29
5.74753e-29
6.74409e-29
1.59109e-28
3.46251e-28
1.15936e-27
1.49273e-26
2.71713e-24
4.09462e-24
2.32531e-23
1.73808e-24
3.12903e-23
1.39502e-26
1.13947e-24
3.99573e-26
2.15065e-28
3.35424e-28
1.1862e-28
7.55646e-29
8.33567e-29
4.7736e-29
6.45389e-29
6.24253e-29
7.6495e-29
5.80429e-29
6.54732e-29
7.68291e-29
9.79223e-29
7.18544e-29
7.85544e-29
9.03756e-29
1.03151e-28
8.66093e-29
9.43812e-29
8.84954e-29
1.00674e-28
1.03105e-28
1.14449e-28
1.01062e-28
1.09887e-28
9.68687e-29
1.07356e-28
1.17499e-28
1.32394e-28
1.05794e-28
1.11809e-28
1.04478e-28
1.17613e-28
1.1615e-28
1.45023e-28
1.32549e-28
1.27069e-28
8.09348e-29
7.42238e-29
1.15449e-28
1.01859e-28
6.50777e-29
7.49692e-29
7.42656e-29
1.08874e-28
7.2333e-29
1.5009e-28
2.07773e-28
4.14823e-28
1.08342e-27
3.7518e-27
1.57719e-26
3.69677e-24
6.516e-24
3.28457e-23
1.53862e-24
4.33654e-23
3.33418e-26
1.48399e-24
6.96251e-26
3.46919e-28
4.3542e-28
1.22764e-28
8.34523e-29
9.17702e-29
5.02333e-29
6.74187e-29
6.67705e-29
8.03059e-29
6.11404e-29
6.96253e-29
8.27707e-29
1.03306e-28
7.49165e-29
8.3237e-29
9.66696e-29
1.08719e-28
9.08316e-29
9.93654e-29
9.42532e-29
1.0721e-28
1.09655e-28
1.21159e-28
1.07138e-28
1.16484e-28
1.03755e-28
1.15741e-28
1.27199e-28
1.42061e-28
1.13473e-28
1.21745e-28
1.16082e-28
1.32472e-28
1.31964e-28
1.77464e-28
1.59961e-28
1.52434e-28
1.08335e-28
8.99055e-29
1.57391e-28
1.43785e-28
1.01553e-28
1.28041e-28
1.42575e-28
2.15896e-28
1.88697e-28
3.68668e-28
5.78602e-28
1.09773e-27
3.07212e-27
9.87306e-27
1.66183e-26
5.01744e-24
1.03384e-23
4.33346e-23
1.61255e-24
5.73487e-23
9.20073e-26
1.84141e-24
1.14371e-25
5.92238e-28
5.77492e-28
1.18632e-28
9.11452e-29
1.01579e-28
5.25622e-29
7.04704e-29
7.12912e-29
8.43657e-29
6.40734e-29
7.412e-29
8.92641e-29
1.08591e-28
7.78502e-29
8.82207e-29
1.03513e-28
1.1423e-28
9.49501e-29
1.04731e-28
1.00283e-28
1.13958e-28
1.16922e-28
1.2801e-28
1.13329e-28
1.23868e-28
1.11283e-28
1.24956e-28
1.38499e-28
1.52636e-28
1.22247e-28
1.33756e-28
1.30236e-28
1.50423e-28
1.52405e-28
2.21987e-28
1.93899e-28
1.94339e-28
1.46903e-28
1.10449e-28
2.15949e-28
2.06863e-28
1.60269e-28
2.18643e-28
2.67464e-28
4.14301e-28
4.34146e-28
8.33704e-28
1.41153e-27
2.64249e-27
7.44391e-27
2.16692e-26
1.68338e-26
6.77416e-24
1.69602e-23
5.41864e-23
2.06833e-24
7.36098e-23
2.24613e-25
2.21511e-24
1.77191e-25
1.07084e-27
7.59392e-28
1.06422e-28
9.90471e-29
1.12563e-28
5.48573e-29
7.35652e-29
7.58869e-29
8.85582e-29
6.72375e-29
7.87905e-29
9.56322e-29
1.13945e-28
8.08324e-29
9.34717e-29
1.1024e-28
1.19881e-28
9.92183e-29
1.10317e-28
1.06772e-28
1.20945e-28
1.24169e-28
1.35374e-28
1.20117e-28
1.31806e-28
1.19858e-28
1.35092e-28
1.50619e-28
1.64721e-28
1.32796e-28
1.47939e-28
1.47485e-28
1.71511e-28
1.76752e-28
2.75052e-28
2.23144e-28
2.20778e-28
1.95133e-28
1.35724e-28
2.96478e-28
3.00352e-28
2.54558e-28
3.69024e-28
4.8292e-28
7.6116e-28
9.0661e-28
1.71949e-27
3.05698e-27
5.66793e-27
1.57667e-26
4.18649e-26
1.69393e-26
9.15071e-24
2.72206e-23
6.4911e-23
3.56552e-24
9.2805e-23
4.09944e-25
2.59362e-24
2.60405e-25
2.02248e-27
9.77354e-28
8.90525e-29
1.06361e-28
1.24337e-28
5.74165e-29
7.61415e-29
8.11901e-29
9.23509e-29
7.06346e-29
8.35213e-29
1.02511e-28
1.18905e-28
8.38848e-29
9.89181e-29
1.17413e-28
1.2531e-28
1.0355e-28
1.16266e-28
1.13554e-28
1.28223e-28
1.32121e-28
1.42985e-28
1.27278e-28
1.40746e-28
1.29296e-28
1.46478e-28
1.64429e-28
1.78127e-28
1.44948e-28
1.64512e-28
1.67288e-28
1.94658e-28
2.03836e-28
3.28818e-28
2.66409e-28
3.1494e-28
2.77225e-28
1.63178e-28
4.14056e-28
4.3047e-28
4.00162e-28
5.96158e-28
8.35131e-28
1.32758e-27
1.73237e-27
3.26545e-27
5.93999e-27
1.09533e-26
2.95895e-26
7.23379e-26
1.67099e-26
1.23908e-23
4.35516e-23
7.44804e-23
6.01093e-24
1.132e-22
7.29207e-25
3.05428e-24
3.65144e-25
3.98843e-27
1.17671e-27
7.11229e-29
1.10288e-28
1.39751e-28
5.90349e-29
7.92021e-29
8.62769e-29
9.64557e-29
7.41378e-29
8.84138e-29
1.09036e-28
1.23991e-28
8.69128e-29
1.0467e-28
1.24271e-28
1.30933e-28
1.08046e-28
1.22577e-28
1.20784e-28
1.35888e-28
1.3984e-28
1.51272e-28
1.35387e-28
1.50497e-28
1.3994e-28
1.59075e-28
1.79307e-28
1.93678e-28
1.59689e-28
1.8465e-28
1.92458e-28
2.26229e-28
2.46044e-28
4.27127e-28
4.66009e-28
3.49082e-28
3.78671e-28
2.2488e-28
5.61527e-28
6.17627e-28
6.15894e-28