/*--------------------------------*- C++ -*----------------------------------*\
| =========                 |                                                 |
| \\      /  F ield         | OpenFOAM: The Open Source CFD Toolbox           |
|  \\    /   O peration     | Version:  2312                                  |
|   \\  /    A nd           | Website:  www.openfoam.com                      |
|    \\/     M anipulation  |                                                 |
\*---------------------------------------------------------------------------*/
FoamFile
{
    version     2.0;
    format      ascii;
    arch        "LSB;label=32;scalar=64";
    class       volScalarField;
    location    "680";
    object      pMean;
}
// * * * * * * * * * * * * * * * * * * * * * * * * * * * * * * * * * * * * * //

dimensions      [0 2 -2 0 0 0 0];

internalField   nonuniform List<scalar> 
144000
(
7.87616e-10
3.84763e-10
-4.23578e-10
-7.86023e-10
-6.60609e-10
-4.4942e-10
-2.51939e-10
-1.45382e-10
-5.35053e-11
-2.89268e-11
1.251e-11
8.59247e-12
3.60143e-11
2.25651e-11
4.68684e-11
3.08913e-11
5.11737e-11
2.87055e-11
5.09185e-11
3.09933e-11
5.35361e-11
2.94541e-11
5.27676e-11
2.92385e-11
5.40059e-11
2.982e-11
5.46658e-11
2.75147e-11
5.36024e-11
2.69949e-11
5.5015e-11
2.82748e-11
5.53046e-11
2.39698e-11
5.22186e-11
2.24453e-11
5.18475e-11
2.15163e-11
5.03177e-11
1.76516e-11
4.60239e-11
1.55535e-11
4.48218e-11
1.17241e-11
3.9905e-11
6.62119e-12
3.43622e-11
7.43946e-12
3.25041e-11
1.07233e-11
3.12577e-11
2.17372e-11
2.58376e-11
2.70996e-11
-3.31958e-12
3.25912e-11
-2.04768e-11
2.85828e-11
-1.10906e-09
-2.58461e-10
8.20176e-10
4.04425e-10
-4.31784e-10
-7.92684e-10
-6.62783e-10
-4.49584e-10
-2.52155e-10
-1.45621e-10
-5.39625e-11
-2.9315e-11
1.20465e-11
8.30229e-12
3.56524e-11
2.2364e-11
4.65884e-11
3.07873e-11
5.09418e-11
2.8605e-11
5.07062e-11
3.09651e-11
5.33567e-11
2.94298e-11
5.25963e-11
2.92599e-11
5.38549e-11
2.98634e-11
5.45187e-11
2.75583e-11
5.34547e-11
2.70655e-11
5.48809e-11
2.83715e-11
5.51668e-11
2.40502e-11
5.20714e-11
2.25657e-11
5.17128e-11
2.16504e-11
5.01815e-11
1.77735e-11
4.58099e-11
1.559e-11
4.45806e-11
1.19103e-11
3.97659e-11
6.84664e-12
3.42163e-11
7.73653e-12
3.23874e-11
1.10417e-11
3.11833e-11
2.21232e-11
2.58552e-11
2.74281e-11
-3.2415e-12
3.25101e-11
-1.67643e-11
3.99554e-11
-1.12919e-09
-2.84603e-10
8.63949e-10
4.10409e-10
-4.44691e-10
-7.95346e-10
-6.63484e-10
-4.49254e-10
-2.51938e-10
-1.45757e-10
-5.42412e-11
-2.98815e-11
1.15497e-11
7.76256e-12
3.52879e-11
2.19208e-11
4.63147e-11
3.04815e-11
5.07974e-11
2.83055e-11
5.05458e-11
3.07458e-11
5.32862e-11
2.92211e-11
5.25253e-11
2.91042e-11
5.38316e-11
2.97325e-11
5.45181e-11
2.74209e-11
5.34454e-11
2.69574e-11
5.48976e-11
2.82956e-11
5.52168e-11
2.39443e-11
5.20855e-11
2.25042e-11
5.1765e-11
2.16036e-11
5.02478e-11
1.77262e-11
4.57549e-11
1.53673e-11
4.44633e-11
1.18619e-11
3.98715e-11
6.91718e-12
3.42836e-11
7.88027e-12
3.25206e-11
1.12005e-11
3.13222e-11
2.23292e-11
2.61611e-11
2.75699e-11
-2.7001e-12
3.08776e-11
-1.29088e-11
5.94025e-11
-1.16389e-09
-3.03049e-10
9.10147e-10
3.87268e-10
-4.58668e-10
-7.89146e-10
-6.6232e-10
-4.48475e-10
-2.51173e-10
-1.45408e-10
-5.41994e-11
-3.03997e-11
1.09697e-11
7.07985e-12
3.48143e-11
2.13525e-11
4.59317e-11
3.00841e-11
5.06195e-11
2.79165e-11
5.0297e-11
3.04503e-11
5.3193e-11
2.89498e-11
5.24064e-11
2.88971e-11
5.37863e-11
2.95681e-11
5.45208e-11
2.72464e-11
5.34174e-11
2.6815e-11
5.49085e-11
2.8201e-11
5.53001e-11
2.38135e-11
5.20891e-11
2.24178e-11
5.18367e-11
2.15446e-11
5.0355e-11
1.76912e-11
4.56916e-11
1.50714e-11
4.42639e-11
1.16976e-11
4.00501e-11
6.9912e-12
3.43986e-11
7.99529e-12
3.27813e-11
1.12745e-11
3.16416e-11
2.23208e-11
2.69693e-11
2.70869e-11
-1.02901e-12
2.63706e-11
-4.51263e-12
7.80793e-11
-1.20866e-09
-2.97794e-10
9.51197e-10
3.20454e-10
-4.71297e-10
-7.66102e-10
-6.57606e-10
-4.47639e-10
-2.50135e-10
-1.44516e-10
-5.37887e-11
-3.08237e-11
1.02755e-11
6.26498e-12
3.41869e-11
2.06587e-11
4.53916e-11
2.96028e-11
5.03628e-11
2.74537e-11
4.99147e-11
3.00899e-11
5.3034e-11
2.86401e-11
5.21905e-11
2.86582e-11
5.36764e-11
2.93945e-11
5.44808e-11
2.70666e-11
5.33204e-11
2.66648e-11
5.48659e-11
2.81242e-11
5.53705e-11
2.36977e-11
5.20295e-11
2.23394e-11
5.18817e-11
2.15097e-11
5.04612e-11
1.77245e-11
4.55798e-11
1.47994e-11
4.38843e-11
1.14109e-11
4.0236e-11
7.12333e-12
3.45091e-11
8.08441e-12
3.31358e-11
1.12323e-11
3.21693e-11
2.19755e-11
2.8425e-11
2.56611e-11
2.24731e-12
1.85067e-11
9.78333e-12
9.14987e-11
-1.26079e-09
-2.55847e-10
9.87596e-10
2.01325e-10
-4.84197e-10
-7.22064e-10
-6.47389e-10
-4.47209e-10
-2.49202e-10
-1.43193e-10
-5.30634e-11
-3.11782e-11
9.43439e-12
5.29489e-12
3.33856e-11
1.98282e-11
4.46834e-11
2.90228e-11
5.00156e-11
2.69261e-11
4.9396e-11
2.96627e-11
5.27996e-11
2.82982e-11
5.1874e-11
2.83856e-11
5.34955e-11
2.92144e-11
5.43904e-11
2.68873e-11
5.31462e-11
2.65096e-11
5.47635e-11
2.80661e-11
5.54152e-11
2.36051e-11
5.18984e-11
2.22664e-11
5.18904e-11
2.15021e-11
5.05602e-11
1.7849e-11
4.5424e-11
1.45719e-11
4.32609e-11
1.09539e-11
4.04023e-11
7.31463e-12
3.46174e-11
8.1184e-12
3.3601e-11
1.10124e-11
3.29669e-11
2.1144e-11
3.06994e-11
2.30051e-11
7.55656e-12
7.01597e-12
3.0284e-11
9.83491e-11
-1.3217e-09
-1.70271e-10
1.02421e-09
2.76982e-11
-5.01981e-10
-6.55443e-10
-6.29684e-10
-4.47298e-10
-2.48746e-10
-1.41561e-10
-5.20688e-11
-3.15089e-11
8.40438e-12
4.13434e-12
3.23823e-11
1.88494e-11
4.37966e-11
2.8332e-11
4.95659e-11
2.63388e-11
4.87446e-11
2.91682e-11
5.24861e-11
2.79339e-11
5.14587e-11
2.80824e-11
5.32435e-11
2.90332e-11
5.42439e-11
2.67177e-11
5.28952e-11
2.63546e-11
5.45988e-11
2.80295e-11
5.54272e-11
2.35452e-11
5.16972e-11
2.21999e-11
5.18611e-11
2.15227e-11
5.06558e-11
1.8073e-11
4.52773e-11
1.44024e-11
4.23025e-11
1.02704e-11
4.05538e-11
7.56051e-12
3.47377e-11
8.05062e-12
3.42001e-11
1.05443e-11
3.41094e-11
1.97064e-11
3.39095e-11
1.89371e-11
1.5024e-11
-7.75068e-12
5.59884e-11
9.95584e-11
-1.39248e-09
-4.06683e-11
1.06599e-09
-1.94487e-10
-5.29201e-10
-5.67611e-10
-6.02922e-10
-4.47771e-10
-2.49076e-10
-1.39747e-10
-5.08437e-11
-3.18434e-11
7.15875e-12
2.75163e-12
3.11426e-11
1.77061e-11
4.27125e-11
2.75148e-11
4.8989e-11
2.56913e-11
4.79603e-11
2.86045e-11
5.20814e-11
2.75525e-11
5.09455e-11
2.77528e-11
5.29172e-11
2.88559e-11
5.40368e-11
2.65665e-11
5.25688e-11
2.62063e-11
5.43711e-11
2.80199e-11
5.53979e-11
2.35257e-11
5.14291e-11
2.21394e-11
5.17955e-11
2.1567e-11
5.07614e-11
1.83962e-11
4.52331e-11
1.42621e-11
4.0879e-11
9.30083e-12
4.07002e-11
7.84518e-12
3.48953e-11
7.83995e-12
3.49603e-11
9.7732e-12
3.56454e-11
1.75967e-11
3.8061e-11
1.35431e-11
2.43904e-11
-2.47667e-11
8.45297e-11
9.77218e-11
-1.47214e-09
1.24726e-10
1.11743e-09
-4.53209e-10
-5.69844e-10
-4.62671e-10
-5.66126e-10
-4.48194e-10
-2.50456e-10
-1.37907e-10
-4.94374e-11
-3.21961e-11
5.66926e-12
1.13522e-12
2.96509e-11
1.6386e-11
4.14199e-11
2.65567e-11
4.82597e-11
2.4979e-11
4.70396e-11
2.79684e-11
5.15692e-11
2.71528e-11
5.03316e-11
2.73982e-11
5.25111e-11
2.86831e-11
5.37618e-11
2.64386e-11
5.21673e-11
2.60698e-11
5.40806e-11
2.80394e-11
5.53205e-11
2.35507e-11
5.11024e-11
2.20839e-11
5.1698e-11
2.16231e-11
5.09004e-11
1.88047e-11
4.54402e-11
1.41054e-11
3.88096e-11
7.99538e-12
4.08676e-11
8.15146e-12
3.51159e-11
7.45773e-12
3.58942e-11
8.68537e-12
3.75781e-11
1.48461e-11
4.30218e-11
7.1137e-12
3.50352e-11
-4.26016e-11
1.1312e-10
9.59358e-11
-1.55821e-09
3.12243e-10
1.18016e-09
-7.33532e-10
-6.26251e-10
-3.46481e-10
-5.19156e-10
-4.47977e-10
-2.53044e-10
-1.36215e-10
-4.78936e-11
-3.25668e-11
3.947e-12
-7.09221e-13
2.79037e-11
1.48903e-11
3.99172e-11
2.54572e-11
4.73615e-11
2.41965e-11
4.59844e-11
2.72579e-11
5.09373e-11
2.67319e-11
4.96167e-11
2.70173e-11
5.20194e-11
2.85162e-11
5.34109e-11
2.63311e-11
5.16918e-11
2.59454e-11
5.37269e-11
2.80881e-11
5.51874e-11
2.362e-11
5.07235e-11
2.20301e-11
5.15732e-11
2.168e-11
5.10941e-11
1.92812e-11
4.60871e-11
1.38421e-11
3.58719e-11
6.31815e-12
4.10869e-11
8.46063e-12
3.54207e-11
6.89545e-12
3.69956e-11
7.30026e-12
3.98556e-11
1.15881e-11
4.85316e-11
1.41835e-13
4.613e-11
-5.96852e-11
1.3916e-10
9.663e-11
-1.64618e-09
5.07951e-10
1.25307e-09
-1.01824e-09
-6.9892e-10
-2.25868e-10
-4.6269e-10
-4.46414e-10
-2.56877e-10
-1.34864e-10
-4.62933e-11
-3.29489e-11
2.00865e-12
-2.76707e-12
2.59074e-11
1.32273e-11
3.82115e-11
2.42169e-11
4.62872e-11
2.33442e-11
4.47973e-11
2.64747e-11
5.01785e-11
2.62857e-11
4.88014e-11
2.66094e-11
5.14378e-11
2.83504e-11
5.29788e-11
2.62425e-11
5.11456e-11
2.58347e-11
5.3309e-11
2.81634e-11
5.49939e-11
2.37286e-11
5.03009e-11
2.19782e-11
5.14216e-11
2.17212e-11
5.13732e-11
1.98079e-11
4.7414e-11
1.3265e-11
3.17937e-11
4.25676e-12
4.13849e-11
8.76142e-12
3.58082e-11
6.16941e-12
3.8225e-11
5.67708e-12
4.23649e-11
8.02294e-12
5.42478e-11
-6.81487e-12
5.67993e-11
-7.4621e-11
1.60689e-10
1.01279e-10
-1.73035e-09
6.98023e-10
1.33269e-09
-1.29274e-09
-7.86049e-10
-1.07275e-10
-3.98122e-10
-4.42786e-10
-2.61857e-10
-1.34052e-10
-4.47232e-11
-3.33383e-11
-1.2052e-13
-5.01779e-12
2.3673e-11
1.14086e-11
3.63097e-11
2.28437e-11
4.5034e-11
2.2423e-11
4.34849e-11
2.56234e-11
4.92878e-11
2.58105e-11
4.78883e-11
2.61741e-11
5.07635e-11
2.8184e-11
5.24625e-11
2.61693e-11
5.05315e-11
2.57366e-11
5.28262e-11
2.82611e-11
5.4739e-11
2.3872e-11
4.98376e-11
2.19273e-11
5.12442e-11
2.173e-11
5.17643e-11
2.03488e-11
4.98357e-11
1.21775e-11
2.61825e-11
1.83908e-12
4.1777e-11
9.0373e-12
3.62566e-11
5.31978e-12
3.95369e-11
3.90589e-12
4.49551e-11
4.39649e-12
5.98039e-11
-1.31853e-11
6.62689e-11
-8.63323e-11
1.76519e-10
1.10393e-10
-1.80524e-09
8.7092e-10
1.4145e-09
-1.54453e-09
-8.84354e-10
3.46772e-12
-3.27359e-10
-4.36405e-10
-2.67728e-10
-1.33954e-10
-4.33005e-11
-3.37343e-11
-2.4088e-12
-7.4356e-12
2.12182e-11
9.44604e-12
3.42259e-11
2.13447e-11
4.3605e-11
2.14355e-11
4.20572e-11
2.47101e-11
4.82651e-11
2.53043e-11
4.68824e-11
2.57136e-11
4.99977e-11
2.80134e-11
5.18637e-11
2.61074e-11
4.98528e-11
2.56494e-11
5.22787e-11
2.83775e-11
5.4419e-11
2.40463e-11
4.93373e-11
2.18799e-11
5.10357e-11
2.17015e-11
5.22648e-11
2.09003e-11
5.38176e-11
1.03581e-11
1.8641e-11
-8.18702e-13
4.22815e-11
9.29024e-12
3.67381e-11
4.3965e-12
4.0833e-11
2.11294e-12
4.74594e-11
9.6508e-13
6.48426e-11
-1.84985e-11
7.39533e-11
-9.41686e-11
1.86264e-10
1.23407e-10
-1.86625e-09
1.01847e-09
1.49351e-09
-1.76469e-09
-9.89685e-10
1.01781e-10
-2.52668e-10
-4.26706e-10
-2.74125e-10
-1.34707e-10
-4.2146e-11
-3.41435e-11
-4.82205e-12
-9.99029e-12
1.85621e-11
7.3587e-12
3.1977e-11
1.97346e-11
4.20071e-11
2.03867e-11
4.05257e-11
2.37414e-11
4.71128e-11
2.47658e-11
4.57904e-11
2.52308e-11
4.91424e-11
2.78361e-11
5.1184e-11
2.60532e-11
4.91136e-11
2.55728e-11
5.16686e-11
2.85093e-11
5.40303e-11
2.4249e-11
4.8798e-11
2.1849e-11
5.07753e-11
2.16633e-11
5.27943e-11
2.15504e-11
5.96629e-11
7.16907e-12
8.85997e-12
-3.48268e-12
4.29464e-11
9.56181e-12
3.72356e-11
3.47147e-12
4.20384e-11
4.27456e-13
4.97138e-11
-2.0272e-12
6.90669e-11
-2.2406e-11
7.94963e-11
-9.78961e-11
1.90234e-10
1.39105e-10
-1.91002e-09
1.13603e-09
1.56456e-09
-1.94714e-09
-1.09721e-09
1.84364e-10
-1.76525e-10
-4.13337e-10
-2.80625e-10
-1.36405e-10
-4.13934e-11
-3.4584e-11
-7.32632e-12
-1.26525e-11
1.57253e-11
5.16094e-12
2.95786e-11
1.80255e-11
4.02496e-11
1.92804e-11
3.89007e-11
2.27245e-11
4.58375e-11
2.41939e-11
4.46194e-11
2.47282e-11
4.82014e-11
2.76498e-11
5.04264e-11
2.6004e-11
4.83192e-11
2.5507e-11
5.09977e-11
2.86544e-11
5.35716e-11
2.44803e-11
4.82162e-11
2.18488e-11
5.04449e-11
2.16452e-11
5.32676e-11
2.22537e-11
6.8529e-11
8.93095e-13
-4.22599e-12
-6.2007e-12
4.36697e-11
9.85701e-12
3.77158e-11
2.6245e-12
4.30707e-11
-1.03046e-12
5.157e-11
-4.38805e-12
7.22601e-11
-2.46951e-11
8.27611e-11
-9.76341e-11
1.89117e-10
1.56076e-10
-1.93424e-09
1.22144e-09
1.62292e-09
-2.08863e-09
-1.20197e-09
2.49215e-10
-1.01437e-10
-3.96176e-10
-2.86769e-10
-1.39096e-10
-4.11832e-11
-3.50864e-11
-9.8922e-12
-1.53941e-11
1.27277e-11
2.86432e-12
2.70457e-11
1.62297e-11
3.83452e-11
1.81202e-11
3.71922e-11
2.16665e-11
4.4447e-11
2.35883e-11
4.33763e-11
2.42082e-11
4.71796e-11
2.74525e-11
4.95953e-11
2.59582e-11
4.74748e-11
2.54521e-11
5.02689e-11
2.881e-11
5.30444e-11
2.47367e-11
4.75955e-11
2.18782e-11
5.00525e-11
2.16379e-11
5.36907e-11
2.23876e-11
8.30533e-11
-2.23651e-12
-2.15541e-11
-9.2852e-12
4.39744e-11
1.00906e-11
3.80824e-11
1.90643e-12
4.38374e-11
-2.16125e-12
5.29049e-11
-5.97446e-12
7.42894e-11
-2.52799e-11
8.38079e-11
-9.37536e-11
1.83923e-10
1.72892e-10
-1.93773e-09
1.27473e-09
1.6645e-09
-2.18802e-09
-1.29925e-09
2.95433e-10
-2.97258e-11
-3.75319e-10
-2.92098e-10
-1.42772e-10
-4.16487e-11
-3.56915e-11
-1.24934e-11
-1.81881e-11
9.58784e-12
4.79805e-13
2.43927e-11
1.43592e-11
3.63069e-11
1.69103e-11
3.54103e-11
2.05738e-11
4.29509e-11
2.29488e-11
4.20671e-11
2.36729e-11
4.60821e-11
2.72427e-11
4.86968e-11
2.59143e-11
4.65854e-11
2.54081e-11
4.94846e-11
2.89757e-11
5.24492e-11
2.50227e-11
4.69234e-11
2.19689e-11
4.95367e-11
2.1799e-11
5.37004e-11
2.24256e-11
9.21448e-11
-2.50358e-14
-3.24179e-11
-1.1359e-11
4.38731e-11
1.03328e-11
3.83344e-11
1.39696e-12
4.42764e-11
-2.87919e-12
5.36308e-11
-6.69778e-12
7.51042e-11
-2.41817e-11
8.28604e-11
-8.67847e-11
1.75793e-10
1.88219e-10
-1.92024e-09
1.29736e-09
1.68639e-09
-2.24629e-09
-1.38506e-09
3.23112e-10
3.65468e-11
-3.51042e-10
-2.96177e-10
-1.4737e-10
-4.2906e-11
-3.64456e-11
-1.51064e-11
-2.10075e-11
6.32563e-12
-1.98247e-12
2.16342e-11
1.24245e-11
3.41479e-11
1.5655e-11
3.35648e-11
1.94527e-11
4.13584e-11
2.22761e-11
4.07e-11
2.31248e-11
4.49165e-11
2.7019e-11
4.77362e-11
2.5871e-11
4.56554e-11
2.53763e-11
4.86471e-11
2.91524e-11
5.17825e-11
2.53474e-11
4.61804e-11
2.21675e-11
4.88054e-11
2.23392e-11
5.28138e-11
2.36115e-11
8.17381e-11
4.38035e-13
-2.19354e-11
-1.02592e-11
4.36306e-11
1.07397e-11
3.8509e-11
1.18622e-12
4.4354e-11
-3.11648e-12
5.37057e-11
-6.51855e-12
7.47325e-11
-2.15218e-11
8.02438e-11
-7.73542e-11
1.65745e-10
2.00936e-10
-1.88247e-09
1.29213e-09
1.68632e-09
-2.26579e-09
-1.45589e-09
3.33154e-10
9.56487e-11
-3.23825e-10
-2.98636e-10
-1.52779e-10
-4.5051e-11
-3.74018e-11
-1.77144e-11
-2.3828e-11
2.96039e-12
-4.51182e-12
1.87833e-11
1.04349e-11
3.18811e-11
1.4358e-11
3.16644e-11
1.83082e-11
3.96796e-11
2.15706e-11
3.92808e-11
2.25656e-11
4.36888e-11
2.67803e-11
4.67193e-11
2.58273e-11
4.46897e-11
2.53566e-11
4.77607e-11
2.93375e-11
5.10504e-11
2.5702e-11
4.53813e-11
2.24451e-11
4.79287e-11
2.30928e-11
5.14318e-11
2.47738e-11
6.56603e-11
5.56921e-12
-3.58979e-12
-7.74821e-12
4.28981e-11
1.1183e-11
3.84901e-11
1.27835e-12
4.40258e-11
-2.85099e-12
5.31128e-11
-5.45768e-12
7.32655e-11
-1.74934e-11
7.63114e-11
-6.61097e-11
1.5471e-10
2.10295e-10
-1.82558e-09
1.26219e-09
1.66305e-09
-2.24941e-09
-1.50908e-09
3.27023e-10
1.46258e-10
-2.9428e-10
-2.99213e-10
-1.58867e-10
-4.81591e-11
-3.8621e-11
-2.03111e-11
-2.66305e-11
-4.91383e-13
-7.1025e-12
1.58497e-11
8.3981e-12
2.95197e-11
1.30225e-11
2.97164e-11
1.71444e-11
3.7924e-11
2.0833e-11
3.78147e-11
2.19966e-11
4.24051e-11
2.65261e-11
4.5652e-11
2.57828e-11
4.36929e-11
2.53486e-11
4.683e-11
2.95292e-11
5.02592e-11
2.608e-11
4.45401e-11
2.2773e-11
4.69755e-11
2.38769e-11
4.99784e-11
2.52833e-11
5.5105e-11
1.33392e-11
9.28948e-12
-5.30795e-12
4.16766e-11
1.16278e-11
3.82273e-11
1.68644e-12
4.32784e-11
-2.07944e-12
5.18797e-11
-3.57013e-12
7.08393e-11
-1.23265e-11
7.14458e-11
-5.36509e-11
1.4346e-10
2.15951e-10
-1.75116e-09
1.21073e-09
1.61597e-09
-2.2004e-09
-1.54262e-09
3.0664e-10
1.87445e-10
-2.63133e-10
-2.97754e-10
-1.65477e-10
-5.22745e-11
-4.01649e-11
-2.28989e-11
-2.93998e-11
-4.0148e-12
-9.74939e-12
1.28417e-11
6.31979e-12
2.70763e-11
1.1652e-11
2.77266e-11
1.59642e-11
3.6101e-11
2.00635e-11
3.63061e-11
2.14181e-11
4.1071e-11
2.62561e-11
4.45402e-11
2.57366e-11
4.2668e-11
2.5352e-11
4.58579e-11
2.97276e-11
4.94124e-11
2.64847e-11
4.36516e-11
2.3163e-11
4.59276e-11
2.47145e-11
4.84116e-11
2.57161e-11
4.82611e-11
1.72784e-11
1.87427e-11
-2.31538e-12
4.04434e-11
1.2206e-11
3.77433e-11
2.43818e-12
4.21358e-11
-8.17406e-13
5.00592e-11
-9.43735e-13
6.76172e-11
-6.26158e-12
6.59953e-11
-4.05042e-11
1.32457e-10
2.17945e-10
-1.66087e-09
1.1405e-09
1.54541e-09
-2.12262e-09
-1.55561e-09
2.74185e-10
2.18807e-10
-2.31126e-10
-2.94211e-10
-1.72436e-10
-5.74042e-11
-4.20873e-11
-2.54845e-11
-3.21238e-11
-7.59458e-12
-1.24466e-11
9.76727e-12
4.20433e-12
2.45622e-11
1.02496e-11
2.5701e-11
1.4769e-11
3.42196e-11
1.92632e-11
3.47594e-11
2.08302e-11
3.96923e-11
2.59695e-11
4.33898e-11
2.56882e-11
4.1619e-11
2.53656e-11
4.48491e-11
2.99302e-11
4.85174e-11
2.69106e-11
4.27244e-11
2.36003e-11
4.48069e-11
2.55677e-11
4.68049e-11
2.62039e-11
4.34601e-11
1.96301e-11
2.58292e-11
1.12489e-12
3.92757e-11
1.29214e-11
3.70226e-11
3.5177e-12
4.06273e-11
8.95527e-13
4.77251e-11
2.3106e-12
6.37834e-11
4.62413e-13
6.02787e-11
-2.70847e-11
1.21922e-10
2.16543e-10
-1.55648e-09
1.05421e-09
1.45239e-09
-2.0202e-09
-1.54812e-09
2.32054e-10
2.40466e-10
-1.98979e-10
-2.88655e-10
-1.79581e-10
-6.35202e-11
-4.44324e-11
-2.80785e-11
-3.47949e-11
-1.12165e-11
-1.51886e-11
6.63493e-12
2.05355e-12
2.19879e-11
8.81933e-12
2.36455e-11
1.35587e-11
3.22872e-11
1.84338e-11
3.3179e-11
2.0232e-11
3.82748e-11
2.56652e-11
4.22059e-11
2.56374e-11
4.05504e-11
2.53877e-11
4.38097e-11
3.0132e-11
4.75821e-11
2.73505e-11
4.17725e-11
2.40602e-11
4.36529e-11
2.63707e-11
4.52839e-11
2.66496e-11
4.00825e-11
2.10375e-11
3.09851e-11
4.76892e-12
3.81581e-11
1.37649e-11
3.60593e-11
4.89375e-12
3.87961e-11
3.00275e-12
4.49803e-11
6.0636e-12
5.9529e-11
7.61036e-12
5.45734e-11
-1.36965e-11
1.11787e-10
2.12158e-10
-1.43967e-09
9.54566e-10
1.33893e-09
-1.89778e-09
-1.52142e-09
1.82678e-10
2.53107e-10
-1.67315e-10
-2.8125e-10
-1.86787e-10
-7.05905e-11
-4.72429e-11
-3.07008e-11
-3.74155e-11
-1.48741e-11
-1.79752e-11
3.44915e-12
-1.36295e-13
1.93593e-11
7.36378e-12
2.1565e-11
1.23302e-11
3.03083e-11
1.75761e-11
3.15684e-11
1.96207e-11
3.68231e-11
2.53408e-11
4.09927e-11
2.55835e-11
3.94669e-11
2.54157e-11
4.27458e-11
3.03281e-11
4.66133e-11
2.77998e-11
4.08065e-11
2.45267e-11
4.24872e-11
2.71057e-11
4.3877e-11
2.70254e-11
3.77326e-11
2.19632e-11
3.45808e-11
8.44122e-12
3.70873e-11
1.47449e-11
3.48753e-11
6.52877e-12
3.67041e-11
5.43898e-12
4.19417e-11
1.01813e-11
5.50515e-11
1.49754e-11
4.91046e-11
-4.65053e-13
1.01763e-10
2.05306e-10
-1.31215e-09
8.44286e-10
1.2079e-09
-1.75907e-09
-1.4776e-09
1.28108e-10
2.5772e-10
-1.36612e-10
-2.72187e-10
-1.93954e-10
-7.85866e-11
-5.05611e-11
-3.33763e-11
-3.99902e-11
-1.85668e-11
-2.0808e-11
2.09168e-13
-2.37036e-12
1.66776e-11
5.88696e-12
1.94622e-11
1.10816e-11
2.82848e-11
1.66931e-11
2.99285e-11
1.89945e-11
3.53384e-11
2.4995e-11
3.97519e-11
2.55278e-11
3.83706e-11
2.54482e-11
4.16605e-11
3.05147e-11
4.56155e-11
2.82573e-11
3.98336e-11
2.49892e-11
4.13178e-11
2.7773e-11
4.2575e-11
2.73496e-11
3.61013e-11
2.26695e-11
3.69215e-11
1.20312e-11
3.60612e-11
1.58674e-11
3.35025e-11
8.37607e-12
3.44132e-11
8.12881e-12
3.87246e-11
1.45292e-11
5.05199e-11
2.23956e-11
4.40056e-11
1.26633e-11
9.1314e-11
1.96511e-10
-1.17547e-09
7.25395e-10
7.89505e-10
3.85715e-10
-4.23271e-10
-7.85928e-10
-6.60499e-10
-4.48394e-10
-2.50461e-10
-1.4399e-10
-5.25776e-11
-2.86129e-11
1.23602e-11
8.13915e-12
3.53854e-11
2.18208e-11
4.60887e-11
3.00944e-11
5.05165e-11
2.82161e-11
5.05646e-11
3.07058e-11
5.33601e-11
2.93464e-11
5.27125e-11
2.91683e-11
5.39659e-11
2.97231e-11
5.46515e-11
2.74948e-11
5.36334e-11
2.6941e-11
5.50262e-11
2.81489e-11
5.52748e-11
2.37645e-11
5.21983e-11
2.22312e-11
5.19455e-11
2.13335e-11
5.06304e-11
1.77205e-11
4.68663e-11
1.64523e-11
4.52358e-11
1.22213e-11
4.00861e-11
6.56203e-12
3.41586e-11
7.2674e-12
3.22745e-11
1.05648e-11
3.10162e-11
2.15708e-11
2.5699e-11
2.72383e-11
-3.20522e-12
3.32378e-11
-1.98404e-11
2.78835e-11
-1.11169e-09
-2.59647e-10
8.22111e-10
4.0552e-10
-4.31519e-10
-7.92604e-10
-6.6265e-10
-4.48544e-10
-2.5066e-10
-1.44221e-10
-5.30323e-11
-2.90039e-11
1.18918e-11
7.84219e-12
3.50167e-11
2.16115e-11
4.58006e-11
2.99802e-11
5.02795e-11
2.81112e-11
5.03495e-11
3.0673e-11
5.31803e-11
2.93218e-11
5.25404e-11
2.91878e-11
5.38138e-11
2.97646e-11
5.45068e-11
2.75423e-11
5.34882e-11
2.70146e-11
5.48929e-11
2.82474e-11
5.5137e-11
2.38492e-11
5.20487e-11
2.23565e-11
5.18067e-11
2.14758e-11
5.04902e-11
1.78622e-11
4.66894e-11
1.65575e-11
4.50549e-11
1.24268e-11
3.99482e-11
6.78752e-12
3.4013e-11
7.56279e-12
3.21573e-11
1.08824e-11
3.09396e-11
2.19545e-11
2.57188e-11
2.75678e-11
-3.12071e-12
3.31675e-11
-1.61096e-11
3.92976e-11
-1.13184e-09
-2.8591e-10
8.65994e-10
4.11832e-10
-4.44484e-10
-7.9533e-10
-6.63336e-10
-4.482e-10
-2.50418e-10
-1.44346e-10
-5.33025e-11
-2.9572e-11
1.13886e-11
7.29296e-12
3.46434e-11
2.11578e-11
4.55168e-11
2.96602e-11
5.01258e-11
2.78048e-11
5.01854e-11
3.04474e-11
5.31088e-11
2.91134e-11
5.24699e-11
2.90297e-11
5.379e-11
2.96307e-11
5.45093e-11
2.74102e-11
5.34846e-11
2.69098e-11
5.49126e-11
2.81728e-11
5.51885e-11
2.37473e-11
5.20624e-11
2.22987e-11
5.18558e-11
2.14351e-11
5.05554e-11
1.78239e-11
4.6688e-11
1.64217e-11
4.50414e-11
1.24367e-11
4.00596e-11
6.85589e-12
3.40788e-11
7.70502e-12
3.22882e-11
1.10409e-11
3.10775e-11
2.21565e-11
2.60265e-11
2.771e-11
-2.5802e-12
3.15285e-11
-1.22235e-11
5.89368e-11
-1.1666e-09
-3.04769e-10
9.12253e-10
3.89162e-10
-4.58506e-10
-7.89225e-10
-6.62161e-10
-4.47401e-10
-2.49625e-10
-1.43973e-10
-5.32467e-11
-3.00885e-11
1.08029e-11
6.60025e-12
3.41599e-11
2.05775e-11
4.5122e-11
2.92454e-11
4.99336e-11
2.74059e-11
4.99316e-11
3.01438e-11
5.30127e-11
2.88428e-11
5.23526e-11
2.88202e-11
5.37441e-11
2.94621e-11
5.45133e-11
2.72423e-11
5.34639e-11
2.67725e-11
5.49277e-11
2.80807e-11
5.52724e-11
2.36227e-11
5.20642e-11
2.22182e-11
5.19219e-11
2.13831e-11
5.06577e-11
1.77811e-11
4.66959e-11
1.62163e-11
4.49968e-11
1.24003e-11
4.02583e-11
6.92379e-12
3.41958e-11
7.81917e-12
3.25481e-11
1.11125e-11
3.13976e-11
2.21374e-11
2.68407e-11
2.72231e-11
-9.08096e-13
2.70078e-11
-3.80794e-12
7.78936e-11
-1.21137e-09
-3.00072e-10
9.53149e-10
3.22792e-10
-4.71146e-10
-7.66273e-10
-6.5742e-10
-4.46558e-10
-2.48543e-10
-1.43045e-10
-5.28092e-11
-3.05047e-11
1.01062e-11
5.77712e-12
3.3523e-11
1.98716e-11
4.45701e-11
2.87448e-11
4.96579e-11
2.69302e-11
4.95427e-11
2.97738e-11
5.28482e-11
2.8534e-11
5.21392e-11
2.85797e-11
5.36327e-11
2.92836e-11
5.44714e-11
2.70701e-11
5.3375e-11
2.66308e-11
5.48885e-11
2.801e-11
5.53401e-11
2.35176e-11
5.19985e-11
2.21521e-11
5.19533e-11
2.1361e-11
5.07484e-11
1.77849e-11
4.66748e-11
1.5998e-11
4.4827e-11
1.23448e-11
4.04882e-11
7.04639e-12
3.431e-11
7.9087e-12
3.2906e-11
1.10683e-11
3.19288e-11
2.17851e-11
2.82998e-11
2.57889e-11
2.36261e-12
1.91287e-11
1.05033e-11
9.15718e-11
-1.26342e-09
-2.58683e-10
9.8936e-10
2.03992e-10
-4.84032e-10
-7.22323e-10
-6.4717e-10
-4.46108e-10
-2.47564e-10
-1.41676e-10
-5.20531e-11
-3.08465e-11
9.26515e-12
4.80077e-12
3.27144e-11
1.90315e-11
4.38513e-11
2.81466e-11
4.92891e-11
2.63877e-11
4.90159e-11
2.93365e-11
5.26056e-11
2.81927e-11
5.18257e-11
2.83068e-11
5.34495e-11
2.90989e-11
5.4375e-11
2.68994e-11
5.32081e-11
2.64879e-11
5.47873e-11
2.7963e-11
5.53767e-11
2.34425e-11
5.18534e-11
2.21021e-11
5.1937e-11
2.13758e-11
5.08156e-11
1.78536e-11
4.66236e-11
1.57713e-11
4.44842e-11
1.22543e-11
4.0733e-11
7.2242e-12
3.4426e-11
7.9476e-12
3.33779e-11
1.08463e-11
3.27345e-11
2.09432e-11
3.05739e-11
2.31242e-11
7.66395e-12
7.61223e-12
3.10041e-11
9.86787e-11
-1.32417e-09
-1.73504e-10
1.02565e-09
3.05434e-11
-5.01772e-10
-6.55781e-10
-6.29444e-10
-4.46169e-10
-2.47062e-10
-1.39998e-10
-5.10201e-11
-3.11543e-11
8.24131e-12
3.63863e-12
3.17068e-11
1.80459e-11
4.2956e-11
2.744e-11
4.88168e-11
2.57846e-11
4.83549e-11
2.88321e-11
5.22813e-11
2.7829e-11
5.14136e-11
2.80055e-11
5.3194e-11
2.89143e-11
5.42182e-11
2.67392e-11
5.29618e-11
2.63497e-11
5.462e-11
2.79441e-11
5.53742e-11
2.34087e-11
5.16276e-11
2.20734e-11
5.18658e-11
2.1435e-11
5.08539e-11
1.79981e-11
4.65594e-11
1.55334e-11
4.39285e-11
1.21138e-11
4.09976e-11
7.45193e-12
3.45602e-11
7.89203e-12
3.39879e-11
1.03789e-11
3.38882e-11
1.94961e-11
3.37832e-11
1.90504e-11
1.51252e-11
-7.18742e-12
5.67067e-11
1.00105e-10
-1.39472e-09
-4.41355e-11
1.06707e-09
-1.9162e-10
-5.28915e-10
-5.68009e-10
-6.0268e-10
-4.46614e-10
-2.47346e-10
-1.38136e-10
-4.97539e-11
-3.14592e-11
7.00513e-12
2.25734e-12
3.04665e-11
1.68996e-11
4.18663e-11
2.66107e-11
4.8218e-11
2.51212e-11
4.75601e-11
2.82587e-11
5.18636e-11
2.74474e-11
5.09025e-11
2.76801e-11
5.28625e-11
2.87354e-11
5.39965e-11
2.65979e-11
5.26361e-11
2.62234e-11
5.43847e-11
2.79594e-11
5.53212e-11
2.34259e-11
5.13214e-11
2.20676e-11
5.1737e-11
2.15412e-11
5.08639e-11
1.82241e-11
4.65147e-11
1.52696e-11
4.31364e-11
1.1905e-11
4.12864e-11
7.71178e-12
3.47371e-11
7.7022e-12
3.47646e-11
9.61047e-12
3.54371e-11
1.73789e-11
3.79329e-11
1.36482e-11
2.4494e-11
-2.42418e-11
8.5249e-11
9.84408e-11
-1.47413e-09
1.21191e-10
1.11818e-09
-4.5049e-10
-5.69499e-10
-4.63106e-10
-5.65891e-10
-4.47013e-10
-2.48683e-10
-1.36246e-10
-4.8301e-11
-3.17779e-11
5.52998e-12
6.46586e-13
2.89777e-11
1.55806e-11
4.05707e-11
2.56452e-11
4.74686e-11
2.43937e-11
4.66279e-11
2.76142e-11
5.13366e-11
2.70473e-11
5.02896e-11
2.73323e-11
5.245e-11
2.85635e-11
5.37028e-11
2.64809e-11
5.22306e-11
2.6114e-11
5.40811e-11
2.80115e-11
5.52108e-11
2.34988e-11
5.09413e-11
2.20869e-11
5.15499e-11
2.16943e-11
5.08528e-11
1.85289e-11
4.65264e-11
1.49621e-11
4.20853e-11
1.16274e-11
4.16115e-11
7.97984e-12
3.49831e-11
7.34962e-12
3.57209e-11
8.52855e-12
3.73849e-11
1.46234e-11
4.28922e-11
7.20829e-12
3.51466e-11
-4.21203e-11
1.13844e-10
9.67578e-11
-1.56001e-09
3.08846e-10
1.18071e-09
-7.31127e-10
-6.25894e-10
-3.46938e-10
-5.1894e-10
-4.46777e-10
-2.51233e-10
-1.34506e-10
-4.67109e-11
-3.21128e-11
3.82539e-12
-1.18846e-12
2.72365e-11
1.40903e-11
3.90687e-11
2.45429e-11
4.65533e-11
2.35982e-11
4.55609e-11
2.68966e-11
5.06886e-11
2.66256e-11
4.95738e-11
2.69605e-11
5.19504e-11
2.84003e-11
5.33298e-11
2.63854e-11
5.17465e-11
2.6021e-11
5.37087e-11
2.80995e-11
5.50366e-11
2.36272e-11
5.04939e-11
2.21309e-11
5.13056e-11
2.18912e-11
5.08178e-11
1.89105e-11
4.66358e-11
1.45834e-11
4.07612e-11
1.12759e-11
4.1982e-11
8.23459e-12
3.53188e-11
6.82502e-12
3.68505e-11
7.15294e-12
3.96814e-11
1.13632e-11
4.8402e-11
2.24101e-13
4.6258e-11
-5.92482e-11
1.39895e-10
9.74948e-11
-1.64787e-09
5.04899e-10
1.25356e-09
-1.01623e-09
-6.98608e-10
-2.26334e-10
-4.62504e-10
-4.45208e-10
-2.55035e-10
-1.33109e-10
-4.50669e-11
-3.24586e-11
1.90684e-12
-3.23384e-12
2.52489e-11
1.24367e-11
3.73667e-11
2.33041e-11
4.54655e-11
2.27356e-11
4.43622e-11
2.61081e-11
4.9913e-11
2.61786e-11
4.87553e-11
2.65634e-11
5.13593e-11
2.82409e-11
5.28735e-11
2.63096e-11
5.11863e-11
2.59449e-11
5.32669e-11
2.82204e-11
5.4794e-11
2.3805e-11
4.99879e-11
2.21984e-11
5.10055e-11
2.2126e-11
5.07631e-11
1.93608e-11
4.68802e-11
1.41046e-11
3.91699e-11
1.08509e-11
4.23993e-11
8.46412e-12
3.57426e-11
6.14283e-12
3.81132e-11
5.5428e-12
4.22114e-11
7.79722e-12
5.41209e-11
-6.74602e-12
5.69517e-11
-7.42239e-11
1.61443e-10
1.02148e-10
-1.732e-09
6.95428e-10
1.33321e-09
-1.29114e-09
-7.85809e-10
-1.07736e-10
-3.97978e-10
-4.4159e-10
-2.59994e-10
-1.32259e-10
-4.34591e-11
-3.28133e-11
-2.01589e-13
-5.47011e-12
2.3026e-11
1.06308e-11
3.54716e-11
2.19365e-11
4.42023e-11
2.1807e-11
4.30389e-11
2.52533e-11
4.90054e-11
2.57026e-11
4.7837e-11
2.61405e-11
5.06745e-11
2.80831e-11
5.23318e-11
2.62496e-11
5.05541e-11
2.58833e-11
5.27565e-11
2.8368e-11
5.4484e-11
2.40253e-11
4.94292e-11
2.22841e-11
5.0649e-11
2.23894e-11
5.06883e-11
1.98608e-11
4.72947e-11
1.35231e-11
3.73231e-11
1.03704e-11
4.28562e-11
8.66172e-12
3.62376e-11
5.34332e-12
3.94611e-11
3.78735e-12
4.48238e-11
4.17087e-12
5.96814e-11
-1.313e-11
6.645e-11
-8.59663e-11
1.77287e-10
1.11245e-10
-1.80692e-09
8.68811e-10
1.41518e-09
-1.54335e-09
-8.84221e-10
3.02544e-12
-3.27261e-10
-4.35233e-10
-2.65855e-10
-1.32132e-10
-4.2005e-11
-3.31774e-11
-2.46913e-12
-7.87191e-12
2.05836e-11
8.68416e-12
3.33968e-11
2.04467e-11
4.27669e-11
2.08157e-11
4.16012e-11
2.43386e-11
4.79665e-11
2.51958e-11
4.68242e-11
2.5693e-11
4.98975e-11
2.79227e-11
5.17069e-11
2.6201e-11
4.98544e-11
2.58329e-11
5.21794e-11
2.85363e-11
5.41061e-11
2.42803e-11
4.88258e-11
2.23851e-11
5.02383e-11
2.26747e-11
5.05859e-11
2.03914e-11
4.78911e-11
1.28565e-11
3.52578e-11
9.85893e-12
4.33289e-11
8.83194e-12
3.67761e-11
4.47537e-12
4.07973e-11
2.01162e-12
4.73513e-11
7.41289e-13
6.47255e-11
-1.84563e-11
7.41644e-11
-9.38248e-11
1.87049e-10
1.24228e-10
-1.86804e-09
1.01685e-09
1.49446e-09
-1.76392e-09
-9.89699e-10
1.01366e-10
-2.52611e-10
-4.25571e-10
-2.72253e-10
-1.32865e-10
-4.08263e-11
-3.35588e-11
-4.86317e-12
-1.04106e-11
1.79403e-11
6.61434e-12
3.11581e-11
1.88483e-11
4.1166e-11
1.97658e-11
4.00611e-11
2.33704e-11
4.67991e-11
2.46571e-11
4.5724e-11
2.52231e-11
4.90307e-11
2.77563e-11
5.10019e-11
2.61592e-11
4.90929e-11
2.57917e-11
5.15397e-11
2.87192e-11
5.36615e-11
2.45616e-11
4.81858e-11
2.25007e-11
4.97742e-11
2.29768e-11
5.04438e-11
2.09317e-11
4.86433e-11
1.21697e-11
3.30618e-11
9.34852e-12
4.37818e-11
8.99124e-12
3.73217e-11
3.60147e-12
4.20403e-11
3.42806e-13
4.96287e-11
-2.24792e-12
6.89566e-11
-2.23761e-11
7.97369e-11
-9.75652e-11
1.91039e-10
1.39882e-10
-1.91197e-09
1.1349e-09
1.56582e-09
-1.94672e-09
-1.09737e-09
1.83988e-10
-1.76502e-10
-4.12248e-10
-2.78767e-10
-1.34554e-10
-4.0058e-11
-3.39763e-11
-7.35008e-12
-1.30571e-11
1.51162e-11
4.43413e-12
2.87714e-11
1.71533e-11
3.94084e-11
1.86611e-11
3.84292e-11
2.23558e-11
4.55101e-11
2.40852e-11
4.45439e-11
2.47327e-11
4.80785e-11
2.75808e-11
5.02208e-11
2.61209e-11
4.82763e-11
2.57581e-11
5.0842e-11
2.89111e-11
5.31533e-11
2.48628e-11
4.75149e-11
2.26305e-11
4.92577e-11
2.3292e-11
5.02436e-11
2.14534e-11
4.9448e-11
1.15851e-11
3.09149e-11
8.87847e-12
4.41654e-11
9.16003e-12
3.78306e-11
2.79563e-12
4.3105e-11
-1.10089e-12
5.15053e-11
-4.60566e-12
7.21563e-11
-2.46762e-11
8.30274e-11
-9.73056e-11
1.89941e-10
1.56808e-10
-1.93639e-09
1.22075e-09
1.62449e-09
-2.0885e-09
-1.20226e-09