/*--------------------------------*- C++ -*----------------------------------*\
| =========                 |                                                 |
| \\      /  F ield         | OpenFOAM: The Open Source CFD Toolbox           |
|  \\    /   O peration     | Version:  2312                                  |
|   \\  /    A nd           | Website:  www.openfoam.com                      |
|    \\/     M anipulation  |                                                 |
\*---------------------------------------------------------------------------*/
FoamFile
{
    version     2.0;
    format      ascii;
    arch        "LSB;label=32;scalar=64";
    class       volScalarField;
    location    "680";
    object      pPrime2Mean;
}
// * * * * * * * * * * * * * * * * * * * * * * * * * * * * * * * * * * * * * //

dimensions      [0 4 -4 0 0 0 0];

internalField   nonuniform List<scalar> 
144000
(
3.79372e-18
4.54955e-18
4.24759e-18
3.48213e-18
2.48553e-18
1.76577e-18
1.31551e-18
9.73644e-19
7.23664e-19
5.95252e-19
5.55956e-19
5.02596e-19
4.28876e-19
3.43387e-19
2.87276e-19
2.41417e-19
2.21726e-19
1.89701e-19
1.76559e-19
1.56507e-19
1.41348e-19
1.16508e-19
1.18088e-19
8.87664e-20
9.39855e-20
7.36368e-20
7.46786e-20
6.02889e-20
5.98493e-20
4.6795e-20
4.94697e-20
3.59614e-20
4.12586e-20
2.96759e-20
3.16373e-20
3.10921e-20
1.71809e-20
3.46993e-20
1.22501e-20
2.24401e-20
2.86659e-20
3.28572e-21
4.40469e-20
1.07468e-20
3.21126e-20
4.84908e-20
1.90668e-20
6.64127e-20
5.17857e-20
5.54395e-20
1.00057e-19
8.78201e-20
1.28389e-19
1.8519e-19
2.31099e-19
3.43471e-19
5.52134e-19
9.89256e-19
2.43927e-18
2.4974e-18
3.981e-18
4.65586e-18
4.36029e-18
3.56626e-18
2.52427e-18
1.78823e-18
1.33027e-18
9.83101e-19
7.28909e-19
5.98387e-19
5.58573e-19
5.0491e-19
4.30553e-19
3.44487e-19
2.88023e-19
2.42004e-19
2.22275e-19
1.90151e-19
1.76869e-19
1.56917e-19
1.41678e-19
1.1664e-19
1.18362e-19
8.8991e-20
9.40878e-20
7.38745e-20
7.47846e-20
6.04684e-20
5.99762e-20
4.69066e-20
4.96326e-20
3.60405e-20
4.14163e-20
2.98293e-20
3.16788e-20
3.14907e-20
1.70642e-20
3.51675e-20
1.24614e-20
2.24362e-20
2.95383e-20
3.04217e-21
4.49211e-20
1.13495e-20
3.22669e-20
5.02122e-20
1.94237e-20
6.80111e-20
5.3926e-20
5.68976e-20
1.03567e-19
9.15281e-20
1.33045e-19
1.92962e-19
2.41008e-19
3.5813e-19
5.76628e-19
1.02659e-18
2.54772e-18
2.56171e-18
4.11811e-18
4.73838e-18
4.40192e-18
3.59006e-18
2.53179e-18
1.79469e-18
1.33739e-18
9.8891e-19
7.32446e-19
6.00612e-19
5.60926e-19
5.07145e-19
4.32237e-19
3.45499e-19
2.88751e-19
2.42551e-19
2.22964e-19
1.90615e-19
1.77237e-19
1.57401e-19
1.42113e-19
1.16716e-19
1.18819e-19
8.91658e-20
9.43412e-20
7.41143e-20
7.50068e-20
6.06715e-20
6.02237e-20
4.7024e-20
4.99501e-20
3.61193e-20
4.17287e-20
3.00463e-20
3.18043e-20
3.21209e-20
1.6918e-20
3.59733e-20
1.27766e-20
2.25696e-20
3.08956e-20
2.76537e-21
4.64042e-20
1.22749e-20
3.27662e-20
5.28433e-20
2.01939e-20
7.06356e-20
5.72833e-20
5.93955e-20
1.09004e-19
9.72466e-20
1.40051e-19
2.03993e-19
2.54439e-19
3.75936e-19
6.03384e-19
1.06641e-18
2.65536e-18
2.62558e-18
4.09609e-18
4.67946e-18
4.31781e-18
3.49992e-18
2.48489e-18
1.76939e-18
1.32555e-18
9.83463e-19
7.29241e-19
5.98623e-19
5.6033e-19
5.07233e-19
4.32344e-19
3.45449e-19
2.88708e-19
2.42536e-19
2.23257e-19
1.90744e-19
1.7729e-19
1.57692e-19
1.42407e-19
1.16629e-19
1.19182e-19
8.92709e-20
9.453e-20
7.43371e-20
7.52141e-20
6.08753e-20
6.04667e-20
4.71463e-20
5.02957e-20
3.61966e-20
4.20908e-20
3.02933e-20
3.1942e-20
3.28698e-20
1.67427e-20
3.69417e-20
1.31639e-20
2.27433e-20
3.25112e-20
2.48326e-21
4.81355e-20
1.34359e-20
3.33512e-20
5.5925e-20
2.11737e-20
7.36262e-20
6.12261e-20
6.2242e-20
1.15028e-19
1.03644e-19
1.47316e-19
2.15302e-19
2.67177e-19
3.90638e-19
6.2212e-19
1.07603e-18
2.71941e-18
2.60686e-18
3.92554e-18
4.53857e-18
4.12682e-18
3.29921e-18
2.38729e-18
1.7116e-18
1.29251e-18
9.64274e-19
7.17127e-19
5.90386e-19
5.54774e-19
5.03378e-19
4.29612e-19
3.43485e-19
2.87282e-19
2.41479e-19
2.2269e-19
1.90188e-19
1.76729e-19
1.57474e-19
1.42312e-19
1.16249e-19
1.19233e-19
8.91991e-20
9.45494e-20
7.44357e-20
7.5323e-20
6.10078e-20
6.06321e-20
4.72224e-20
5.05984e-20
3.62419e-20
4.24281e-20
3.05244e-20
3.20409e-20
3.36258e-20
1.65452e-20
3.78963e-20
1.3578e-20
2.28919e-20
3.41363e-20
2.23213e-21
4.97788e-20
1.46842e-20
3.38568e-20
5.89448e-20
2.21994e-20
7.63535e-20
6.50911e-20
6.48687e-20
1.20467e-19
1.09552e-19
1.53284e-19
2.24453e-19
2.76713e-19
3.99055e-19
6.31754e-19
1.05523e-18
2.75796e-18
2.5378e-18
3.71398e-18
4.47195e-18
3.89344e-18
3.037e-18
2.2592e-18
1.63318e-18
1.24261e-18
9.33109e-19
6.96869e-19
5.7601e-19
5.4393e-19
4.95126e-19
4.23582e-19
3.39221e-19
2.84198e-19
2.39149e-19
2.21043e-19
1.88763e-19
1.75393e-19
1.56556e-19
1.41658e-19
1.15477e-19
1.18842e-19
8.8844e-20
9.4328e-20
7.43304e-20
7.52769e-20
6.10173e-20
6.06668e-20
4.72154e-20
5.08007e-20
3.62229e-20
4.26804e-20
3.0701e-20
3.20615e-20
3.43023e-20
1.63261e-20
3.87405e-20
1.39692e-20
2.2992e-20
3.55938e-20
2.02903e-21
5.11504e-20
1.58678e-20
3.42258e-20
6.15122e-20
2.315e-20
7.85321e-20
6.83745e-20
6.70546e-20
1.24683e-19
1.14376e-19
1.57562e-19
2.3092e-19
2.82713e-19
4.02392e-19
6.34447e-19
1.01468e-18
2.81438e-18
2.49316e-18
3.51125e-18
4.57459e-18
3.65584e-18
2.75117e-18
2.11053e-18
1.54e-18
1.17954e-18
8.9231e-19
6.6986e-19
5.56457e-19
5.28395e-19
4.8278e-19
4.14391e-19
3.32728e-19
2.79493e-19
2.35578e-19
2.18311e-19
1.86449e-19
1.73285e-19
1.549e-19
1.40406e-19
1.14281e-19
1.17955e-19
8.81422e-20
9.38186e-20
7.39888e-20
7.50204e-20
6.08812e-20
6.05365e-20
4.71042e-20
5.08662e-20
3.61262e-20
4.28088e-20
3.0803e-20
3.19841e-20
3.48503e-20
1.60868e-20
3.94096e-20
1.43024e-20
2.30492e-20
3.68004e-20
1.87159e-21
5.22108e-20
1.68848e-20
3.44798e-20
6.35215e-20
2.3937e-20
8.01626e-20
7.08876e-20
6.87926e-20
1.27679e-19
1.17955e-19
1.60313e-19
2.34838e-19
2.85463e-19
4.02068e-19
6.31417e-19
9.6197e-19
2.90398e-18
2.52791e-18
3.33486e-18
4.87253e-18
3.43035e-18
2.4683e-18
1.94536e-18
1.43535e-18
1.10604e-18
8.43742e-19
6.37512e-19
5.32791e-19
5.09039e-19
4.67074e-19
4.02542e-19
3.24287e-19
2.73353e-19
2.30891e-19
2.14603e-19
1.83353e-19
1.70504e-19
1.52583e-19
1.38611e-19
1.12684e-19
1.16602e-19
8.71014e-20
9.30042e-20
7.3418e-20
7.45368e-20
6.06011e-20
6.02341e-20
4.68889e-20
5.07843e-20
3.59559e-20
4.2799e-20
3.08328e-20
3.18044e-20
3.52597e-20
1.58326e-20
3.99075e-20
1.45765e-20
2.30645e-20
3.77852e-20
1.74142e-21
5.30008e-20
1.77299e-20
3.46458e-20
6.50518e-20
2.45251e-20
8.14264e-20
7.26902e-20
7.01412e-20
1.2974e-19
1.20424e-19
1.61805e-19
2.36714e-19
2.8529e-19
3.99176e-19
6.22862e-19
9.02798e-19
3.02226e-18
2.65244e-18
3.19006e-18
5.31563e-18
3.22541e-18
2.20893e-18
1.76896e-18
1.32286e-18
1.0252e-18
7.89671e-19
6.01523e-19
5.06225e-19
4.86961e-19
4.48868e-19
3.88681e-19
3.14337e-19
2.66054e-19
2.25284e-19
2.10078e-19
1.79611e-19
1.67184e-19
1.4974e-19
1.36384e-19
1.10758e-19
1.14863e-19
8.57756e-20
9.18902e-20
7.26484e-20
7.38288e-20
6.01914e-20
5.97693e-20
4.65865e-20
5.05662e-20
3.57279e-20
4.26575e-20
3.08084e-20
3.15264e-20
3.55536e-20
1.55702e-20
4.02492e-20
1.48248e-20
2.3023e-20
3.86317e-20
1.60906e-21
5.35987e-20
1.8465e-20
3.46851e-20
6.62891e-20
2.48672e-20
8.23893e-20
7.39349e-20
7.10219e-20
1.31045e-19
1.21773e-19
1.61975e-19
2.36736e-19
2.82169e-19
3.93564e-19
6.07967e-19
8.41311e-19
3.14829e-18
2.82797e-18
3.07235e-18
5.80207e-18
3.04748e-18
1.98147e-18
1.58934e-18
1.20646e-18
9.40598e-19
7.32531e-19
5.63543e-19
4.78029e-19
4.63171e-19
4.29025e-19
3.73499e-19
3.03362e-19
2.57942e-19
2.19008e-19
2.04931e-19
1.75369e-19
1.63456e-19
1.46511e-19
1.33869e-19
1.08591e-19
1.12844e-19
8.4254e-20
9.05039e-20
7.17337e-20
7.29154e-20
5.96709e-20
5.91588e-20
4.62197e-20
5.02289e-20
3.54606e-20
4.23959e-20
3.07544e-20
3.1151e-20
3.5754e-20
1.53056e-20
4.043e-20
1.50974e-20
2.28735e-20
3.94267e-20
1.44673e-21
5.39854e-20
1.91766e-20
3.44705e-20
6.73279e-20
2.49013e-20
8.29229e-20
7.46869e-20
7.1162e-20
1.3144e-19
1.21866e-19
1.60404e-19
2.34563e-19
2.754e-19
3.84064e-19
5.83809e-19
7.77962e-19
3.25083e-18
2.97661e-18
2.96508e-18
6.18731e-18
2.89868e-18
1.78159e-18
1.41524e-18
1.0904e-18
8.55829e-19
6.74674e-19
5.25206e-19
4.4938e-19
4.38644e-19
4.08373e-19
3.57618e-19
2.91827e-19
2.49369e-19
2.12331e-19
1.99367e-19
1.70797e-19
1.59427e-19
1.4301e-19
1.31193e-19
1.06273e-19
1.10637e-19
8.26391e-20
8.88923e-20
7.07167e-20
7.18293e-20
5.90513e-20
5.84253e-20
4.58083e-20
4.97859e-20
3.51709e-20
4.20222e-20
3.06876e-20
3.06783e-20
3.58744e-20
1.5044e-20
4.04223e-20
1.5437e-20
2.25525e-20
4.0203e-20
1.23807e-21
5.40718e-20
1.99121e-20
3.38619e-20
6.81059e-20
2.45631e-20
8.27713e-20
7.48733e-20
7.02813e-20
1.30641e-19
1.20416e-19
1.5654e-19
2.29699e-19
2.64516e-19
3.6956e-19
5.49665e-19
7.12318e-19
3.29041e-18
3.02645e-18
2.84892e-18
6.3659e-18
2.7749e-18
1.60113e-18
1.25359e-18
9.78288e-19
7.73896e-19
6.18023e-19
4.8777e-19
4.21241e-19
4.14187e-19
3.87579e-19
3.41553e-19
2.80123e-19
2.40625e-19
2.05483e-19
1.93579e-19
1.66037e-19
1.55204e-19
1.39334e-19
1.28439e-19
1.03887e-19
1.08311e-19
8.10204e-20
8.71132e-20
6.96422e-20
7.06087e-20
5.83441e-20
5.75872e-20
4.53649e-20
4.92435e-20
3.48721e-20
4.15484e-20
3.0616e-20
3.01056e-20
3.59099e-20
1.4793e-20
4.01844e-20
1.58516e-20
2.20117e-20
4.09399e-20
9.85168e-22
5.37685e-20
2.06625e-20
3.27477e-20
6.85182e-20
2.38294e-20
8.17522e-20
7.44267e-20
6.82557e-20
1.28462e-19
1.1734e-19
1.50311e-19
2.22045e-19
2.49677e-19
3.49839e-19
5.06953e-19
6.44956e-19
3.24204e-18
2.93587e-18
2.70406e-18
6.28167e-18
2.66425e-18
1.43081e-18
1.10843e-18
8.72745e-19
6.97148e-19
5.63986e-19
4.52103e-19
3.94315e-19
3.90433e-19
3.67182e-19
3.25728e-19
2.68533e-19
2.31936e-19
1.98657e-19
1.87737e-19
1.61225e-19
1.50896e-19
1.35568e-19
1.25664e-19
1.01498e-19
1.0592e-19
7.94625e-20
8.52355e-20
6.85475e-20
6.93034e-20
5.75644e-20
5.66654e-20
4.48952e-20
4.86057e-20
3.45748e-20
4.09802e-20
3.05384e-20
2.94454e-20
3.58456e-20
1.45605e-20
3.96913e-20
1.63261e-20
2.12641e-20
4.16439e-20
7.06807e-22
5.30549e-20
2.13966e-20
3.11538e-20
6.84908e-20
2.27414e-20
7.98301e-20
7.335e-20
6.51253e-20
1.2496e-19
1.12822e-19
1.41991e-19
2.11997e-19
2.3177e-19
3.25885e-19
4.58707e-19
5.77092e-19
3.09658e-18
2.70347e-18
2.51927e-18
5.93915e-18
2.55333e-18
1.2651e-18
9.81112e-19
7.75467e-19
6.26913e-19
5.13506e-19
4.18723e-19
3.69059e-19
3.67818e-19
3.47586e-19
3.10433e-19
2.57297e-19
2.23474e-19
1.92006e-19
1.81972e-19
1.56488e-19
1.46604e-19
1.31786e-19
1.22899e-19
9.91581e-20
1.035e-19
7.80016e-20
8.33144e-20
6.74626e-20
6.79566e-20
5.67328e-20
5.56817e-20
4.44061e-20
4.78801e-20
3.42867e-20
4.03294e-20
3.04512e-20
2.87202e-20
3.56754e-20
1.43547e-20
3.89571e-20
1.68346e-20
2.03454e-20
4.23728e-20
4.33489e-22
5.20334e-20
2.20973e-20
2.91694e-20
6.80198e-20
2.13999e-20
7.71168e-20
7.17699e-20
6.11323e-20
1.204e-19
1.0725e-19
1.32184e-19
2.00265e-19
2.12094e-19
2.99328e-19
4.09019e-19
5.10665e-19
2.86549e-18
2.36501e-18
2.29167e-18
5.39075e-18
2.42923e-18
1.10347e-18
8.70711e-19
6.8736e-19
5.63729e-19
4.67129e-19
3.87872e-19
3.45701e-19
3.46625e-19
3.29033e-19
2.95856e-19
2.46565e-19
2.15334e-19
1.85624e-19
1.76382e-19
1.51904e-19
1.42407e-19
1.28059e-19
1.20171e-19
9.6905e-20
1.01081e-19
7.66506e-20
8.13945e-20
6.6409e-20
6.66028e-20
5.58745e-20
5.46609e-20
4.39077e-20
4.70815e-20
3.40146e-20
3.96144e-20
3.03526e-20
2.79612e-20
3.54061e-20
1.41869e-20
3.80181e-20
1.73634e-20
1.9287e-20
4.33123e-20
2.03949e-22
5.09673e-20
2.27756e-20
2.69132e-20
6.71698e-20
1.9935e-20
7.37735e-20
6.98628e-20
5.65803e-20
1.15118e-19
1.01087e-19
1.21566e-19
1.87655e-19
1.91998e-19
2.71916e-19
3.61276e-19
4.47439e-19
2.5711e-18
1.97215e-18
2.02882e-18
4.71551e-18
2.2834e-18
9.49383e-19
7.74976e-19
6.08741e-19
5.07594e-19
4.25072e-19
3.59572e-19
3.24293e-19
3.26961e-19
3.11659e-19
2.82111e-19
2.36402e-19
2.0757e-19
1.79567e-19
1.71027e-19
1.47525e-19
1.38358e-19
1.24444e-19
1.17497e-19
9.47648e-20
9.86877e-20
7.54082e-20
7.95076e-20
6.53998e-20
6.52708e-20
5.50161e-20
5.36257e-20
4.34113e-20
4.62305e-20
3.37613e-20
3.88594e-20
3.02426e-20
2.72005e-20
3.50524e-20
1.40682e-20
3.69258e-20
1.78997e-20
1.81235e-20
4.47665e-20
5.58073e-23
5.03006e-20
2.34533e-20
2.45079e-20
6.6034e-20
1.84707e-20
7.0015e-20
6.78074e-20
5.17631e-20
1.0945e-19
9.47551e-20
1.10744e-19
1.74866e-19
1.72599e-19
2.45122e-19
3.17756e-19
3.88556e-19
2.24371e-18
1.57983e-18
1.74476e-18
3.99214e-18
2.11103e-18
8.07497e-19
6.91118e-19
5.39435e-19
4.58096e-19
3.87288e-19
3.33709e-19
3.04758e-19
3.08834e-19
2.9551e-19
2.69233e-19
2.26836e-19
2.00206e-19
1.73862e-19
1.65938e-19
1.43376e-19
1.34491e-19
1.20984e-19
1.14892e-19
9.27535e-20
9.63385e-20
7.42665e-20
7.7673e-20
6.4442e-20
6.39814e-20
5.41782e-20
5.25964e-20
4.2928e-20
4.53501e-20
3.35286e-20
3.80866e-20
3.01258e-20
2.64591e-20
3.46411e-20
1.39877e-20
3.57596e-20
1.83748e-20
1.6987e-20
4.55065e-20
7.54827e-28
4.92427e-20
2.40112e-20
2.20789e-20
6.46936e-20
1.71047e-20
6.60233e-20
6.57454e-20
4.69214e-20
1.03671e-19
8.8577e-20
1.00176e-19
1.62454e-19
1.54599e-19
2.19901e-19
2.79591e-19
3.34709e-19
1.91121e-18
1.22728e-18
1.4601e-18
3.28871e-18
1.91393e-18
6.82132e-19
6.16595e-19
4.78961e-19
4.1462e-19
3.53582e-19
3.10112e-19
2.86956e-19
2.9219e-19
2.80575e-19
2.57221e-19
2.17866e-19
1.93243e-19
1.68511e-19
1.61126e-19
1.39467e-19
1.30821e-19
1.17708e-19
1.12367e-19
9.0879e-20
9.40579e-20
7.32155e-20
7.59082e-20
6.3538e-20
6.27464e-20
5.33758e-20
5.15891e-20
4.24671e-20
4.44618e-20
3.33177e-20
3.73153e-20
3.00087e-20
2.57496e-20
3.4201e-20
1.39299e-20
3.45891e-20
1.87269e-20
1.59846e-20
4.38215e-20
5.09343e-23
4.63266e-20
2.4354e-20
1.97235e-20
6.32244e-20
1.59049e-20
6.19393e-20
6.37734e-20
4.22321e-20
9.79649e-20
8.27692e-20
9.01672e-20
1.50746e-19
1.38426e-19
1.96771e-19
2.46899e-19
2.86434e-19
1.59806e-18
9.38997e-19
1.19578e-18
2.65355e-18
1.69883e-18
5.7609e-19
5.49479e-19
4.26615e-19
3.76511e-19
3.23692e-19
2.88596e-19
2.70717e-19
2.76932e-19
2.66803e-19
2.46044e-19
2.09476e-19
1.86668e-19
1.63503e-19
1.56588e-19
1.35792e-19
1.2735e-19
1.14629e-19
1.09926e-19
8.91411e-20
9.18572e-20
7.22455e-20
7.42187e-20
6.26871e-20
6.15722e-20
5.26182e-20
5.06162e-20
4.20342e-20
4.35846e-20
3.31274e-20
3.65631e-20
2.98942e-20
2.50868e-20
3.37465e-20
1.39081e-20
3.34292e-20
1.90165e-20
1.50622e-20
4.16418e-20
2.04934e-22
4.31383e-20
2.46477e-20
1.74852e-20
6.16841e-20
1.49095e-20
5.78696e-20
6.19474e-20
3.7813e-20
9.24615e-20
7.74528e-20
8.08923e-20
1.39904e-19
1.24212e-19
1.7589e-19
2.19286e-19
2.4405e-19
1.32114e-18
7.24458e-19
9.70595e-19
2.11332e-18
1.47603e-18
4.89643e-19
4.88572e-19
3.8158e-19
3.4312e-19
2.97301e-19
2.68977e-19
2.55863e-19
2.62941e-19
2.54122e-19
2.35655e-19
2.01629e-19
1.80457e-19
1.58819e-19
1.52317e-19
1.32341e-19
1.24071e-19
1.11751e-19
1.07575e-19
8.75348e-20
8.97461e-20
7.13471e-20
7.26072e-20
6.18878e-20
6.04616e-20
5.191e-20
4.96866e-20
4.16324e-20
4.27323e-20
3.29564e-20
3.58426e-20
2.97849e-20
2.44793e-20
3.32892e-20
1.39329e-20
3.22893e-20
1.93055e-20
1.41748e-20
4.01289e-20
5.02833e-22
4.06339e-20
2.50029e-20
1.53962e-20
6.01082e-20
1.41401e-20
5.3888e-20
6.02937e-20
3.37347e-20
8.72101e-20
7.26805e-20
7.24198e-20
1.29971e-19
1.11893e-19
1.57134e-19
1.96048e-19
2.0768e-19
1.08992e-18
5.80317e-19
7.97034e-19
1.6747e-18
1.25594e-18
4.20953e-19
4.33261e-19
3.42944e-19
3.13872e-19
2.74061e-19
2.51089e-19
2.42222e-19
2.50091e-19
2.42449e-19
2.25998e-19
1.94282e-19
1.74582e-19
1.54439e-19
1.48301e-19
1.29098e-19
1.20973e-19
1.09068e-19
1.05313e-19
8.6051e-20
8.77304e-20
7.05124e-20
7.10741e-20
6.11377e-20
5.9415e-20
5.12535e-20
4.88056e-20
4.12628e-20
4.19139e-20
3.28041e-20
3.51617e-20
2.96842e-20
2.39273e-20
3.28422e-20
1.39953e-20
3.11956e-20
1.95905e-20
1.33548e-20
3.90182e-20
9.04369e-22
3.84856e-20
2.54035e-20
1.34937e-20
5.85213e-20
1.35942e-20
5.00449e-20
5.88131e-20
3.00323e-20
8.22454e-20
6.8459e-20
6.47514e-20
1.20916e-19
1.0128e-19
1.40317e-19
1.76408e-19
1.77266e-19
9.05965e-19
4.94801e-19
6.82589e-19
1.33141e-18
1.04864e-18
3.66565e-19
3.83326e-19
3.09832e-19
2.8826e-19
2.53635e-19
2.34786e-19
2.29641e-19
2.38258e-19
2.317e-19
2.17017e-19
1.87393e-19
1.69018e-19
1.50338e-19
1.44522e-19
1.26048e-19
1.18045e-19
1.06573e-19
1.03141e-19
8.46801e-20
8.58129e-20
6.97338e-20
6.9618e-20
6.04334e-20
5.8431e-20
5.06476e-20
4.79765e-20
4.09248e-20
4.11348e-20
3.2669e-20
3.45256e-20
2.95933e-20
2.34312e-20
3.24118e-20
1.40909e-20
3.01599e-20
1.98639e-20
1.26316e-20
3.8107e-20
1.36647e-21
3.65278e-20
2.58289e-20
1.1791e-20
5.69411e-20
1.32593e-20
4.63725e-20
5.74933e-20
2.67185e-20
7.75716e-20
6.47569e-20
5.78484e-20
1.12671e-19
9.21574e-20
1.25167e-19
1.59706e-19
1.5251e-19
7.66132e-19
4.52111e-19
6.29346e-19
1.06797e-18
8.63114e-19
3.22353e-19
3.38746e-19
2.81408e-19
2.65851e-19
2.35701e-19
2.19943e-19
2.17992e-19
2.2733e-19
2.21795e-19
2.08658e-19
1.8092e-19
1.63738e-19
1.46494e-19
1.40967e-19
1.23175e-19
1.15273e-19
1.04252e-19
1.01055e-19
8.34114e-20
8.39939e-20
6.90048e-20
6.82366e-20
5.97711e-20
5.75075e-20
5.00906e-20
4.72013e-20
4.06169e-20
4.03983e-20
3.25495e-20
3.39372e-20
2.95116e-20
2.29916e-20
3.2e-20
1.42196e-20
2.91822e-20
2.01291e-20
1.20099e-20
3.72944e-20
1.87564e-21
3.4708e-20
2.62803e-20
1.02851e-20
5.53782e-20
1.3118e-20
4.28913e-20
5.6314e-20
2.37898e-20
7.31752e-20
6.1532e-20
5.16501e-20
1.05156e-19
8.43138e-20
1.11453e-19
1.4534e-19
1.32935e-19
6.63948e-19
4.35595e-19
6.35023e-19
8.65801e-19
7.06275e-19
2.84408e-19
2.99541e-19
2.56969e-19
2.46289e-19
2.19968e-19
2.06455e-19
2.07167e-19
2.17205e-19
2.12655e-19
2.0087e-19
1.74824e-19
1.58716e-19
1.42882e-19
1.37618e-19
1.20464e-19
1.12645e-19
1.02093e-19
9.90542e-20
8.22343e-20
8.22722e-20
6.83191e-20
6.69267e-20
5.91468e-20
5.66419e-20
4.95799e-20
4.64806e-20
4.03373e-20
3.97055e-20
3.24438e-20
3.33977e-20
2.94386e-20
2.26076e-20
3.16086e-20
1.43794e-20
2.82638e-20
2.03903e-20
1.14837e-20
3.65258e-20
2.4276e-21
3.30054e-20
2.67539e-20
8.97095e-21
5.38391e-20
1.31484e-20
3.96168e-20
5.52512e-20
2.12342e-20
6.90397e-20
5.87344e-20
4.60965e-20
9.82857e-20
7.756e-20
9.89626e-20
1.32859e-19
1.18108e-19
5.91473e-19
4.29253e-19
6.93274e-19
7.05088e-19
5.82088e-19
2.49596e-19
2.65541e-19
2.3593e-19
2.29278e-19
2.06185e-19
1.94225e-19
1.97081e-19
2.07791e-19
2.0421e-19
1.93604e-19
1.69068e-19
1.5393e-19
1.39483e-19
1.34458e-19
1.17901e-19
1.1015e-19
1.00082e-19
9.7134e-20
8.11396e-20
8.06447e-20
6.76724e-20
6.56839e-20
5.85576e-20
5.58308e-20
4.91134e-20
4.58144e-20
4.00843e-20
3.90558e-20
3.23506e-20
3.2907e-20
2.9374e-20
2.22779e-20
3.12392e-20
1.45665e-20
2.74071e-20
2.06475e-20
1.10474e-20
3.57904e-20
3.01762e-21
3.14121e-20
2.72406e-20
7.84228e-21
5.2335e-20
1.33279e-20
3.65611e-20
5.42881e-20
1.90338e-20
6.51578e-20
5.63174e-20
4.1137e-20
9.20003e-20
7.17545e-20
8.75332e-20
1.21906e-19
1.07644e-19
5.39872e-19
4.19375e-19
3.8008e-18
4.5657e-18
4.26367e-18
3.49141e-18
2.49125e-18
1.76878e-18
1.31796e-18
9.7585e-19
7.25433e-19
5.96409e-19
5.56605e-19
5.02926e-19
4.28995e-19
3.43387e-19
2.87192e-19
2.41325e-19
2.21631e-19
1.89668e-19
1.76553e-19
1.56512e-19
1.41366e-19
1.16528e-19
1.18126e-19
8.87766e-20
9.40184e-20
7.36395e-20
7.47088e-20
6.02966e-20
5.9887e-20
4.67883e-20
4.94984e-20
3.59463e-20
4.12696e-20
2.96608e-20
3.16418e-20
3.10834e-20
1.71891e-20
3.46961e-20
1.22645e-20
2.24385e-20
2.86947e-20
3.27881e-21
4.4055e-20
1.07292e-20
3.21408e-20
4.85481e-20
1.90546e-20
6.64947e-20
5.17902e-20
5.55266e-20
1.0009e-19
8.79114e-20
1.28316e-19
1.85233e-19
2.30874e-19
3.43206e-19
5.51589e-19
9.87753e-19
2.45031e-18
2.50461e-18
3.98785e-18
4.67296e-18
4.37647e-18
3.57612e-18
2.52996e-18
1.79124e-18
1.33274e-18
9.85295e-19
7.30679e-19
5.9954e-19
5.59215e-19
5.05234e-19
4.30667e-19
3.44482e-19
2.87934e-19
2.41906e-19
2.22178e-19
1.90115e-19
1.76863e-19
1.5692e-19
1.41696e-19
1.1666e-19
1.18401e-19
8.90003e-20
9.41203e-20
7.38767e-20
7.48149e-20
6.04767e-20
6.00142e-20
4.69003e-20
4.96613e-20
3.60259e-20
4.14268e-20
2.98151e-20
3.16827e-20
3.1483e-20
1.70717e-20
3.51648e-20
1.24753e-20
2.24347e-20
2.95688e-20
3.0352e-21
4.49309e-20
1.13311e-20
3.2296e-20
5.02722e-20
1.94121e-20
6.80947e-20
5.39327e-20
5.69846e-20
1.03603e-19
9.16185e-20
1.32965e-19
1.92996e-19
2.4077e-19
3.57849e-19
5.75963e-19
1.02506e-18
2.55892e-18
2.56892e-18
4.12702e-18
4.75611e-18
4.4179e-18
3.60001e-18
2.53728e-18
1.79745e-18
1.33972e-18
9.9108e-19
7.34192e-19
6.01756e-19
5.61561e-19
5.07457e-19
4.32343e-19
3.45487e-19
2.88655e-19
2.42446e-19
2.22862e-19
1.90576e-19
1.7723e-19
1.57403e-19
1.4213e-19
1.16735e-19
1.18858e-19
8.9174e-20
9.43731e-20
7.41159e-20
7.50376e-20
6.06808e-20
6.02632e-20
4.70184e-20
4.99794e-20
3.61054e-20
4.17388e-20
3.00335e-20
3.18079e-20
3.21145e-20
1.6925e-20
3.59723e-20
1.27906e-20
2.25678e-20
3.09287e-20
2.75818e-21
4.64184e-20
1.2254e-20
3.27981e-20
5.29085e-20
2.01841e-20
7.07218e-20
5.72939e-20
5.9486e-20
1.09047e-19
9.73448e-20
1.39981e-19
2.04056e-19
2.54216e-19
3.75677e-19
6.02699e-19
1.06548e-18
2.66634e-18
2.63368e-18
4.10557e-18
4.69804e-18
4.3324e-18
3.50923e-18
2.48993e-18
1.77164e-18
1.32773e-18
9.85529e-19
7.30959e-19
5.9974e-19
5.60947e-19
5.07529e-19
4.32435e-19
3.45425e-19
2.88602e-19
2.42421e-19
2.23146e-19
1.90701e-19
1.77281e-19
1.57691e-19
1.42422e-19
1.16648e-19
1.19221e-19
8.92784e-20
9.45609e-20
7.4338e-20
7.52441e-20
6.08862e-20
6.05069e-20
4.71421e-20
5.03253e-20
3.61839e-20
4.21e-20
3.0282e-20
3.19441e-20
3.28653e-20
1.67485e-20
3.69406e-20
1.31779e-20
2.27414e-20
3.2552e-20
2.4763e-21
4.81545e-20
1.34083e-20
3.33885e-20
5.59964e-20
2.11665e-20
7.37198e-20
6.12443e-20
6.23391e-20
1.15088e-19
1.03762e-19
1.47265e-19
2.15401e-19
2.67023e-19
3.90498e-19
6.21616e-19
1.07608e-18
2.73143e-18
2.6157e-18
3.9326e-18
4.55545e-18
4.13905e-18
3.30718e-18
2.39154e-18
1.71374e-18
1.29439e-18
9.66202e-19
7.18767e-19
5.91471e-19
5.55359e-19
5.03659e-19
4.29682e-19
3.43443e-19
2.87165e-19
2.4135e-19
2.22568e-19
1.90137e-19
1.76715e-19
1.57469e-19
1.42324e-19
1.16268e-19
1.19271e-19
8.92064e-20
9.45783e-20
7.4436e-20
7.53506e-20
6.10208e-20
6.06727e-20
4.72208e-20
5.06272e-20
3.62315e-20
4.24351e-20
3.05156e-20
3.20416e-20
3.36234e-20
1.65485e-20
3.78974e-20
1.35918e-20
2.2889e-20
3.41834e-20
2.22622e-21
4.98041e-20
1.46439e-20
3.39013e-20
5.90247e-20
2.21967e-20
7.64539e-20
6.51178e-20
6.49791e-20
1.2055e-19
1.09696e-19
1.53278e-19
2.24616e-19
2.7665e-19
3.9909e-19
6.31542e-19
1.05537e-18
2.77116e-18
2.5464e-18
3.72191e-18
4.48498e-18
3.90343e-18
3.04355e-18
2.26252e-18
1.63495e-18
1.24427e-18
9.34901e-19
6.98492e-19
5.77087e-19
5.4449e-19
4.95376e-19
4.23633e-19
3.39165e-19
2.84069e-19
2.39007e-19
2.20908e-19
1.88704e-19
1.75374e-19
1.56548e-19
1.41665e-19
1.15496e-19
1.18878e-19
8.88518e-20
9.4354e-20
7.43309e-20
7.53003e-20
6.10332e-20
6.0707e-20
4.72174e-20
5.08283e-20
3.62153e-20
4.26834e-20
3.06957e-20
3.20583e-20
3.43037e-20
1.63267e-20
3.87435e-20
1.3982e-20
2.29879e-20
3.565e-20
2.02533e-21
5.11832e-20
1.58075e-20
3.42784e-20
6.16002e-20
2.31531e-20
7.86383e-20
6.84108e-20
6.71789e-20
1.24784e-19
1.14548e-19
1.57591e-19
2.31146e-19
2.82718e-19
4.02598e-19
6.3444e-19
1.01524e-18
2.82804e-18
2.50025e-18
3.51883e-18
4.5828e-18
3.6637e-18
2.75648e-18
2.11328e-18
1.54142e-18
1.18102e-18
8.94049e-19
6.7146e-19
5.57509e-19
5.28923e-19
4.82998e-19
4.14425e-19
3.32659e-19
2.79354e-19
2.35424e-19
2.18163e-19
1.86382e-19
1.73259e-19
1.54887e-19
1.40406e-19
1.14298e-19
1.17989e-19
8.81515e-20
9.38405e-20
7.399e-20
7.50382e-20
6.09002e-20
6.05745e-20
4.71109e-20
5.08905e-20
3.61228e-20
4.2807e-20
3.08023e-20
3.19756e-20
3.48569e-20
1.60827e-20
3.9414e-20
1.43126e-20
2.30412e-20
3.68659e-20
1.87135e-21
5.22517e-20
1.67959e-20
3.45413e-20
6.36173e-20
2.3946e-20
8.02722e-20
7.09331e-20
6.89288e-20
1.27796e-19
1.18152e-19
1.60368e-19
2.35126e-19
2.85505e-19
4.02421e-19
6.31531e-19
9.62743e-19
2.91739e-18
2.53303e-18
3.34185e-18
4.87619e-18
3.43616e-18
2.4726e-18
1.94765e-18
1.43643e-18
1.10734e-18
8.45441e-19
6.39097e-19
5.33821e-19
5.09557e-19
4.67269e-19
4.0256e-19
3.24208e-19
2.73204e-19
2.30729e-19
2.14442e-19
1.83277e-19
1.70472e-19
1.52566e-19
1.38603e-19
1.12702e-19
1.16633e-19
8.71132e-20
9.30209e-20
7.34205e-20
7.45476e-20
6.06237e-20
6.02683e-20
4.69014e-20
5.08036e-20
3.59579e-20
4.279e-20
3.0838e-20
3.17889e-20
3.52713e-20
1.58211e-20
3.99156e-20
1.4581e-20
2.30516e-20
3.78553e-20
1.7457e-21
5.30654e-20
1.76011e-20
3.47146e-20
6.51506e-20
2.45395e-20
8.15386e-20
7.27431e-20
7.02877e-20
1.29869e-19
1.20644e-19
1.61878e-19
2.37045e-19
2.85349e-19
3.99641e-19
6.2298e-19
9.03632e-19
3.03483e-18
2.65559e-18
3.19642e-18
5.31581e-18
3.22936e-18
2.21235e-18
1.77084e-18
1.32365e-18
1.02634e-18
7.91314e-19
6.03075e-19
5.07234e-19
4.87461e-19
4.49044e-19
3.88687e-19
3.1425e-19
2.65896e-19
2.25117e-19
2.09906e-19
1.79529e-19
1.67146e-19
1.49721e-19
1.36368e-19
1.10776e-19
1.1489e-19
8.57909e-20
9.19015e-20
7.2653e-20
7.38316e-20
6.02182e-20
5.97985e-20
4.66057e-20
5.05796e-20
3.57364e-20
4.26398e-20
3.08211e-20
3.15014e-20
3.55706e-20
1.55482e-20
4.02633e-20
1.48163e-20
2.30032e-20
3.86983e-20
1.61785e-21
5.36853e-20
1.82822e-20
3.4758e-20
6.63965e-20
2.48863e-20
8.25016e-20
7.39939e-20
7.11743e-20
1.31179e-19
1.22009e-19
1.62057e-19
2.37099e-19
2.82219e-19
3.94096e-19
6.08106e-19
8.42151e-19
3.1597e-18
2.82966e-18
3.07814e-18
5.80029e-18
3.04975e-18
1.98425e-18
1.59085e-18
1.20699e-18
9.41588e-19
7.34106e-19
5.65061e-19
4.7902e-19
4.63657e-19
4.2919e-19
3.73494e-19
3.03268e-19
2.57781e-19
2.18836e-19
2.04751e-19
1.75282e-19
1.63413e-19
1.4649e-19
1.33845e-19
1.08609e-19
1.12865e-19
8.42734e-20
9.05096e-20
7.17407e-20
7.29097e-20
5.97021e-20
5.91826e-20
4.62461e-20
5.02349e-20
3.54764e-20
4.23677e-20
3.07755e-20
3.11151e-20
3.57797e-20
1.52695e-20
4.04532e-20
1.50699e-20
2.28539e-20
3.94688e-20
1.45913e-21
5.41174e-20
1.89232e-20
3.45438e-20
6.74412e-20
2.49244e-20
8.30325e-20
7.47496e-20
7.13166e-20
1.31576e-19
1.22108e-19
1.6048e-19
2.34938e-19
2.75437e-19
3.84631e-19
5.83916e-19
7.78766e-19
3.261e-18
2.97771e-18
2.97043e-18
6.1848e-18
2.89968e-18
1.7839e-18
1.41645e-18
1.09073e-18
8.56665e-19
6.76175e-19
5.26692e-19
4.50355e-19
4.39119e-19
4.08528e-19
3.57606e-19
2.91729e-19
2.49205e-19
2.12157e-19
1.99181e-19
1.70705e-19
1.59377e-19
1.42989e-19
1.31162e-19
1.06293e-19
1.10652e-19
8.26623e-20
8.8892e-20
7.07267e-20
7.18151e-20
5.90869e-20
5.84421e-20
4.58426e-20
4.97836e-20
3.51951e-20
4.19835e-20
3.07181e-20
3.06282e-20
3.59119e-20
1.49906e-20
4.04558e-20
1.53752e-20
2.25269e-20
4.01855e-20
1.2521e-21
5.42452e-20
1.95723e-20
3.39303e-20
6.8224e-20
2.45887e-20
8.28754e-20
7.49371e-20
7.0433e-20
1.30774e-19
1.20656e-19
1.56612e-19
2.30067e-19
2.64533e-19
3.70099e-19
5.49745e-19
7.1303e-19
3.29924e-18
3.0277e-18
2.85404e-18
6.36366e-18
2.77492e-18
1.60309e-18
1.25454e-18
9.78413e-19
7.74581e-19
6.19446e-19
4.8922e-19
4.22198e-19
4.14653e-19
3.87728e-19
3.41539e-19
2.80022e-19
2.40459e-19
2.05307e-19
1.93387e-19
1.65941e-19
1.55147e-19
1.39313e-19
1.28401e-19
1.03908e-19
1.08321e-19
8.10481e-20
8.71071e-20
6.96552e-20
7.05869e-20
5.83837e-20
5.75963e-20
4.54066e-20
4.92327e-20
3.49048e-20
4.14981e-20
3.06563e-20
3.00417e-20
3.59592e-20
1.47182e-20
4.02343e-20
1.57431e-20
2.19818e-20
4.08111e-20
9.99587e-22
5.3965e-20
2.02228e-20
3.28109e-20
6.86376e-20
2.38563e-20
8.18484e-20
7.44898e-20
6.83998e-20
1.28588e-19
1.17568e-19
1.50375e-19
2.22387e-19
2.49679e-19
3.50307e-19
5.0701e-19
6.45558e-19
3.24956e-18
2.93774e-18
2.70908e-18
6.28022e-18
2.66364e-18
1.43249e-18
1.10917e-18
8.72741e-19
6.97687e-19
5.65322e-19
4.53512e-19
3.95249e-19
3.90889e-19
3.67328e-19
3.25709e-19
2.68434e-19
2.31771e-19
1.98481e-19
1.87541e-19
1.61129e-19
1.50833e-19
1.35547e-19
1.25619e-19
1.01521e-19
1.05925e-19
7.94946e-20
8.5224e-20
6.85633e-20
6.92736e-20
5.76076e-20
5.6667e-20
4.49438e-20
4.85867e-20
3.46156e-20
4.09183e-20
3.05885e-20
2.93666e-20
3.5907e-20
1.44626e-20
3.97616e-20
1.61616e-20
2.12182e-20
4.12849e-20
7.23629e-22
5.32202e-20
2.08494e-20
3.12051e-20
6.86071e-20
2.27693e-20
7.99172e-20
7.34105e-20
6.52573e-20
1.25077e-19
1.13031e-19
1.42047e-19
2.12295e-19
2.31761e-19
3.26248e-19
4.58751e-19
5.77576e-19
3.1029e-18
2.70598e-18
2.52426e-18
5.93865e-18
2.55243e-18
1.2665e-18
9.81679e-19
7.75365e-19
6.27314e-19
5.14748e-19
4.20086e-19
3.69968e-19
3.68258e-19
3.47726e-19
3.10409e-19
2.57202e-19
2.23308e-19
1.9183e-19
1.81775e-19
1.5639e-19
1.46536e-19
1.31766e-19
1.22849e-19
9.91825e-20
1.03501e-19
7.80375e-20
8.32981e-20
6.74809e-20
6.79198e-20
5.67789e-20
5.56761e-20
4.44608e-20
4.78537e-20
3.43353e-20
4.02577e-20
3.05103e-20
2.86288e-20
3.57481e-20
1.4236e-20
3.90467e-20
1.66093e-20
2.02759e-20
4.15667e-20
4.57711e-22
5.20432e-20
2.14356e-20
2.9203e-20
6.81319e-20
2.14281e-20
7.71925e-20
7.18267e-20
6.12501e-20
1.20506e-19
1.07436e-19
1.32232e-19
2.00509e-19
2.12078e-19
2.99563e-19
4.09051e-19
5.11023e-19
2.87071e-18
2.36802e-18
2.2966e-18
5.391e-18
2.42831e-18
1.10458e-18
8.71133e-19
6.87192e-19
5.64008e-19
4.68274e-19
3.89183e-19
3.46585e-19
3.47054e-19
3.29168e-19
2.9583e-19
2.4647e-19
2.15169e-19
1.85449e-19
1.76183e-19
1.51807e-19
1.42334e-19
1.28039e-19
1.20116e-19
9.69304e-20
1.01078e-19
7.66897e-20
8.13741e-20
6.64292e-20
6.65601e-20
5.59228e-20
5.46491e-20
4.39673e-20
4.70488e-20
3.40697e-20
3.95349e-20
3.04188e-20
2.78597e-20
3.54872e-20
1.40489e-20
3.81296e-20
1.70644e-20
1.92151e-20
4.16444e-20
2.36831e-22
5.05014e-20
2.1983e-20
2.6934e-20
6.72748e-20
1.9962e-20
7.38387e-20
6.9915e-20
5.66829e-20
1.15214e-19
1.01246e-19
1.21609e-19
1.87839e-19
1.91984e-19
2.72016e-19
3.613e-19
4.47675e-19
2.5753e-18
1.97553e-18
2.03363e-18
4.71627e-18
2.28262e-18
9.50183e-19
7.75275e-19
6.08536e-19
5.0777e-19
4.26117e-19
3.60827e-19
3.2515e-19
3.27378e-19
3.11787e-19
2.8208e-19
2.36306e-19
2.07407e-19
1.79394e-19
1.70828e-19
1.47428e-19
1.38282e-19
1.24426e-19
1.17439e-19
9.47908e-20
9.86807e-20
7.54497e-20
7.94841e-20
6.54215e-20
6.52233e-20
5.50656e-20
5.36086e-20
4.34747e-20
4.61929e-20
3.38216e-20
3.8774e-20
3.03147e-20
2.70904e-20
3.51426e-20
1.39083e-20
3.70665e-20
1.75115e-20
1.81009e-20
4.1524e-20
9.02335e-23
4.87048e-20
2.25032e-20
2.45295e-20
6.61249e-20
1.84953e-20