/*--------------------------------*- C++ -*----------------------------------*\
| =========                 |                                                 |
| \\      /  F ield         | OpenFOAM: The Open Source CFD Toolbox           |
|  \\    /   O peration     | Version:  2312                                  |
|   \\  /    A nd           | Website:  www.openfoam.com                      |
|    \\/     M anipulation  |                                                 |
\*---------------------------------------------------------------------------*/
FoamFile
{
    version     2.0;
    format      ascii;
    arch        "LSB;label=32;scalar=64";
    class       volScalarField;
    location    "800";
    object      nut;
}
// * * * * * * * * * * * * * * * * * * * * * * * * * * * * * * * * * * * * * //

dimensions      [0 2 -1 0 0 0 0];

internalField   nonuniform List<scalar> 
144000
(
6.37159e-30
2.14478e-30
1.47241e-30
1.56081e-28
2.85577e-29
1.44379e-31
1.67777e-29
3.77162e-30
1.055e-29
6.90041e-30
9.76149e-30
7.6516e-30
1.07695e-29
9.33393e-30
9.93948e-30
8.05572e-30
1.1611e-29
1.2469e-29
1.18082e-29
1.09527e-29
1.33474e-29
1.39654e-29
1.40108e-29
1.35949e-29
1.33083e-29
1.35108e-29
1.5091e-29
1.52692e-29
1.54226e-29
1.48932e-29
1.37469e-29
1.30805e-29
1.54327e-29
1.54545e-29
1.42594e-29
1.25362e-29
1.10784e-29
9.81909e-30
9.30748e-30
6.40195e-30
6.79939e-30
3.65069e-30
9.45303e-30
8.08918e-30
5.68174e-30
5.19538e-30
2.21864e-30
1.21759e-30
2.62234e-31
8.07374e-32
9.85327e-32
9.3928e-31
7.31697e-30
2.09009e-29
1.12854e-28
5.09363e-29
2.62917e-28
1.91326e-26
4.06935e-26
6.19517e-27
1.24999e-26
1.38231e-27
4.84312e-28
1.5446e-27
1.37752e-29
2.26886e-30
3.00332e-29
1.11762e-29
1.45989e-29
2.16059e-29
1.414e-29
2.1332e-29
1.70164e-29
2.44244e-29
1.75524e-29
1.90413e-29
1.99131e-29
2.98333e-29
2.26323e-29
2.35414e-29
2.47694e-29
3.13659e-29
2.66234e-29
2.95195e-29
2.51999e-29
2.85928e-29
2.82778e-29
3.28233e-29
2.92515e-29
3.11157e-29
2.62793e-29
2.60029e-29
2.83568e-29
3.16163e-29
2.6831e-29
2.3844e-29
2.02995e-29
1.77257e-29
1.67172e-29
1.25088e-29
1.29688e-29
1.00088e-29
2.24262e-29
1.15034e-29
1.19536e-29
9.39018e-30
4.76728e-30
1.61181e-30
5.56441e-31
5.95837e-32
1.05375e-31
3.69066e-30
1.19972e-29
6.50282e-29
1.90302e-28
2.37594e-28
3.19026e-28
4.1771e-26
2.3425e-25
4.23934e-27
5.24061e-26
3.3334e-27
4.21493e-27
1.38269e-27
7.53099e-29
1.10867e-30
4.44079e-29
1.66915e-29
2.14469e-29
2.778e-29
2.21505e-29
2.65033e-29
2.64029e-29
3.14454e-29
2.59729e-29
2.60277e-29
2.97393e-29
3.92175e-29
3.28352e-29
3.24716e-29
3.57504e-29
4.22514e-29
3.78556e-29
4.0478e-29
3.54611e-29
3.99275e-29
3.96295e-29
4.49132e-29
4.06317e-29
4.27845e-29
3.58616e-29
3.68176e-29
3.86601e-29
4.26741e-29
3.5989e-29
3.23915e-29
2.68984e-29
2.44437e-29
2.23942e-29
1.8073e-29
1.9968e-29
1.41014e-29
3.63416e-29
1.39078e-29
1.83116e-29
1.28384e-29
6.51093e-30
2.57118e-30
6.91362e-31
1.94541e-31
2.60625e-31
3.31952e-30
2.15274e-29
7.20713e-29
3.03492e-28
1.96508e-28
1.12532e-27
7.38984e-26
2.44642e-25
1.91999e-26
2.4734e-25
3.97829e-26
1.77865e-26
5.40555e-27
6.94853e-29
1.52372e-30
4.43582e-29
2.01953e-29
2.14914e-29
2.80474e-29
2.25675e-29
2.63426e-29
2.69511e-29
3.14537e-29
2.64933e-29
2.58257e-29
2.98865e-29
3.93507e-29
3.30904e-29
3.21594e-29
3.59468e-29
4.19593e-29
3.81058e-29
3.99504e-29
3.5517e-29
3.95105e-29
3.92218e-29
4.46647e-29
4.02345e-29
4.20464e-29
3.54041e-29
3.6133e-29
3.75867e-29
4.20806e-29
3.49669e-29
3.15495e-29
2.62935e-29
2.42152e-29
2.27494e-29
1.9392e-29
2.09543e-29
1.94622e-29
3.51267e-29
1.30134e-29
2.12729e-29
1.21369e-29
7.48633e-30
2.45658e-30
9.59103e-31
3.04008e-31
1.3959e-31
3.56386e-30
1.81932e-29
6.83135e-29
2.62139e-28
1.72092e-28
1.41501e-27
1.07372e-25
3.60142e-25
7.79034e-26
5.78282e-25
2.23194e-25
3.4126e-26
1.8446e-26
1.47744e-28
2.58461e-30
5.0047e-29
2.55714e-29
2.14778e-29
2.99704e-29
2.19184e-29
2.79821e-29
2.67306e-29
3.26436e-29
2.64172e-29
2.6278e-29
2.97619e-29
4.05748e-29
3.2984e-29
3.2228e-29
3.61022e-29
4.23511e-29
3.81582e-29
3.98208e-29
3.54481e-29
3.93919e-29
3.91085e-29
4.48674e-29
3.9836e-29
4.19252e-29
3.50469e-29
3.58733e-29
3.72846e-29
4.26322e-29
3.45935e-29
3.20164e-29
2.6587e-29
2.55517e-29
2.41424e-29
2.15998e-29
2.20674e-29
2.24054e-29
3.08484e-29
1.47871e-29
2.41309e-29
1.21876e-29
8.5732e-30
2.61488e-30
1.39001e-30
5.73816e-31
6.1872e-32
3.63048e-30
1.49386e-29
6.28187e-29
2.16031e-28
1.34466e-28
1.99911e-27
1.71423e-25
5.03505e-25
3.153e-25
9.38468e-25
7.44439e-25
4.38027e-26
4.69297e-26
4.10892e-28
6.04072e-30
6.22419e-29
3.21913e-29
2.33559e-29
3.25028e-29
2.18081e-29
2.99407e-29
2.7149e-29
3.46051e-29
2.68204e-29
2.75887e-29
3.0587e-29
4.29551e-29
3.35027e-29
3.33576e-29
3.72597e-29
4.40866e-29
3.91912e-29
4.07868e-29
3.64265e-29
4.04678e-29
4.03609e-29
4.65042e-29
4.08771e-29
4.31317e-29
3.60012e-29
3.70729e-29
3.89682e-29
4.51603e-29
3.61074e-29
3.43354e-29
2.86314e-29
2.87162e-29
2.68655e-29
2.40895e-29
2.2811e-29
2.7207e-29
2.86211e-29
1.89903e-29
2.73872e-29
1.3628e-29
1.00108e-29
3.27574e-30
2.14724e-30
1.18255e-30
3.5102e-32
3.79833e-30
1.15833e-29
5.61938e-29
1.66026e-28
9.1414e-29
2.90156e-27
2.79288e-25
6.55387e-25
9.5352e-25
1.22494e-24
1.85192e-24
4.31699e-26
9.75137e-26
1.08158e-27
1.41106e-29
8.01838e-29
4.04759e-29
2.68045e-29
3.47802e-29
2.23961e-29
3.15143e-29
2.81697e-29
3.64307e-29
2.75136e-29
2.90565e-29
3.21712e-29
4.5561e-29
3.43477e-29
3.50034e-29
3.90115e-29
4.63343e-29
4.05866e-29
4.22228e-29
3.79443e-29
4.22714e-29
4.25157e-29
4.8745e-29
4.26543e-29
4.50818e-29
3.78192e-29
3.94024e-29
4.21116e-29
4.88067e-29
3.88443e-29
3.77999e-29
3.1935e-29
3.31662e-29
3.05963e-29
2.69782e-29
2.40919e-29
2.93712e-29
2.78122e-29
2.55414e-29
3.1643e-29
1.64735e-29
1.18615e-29
4.69102e-30
3.53763e-30
2.55496e-30
1.23568e-31
4.33596e-30
8.73934e-30
4.8178e-29
1.16124e-28
5.61595e-29
3.90491e-27
4.4056e-25
8.39634e-25
2.27345e-24
1.37422e-24
3.75164e-24
3.48425e-26
1.7456e-25
2.4908e-27
2.77618e-29
1.03997e-28
5.12151e-29
3.11055e-29
3.70217e-29
2.34262e-29
3.2707e-29
2.95459e-29
3.80304e-29
2.84287e-29
3.03942e-29
3.41531e-29
4.8082e-29
3.53559e-29
3.67461e-29
4.10121e-29
4.88185e-29
4.21165e-29
4.3878e-29
3.98082e-29
4.44363e-29
4.5005e-29
5.14172e-29
4.4956e-29
4.74455e-29
4.02847e-29
4.23829e-29
4.61366e-29
5.32661e-29
4.24848e-29
4.21118e-29
3.64e-29
3.88507e-29
3.53737e-29
3.05365e-29
2.63061e-29
3.41903e-29
2.78703e-29
3.34377e-29
3.77412e-29
2.10562e-29
1.44426e-29
7.42159e-30
6.11282e-30
5.628e-30
7.55506e-31
6.10736e-30
8.05183e-30
4.25316e-29
7.98545e-29
5.20406e-29
4.95042e-27
6.62641e-25
1.07648e-24
4.45125e-24
1.38599e-24
6.68444e-24
2.29617e-26
2.8366e-25
5.27306e-27
4.91215e-29
1.34991e-28
6.29647e-29
3.57803e-29
3.95055e-29
2.47328e-29
3.36789e-29
3.13189e-29
3.9417e-29
2.95688e-29
3.18158e-29
3.66948e-29
5.0482e-29
3.65546e-29
3.85684e-29
4.35088e-29
5.14125e-29
4.37525e-29
4.57805e-29
4.19964e-29
4.69762e-29
4.80977e-29
5.43964e-29
4.75714e-29
5.0329e-29
4.33198e-29
4.60441e-29
5.12053e-29
5.84577e-29
4.69103e-29
4.74459e-29
4.23303e-29
4.63608e-29
4.23463e-29
3.71709e-29
3.26935e-29
4.42173e-29
2.6175e-29
4.36481e-29
4.70276e-29
2.80741e-29
1.83948e-29
1.2449e-29
1.11427e-29
1.23341e-29
3.43839e-30
1.1911e-29
1.30423e-29
4.6922e-29
8.01874e-29
1.33318e-28
5.76121e-27
9.55548e-25
1.47277e-24
7.68947e-24
1.27323e-24
1.07415e-23
1.36743e-26
4.22726e-25
1.03248e-26
8.081e-29
1.74392e-28
7.41711e-29
4.08716e-29
4.23198e-29
2.62727e-29
3.45268e-29
3.34538e-29
4.06536e-29
3.10959e-29
3.31909e-29
3.96694e-29
5.27411e-29
3.80592e-29
4.03853e-29
4.63945e-29
5.40705e-29
4.56936e-29
4.78272e-29
4.46311e-29
4.98024e-29
5.14946e-29
5.77416e-29
5.067e-29
5.35783e-29
4.69761e-29
5.02868e-29
5.69799e-29
6.4472e-29
5.23238e-29
5.39184e-29
5.02186e-29
5.65034e-29
5.29105e-29
4.9893e-29
5.08463e-29
4.76015e-29
2.3255e-29
5.52389e-29
6.1026e-29
3.88169e-29
2.48246e-29
2.14583e-29
2.09869e-29
2.63506e-29
1.21548e-29
2.87022e-29
3.46794e-29
8.11406e-29
1.67213e-28
5.12069e-28
6.48048e-27
1.3325e-24
2.09704e-24
1.19512e-23
1.11703e-24
1.60541e-23
9.88632e-27
5.89997e-25
1.90943e-26
1.29381e-28
2.25829e-28
8.35269e-29
4.60374e-29
4.5563e-29
2.79872e-29
3.52827e-29
3.59797e-29
4.17478e-29
3.28932e-29
3.46216e-29
4.32168e-29
5.48026e-29
3.98242e-29
4.22334e-29
4.98575e-29
5.66215e-29
4.78896e-29
5.00031e-29
4.76589e-29
5.28916e-29
5.54808e-29
6.1199e-29
5.40938e-29
5.72452e-29
5.12027e-29
5.52096e-29
6.36923e-29
7.11391e-29
5.86915e-29
6.16824e-29
6.03636e-29
6.96265e-29
6.74043e-29
6.85631e-29
6.87352e-29
6.01016e-29
2.64051e-29
6.04833e-29
8.66238e-29
5.36685e-29
3.57986e-29
3.70187e-29
4.01546e-29
5.45041e-29
3.583e-29
7.2349e-29
1.03335e-28
1.97001e-28
4.9273e-28
1.6737e-27
6.88016e-27
1.82451e-24
3.21983e-24
1.72603e-23
9.47939e-25
2.25389e-23
1.71754e-26
7.75331e-25
3.34082e-26
2.0639e-28
2.89192e-28
9.06832e-29
5.10286e-29
4.96948e-29
2.95971e-29
3.62242e-29
3.85541e-29
4.30143e-29
3.48544e-29
3.61382e-29
4.7e-29
5.6821e-29
4.17524e-29
4.41153e-29
5.36003e-29
5.91461e-29
5.03328e-29
5.2261e-29
5.11134e-29
5.61345e-29
5.96236e-29
6.48369e-29
5.80254e-29
6.11701e-29
5.6075e-29
6.06547e-29
7.1069e-29
7.85646e-29
6.61947e-29
7.08511e-29
7.30815e-29
8.56402e-29
8.50946e-29
9.56536e-29
1.00813e-28
8.43529e-29
2.7929e-29
6.49493e-29
1.24561e-28
7.506e-29
5.43642e-29
6.3216e-29
7.59326e-29
1.0843e-28
9.27788e-29
1.75938e-28
2.84094e-28
5.11336e-28
1.39155e-27
4.51329e-27
7.26013e-27
2.48373e-24
4.99211e-24
2.32819e-23
8.82771e-25
3.0192e-23
4.23775e-26
9.7055e-25
5.54094e-26
3.39184e-28
3.75878e-28
9.32727e-29
5.58328e-29
5.46578e-29
3.10811e-29
3.73127e-29
4.11707e-29
4.44671e-29
3.67028e-29
3.78601e-29
5.11295e-29
5.87442e-29
4.36733e-29
4.6096e-29
5.77816e-29
6.15471e-29
5.28094e-29
5.46859e-29
5.48173e-29
5.94759e-29
6.43223e-29
6.84862e-29
6.2172e-29
6.55063e-29
6.148e-29
6.66484e-29
7.96757e-29
8.67701e-29
7.50295e-29
8.24356e-29
9.0387e-29
1.09503e-28
1.20101e-28
1.87065e-28
4.33001e-28
2.65236e-28
7.67237e-30
1.16928e-28
1.4253e-28
1.18092e-28
8.09465e-29
1.08322e-28
1.39519e-28
2.06898e-28
2.13487e-28
3.97808e-28
6.92052e-28
1.23427e-27
3.41886e-27
1.01482e-26
7.38337e-27
3.35607e-24
8.04161e-24
2.98297e-23
9.57152e-25
3.90686e-23
1.05313e-25
1.17185e-24
8.71179e-26
5.80946e-28
4.87259e-28
9.07605e-29
6.04713e-29
6.05118e-29
3.24586e-29
3.84925e-29
4.37534e-29
4.60377e-29
3.86447e-29
3.96845e-29
5.51691e-29
6.06764e-29
4.56472e-29
4.81596e-29
6.19634e-29
6.39275e-29
5.54237e-29
5.71649e-29
5.88435e-29
6.28939e-29
6.90783e-29
7.23221e-29
6.6753e-29
7.00531e-29
6.75699e-29
7.31367e-29
8.90373e-29
9.6114e-29
8.57785e-29
9.71501e-29
1.14898e-28
1.4869e-28
1.98807e-28
4.90021e-28
9.07379e-28
1.17849e-29
1.19107e-29
1.2272e-28
1.64111e-28
1.89215e-28
1.21018e-28
1.83152e-28
2.47654e-28
3.77342e-28
4.47209e-28
8.239e-28
1.50518e-27
2.67663e-27
7.37895e-27
2.01107e-26
7.42403e-27
4.5253e-24
1.2739e-23
3.65717e-23
1.38274e-24
4.91858e-23
2.10745e-25
1.37648e-24
1.29777e-25
1.02973e-27
6.2971e-28
8.24793e-29
6.51159e-29
6.67192e-29
3.40006e-29
3.9391e-29
4.66776e-29
4.74043e-29
4.06755e-29
4.15407e-29
5.94332e-29
6.23642e-29
4.76449e-29
5.02635e-29
6.64191e-29
6.60754e-29
5.80935e-29
5.97497e-29
6.30585e-29
6.63866e-29
7.4257e-29
7.61397e-29
7.15667e-29
7.49752e-29
7.41082e-29
8.0088e-29
9.91782e-29
1.05472e-28
9.62346e-29
1.10013e-28
1.32249e-28
1.63867e-28
2.20253e-28
5.7091e-28
1.26242e-29
8.82662e-28
1.995e-27
9.3326e-30
3.66006e-28
2.29202e-28
2.04402e-28
2.89052e-28
4.29078e-28
6.54502e-28
8.58958e-28
1.57436e-27
2.94722e-27
5.24469e-27
1.41306e-26
3.55988e-26
7.28304e-27
6.11147e-24
2.02533e-23
4.31303e-23
2.21942e-24
6.04836e-23
3.88894e-25
1.60325e-24
1.8487e-25
1.90687e-27
7.70078e-28
7.10235e-29
6.90052e-29
7.40585e-29
3.52176e-29
4.04265e-29
4.94682e-29
4.89086e-29
4.27364e-29
4.34594e-29
6.34163e-29
6.40858e-29
4.96055e-29
5.24619e-29
7.069e-29
6.82249e-29
6.08555e-29
6.24259e-29
6.753e-29
6.99712e-29
7.92748e-29
8.01462e-29
7.69229e-29
8.01492e-29
8.13069e-29
8.7626e-29
1.10001e-28
1.16544e-28
1.09662e-28
1.29597e-28
1.66678e-28
2.2542e-28
4.22594e-28
1.60222e-27
3.14601e-27
4.24227e-27
1.51575e-30
3.82221e-29
4.04011e-28
3.58717e-28
3.03653e-28
4.52144e-28
7.06377e-28
1.08135e-27
1.53111e-27
2.77495e-27
5.27489e-27
9.32047e-27
2.45137e-26
5.7436e-26
7.41083e-27
8.34089e-24
3.06694e-23
4.8926e-23
3.93421e-24
7.20778e-23
6.23257e-25
1.85746e-24
2.48719e-25
3.49764e-27
9.28196e-28
5.81107e-29
7.23798e-29
8.19837e-29
3.61947e-29
4.143e-29
5.23e-29
5.04738e-29
4.45257e-29
4.54715e-29
6.7553e-29
6.56169e-29
5.14138e-29
5.47425e-29
7.52023e-29
7.02206e-29
6.34968e-29
6.53649e-29
7.20059e-29
7.36116e-29
8.47402e-29
8.42583e-29
8.23873e-29
8.60214e-29
8.89389e-29
9.60957e-29
1.22832e-28
1.30204e-28
1.27762e-28
1.6077e-28
2.31204e-28
3.72741e-28
9.84615e-28
5.27916e-27
5.44757e-26
7.07332e-29
1.22109e-26
1.72525e-28
3.23386e-28
6.08172e-28
4.12464e-28
6.97335e-28
1.10083e-27
1.70733e-27
2.52748e-27
4.56375e-27
8.67899e-27
1.52287e-26
3.89777e-26
8.54278e-26
7.77243e-27
1.1307e-23
4.5657e-23
5.30545e-23
6.86577e-24
8.47791e-23
9.02946e-25
2.19293e-24
3.17493e-25
6.2753e-27
1.07451e-27
4.54522e-29
7.4396e-29
9.12761e-29
3.65328e-29
4.26685e-29
5.48324e-29
5.21597e-29
4.62846e-29
4.75524e-29
7.1216e-29
6.7275e-29
5.31808e-29
5.71796e-29
7.93591e-29
7.23462e-29
6.61903e-29
6.84505e-29
7.66189e-29
7.7398e-29
9.0056e-29
8.88303e-29
8.81185e-29
9.23052e-29
9.70361e-29
1.04851e-28
1.35125e-28
1.42013e-28
1.40022e-28
1.72739e-28
2.34323e-28
3.20203e-28
6.11308e-28
2.06562e-27
4.9335e-27
3.86963e-27
3.31972e-30
1.13796e-29
8.1443e-28
6.41563e-28
6.49561e-28
9.88991e-28
1.66665e-27
2.54069e-27
3.92348e-27
6.98252e-27
1.32719e-26
2.29823e-26
5.77176e-26
1.19458e-25
8.80766e-27
1.51826e-23
6.52156e-23
5.553e-23
1.23841e-23
9.9004e-23
1.14147e-24
2.61275e-24
3.84168e-25
1.07771e-26
1.18686e-27
3.47157e-29
7.76328e-29
9.98442e-29
3.69731e-29
4.34553e-29
5.77953e-29
5.33582e-29
4.81356e-29
4.94891e-29
7.506e-29
6.85752e-29
5.49718e-29
5.96422e-29
8.3655e-29
7.42742e-29
6.89173e-29
7.1752e-29
8.12151e-29
8.13338e-29
9.5663e-29
9.35915e-29
9.39492e-29
9.9262e-29
1.05466e-28
1.14289e-28
1.48475e-28
1.54279e-28
1.53017e-28
1.85796e-28
2.37936e-28
2.79643e-28
3.37485e-28
5.63804e-28
1.58617e-31
1.40061e-27
2.18696e-27
7.92195e-29
1.07229e-27
8.11199e-28
8.85395e-28
1.41109e-27
2.36558e-27
3.62057e-27
5.6837e-27
1.00445e-26
1.88615e-26
3.23793e-26
7.96642e-26
1.57465e-25
1.07572e-26
2.01615e-23
9.15652e-23
5.60888e-23
2.04196e-23
1.15165e-22
1.37209e-24
3.22539e-24
4.43143e-25
1.80718e-26
1.2003e-27
2.78969e-29
8.13653e-29
1.08783e-28
3.67991e-29
4.46492e-29
6.04805e-29
5.46285e-29
5.00364e-29
5.14936e-29
7.83219e-29
6.99904e-29
5.67789e-29
6.23029e-29
8.74412e-29
7.63496e-29
7.17541e-29
7.52349e-29
8.59137e-29
8.55091e-29
1.00866e-28
9.8692e-29
1.00362e-28
1.0659e-28
1.14697e-28
1.24623e-28
1.62631e-28
1.69662e-28
1.72665e-28
2.14901e-28
2.87881e-28
3.66382e-28
4.8704e-28
9.27541e-28
9.86717e-28
3.17697e-29
1.04002e-29
8.48632e-28
9.73605e-28
1.11524e-27
1.13399e-27
1.94169e-27
3.2011e-27
4.89818e-27
7.76512e-27
1.35283e-26
2.51675e-26
4.26699e-26
1.03684e-25
1.97505e-25
1.56034e-26
2.65882e-23
1.21797e-22
5.47304e-23
3.28457e-23
1.30859e-22
1.51355e-24
4.01923e-24
4.79867e-25
2.86302e-26
1.16649e-27
2.65267e-29
8.76501e-29
1.16469e-28
3.61141e-29
4.63418e-29
6.27542e-29
5.62185e-29
5.14247e-29
5.37166e-29
8.12251e-29
7.13311e-29
5.82452e-29
6.51294e-29
9.09424e-29
7.84277e-29
7.42693e-29
7.90938e-29
9.02604e-29
8.97558e-29
1.06137e-28
1.03896e-28
1.0658e-28
1.14395e-28
1.23593e-28
1.34699e-28
1.75739e-28
1.82191e-28
1.85581e-28
2.28953e-28
2.95432e-28
3.54213e-28
4.05488e-28
5.78569e-28
8.78306e-28
7.2008e-28
4.40778e-29
8.56084e-28
1.48936e-27
1.21897e-27
1.53696e-27
2.48183e-27
4.15317e-27
6.2346e-27
9.98581e-27
1.70768e-26
3.14196e-26
5.23917e-26
1.26447e-25
2.31304e-25
2.46525e-26
3.4302e-23
1.57701e-22
5.02315e-23
5.00384e-23
1.4688e-22
1.57231e-24
5.08886e-24
4.90235e-25
4.27195e-26
1.02782e-27
2.82246e-29
9.51038e-29
1.23409e-28
3.45544e-29
4.88966e-29
6.39773e-29
5.84404e-29
5.21993e-29
5.62711e-29
8.32152e-29
7.30139e-29
5.92921e-29
6.81501e-29
9.3664e-29
8.07728e-29
7.63855e-29
8.31923e-29
9.41463e-29
9.40447e-29
1.1096e-28
1.09427e-28
1.12378e-28
1.22426e-28
1.3205e-28
1.44471e-28
1.87786e-28
1.93824e-28
1.96023e-28
2.39171e-28
2.92951e-28
3.26203e-28
3.07238e-28
2.88423e-28
2.53945e-28
3.19858e-28
3.31491e-28
1.01933e-27
1.79359e-27
1.43853e-27
1.91048e-27
3.0741e-27
5.07343e-27
7.49394e-27
1.20973e-26
2.01666e-26
3.66185e-26
5.94767e-26
1.43659e-25
2.50007e-25
4.26611e-26
4.31027e-23
1.9555e-22
4.37363e-23
7.32604e-23
1.60942e-22
1.56304e-24
6.39507e-24
4.67526e-25
5.9126e-26
8.48487e-28
3.43505e-29
1.08101e-28
1.25571e-28
3.36557e-29
5.02948e-29
6.59383e-29
5.95555e-29
5.31571e-29
5.80719e-29
8.54489e-29
7.40118e-29
6.02291e-29
7.06045e-29
9.6319e-29
8.24769e-29
7.8284e-29
8.69073e-29
9.74056e-29
9.79403e-29
1.15328e-28
1.146e-28
1.17338e-28
1.30282e-28
1.39193e-28
1.53876e-28
1.98754e-28
2.0489e-28
2.05583e-28
2.52457e-28
2.99152e-28
3.27929e-28
2.959e-28
2.46808e-28
1.72557e-28
3.97512e-28
5.23682e-28
1.43225e-27
1.86086e-27
1.68545e-27
2.24851e-27
3.635e-27
5.86705e-27
8.60868e-27
1.36396e-26
2.24633e-26
3.94805e-26
6.31655e-26
1.51211e-25
2.54253e-25
7.2191e-26
5.24334e-23
2.32848e-22
3.51299e-23
1.01402e-22
1.77815e-22
1.56298e-24
8.21414e-24
4.16139e-25
7.68936e-26
7.03628e-28
5.10725e-29
1.35021e-28
1.19715e-28
3.49229e-29
4.84781e-29
7.08683e-29
5.77964e-29
5.64764e-29
5.73823e-29
8.84712e-29
7.35339e-29
6.23486e-29
7.13157e-29
9.92631e-29
8.30058e-29
8.11103e-29
8.92586e-29
1.00969e-28
1.00923e-28
1.18644e-28
1.19214e-28
1.22065e-28
1.37087e-28
1.45449e-28
1.62131e-28
2.05635e-28
2.15031e-28
2.11612e-28
2.61821e-28
2.96902e-28
3.23537e-28
2.81177e-28
2.37896e-28
1.50729e-28
4.7798e-28
7.37719e-28
1.74731e-27
1.92259e-27
1.87542e-27
2.53148e-27
4.10902e-27
6.35307e-27
9.42671e-27
1.42127e-26
2.34535e-26
3.89515e-26
6.26382e-26
1.46679e-25
2.52181e-25
1.15608e-25
6.15054e-23
2.64529e-22
2.72314e-23
1.41621e-22
1.96814e-22
1.58463e-24
1.06283e-23
3.55881e-25
9.96036e-26
5.91465e-28
8.51088e-29
1.85287e-28
1.17671e-28
3.51815e-29
4.99594e-29
7.65022e-29
5.93021e-29
5.94758e-29
5.98559e-29
9.39077e-29
7.63856e-29
6.48043e-29
7.56146e-29
1.04762e-28
8.68079e-29
8.50144e-29
9.48982e-29
1.0665e-28
1.07162e-28
1.25574e-28
1.27211e-28
1.29379e-28
1.4777e-28
1.54721e-28
1.74539e-28
2.19258e-28
2.29506e-28
2.21098e-28
2.75058e-28
3.0029e-28
3.23167e-28
2.78479e-28
2.41015e-28
1.56659e-28
5.68479e-28
1.00842e-27
1.98707e-27
2.00618e-27
2.05823e-27
2.81085e-27
4.50242e-27
6.74973e-27
9.84251e-27
1.43704e-26
2.3189e-26
3.70442e-26
5.91693e-26
1.39021e-25
2.49652e-25
1.68629e-25
7.14917e-23
2.99553e-22
1.98221e-23
1.01593e-29
2.04273e-30
1.40992e-30
1.55977e-28
2.57274e-29
2.17376e-31
1.53222e-29
4.21797e-30
9.92417e-30
7.11072e-30
9.53034e-30
7.62842e-30
1.06433e-29
9.19481e-30
9.98493e-30
7.83927e-30
1.16124e-29
1.21327e-29
1.1867e-29
1.06503e-29
1.34126e-29
1.37174e-29
1.40861e-29
1.33708e-29
1.36212e-29
1.33005e-29
1.53633e-29
1.54953e-29
1.55732e-29
1.54801e-29
1.42067e-29
1.38837e-29
1.62491e-29
1.69005e-29
1.56863e-29
1.45328e-29
1.33933e-29
1.27129e-29
1.26226e-29
1.0659e-29
9.12562e-30
6.57813e-30
6.85272e-30
7.81169e-30
5.44054e-30
5.50951e-30
2.09079e-30
1.27724e-30
2.43098e-31
8.87671e-32
9.8804e-32
8.67647e-31
7.46118e-30
1.97797e-29
1.14172e-28
5.46861e-29
2.50079e-28
1.94459e-26
4.24808e-26
6.02692e-27
1.32645e-26
1.44131e-27
4.78039e-28
1.5282e-27
1.18642e-29
2.57416e-30
2.7814e-29
1.20365e-29
1.3614e-29
2.21478e-29
1.36752e-29
2.14019e-29
1.65959e-29
2.42891e-29
1.73825e-29
1.87986e-29
1.97318e-29
2.94857e-29
2.23684e-29
2.33895e-29
2.46239e-29
3.13092e-29
2.66139e-29
2.94445e-29
2.5783e-29
2.85606e-29
2.90747e-29
3.36228e-29
3.00127e-29
3.27505e-29
2.7745e-29
2.82373e-29
3.07628e-29
3.56008e-29
3.07746e-29
2.89913e-29
2.59642e-29
2.4485e-29
2.42973e-29
2.17687e-29
1.819e-29
1.70019e-29
1.43972e-29
1.19496e-29
1.13181e-29
9.96996e-30
4.4727e-30
1.72273e-30
5.05832e-31
6.77798e-32
1.17334e-31
3.44463e-30
1.2451e-29
6.29468e-29
1.93374e-28
2.48354e-28
3.03928e-28
4.23974e-26
2.41902e-25
4.07443e-27
5.27139e-26
3.37375e-27
4.1642e-27
1.35347e-27
6.949e-29
1.25796e-30
4.14488e-29
1.76303e-29
2.01952e-29
2.8225e-29
2.1538e-29
2.64821e-29
2.57814e-29
3.12324e-29
2.57231e-29
2.572e-29
2.95235e-29
3.89426e-29
3.23339e-29
3.26343e-29
3.53535e-29
4.2773e-29
3.76857e-29
4.09337e-29
3.62702e-29
4.04736e-29
4.09451e-29
4.67163e-29
4.21352e-29
4.57809e-29
3.84953e-29
4.08618e-29
4.29007e-29
4.94894e-29
4.26334e-29
4.09652e-29
3.5912e-29
3.52962e-29
3.40027e-29
3.18117e-29
2.78371e-29
2.52611e-29
2.02312e-29
1.62313e-29
1.65585e-29
1.39664e-29
5.93633e-30
2.82265e-30
5.9063e-31
2.20769e-31
3.11305e-31
3.04377e-30
2.27916e-29
6.90215e-29
3.11697e-28
2.00005e-28
1.10593e-27
7.4949e-26
2.51234e-25
1.87923e-26
2.47655e-25
3.97831e-26
1.76685e-26
5.32887e-27
6.37402e-29
1.69623e-30
4.14693e-29
2.10984e-29
2.04286e-29
2.83314e-29
2.20226e-29
2.63215e-29
2.62957e-29
3.13496e-29
2.61911e-29
2.5795e-29
2.97398e-29
3.93294e-29
3.2577e-29
3.28132e-29
3.54644e-29
4.32027e-29
3.77804e-29
4.1192e-29
3.63586e-29
4.09536e-29
4.07619e-29
4.7474e-29
4.21141e-29
4.61121e-29
3.86496e-29
4.13582e-29
4.26946e-29
5.04347e-29
4.26431e-29
4.15248e-29
3.63872e-29
3.63873e-29
3.53932e-29
3.39064e-29
3.06061e-29
2.76439e-29
1.94907e-29
1.62862e-29
1.80416e-29
1.38168e-29
6.56457e-30
2.8188e-30
7.7688e-31
3.46666e-31
1.87258e-31
3.26119e-30
1.94905e-29
6.47511e-29
2.70374e-28
1.71243e-28
1.41656e-27
1.08318e-25
3.6663e-25
7.75106e-26
5.7809e-25
2.23265e-25
3.39988e-26
1.82807e-26
1.39458e-28
2.70035e-30
4.70917e-29
2.63715e-29
2.06328e-29
3.0213e-29
2.14791e-29
2.80321e-29
2.60822e-29
3.2745e-29
2.61106e-29
2.65784e-29
2.96914e-29
4.0852e-29
3.26008e-29
3.33608e-29
3.56735e-29
4.42926e-29
3.77789e-29
4.19574e-29
3.63531e-29
4.18109e-29
4.08991e-29
4.86698e-29
4.20509e-29
4.7104e-29
3.87628e-29
4.21639e-29
4.29914e-29
5.22525e-29
4.27907e-29
4.29561e-29
3.70829e-29
3.84997e-29
3.71619e-29
3.6795e-29
3.30123e-29
2.86377e-29
1.8971e-29
1.75586e-29
1.92933e-29
1.45519e-29
7.21118e-30
3.14278e-30
1.07265e-30
6.62721e-31
9.61889e-32
3.28044e-30
1.60591e-29
5.92961e-29
2.24071e-28
1.32091e-28
2.02514e-27
1.72136e-25
5.10123e-25
3.15561e-25
9.37315e-25
7.4475e-25
4.37342e-26
4.66307e-26
3.97474e-28
6.02452e-30
5.88222e-29
3.29889e-29
2.25957e-29
3.28655e-29
2.14411e-29
3.01301e-29
2.65394e-29
3.49639e-29
2.65768e-29
2.81852e-29
3.06427e-29
4.35545e-29
3.33693e-29
3.49346e-29
3.70076e-29
4.66696e-29
3.88863e-29
4.38389e-29
3.74447e-29
4.38951e-29
4.23878e-29
5.13064e-29
4.33695e-29
4.94762e-29
4.00183e-29
4.44106e-29
4.50166e-29
5.58771e-29
4.44451e-29
4.59856e-29
3.90989e-29
4.21862e-29
3.99144e-29
4.11172e-29
3.61451e-29
3.15297e-29
1.99551e-29
2.00247e-29
2.11415e-29
1.67146e-29
8.19654e-30
4.04321e-30
1.62337e-30
1.37614e-30
4.91766e-32
3.40394e-30
1.25203e-29
5.31691e-29
1.73328e-28
8.87831e-29
2.9601e-27
2.79864e-25
6.62595e-25
9.54894e-25
1.2231e-24
1.85416e-24
4.3136e-26
9.7086e-26
1.06092e-27
1.38348e-29
7.60952e-29
4.17732e-29
2.58969e-29
3.55794e-29
2.19488e-29
3.20484e-29
2.74987e-29
3.72339e-29
2.72869e-29
3.01053e-29
3.22569e-29
4.65981e-29
3.44482e-29
3.70282e-29
3.89609e-29
4.95036e-29
4.04356e-29
4.61461e-29
3.9055e-29
4.66494e-29
4.47114e-29
5.4405e-29
4.5342e-29
5.24387e-29
4.18973e-29
4.76086e-29
4.80975e-29
6.02232e-29
4.68117e-29
4.96853e-29
4.17524e-29
4.66023e-29
4.31733e-29
4.64169e-29
4.05932e-29
3.60032e-29
2.17796e-29
2.33099e-29
2.40253e-29
2.02363e-29
9.67888e-30
5.78117e-30
2.70708e-30
2.9607e-30
1.00086e-31
4.00752e-30
9.45088e-30
4.59423e-29
1.22178e-28
5.3998e-29
3.99242e-27
4.41242e-25
8.49454e-25
2.27846e-24
1.37186e-24
3.75734e-24
3.48047e-26
1.74009e-25
2.45797e-27
2.70155e-29
9.91766e-29
5.30448e-29
3.00129e-29
3.84745e-29
2.27708e-29
3.37832e-29
2.87012e-29
3.94668e-29
2.81175e-29
3.20611e-29
3.41547e-29
4.9708e-29
3.56022e-29
3.92605e-29
4.11215e-29
5.25486e-29
4.21201e-29
4.85716e-29
4.09426e-29
4.96738e-29
4.72237e-29
5.77809e-29
4.76707e-29
5.55466e-29
4.4134e-29
5.11769e-29
5.15805e-29
6.4874e-29
4.94457e-29
5.35244e-29
4.46861e-29
5.12961e-29
4.6606e-29
5.30723e-29
4.6744e-29
4.28376e-29
2.46079e-29
2.70042e-29
2.84179e-29
2.54434e-29
1.20021e-29
8.94771e-30
4.83744e-30
6.44065e-30
5.83463e-31
6.09815e-30
8.3461e-30
4.1387e-29
8.39606e-29
5.07732e-29
5.07204e-27
6.63404e-25
1.08987e-24
4.46125e-24
1.38362e-24
6.69857e-24
2.28452e-26
2.83091e-25
5.22411e-27
4.77295e-29
1.29457e-28
6.51192e-29
3.45372e-29
4.17406e-29
2.37734e-29
3.54468e-29
3.01697e-29
4.16562e-29
2.90287e-29
3.41927e-29
3.64282e-29
5.28513e-29
3.6793e-29
4.16273e-29
4.36357e-29
5.5696e-29
4.38304e-29
5.11459e-29
4.30321e-29
5.29522e-29
5.01524e-29
6.12767e-29
5.01135e-29
5.88672e-29
4.66501e-29
5.509e-29
5.56009e-29
6.96288e-29
5.21544e-29
5.75241e-29
4.79586e-29
5.64991e-29
5.09382e-29
6.183e-29
5.47973e-29
5.20185e-29
2.81183e-29
3.14484e-29
3.52629e-29
3.29241e-29
1.58332e-29
1.45447e-29
9.20428e-30
1.38637e-29
2.83466e-30
1.26504e-29
1.25297e-29
4.75503e-29
8.19534e-29
1.34495e-28
5.90458e-27
9.56179e-25
1.49135e-24
7.71043e-24
1.27054e-24
1.07676e-23
1.34594e-26
4.22114e-25
1.02494e-26
7.85861e-29
1.68011e-28
7.65982e-29
3.95005e-29
4.53612e-29
2.49763e-29
3.7034e-29
3.19099e-29
4.37716e-29
3.02074e-29
3.63528e-29
3.89421e-29
5.59863e-29
3.8126e-29
4.40488e-29
4.63595e-29
5.89247e-29
4.57122e-29
5.37731e-29
4.54268e-29
5.64116e-29
5.3183e-29
6.49924e-29
5.28244e-29
6.22551e-29
4.95113e-29
5.92527e-29
5.98589e-29
7.46132e-29
5.51835e-29
6.18482e-29
5.19179e-29
6.26856e-29
5.63266e-29
7.36471e-29
6.58346e-29
6.16544e-29
3.27151e-29
3.72105e-29
4.5187e-29
4.38939e-29
2.23125e-29
2.43049e-29
1.80899e-29
2.90556e-29
1.0606e-29
3.09871e-29
3.22506e-29
8.51118e-29
1.64266e-28
5.23993e-28
6.64516e-27
1.33278e-24
2.12069e-24
1.19841e-23
1.11598e-24
1.61015e-23
9.48443e-27
5.89479e-25
1.89889e-26
1.2624e-28
2.18545e-28
8.61069e-29
4.46036e-29
4.93356e-29
2.63771e-29
3.84666e-29
3.40084e-29
4.57111e-29
3.15862e-29
3.85716e-29
4.18618e-29
5.89881e-29
3.95692e-29
4.65365e-29
4.94746e-29
6.20606e-29
4.76949e-29
5.64696e-29
4.8059e-29
6.00472e-29
5.65983e-29
6.87073e-29
5.56351e-29
6.58583e-29
5.26617e-29
6.38206e-29
6.4685e-29
7.98307e-29
5.85939e-29
6.68691e-29
5.68339e-29
7.03488e-29
6.32557e-29
8.89769e-29
7.77486e-29
7.76853e-29
3.97615e-29
4.42638e-29
5.98148e-29
5.9889e-29
3.3128e-29
4.10251e-29
3.56689e-29
5.92151e-29
3.24534e-29
7.77836e-29
9.66009e-29
2.07987e-28
4.78648e-28
1.71418e-27
7.04336e-27
1.82431e-24
3.25673e-24
1.73146e-23
9.4786e-25
2.2614e-23
1.6331e-26
7.74945e-25
3.3278e-26
2.02404e-28
2.80642e-28
9.33329e-29
4.95487e-29
5.41859e-29
2.76798e-29
4.0055e-29
3.61216e-29
4.78033e-29
3.30585e-29
4.087e-29
4.48819e-29
6.20165e-29
4.10293e-29
4.91138e-29
5.2691e-29
6.52311e-29
4.97658e-29
5.9225e-29
5.09694e-29
6.37963e-29
5.99796e-29
7.25681e-29
5.87493e-29
6.96132e-29
5.62135e-29
6.87275e-29
6.98789e-29
8.55846e-29
6.26469e-29
7.2811e-29
6.30521e-29
7.98921e-29
7.16259e-29
1.0971e-28
9.41762e-29
9.45952e-29
5.08629e-29
5.35144e-29
8.01579e-29
8.36291e-29
5.08694e-29
6.92314e-29
6.86909e-29
1.16458e-28
8.60735e-29
1.87065e-28
2.69268e-28
5.36084e-28
1.3559e-27
4.61943e-27
7.42929e-27
2.48429e-24
5.04384e-24
2.33579e-23
8.84887e-25
3.0306e-23
4.0534e-26
9.70218e-25
5.52841e-26
3.34755e-28
3.65916e-28
9.58162e-29
5.43162e-29
5.98065e-29
2.88991e-29
4.17089e-29
3.82999e-29
5.00025e-29
3.44251e-29
4.33282e-29
4.81994e-29
6.49341e-29
4.24055e-29
5.18192e-29
5.62081e-29
6.8319e-29
5.17507e-29
6.21605e-29
5.40061e-29
6.76285e-29
6.37464e-29
7.64572e-29
6.18886e-29
7.38117e-29
6.01007e-29
7.41333e-29
7.59697e-29
9.1911e-29
6.73138e-29
8.01303e-29
7.07578e-29
9.17086e-29
8.24364e-29
1.37178e-28
1.13083e-28
1.21198e-28
6.56338e-29
6.53949e-29
1.08786e-28
1.18555e-28
7.90939e-29
1.16389e-28
1.28796e-28
2.19743e-28
2.01331e-28
4.18798e-28
6.63561e-28
1.28394e-27
3.34768e-27
1.03637e-26
7.54891e-27
3.35646e-24
8.12148e-24
2.99367e-23
9.62447e-25
3.9243e-23
1.01573e-25
1.1715e-24
8.70262e-26
5.77132e-28
4.75081e-28
9.30801e-29
5.88243e-29
6.63373e-29
3.0028e-29
4.34048e-29
4.04534e-29
5.22561e-29
3.59016e-29
4.58489e-29
5.1418e-29
6.7842e-29
4.37953e-29
5.46307e-29
5.9627e-29
7.14334e-29
5.37923e-29
6.51687e-29
5.72676e-29
7.15483e-29
6.74494e-29
8.06051e-29
6.53224e-29
7.83029e-29
6.45526e-29
8.00931e-29
8.2479e-29
9.92043e-29
7.29643e-29
8.89349e-29
8.01087e-29
1.0536e-28
9.55341e-29
1.69188e-28
1.27384e-28
1.39603e-28
8.43165e-29
7.95638e-29
1.49264e-28
1.68691e-28
1.23934e-28
1.92918e-28
2.33252e-28
3.96932e-28
4.26942e-28
8.60777e-28
1.45594e-27
2.76743e-27
7.25732e-27
2.05196e-26
7.58295e-27
4.5246e-24
1.2858e-23
3.67177e-23
1.39795e-24
4.94401e-23
2.04007e-25
1.37584e-24
1.29788e-25
1.02871e-27
6.14786e-28
8.44023e-29
6.32235e-29
7.32405e-29
3.13162e-29
4.47534e-29
4.29506e-29
5.42262e-29
3.74849e-29
4.83599e-29
5.49051e-29
7.0447e-29
4.52015e-29
5.74963e-29
6.32734e-29
7.43347e-29
5.58355e-29
6.83265e-29
6.06468e-29
7.55839e-29
7.15019e-29
8.48387e-29
6.89082e-29
8.3346e-29
6.94488e-29
8.68023e-29
8.98713e-29
1.07311e-28
7.94398e-29
9.91362e-29
9.07437e-29
1.1958e-28
1.10431e-28
2.00539e-28
1.50871e-28
2.16728e-28
1.20028e-28
9.37122e-29
2.1016e-28
2.37194e-28
1.94273e-28
3.1411e-28
4.03009e-28
6.87942e-28
8.24898e-28
1.63781e-27
2.86717e-27
5.40164e-27
1.39399e-26
3.62789e-26
7.42596e-27
6.10961e-24
2.04516e-23
4.33251e-23
2.24103e-24
6.08276e-23
3.79141e-25
1.60213e-24
1.85167e-25
1.91659e-27
7.50725e-28
7.25008e-29
6.66206e-29
8.15599e-29
3.22292e-29
4.62763e-29
4.52917e-29
5.63385e-29
3.90936e-29
5.09199e-29
5.81413e-29
7.30782e-29
4.65481e-29
6.0482e-29
6.66847e-29
7.72857e-29
5.79251e-29
7.1626e-29
6.42276e-29
7.97861e-29
7.53445e-29
8.94185e-29
7.29609e-29
8.87824e-29
7.49566e-29
9.41177e-29
9.76994e-29
1.16472e-28
8.71756e-29
1.10806e-28
1.04214e-28
1.37851e-28
1.33648e-28
2.58928e-28
2.67803e-28
2.3403e-28
1.72277e-28
1.26518e-28
2.84833e-28
3.35183e-28
2.97076e-28
4.8863e-28
6.67749e-28