/*--------------------------------*- C++ -*----------------------------------*\
| =========                 |                                                 |
| \\      /  F ield         | OpenFOAM: The Open Source CFD Toolbox           |
|  \\    /   O peration     | Version:  2312                                  |
|   \\  /    A nd           | Website:  www.openfoam.com                      |
|    \\/     M anipulation  |                                                 |
\*---------------------------------------------------------------------------*/
FoamFile
{
    version     2.0;
    format      ascii;
    arch        "LSB;label=32;scalar=64";
    class       volScalarField;
    location    "800";
    object      pPrime2Mean;
}
// * * * * * * * * * * * * * * * * * * * * * * * * * * * * * * * * * * * * * //

dimensions      [0 4 -4 0 0 0 0];

internalField   nonuniform List<scalar> 
144000
(
3.27548e-18
3.87497e-18
3.62907e-18
3.0054e-18
2.1395e-18
1.51053e-18
1.1201e-18
8.27804e-19
6.15205e-19
5.06237e-19
4.73253e-19
4.27837e-19
3.65497e-19
2.92607e-19
2.45184e-19
2.05923e-19
1.89403e-19
1.61829e-19
1.50855e-19
1.33505e-19
1.20824e-19
9.93986e-20
1.00935e-19
7.57378e-20
8.03702e-20
6.28151e-20
6.38842e-20
5.14022e-20
5.11996e-20
3.98853e-20
4.23255e-20
3.06442e-20
3.52947e-20
2.52625e-20
2.70537e-20
2.64453e-20
1.47308e-20
2.95002e-20
1.05066e-20
1.90742e-20
2.44278e-20
2.79443e-21
3.74854e-20
9.14629e-21
2.73125e-20
4.12546e-20
1.62092e-20
5.65053e-20
4.4018e-20
4.71789e-20
8.50489e-20
7.46712e-20
1.09131e-19
1.57412e-19
1.96437e-19
2.92078e-19
4.69423e-19
8.43344e-19
2.15662e-18
2.1286e-18
3.43848e-18
3.96629e-18
3.7255e-18
3.07761e-18
2.17255e-18
1.52961e-18
1.13265e-18
8.35844e-19
6.19661e-19
5.08898e-19
4.75471e-19
4.29799e-19
3.66917e-19
2.93539e-19
2.45815e-19
2.0642e-19
1.89867e-19
1.6221e-19
1.51117e-19
1.33853e-19
1.21102e-19
9.95106e-20
1.01167e-19
7.59287e-20
8.04558e-20
6.30173e-20
6.3973e-20
5.15549e-20
5.13063e-20
3.99804e-20
4.24629e-20
3.07118e-20
3.54278e-20
2.53932e-20
2.70881e-20
2.67844e-20
1.46309e-20
2.98983e-20
1.06855e-20
1.90708e-20
2.51685e-20
2.58731e-21
3.82278e-20
9.65828e-21
2.74433e-20
4.27171e-20
1.65123e-20
5.78628e-20
4.58372e-20
4.84171e-20
8.80327e-20
7.78221e-20
1.13089e-19
1.64018e-19
2.04861e-19
3.04535e-19
4.9026e-19
8.75473e-19
2.25164e-18
2.18451e-18
3.56057e-18
4.03648e-18
3.76198e-18
3.09785e-18
2.17884e-18
1.53503e-18
1.13869e-18
8.40782e-19
6.22666e-19
5.10784e-19
4.77464e-19
4.31692e-19
3.68342e-19
2.94393e-19
2.4643e-19
2.0688e-19
1.9045e-19
1.626e-19
1.51427e-19
1.34263e-19
1.21471e-19
9.95729e-20
1.01554e-19
7.60757e-20
8.0671e-20
6.32201e-20
6.41621e-20
5.17265e-20
5.15167e-20
4.00795e-20
4.27331e-20
3.07783e-20
3.56939e-20
2.55773e-20
2.71949e-20
2.73199e-20
1.4507e-20
3.05831e-20
1.09538e-20
1.91842e-20
2.63221e-20
2.35208e-21
3.94884e-20
1.0445e-20
2.78677e-20
4.49536e-20
1.7167e-20
6.00935e-20
4.86909e-20
5.05401e-20
9.2654e-20
8.26827e-20
1.19044e-19
1.73394e-19
2.16277e-19
3.19654e-19
5.13019e-19
9.0999e-19
2.34839e-18
2.23964e-18
3.54778e-18
3.98461e-18
3.69174e-18
3.01986e-18
2.13858e-18
1.5134e-18
1.12859e-18
8.36146e-19
6.19943e-19
5.0909e-19
4.7695e-19
4.31758e-19
3.68426e-19
2.94342e-19
2.46386e-19
2.06862e-19
1.90696e-19
1.62705e-19
1.51469e-19
1.34507e-19
1.2172e-19
9.94967e-20
1.01861e-19
7.61631e-20
8.0831e-20
6.34081e-20
6.43384e-20
5.18987e-20
5.1723e-20
4.01825e-20
4.30269e-20
3.08436e-20
3.60023e-20
2.57868e-20
2.73118e-20
2.79562e-20
1.43582e-20
3.14061e-20
1.12833e-20
1.93319e-20
2.7695e-20
2.11235e-21
4.09599e-20
1.14321e-20
2.83652e-20
4.7573e-20
1.79998e-20
6.26354e-20
5.20423e-20
5.29599e-20
9.77741e-20
8.81209e-20
1.25219e-19
1.83007e-19
2.27103e-19
3.32117e-19
5.28995e-19
9.18803e-19
2.40984e-18
2.22307e-18
3.40803e-18
3.86127e-18
3.53065e-18
2.8455e-18
2.05476e-18
1.46413e-18
1.10046e-18
8.19825e-19
6.0965e-19
5.02086e-19
4.72218e-19
4.28471e-19
3.66093e-19
2.92663e-19
2.45165e-19
2.05956e-19
1.9021e-19
1.62227e-19
1.50986e-19
1.34317e-19
1.21637e-19
9.91706e-20
1.01902e-19
7.60998e-20
8.0846e-20
6.34906e-20
6.44305e-20
5.20101e-20
5.18625e-20
4.02463e-20
4.32836e-20
3.08817e-20
3.62893e-20
2.59828e-20
2.73953e-20
2.85986e-20
1.41902e-20
3.22175e-20
1.16354e-20
1.94582e-20
2.90756e-20
1.89889e-21
4.23562e-20
1.24935e-20
2.87949e-20
5.01396e-20
1.88716e-20
6.49537e-20
5.53276e-20
5.51933e-20
1.02397e-19
9.31442e-20
1.30291e-19
1.90785e-19
2.35207e-19
3.39231e-19
5.37298e-19
9.01495e-19
2.45109e-18
2.16184e-18
3.23297e-18
3.80145e-18
3.33373e-18
2.61641e-18
1.9444e-18
1.39734e-18
1.05801e-18
7.93321e-19
5.92436e-19
4.89865e-19
4.6299e-19
4.21445e-19
3.60956e-19
2.89028e-19
2.42532e-19
2.03967e-19
1.88804e-19
1.61008e-19
1.49843e-19
1.33532e-19
1.21078e-19
9.85116e-20
1.01565e-19
7.57955e-20
8.06555e-20
6.33997e-20
6.439e-20
5.20172e-20
5.189e-20
4.02395e-20
4.34543e-20
3.08653e-20
3.65037e-20
2.61327e-20
2.74114e-20
2.91735e-20
1.40035e-20
3.29351e-20
1.19676e-20
1.95433e-20
3.03132e-20
1.72618e-21
4.35211e-20
1.35001e-20
2.91083e-20
5.23215e-20
1.96796e-20
6.68058e-20
5.81184e-20
5.70526e-20
1.05981e-19
9.72482e-20
1.33928e-19
1.96284e-19
2.40307e-19
3.42037e-19
5.39806e-19
8.67062e-19
2.50966e-18
2.12059e-18
3.06596e-18
3.89024e-18
3.13393e-18
2.36535e-18
1.81583e-18
1.31802e-18
1.00437e-18
7.58627e-19
5.69486e-19
4.73244e-19
4.49772e-19
4.10936e-19
3.53127e-19
2.83495e-19
2.38519e-19
2.00922e-19
1.86474e-19
1.59035e-19
1.48042e-19
1.32119e-19
1.20009e-19
9.7491e-20
1.00806e-19
7.51963e-20
8.02191e-20
6.3108e-20
6.417e-20
5.19005e-20
5.17764e-20
4.01441e-20
4.3508e-20
3.07831e-20
3.66123e-20
2.62194e-20
2.73437e-20
2.96392e-20
1.3799e-20
3.35039e-20
1.22502e-20
1.95919e-20
3.13373e-20
1.59219e-21
4.44208e-20
1.43653e-20
2.93238e-20
5.40288e-20
2.03483e-20
6.81922e-20
6.02546e-20
5.85323e-20
1.08527e-19
1.00295e-19
1.36267e-19
1.9962e-19
2.42652e-19
3.41768e-19
5.37588e-19
8.21986e-19
2.59907e-18
2.14879e-18
2.92289e-18
4.15525e-18
2.94569e-18
2.11612e-18
1.67251e-18
1.22896e-18
9.4189e-19
7.1733e-19
5.41998e-19
4.53127e-19
4.33303e-19
3.97568e-19
3.43035e-19
2.76306e-19
2.33282e-19
1.96927e-19
1.83311e-19
1.56396e-19
1.45667e-19
1.30143e-19
1.18477e-19
9.61309e-20
9.96498e-20
7.43088e-20
7.95226e-20
6.26217e-20
6.37562e-20
5.16617e-20
5.15158e-20
3.99604e-20
4.34358e-20
3.06385e-20
3.66029e-20
2.62449e-20
2.71885e-20
2.99871e-20
1.35815e-20
3.39273e-20
1.24822e-20
1.9605e-20
3.21726e-20
1.48131e-21
4.50898e-20
1.50849e-20
2.94643e-20
5.53287e-20
2.08481e-20
6.92675e-20
6.17869e-20
5.96821e-20
1.10279e-19
1.02402e-19
1.37539e-19
2.01226e-19
2.42526e-19
3.39378e-19
5.30808e-19
7.71275e-19
2.7155e-18
2.2586e-18
2.80913e-18
4.55811e-18
2.77678e-18
1.88765e-18
1.51906e-18
1.13323e-18
8.73204e-19
6.71356e-19
5.11418e-19
4.30544e-19
4.14517e-19
3.82073e-19
3.3123e-19
2.67831e-19
2.27057e-19
1.92149e-19
1.79453e-19
1.53207e-19
1.42832e-19
1.2772e-19
1.16576e-19
9.44903e-20
9.81641e-20
7.31789e-20
7.85704e-20
6.19666e-20
6.31507e-20
5.1313e-20
5.11163e-20
3.97029e-20
4.32471e-20
3.04451e-20
3.64809e-20
2.62245e-20
2.69492e-20
3.02369e-20
1.33565e-20
3.4218e-20
1.26921e-20
1.95699e-20
3.28907e-20
1.36852e-21
4.55942e-20
1.57114e-20
2.94969e-20
5.63794e-20
2.11387e-20
7.00874e-20
6.28449e-20
6.04355e-20
1.11389e-19
1.03559e-19
1.3769e-19
2.01267e-19
2.39912e-19
3.3474e-19
5.18709e-19
7.18604e-19
2.8406e-18
2.41916e-18
2.72123e-18
5.0135e-18
2.63325e-18
1.68832e-18
1.36257e-18
1.03413e-18
8.01361e-19
6.22777e-19
4.79145e-19
4.06575e-19
3.94273e-19
3.65183e-19
3.18297e-19
2.58482e-19
2.20138e-19
1.86799e-19
1.75062e-19
1.49593e-19
1.3965e-19
1.24968e-19
1.14429e-19
9.26446e-20
9.64388e-20
7.18826e-20
7.73857e-20
6.11883e-20
6.23699e-20
5.08704e-20
5.05922e-20
3.93908e-20
4.29564e-20
3.02185e-20
3.62562e-20
2.61792e-20
2.66267e-20
3.04074e-20
1.31293e-20
3.4372e-20
1.29225e-20
1.94431e-20
3.3566e-20
1.23025e-21
4.59175e-20
1.63186e-20
2.93136e-20
5.72614e-20
2.11676e-20
7.0543e-20
6.34842e-20
6.05605e-20
1.11725e-19
1.03652e-19
1.36365e-19
1.9945e-19
2.34214e-19
3.26842e-19
4.98705e-19
6.64456e-19
2.94646e-18
2.56418e-18
2.64475e-18
5.39559e-18
2.51732e-18
1.51511e-18
1.21085e-18
9.35243e-19
7.29415e-19
5.73593e-19
4.46568e-19
3.82221e-19
3.73399e-19
3.47604e-19
3.04768e-19
2.48656e-19
2.12825e-19
1.81108e-19
1.70315e-19
1.45697e-19
1.36208e-19
1.21985e-19
1.12144e-19
9.06711e-20
9.45525e-20
7.05069e-20
7.60085e-20
6.03231e-20
6.14413e-20
5.03437e-20
4.9963e-20
3.9041e-20
4.25753e-20
2.99731e-20
3.59356e-20
2.61232e-20
2.62211e-20
3.051e-20
1.29043e-20
3.43658e-20
1.32099e-20
1.91705e-20
3.42268e-20
1.05265e-21
4.59842e-20
1.69469e-20
2.87955e-20
5.79215e-20
2.08799e-20
7.04165e-20
6.36428e-20
5.98187e-20
1.11047e-19
1.02435e-19
1.33094e-19
1.95351e-19
2.25024e-19
3.14699e-19
4.70069e-19
6.085e-19
2.9975e-18
2.63003e-18
2.56221e-18
5.60861e-18
2.42556e-18
1.36101e-18
1.07015e-18
8.39589e-19
6.59917e-19
5.2544e-19
4.14757e-19
3.583e-19
3.52583e-19
3.29902e-19
2.91077e-19
2.38685e-19
2.05363e-19
1.7527e-19
1.65375e-19
1.4164e-19
1.32601e-19
1.18852e-19
1.09791e-19
8.86387e-20
9.25649e-20
6.91279e-20
7.4488e-20
5.94092e-20
6.03975e-20
4.97428e-20
4.92444e-20
3.86641e-20
4.21091e-20
2.97202e-20
3.55294e-20
2.60633e-20
2.57302e-20
3.05403e-20
1.2688e-20
3.4164e-20
1.35613e-20
1.87112e-20
3.48567e-20
8.37526e-22
4.57183e-20
1.75889e-20
2.78476e-20
5.82708e-20
2.02562e-20
6.95527e-20
6.32633e-20
5.8104e-20
1.09195e-19
9.98372e-20
1.27813e-19
1.8888e-19
2.12467e-19
2.98085e-19
4.33931e-19
5.51229e-19
2.97028e-18
2.57734e-18
2.45519e-18
5.59682e-18
2.3475e-18
1.21751e-18
9.44261e-19
7.49381e-19
5.9486e-19
4.79516e-19
3.84447e-19
3.35408e-19
3.32362e-19
3.12536e-19
2.77589e-19
2.28809e-19
1.97945e-19
1.69448e-19
1.60385e-19
1.37539e-19
1.2892e-19
1.15642e-19
1.07418e-19
8.66043e-20
9.05207e-20
6.78006e-20
7.28825e-20
5.84781e-20
5.92809e-20
4.90804e-20
4.8454e-20
3.8265e-20
4.15612e-20
2.94686e-20
3.50423e-20
2.59985e-20
2.51647e-20
3.0486e-20
1.24871e-20
3.37453e-20
1.39637e-20
1.80762e-20
3.54627e-20
6.00834e-22
4.51036e-20
1.82175e-20
2.64921e-20
5.82462e-20
1.93313e-20
6.79212e-20
6.23482e-20
5.54496e-20
1.0622e-19
9.60115e-20
1.20753e-19
1.80366e-19
1.97283e-19
2.77803e-19
3.92844e-19
4.93648e-19
2.85502e-18
2.40069e-18
2.31221e-18
5.35643e-18
2.27088e-18
1.07896e-18
8.34497e-19
6.66049e-19
5.35363e-19
4.36622e-19
3.56077e-19
3.13936e-19
3.1311e-19
2.9585e-19
2.64549e-19
2.19233e-19
1.9072e-19
1.63775e-19
1.5546e-19
1.33501e-19
1.25253e-19
1.12419e-19
1.05053e-19
8.46114e-20
8.84514e-20
6.65557e-20
7.12394e-20
5.75555e-20
5.81283e-20
4.8374e-20
4.76105e-20
3.78497e-20
4.09382e-20
2.92252e-20
3.44845e-20
2.59257e-20
2.45437e-20
3.03419e-20
1.23086e-20
3.31216e-20
1.43948e-20
1.7296e-20
3.60957e-20
3.6857e-22
4.42294e-20
1.8818e-20
2.48048e-20
5.78445e-20
1.81908e-20
6.56168e-20
6.10052e-20
5.20607e-20
1.02344e-19
9.12859e-20
1.12424e-19
1.70407e-19
1.80568e-19
2.55225e-19
3.5032e-19
4.37356e-19
2.66009e-18
2.12727e-18
2.1287e-18
4.926e-18
2.18339e-18
9.43948e-19
7.40112e-19
5.90378e-19
4.81867e-19
3.97227e-19
3.29853e-19
2.94077e-19
2.95065e-19
2.80051e-19
2.52118e-19
2.10084e-19
1.83766e-19
1.5833e-19
1.50682e-19
1.29593e-19
1.21664e-19
1.09242e-19
1.02717e-19
8.26919e-20
8.63819e-20
6.54042e-20
6.95965e-20
5.66593e-20
5.69689e-20
4.7645e-20
4.67351e-20
3.74265e-20
4.02527e-20
2.89954e-20
3.38716e-20
2.58433e-20
2.38937e-20
3.01136e-20
1.2162e-20
3.2324e-20
1.48429e-20
1.63969e-20
3.6918e-20
1.73563e-22
4.33236e-20
1.93998e-20
2.28864e-20
5.71204e-20
1.69454e-20
6.27759e-20
5.9384e-20
4.81945e-20
9.78553e-20
8.60527e-20
1.034e-19
1.59687e-19
1.63469e-19
2.31844e-19
3.09303e-19
3.83797e-19
2.40383e-18
1.79923e-18
1.90929e-18
4.3694e-18
2.0761e-18
8.14683e-19
6.5907e-19
5.22673e-19
4.34355e-19
3.61516e-19
3.05791e-19
2.75874e-19
2.78321e-19
2.65254e-19
2.40394e-19
2.01419e-19
1.77131e-19
1.5316e-19
1.46101e-19
1.25858e-19
1.18201e-19
1.0616e-19
1.00426e-19
8.08681e-20
8.43335e-20
6.43451e-20
6.7981e-20
5.58009e-20
5.58275e-20
4.6916e-20
4.58471e-20
3.70052e-20
3.95222e-20
2.87816e-20
3.32241e-20
2.57514e-20
2.32421e-20
2.98136e-20
1.20569e-20
3.13961e-20
1.52973e-20
1.54085e-20
3.81996e-20
4.75439e-23
4.27709e-20
1.99811e-20
2.08407e-20
5.61535e-20
1.57005e-20
5.95811e-20
5.76366e-20
4.41001e-20
9.30365e-20
8.06689e-20
9.41955e-20
1.48798e-19
1.46938e-19
2.08935e-19
2.71812e-19
3.33883e-19
2.11223e-18
1.46313e-18
1.66457e-18
3.75257e-18
1.9431e-18
6.94727e-19
5.88753e-19
4.62837e-19
3.92456e-19
3.2945e-19
2.83795e-19
2.59261e-19
2.62884e-19
2.515e-19
2.29407e-19
1.93262e-19
1.70836e-19
1.4829e-19
1.41746e-19
1.22319e-19
1.14892e-19
1.0321e-19
9.81939e-20
7.91537e-20
8.23225e-20
6.33715e-20
6.64095e-20
5.49862e-20
5.47219e-20
4.62044e-20
4.49639e-20
3.65952e-20
3.87665e-20
2.85856e-20
3.25612e-20
2.56538e-20
2.26068e-20
2.94649e-20
1.19837e-20
3.04057e-20
1.56983e-20
1.44432e-20
3.88572e-20
6.62156e-28
4.1888e-20
2.04566e-20
1.87745e-20
5.50125e-20
1.45392e-20
5.61866e-20
5.58837e-20
3.99818e-20
8.81226e-20
7.54095e-20
8.52014e-20
1.38219e-19
1.31584e-19
1.87336e-19
2.38883e-19
2.88151e-19
1.80992e-18
1.15332e-18
1.41156e-18
3.13575e-18
1.78434e-18
5.87708e-19
5.26692e-19
4.10517e-19
3.55631e-19
3.00867e-19
2.6372e-19
2.44119e-19
2.48708e-19
2.38778e-19
2.19155e-19
1.8561e-19
1.64881e-19
1.4372e-19
1.37625e-19
1.18983e-19
1.11751e-19
1.00416e-19
9.6028e-20
7.75554e-20
8.03695e-20
6.24751e-20
6.4897e-20
5.42171e-20
5.36621e-20
4.5523e-20
4.40993e-20
3.62043e-20
3.80039e-20
2.84081e-20
3.18992e-20
2.55562e-20
2.19983e-20
2.9092e-20
1.1929e-20
2.94121e-20
1.59915e-20
1.35922e-20
3.73776e-20
4.33285e-23
3.93935e-20
2.07428e-20
1.67709e-20
5.37616e-20
1.35192e-20
5.2712e-20
5.42074e-20
3.59901e-20
8.32713e-20
7.04592e-20
7.6679e-20
1.28232e-19
1.17779e-19
1.6752e-19
2.10668e-19
2.47017e-19
1.51927e-18
8.92916e-19
1.16853e-18
2.56363e-18
1.60435e-18
4.96247e-19
4.70933e-19
3.6517e-19
3.23305e-19
2.75543e-19
2.45408e-19
2.30304e-19
2.35711e-19
2.27047e-19
2.09614e-19
1.78453e-19
1.59256e-19
1.39442e-19
1.33737e-19
1.15847e-19
1.08778e-19
9.77901e-20
9.39344e-20
7.60731e-20
7.84842e-20
6.16476e-20
6.34481e-20
5.34932e-20
5.26536e-20
4.48798e-20
4.32638e-20
3.58373e-20
3.72504e-20
2.82481e-20
3.12531e-20
2.54609e-20
2.14293e-20
2.8707e-20
1.19047e-20
2.84278e-20
1.62305e-20
1.28095e-20
3.54699e-20
1.74418e-22
3.66694e-20
2.09841e-20
1.48666e-20
5.24502e-20
1.26731e-20
4.92482e-20
5.26557e-20
3.22256e-20
7.85923e-20
6.5923e-20
6.87805e-20
1.18982e-19
1.05647e-19
1.49643e-19
1.86862e-19
2.10739e-19
1.25656e-18
6.92329e-19
9.5297e-19
2.06334e-18
1.41136e-18
4.20964e-19
4.20194e-19
3.26148e-19
2.9492e-19
2.53207e-19
2.28706e-19
2.17664e-19
2.23793e-19
2.16244e-19
2.00744e-19
1.71757e-19
1.53941e-19
1.35441e-19
1.30076e-19
1.129e-19
1.05969e-19
9.53343e-20
9.19161e-20
7.47025e-20
7.6675e-20
6.0881e-20
6.20654e-20
5.2813e-20
5.16991e-20
4.42786e-20
4.24651e-20
3.54969e-20
3.65182e-20
2.81047e-20
3.06339e-20
2.53701e-20
2.09075e-20
2.83198e-20
1.192e-20
2.74607e-20
1.64695e-20
1.20563e-20
3.41557e-20
4.28246e-22
3.4539e-20
2.12774e-20
1.30893e-20
5.11086e-20
1.20194e-20
4.58584e-20
5.12511e-20
2.8749e-20
7.4129e-20
6.18477e-20
6.15667e-20
1.10509e-19
9.51385e-20
1.33613e-19
1.66875e-19
1.79434e-19
1.03191e-18
5.51016e-19
7.77603e-19
1.64517e-18
1.21432e-18
3.60733e-19
3.73776e-19
2.92703e-19
2.69984e-19
2.33562e-19
2.13475e-19
2.06052e-19
2.12846e-19
2.06299e-19
1.92497e-19
1.65487e-19
1.48912e-19
1.31697e-19
1.26632e-19
1.1013e-19
1.03315e-19
9.30453e-20
8.9974e-20
7.34358e-20
7.49469e-20
6.01686e-20
6.07493e-20
5.21745e-20
5.07989e-20
4.37213e-20
4.17077e-20
3.51839e-20
3.58146e-20
2.79772e-20
3.00482e-20
2.52868e-20
2.04328e-20
2.79415e-20
1.19672e-20
2.6533e-20
1.67054e-20
1.13602e-20
3.31967e-20
7.70289e-22
3.27153e-20
2.16105e-20
1.14709e-20
4.97575e-20
1.15559e-20
4.25854e-20
4.99947e-20
2.55908e-20
6.99113e-20
5.82409e-20
5.50409e-20
1.02791e-19
8.60951e-20
1.19277e-19
1.50037e-19
1.53093e-19
8.48532e-19
4.60841e-19
6.51476e-19
1.30805e-18
1.02265e-18
3.12977e-19
3.31423e-19
2.64101e-19
2.48072e-19
2.16318e-19
1.99593e-19
1.95338e-19
2.02764e-19
1.97142e-19
1.84827e-19
1.59606e-19
1.44148e-19
1.2819e-19
1.2339e-19
1.07525e-19
1.00804e-19
9.09153e-20
8.81078e-20
7.2265e-20
7.33023e-20
5.95039e-20
5.94987e-20
5.15748e-20
4.99518e-20
4.3207e-20
4.09946e-20
3.48978e-20
3.51445e-20
2.78643e-20
2.95005e-20
2.52118e-20
2.00057e-20
2.75775e-20
1.20428e-20
2.56547e-20
1.69319e-20
1.07464e-20
3.24135e-20
1.16338e-21
3.1054e-20
2.19657e-20
1.00228e-20
4.84121e-20
1.12723e-20
3.94572e-20
4.88762e-20
2.27628e-20
6.59432e-20
5.50778e-20
4.91712e-20
9.57725e-20
7.83339e-20
1.06399e-19
1.3577e-19
1.31509e-19
7.05342e-19
4.09745e-19
5.7923e-19
1.04231e-18
8.45375e-19
2.74414e-19
2.93153e-19
2.3962e-19
2.28828e-19
2.01196e-19
1.8696e-19
1.85415e-19
1.93452e-19
1.88704e-19
1.77686e-19
1.5408e-19
1.39626e-19
1.24903e-19
1.20339e-19
1.05069e-19
9.84266e-20
8.8934e-20
8.6316e-20
7.11811e-20
7.17416e-20
5.88813e-20
5.83117e-20
5.10107e-20
4.91563e-20
4.27342e-20
4.03273e-20
3.46374e-20
3.45109e-20
2.77646e-20
2.89935e-20
2.51448e-20
1.96268e-20
2.72293e-20
1.2147e-20
2.48256e-20
1.71521e-20
1.02188e-20
3.17172e-20
1.59633e-21
2.9509e-20
2.23444e-20
8.74241e-21
4.70813e-20
1.11537e-20
3.64915e-20
4.78782e-20
2.02629e-20
6.22133e-20
5.23235e-20
4.3906e-20
8.93841e-20
7.16708e-20
9.47723e-20
1.23541e-19
1.14323e-19
5.98048e-19
3.84392e-19
5.61765e-19
8.34603e-19
6.90237e-19
2.41779e-19
2.59098e-19
2.18641e-19
2.11962e-19
1.87946e-19
1.75487e-19
1.76192e-19
1.84824e-19
1.80917e-19
1.71033e-19
1.48875e-19
1.35325e-19
1.21813e-19
1.17462e-19
1.02752e-19
9.61722e-20
8.70899e-20
8.45961e-20
7.0175e-20
7.02639e-20
5.82956e-20
5.71857e-20
5.04789e-20
4.84101e-20
4.23008e-20
3.97066e-20
3.44009e-20
3.39144e-20
2.76765e-20
2.85281e-20
2.50851e-20
1.92955e-20
2.68984e-20
1.22778e-20
2.40467e-20
1.73695e-20
9.77241e-21
3.10601e-20
2.06568e-21
2.80626e-20
2.27435e-20
7.62531e-21
4.5771e-20
1.11818e-20
3.37019e-20
4.69804e-20
1.80811e-20
5.8707e-20
4.99359e-20
3.91928e-20
8.35513e-20
6.59403e-20
8.42053e-20
1.12948e-19
1.01212e-19
5.20702e-19
3.71398e-19
5.9614e-19
6.69207e-19
5.62558e-19
2.12321e-19
2.29266e-19
2.00638e-19
1.97237e-19
1.76345e-19
1.65096e-19
1.67596e-19
1.76801e-19
1.73723e-19
1.64827e-19
1.4396e-19
1.31225e-19
1.18904e-19
1.14749e-19
1.00561e-19
9.40306e-20
8.5372e-20
8.29452e-20
6.92388e-20
6.88665e-20
5.7743e-20
5.61169e-20
4.99767e-20
4.77104e-20
4.19049e-20
3.91325e-20
3.41871e-20
3.33549e-20
2.75991e-20
2.81045e-20
2.50325e-20
1.90106e-20
2.65862e-20
1.24323e-20
2.33202e-20
1.75842e-20
9.40225e-21
3.04325e-20
2.56748e-21
2.6708e-20
2.31553e-20
6.66607e-21
4.44906e-20
1.13369e-20
3.10989e-20
4.61682e-20
1.62027e-20
5.54175e-20
4.78752e-20
3.49869e-20
7.82199e-20
6.10171e-20
7.45461e-20
1.03669e-19
9.18883e-20
4.66159e-19
3.58714e-19
3.28184e-18
3.88885e-18
3.64256e-18
3.01306e-18
2.14418e-18
1.51294e-18
1.12212e-18
8.29658e-19
6.16719e-19
5.07231e-19
4.73811e-19
4.28118e-19
3.65593e-19
2.926e-19
2.45102e-19
2.05834e-19
1.89312e-19
1.61793e-19
1.50845e-19
1.33506e-19
1.20836e-19
9.9414e-20
1.00967e-19
7.57454e-20
8.03974e-20
6.28166e-20
6.39097e-20
5.14087e-20
5.12324e-20
3.98796e-20
4.23505e-20
3.06312e-20
3.53043e-20
2.52494e-20
2.70575e-20
2.64376e-20
1.47378e-20
2.94972e-20
1.05191e-20
1.90728e-20
2.44534e-20
2.78817e-21
3.74922e-20
9.13147e-21
2.73358e-20
4.13051e-20
1.61981e-20
5.65784e-20
4.40218e-20
4.72573e-20
8.50775e-20
7.47523e-20
1.0907e-19
1.57449e-19
1.96248e-19
2.91848e-19
4.68957e-19
8.42042e-19
2.16615e-18
2.13473e-18
3.44468e-18
3.98099e-18
3.73908e-18
3.08576e-18
2.17721e-18
1.53202e-18
1.13468e-18
8.37688e-19
6.21176e-19
5.09888e-19
4.76023e-19
4.30075e-19
3.67009e-19
2.93527e-19
2.45728e-19
2.06326e-19
1.89774e-19
1.62172e-19
1.51105e-19
1.33852e-19
1.21114e-19
9.95256e-20
1.01198e-19
7.59356e-20
8.04826e-20
6.30184e-20
6.39986e-20
5.1562e-20
5.13394e-20
3.99751e-20
4.24879e-20
3.06992e-20
3.54369e-20
2.53808e-20
2.70912e-20
2.67775e-20
1.46372e-20
2.98958e-20
1.06976e-20
1.90696e-20
2.51956e-20
2.58102e-21
3.82361e-20
9.64278e-21
2.74674e-20
4.27699e-20
1.65019e-20
5.79373e-20
4.58429e-20
4.84954e-20
8.80635e-20
7.79024e-20
1.13021e-19
1.64046e-19
2.0466e-19
3.04291e-19
4.89693e-19
8.74142e-19
2.26132e-18
2.19065e-18
3.56855e-18
4.05174e-18
3.77538e-18
3.10609e-18
2.18333e-18
1.53723e-18
1.1406e-18
8.42605e-19
6.24162e-19
5.11767e-19
4.78011e-19
4.31957e-19
3.68428e-19
2.94375e-19
2.46337e-19
2.06781e-19
1.90353e-19
1.6256e-19
1.51415e-19
1.3426e-19
1.21482e-19
9.95876e-20
1.01586e-19
7.60817e-20
8.06974e-20
6.32205e-20
6.41881e-20
5.17345e-20
5.15511e-20
4.00748e-20
4.27586e-20
3.07663e-20
3.57027e-20
2.5566e-20
2.71978e-20
2.73141e-20
1.45128e-20
3.05821e-20
1.09659e-20
1.91827e-20
2.63516e-20
2.3456e-21
3.95006e-20
1.04273e-20
2.78942e-20
4.50107e-20
1.71581e-20
6.01701e-20
4.86999e-20
5.06213e-20
9.26912e-20
8.27696e-20
1.18985e-19
1.73447e-19
2.16089e-19
3.19429e-19
5.12435e-19
9.09182e-19
2.35789e-18
2.24656e-18
3.55628e-18
4.0006e-18
3.70397e-18
3.02757e-18
2.14268e-18
1.51517e-18
1.13037e-18
8.37881e-19
6.21415e-19
5.1005e-19
4.77481e-19
4.32009e-19
3.68498e-19
2.94314e-19
2.46285e-19
2.06753e-19
1.90591e-19
1.62661e-19
1.51455e-19
1.34501e-19
1.21729e-19
9.95112e-20
1.01893e-19
7.61684e-20
8.08565e-20
6.3408e-20
6.43637e-20
5.1908e-20
5.1758e-20
4.01791e-20
4.30527e-20
3.08326e-20
3.60103e-20
2.57769e-20
2.73135e-20
2.79521e-20
1.4363e-20
3.14051e-20
1.12954e-20
1.93302e-20
2.77312e-20
2.10606e-21
4.09763e-20
1.14085e-20
2.83963e-20
4.76355e-20
1.79932e-20
6.27184e-20
5.20577e-20
5.30467e-20
9.78261e-20
8.82246e-20
1.25176e-19
1.83091e-19
2.26973e-19
3.31994e-19
5.28564e-19
9.18837e-19
2.42024e-18
2.23066e-18
3.41447e-18
3.87577e-18
3.54085e-18
2.8521e-18
2.05819e-18
1.46581e-18
1.10199e-18
8.21443e-19
6.11055e-19
5.03019e-19
4.72722e-19
4.28709e-19
3.66147e-19
2.9262e-19
2.45055e-19
2.05836e-19
1.90095e-19
1.62176e-19
1.50969e-19
1.34309e-19
1.21643e-19
9.9185e-20
1.01933e-19
7.6105e-20
8.08699e-20
6.34899e-20
6.44537e-20
5.20213e-20
5.18979e-20
4.02452e-20
4.33088e-20
3.08727e-20
3.62954e-20
2.59751e-20
2.73957e-20
2.85962e-20
1.41929e-20
3.22183e-20
1.16473e-20
1.94557e-20
2.91174e-20
1.89353e-21
4.2378e-20
1.24589e-20
2.88323e-20
5.02093e-20
1.88688e-20
6.50425e-20
5.53502e-20
5.52914e-20
1.02469e-19
9.32707e-20
1.30287e-19
1.90924e-19
2.35154e-19
3.39258e-19
5.37115e-19
9.01619e-19
2.46251e-18
2.16922e-18
3.24013e-18
3.81257e-18
3.34202e-18
2.62183e-18
1.94705e-18
1.39869e-18
1.05934e-18
7.94824e-19
5.93828e-19
4.90792e-19
4.63472e-19
4.21657e-19
3.60994e-19
2.88972e-19
2.42412e-19
2.03835e-19
1.88678e-19
1.60951e-19
1.49821e-19
1.33521e-19
1.2108e-19
9.85253e-20
1.01595e-19
7.58011e-20
8.06768e-20
6.33992e-20
6.44097e-20
5.20308e-20
5.19251e-20
4.02415e-20
4.34784e-20
3.08588e-20
3.65063e-20
2.6128e-20
2.74085e-20
2.91744e-20
1.40038e-20
3.29375e-20
1.19787e-20
1.95398e-20
3.03633e-20
1.72278e-21
4.35494e-20
1.3448e-20
2.91528e-20
5.23981e-20
1.96816e-20
6.68994e-20
5.81492e-20
5.71627e-20
1.06067e-19
9.73982e-20
1.33953e-19
1.96477e-19
2.4031e-19
3.42211e-19
5.39795e-19
8.67543e-19
2.52145e-18
2.12667e-18
3.07279e-18
3.8971e-18
3.14038e-18
2.36974e-18
1.818e-18
1.31907e-18
1.00555e-18
7.60085e-19
5.70858e-19
4.74149e-19
4.50228e-19
4.11121e-19
3.5315e-19
2.83429e-19
2.38389e-19
2.00781e-19
1.86336e-19
1.5897e-19
1.48014e-19
1.32103e-19
1.20005e-19
9.75043e-20
1.00834e-19
7.52031e-20
8.02369e-20
6.31081e-20
6.41847e-20
5.19169e-20
5.18096e-20
4.01501e-20
4.35293e-20
3.07801e-20
3.66107e-20
2.62186e-20
2.73362e-20
2.96446e-20
1.37952e-20
3.35075e-20
1.22589e-20
1.95851e-20
3.13957e-20
1.59188e-21
4.44559e-20
1.42882e-20
2.93761e-20
5.4112e-20
2.03555e-20
6.82887e-20
6.02932e-20
5.86525e-20
1.08627e-19
1.00467e-19
1.36313e-19
1.99866e-19
2.42686e-19
3.4207e-19
5.3768e-19
8.22663e-19
2.61063e-18
2.15313e-18
2.92916e-18
4.15801e-18
2.95037e-18
2.11967e-18
1.67431e-18
1.22973e-18
9.42925e-19
7.18754e-19
5.43359e-19
4.54014e-19
4.3375e-19
3.97734e-19
3.43046e-19
2.76231e-19
2.33145e-19
1.96779e-19
1.83163e-19
1.56324e-19
1.45634e-19
1.30125e-19
1.18466e-19
9.61441e-20
9.96752e-20
7.43178e-20
7.95359e-20
6.2623e-20
6.37648e-20
5.16812e-20
5.15457e-20
3.99715e-20
4.34528e-20
3.06403e-20
3.6595e-20
2.62492e-20
2.71748e-20
2.99969e-20
1.35711e-20
3.39341e-20
1.2486e-20
1.9594e-20
3.22353e-20
1.48503e-21
4.51451e-20
1.49728e-20
2.95232e-20
5.54144e-20
2.08598e-20
6.93661e-20
6.18317e-20
5.98111e-20
1.10389e-19
1.02594e-19
1.376e-19
2.01512e-19
2.42572e-19
3.39777e-19
5.30901e-19
7.72008e-19
2.7263e-18
2.26117e-18
2.81482e-18
4.55768e-18
2.77985e-18
1.89048e-18
1.52052e-18
1.13375e-18
8.74103e-19
6.72734e-19
5.12751e-19
4.31414e-19
4.14949e-19
3.82223e-19
3.3123e-19
2.67749e-19
2.26912e-19
1.91995e-19
1.79295e-19
1.5313e-19
1.42794e-19
1.277e-19
1.16559e-19
9.45036e-20
9.81858e-20
7.31911e-20
7.85791e-20
6.19695e-20
6.31523e-20
5.13361e-20
5.11419e-20
3.97198e-20
4.3259e-20
3.04525e-20
3.64654e-20
2.62353e-20
2.69271e-20
3.02514e-20
1.33369e-20
3.42299e-20
1.26846e-20
1.9553e-20
3.29504e-20
1.3763e-21
4.5669e-20
1.55519e-20
2.95597e-20
5.64725e-20
2.11545e-20
7.01861e-20
6.28949e-20
6.05697e-20
1.11502e-19
1.03765e-19
1.37758e-19
2.0158e-19
2.39949e-19
3.35201e-19
5.18819e-19
7.19345e-19
2.85039e-18
2.42041e-18
2.7264e-18
5.01121e-18
2.63485e-18
1.69064e-18
1.36374e-18
1.03444e-18
8.02125e-19
6.24098e-19
4.8045e-19
4.0743e-19
3.94693e-19
3.65324e-19
3.18289e-19
2.58396e-19
2.19991e-19
1.86643e-19
1.74898e-19
1.49511e-19
1.39606e-19
1.24947e-19
1.14405e-19
9.26586e-20
9.64559e-20
7.18984e-20
7.73895e-20
6.11933e-20
6.23641e-20
5.08973e-20
5.06132e-20
3.94139e-20
4.29618e-20
3.02323e-20
3.62315e-20
2.61973e-20
2.6595e-20
3.04293e-20
1.30973e-20
3.43918e-20
1.28984e-20
1.94262e-20
3.3604e-20
1.24132e-21
4.60326e-20
1.60969e-20
2.93773e-20
5.73594e-20
2.11867e-20
7.06392e-20
6.35373e-20
6.06967e-20
1.1184e-19
1.03864e-19
1.36426e-19
1.99775e-19
2.34237e-19
3.27336e-19
4.98786e-19
6.65166e-19
2.95518e-18
2.56486e-18
2.64953e-18
5.39256e-18
2.5178e-18
1.51705e-18
1.21178e-18
9.35379e-19
7.30044e-19
5.74851e-19
4.47847e-19
3.83062e-19
3.7381e-19
3.47736e-19
3.04752e-19
2.48566e-19
2.12675e-19
1.80949e-19
1.70145e-19
1.45611e-19
1.36159e-19
1.21963e-19
1.12113e-19
9.06863e-20
9.45646e-20
7.0526e-20
7.60072e-20
6.03308e-20
6.1428e-20
5.03744e-20
4.99779e-20
3.9071e-20
4.25734e-20
2.99942e-20
3.59017e-20
2.61494e-20
2.6177e-20
3.05421e-20
1.28572e-20
3.43945e-20
1.31559e-20
1.91484e-20
3.42121e-20
1.0653e-21
4.6137e-20
1.66489e-20
2.88554e-20
5.80238e-20
2.09014e-20
7.05079e-20
6.36968e-20
5.99525e-20
1.11159e-19
1.02646e-19
1.33151e-19
1.95671e-19
2.25029e-19
3.15171e-19
4.70128e-19
6.0913e-19
3.00509e-18
2.63083e-18
2.56682e-18
5.60575e-18
2.42517e-18
1.36268e-18
1.07089e-18
8.39558e-19
6.60415e-19
5.26631e-19
4.16006e-19
3.59125e-19
3.52986e-19
3.30029e-19
2.91062e-19
2.38593e-19
2.05212e-19
1.7511e-19
1.652e-19
1.41551e-19
1.32546e-19
1.1883e-19
1.09754e-19
8.86554e-20
9.25725e-20
6.9151e-20
7.44816e-20
5.94195e-20
6.03775e-20
4.97769e-20
4.92525e-20
3.87006e-20
4.20998e-20
2.97487e-20
3.54853e-20
2.6098e-20
2.5674e-20
3.05828e-20
1.26221e-20
3.42068e-20
1.34663e-20
1.86854e-20
3.4743e-20
8.50639e-22
4.58944e-20
1.7202e-20
2.79034e-20
5.83742e-20
2.02787e-20
6.96372e-20
6.33167e-20
5.82313e-20
1.09302e-19
1.00038e-19
1.27862e-19
1.89179e-19
2.12457e-19
2.98499e-19
4.33969e-19
5.51764e-19
2.97678e-18
2.5787e-18
2.45975e-18
5.59465e-18
2.34653e-18
1.21896e-18
9.44847e-19
7.49247e-19
5.95231e-19
4.80632e-19
3.85662e-19
3.36215e-19
3.32758e-19
3.12661e-19
2.77569e-19
2.28719e-19
1.97796e-19
1.69289e-19
1.60208e-19
1.3745e-19
1.2886e-19
1.1562e-19
1.07376e-19
8.66222e-20
9.05239e-20
6.78275e-20
7.28716e-20
5.84909e-20
5.92539e-20
4.91176e-20
4.84555e-20
3.83075e-20
4.15448e-20
2.95043e-20
3.4988e-20
2.60418e-20
2.50954e-20
3.0539e-20
1.24009e-20
3.38057e-20
1.38196e-20
1.80366e-20
3.51452e-20
6.16057e-22
4.52568e-20
1.77348e-20
2.65379e-20
5.83471e-20
1.93546e-20
6.79978e-20
6.23994e-20
5.55668e-20
1.06318e-19
9.61969e-20
1.20795e-19
1.80629e-19
1.97263e-19
2.78128e-19
3.92871e-19
4.9408e-19
2.86054e-18
2.40267e-18
2.31679e-18
5.35514e-18
2.26965e-18
1.0802e-18
8.34956e-19
6.6584e-19
5.35612e-19
4.37659e-19
3.57253e-19
3.14722e-19
3.13492e-19
2.9597e-19
2.64525e-19
2.19147e-19
1.9057e-19
1.63616e-19
1.55281e-19
1.33411e-19
1.25188e-19
1.12398e-19
1.05006e-19
8.46304e-20
8.84506e-20
6.65859e-20
7.12242e-20
5.75703e-20
5.80951e-20
4.84137e-20
4.76057e-20
3.78974e-20
4.09153e-20
2.92676e-20
3.44215e-20
2.59768e-20
2.44633e-20
3.04047e-20
1.2204e-20
3.31989e-20
1.41973e-20
1.72362e-20
3.53843e-20
3.90005e-22
4.42521e-20
1.82331e-20
2.48354e-20
5.7942e-20
1.82145e-20
6.56835e-20
6.10531e-20
5.21657e-20
1.02434e-19
9.14515e-20
1.1246e-19
1.70624e-19
1.80543e-19
2.55442e-19
3.50337e-19
4.3768e-19
2.66472e-18
2.12977e-18
2.1333e-18
4.92547e-18
2.18213e-18
9.44956e-19
7.40469e-19
5.90122e-19
4.8201e-19
3.98179e-19
3.30985e-19
2.94841e-19
2.95438e-19
2.80167e-19
2.52093e-19
2.09998e-19
1.83617e-19
1.58172e-19
1.50502e-19
1.29503e-19
1.21596e-19
1.09221e-19
1.02666e-19
8.27118e-20
8.63776e-20
6.54372e-20
6.95778e-20
5.6676e-20
5.69306e-20
4.76866e-20
4.67248e-20
3.74786e-20
4.02243e-20
2.90434e-20
3.38017e-20
2.59006e-20
2.38045e-20
3.01836e-20
1.20405e-20
3.24201e-20
1.45811e-20
1.63349e-20
3.54499e-20
2.02194e-22
4.29378e-20
1.86982e-20
2.29058e-20
5.7212e-20
1.69682e-20
6.28335e-20
5.94281e-20
4.82864e-20
9.79359e-20
8.61954e-20
1.03431e-19
1.59853e-19
1.63447e-19
2.31945e-19
3.09315e-19
3.84014e-19
2.40764e-18
1.80213e-18
1.91385e-18
4.36942e-18
2.07497e-18
8.15444e-19
6.59341e-19
5.22396e-19
4.34407e-19
3.6238e-19
3.06875e-19
2.76615e-19
2.78683e-19
2.65364e-19
2.40365e-19
2.01333e-19
1.76984e-19
1.53005e-19
1.45922e-19
1.25769e-19
1.18131e-19
1.06141e-19
1.00372e-19
8.08886e-20
8.43261e-20
6.43801e-20
6.79596e-20
5.58189e-20
5.5785e-20
4.69586e-20
4.58322e-20
3.70606e-20
3.94896e-20
2.88343e-20
3.31492e-20
2.58139e-20
2.31454e-20
2.98917e-20
1.19163e-20
3.15175e-20
1.49577e-20
1.53885e-20
3.53465e-20
7.74444e-23
4.14079e-20
1.91399e-20
2.08609e-20
5.62328e-20