/*--------------------------------*- C++ -*----------------------------------*\
| =========                 |                                                 |
| \\      /  F ield         | OpenFOAM: The Open Source CFD Toolbox           |
|  \\    /   O peration     | Version:  2312                                  |
|   \\  /    A nd           | Website:  www.openfoam.com                      |
|    \\/     M anipulation  |                                                 |
\*---------------------------------------------------------------------------*/
FoamFile
{
    version     2.0;
    format      ascii;
    arch        "LSB;label=32;scalar=64";
    class       volScalarField;
    location    "500";
    object      nut;
}
// * * * * * * * * * * * * * * * * * * * * * * * * * * * * * * * * * * * * * //

dimensions      [0 2 -1 0 0 0 0];

internalField   nonuniform List<scalar> 
330000
(
3.12716e-23
4.13553e-24
2.41837e-25
7.39285e-27
4.66129e-28
3.49629e-28
2.29439e-27
1.7132e-27
2.59472e-27
1.85241e-27
2.41568e-27
2.60935e-27
3.16014e-27
3.30389e-27
3.72988e-27
4.5708e-27
4.63124e-27
4.65821e-27
5.3047e-27
6.01581e-27
6.53244e-27
6.73179e-27
7.64391e-27
8.26763e-27
9.20344e-27
9.98147e-27
1.09561e-26
1.12537e-26
1.28751e-26
1.35605e-26
1.53368e-26
1.61634e-26
1.78532e-26
1.79936e-26
2.03303e-26
2.14852e-26
2.37733e-26
2.45449e-26
2.72094e-26
2.64374e-26
3.02374e-26
2.97853e-26
3.3652e-26
3.31466e-26
3.61143e-26
3.22678e-26
3.53506e-26
3.20805e-26
3.29726e-26
2.6766e-26
2.53875e-26
1.81521e-26
1.13823e-26
4.00906e-27
2.89649e-28
1.71079e-28
1.45419e-26
4.45758e-25
4.72545e-24
2.72452e-23
3.39836e-23
1.13953e-23
9.79226e-25
8.26709e-27
1.13084e-28
1.28044e-27
3.14723e-27
4.29439e-27
4.58586e-27
4.10728e-27
4.35926e-27
5.67816e-27
6.11454e-27
6.8891e-27
7.20949e-27
9.50384e-27
9.10342e-27
9.59091e-27
1.02843e-26
1.23392e-26
1.27662e-26
1.37563e-26
1.48958e-26
1.68278e-26
1.80105e-26
2.01178e-26
2.15568e-26
2.25455e-26
2.51373e-26
2.71388e-26
3.00228e-26
3.205e-26
3.50583e-26
3.54505e-26
3.95218e-26
4.22962e-26
4.56485e-26
4.83994e-26
5.23843e-26
5.17927e-26
5.73295e-26
5.81472e-26
6.33116e-26
6.40087e-26
6.79554e-26
6.11421e-26
6.50567e-26
5.98138e-26
5.99123e-26
4.7564e-26
4.41224e-26
3.01443e-26
1.8817e-26
4.48647e-27
1.10119e-28
1.95965e-27
4.39975e-26
1.01124e-24
1.3357e-23
4.22335e-23
6.02597e-23
1.75388e-23
1.08459e-24
1.73916e-26
2.21484e-28
2.05486e-27
4.44534e-27
5.96063e-27
6.59473e-27
5.58088e-27
6.43412e-27
7.68555e-27
9.08755e-27
9.20872e-27
1.06872e-26
1.27263e-26
1.31146e-26
1.33066e-26
1.48479e-26
1.69721e-26
1.82205e-26
1.91873e-26
2.12122e-26
2.34839e-26
2.56335e-26
2.81027e-26
3.05397e-26
3.16819e-26
3.54461e-26
3.83298e-26
4.25412e-26
4.49645e-26
4.9496e-26
4.99784e-26
5.58515e-26
5.94305e-26
6.42643e-26
6.85773e-26
7.37533e-26
7.34851e-26
8.03755e-26
8.29225e-26
8.92231e-26
9.07218e-26
9.53882e-26
8.74009e-26
9.16478e-26
8.56187e-26
8.46153e-26
6.83056e-26
6.27337e-26
4.33039e-26
2.66612e-26
6.6627e-27
1.34593e-28
1.97915e-27
6.80019e-26
1.47691e-24
1.73321e-23
5.90176e-23
7.0656e-23
1.76868e-23
1.2504e-24
1.62998e-26
2.99842e-28
1.83901e-27
4.84512e-27
5.51872e-27
6.99102e-27
5.20301e-27
6.94732e-27
7.26281e-27
9.62184e-27
8.72162e-27
1.12906e-26
1.20894e-26
1.36376e-26
1.29699e-26
1.52864e-26
1.65849e-26
1.8624e-26
1.8986e-26
2.16586e-26
2.32529e-26
2.60393e-26
2.79331e-26
3.09319e-26
3.16479e-26
3.58672e-26
3.84272e-26
4.29519e-26
4.49339e-26
4.99043e-26
5.01403e-26
5.65205e-26
5.93534e-26
6.48389e-26
6.90405e-26
7.43246e-26
7.41202e-26
8.09881e-26
8.3916e-26
8.97592e-26
9.17714e-26
9.58953e-26
8.90526e-26
9.27256e-26
8.73136e-26
8.56546e-26
7.01391e-26
6.42815e-26
4.48205e-26
2.79406e-26
6.98706e-27
2.01147e-28
1.65862e-27
6.28595e-26
1.4352e-24
2.1403e-23
6.94917e-23
8.73138e-23
2.07047e-23
1.71902e-24
1.59498e-26
3.21953e-28
1.84053e-27
4.75726e-27
5.48388e-27
6.99737e-27
5.06094e-27
7.07697e-27
6.99981e-27
9.76059e-27
8.30496e-27
1.14954e-26
1.14846e-26
1.39162e-26
1.24953e-26
1.5351e-26
1.60325e-26
1.86977e-26
1.84891e-26
2.16177e-26
2.26983e-26
2.59282e-26
2.73022e-26
3.07654e-26
3.10205e-26
3.55996e-26
3.77798e-26
4.24588e-26
4.40824e-26
4.94034e-26
4.92588e-26
5.58807e-26
5.81691e-26
6.42027e-26
6.79618e-26
7.33901e-26
7.30107e-26
7.98595e-26
8.28809e-26
8.82179e-26
9.05969e-26
9.43999e-26
8.81992e-26
9.1202e-26
8.6511e-26
8.41868e-26
6.95415e-26
6.33374e-26
4.45143e-26
2.75807e-26
6.81848e-27
2.21716e-28
1.56102e-27
6.24449e-26
1.5179e-24
2.7904e-23
7.38058e-23
1.1728e-22
2.5181e-23
2.72635e-24
1.58075e-26
3.8209e-28
1.89483e-27
4.66657e-27
5.65503e-27
7.04934e-27
5.13242e-27
7.26197e-27
6.99281e-27
9.98751e-27
8.2267e-27
1.18672e-26
1.12961e-26
1.45091e-26
1.2342e-26
1.57679e-26
1.59336e-26
1.92395e-26
1.84634e-26
2.21226e-26
2.27204e-26
2.64555e-26
2.73623e-26
3.1383e-26
3.11427e-26
3.62736e-26
3.80103e-26
4.30207e-26
4.43247e-26
5.01339e-26
4.95922e-26
5.66391e-26
5.84572e-26
6.52435e-26
6.84278e-26
7.43323e-26
7.35567e-26
8.08696e-26
8.36446e-26
8.8923e-26
9.14586e-26
9.53093e-26
8.92566e-26
9.19706e-26
8.7474e-26
8.46618e-26
7.0378e-26
6.37387e-26
4.49852e-26
2.76244e-26
6.78478e-27
2.43114e-28
1.61431e-27
6.5057e-26
1.75194e-24
3.90036e-23
7.84344e-23
1.64936e-22
2.99157e-23
4.44407e-24
1.62944e-26
5.72384e-28
1.90336e-27
4.62683e-27
5.87446e-27
7.16127e-27
5.28578e-27
7.46738e-27
7.09464e-27
1.02574e-26
8.2954e-27
1.23006e-26
1.13266e-26
1.52285e-26
1.23174e-26
1.63609e-26
1.60236e-26
2.00038e-26
1.86035e-26
2.28812e-26
2.29604e-26
2.72945e-26
2.7697e-26
3.23566e-26
3.15694e-26
3.738e-26
3.85533e-26
4.40805e-26
4.50356e-26
5.14389e-26
5.04147e-26
5.80199e-26
5.93923e-26
6.70791e-26
6.95296e-26
7.61629e-26
7.48234e-26
8.29076e-26
8.51068e-26
9.07809e-26
9.32745e-26
9.74493e-26
9.11665e-26
9.38421e-26
8.93122e-26
8.62056e-26
7.19356e-26
6.49081e-26
4.60116e-26
2.80595e-26
6.96944e-27
2.79219e-28
1.76065e-27
7.05311e-26
2.12492e-24
5.47736e-23
8.29671e-23
2.32205e-22
3.41808e-23
7.00711e-24
1.8305e-26
1.00887e-27
1.86819e-27
4.60494e-27
6.07692e-27
7.26868e-27
5.46861e-27
7.63773e-27
7.23247e-27
1.04703e-26
8.43625e-27
1.26833e-26
1.14421e-26
1.58973e-26
1.23049e-26
1.69761e-26
1.61386e-26
2.07854e-26
1.87438e-26
2.36921e-26
2.31979e-26
2.81712e-26
2.80407e-26
3.33848e-26
3.19832e-26
3.85636e-26
3.90712e-26
4.52322e-26
4.57534e-26
5.28098e-26
5.12554e-26
5.95293e-26
6.03942e-26
6.90061e-26
7.06088e-26
7.81675e-26
7.60551e-26
8.51769e-26
8.65076e-26
9.29044e-26
9.50612e-26
9.98185e-26
9.30139e-26
9.60315e-26
9.10531e-26
8.79683e-26
7.35317e-26
6.6281e-26
4.70694e-26
2.86508e-26
7.24751e-27
3.25459e-28
2.10533e-27
8.0358e-26
2.67467e-24
7.46764e-23
8.6383e-23
3.19036e-22
3.75094e-23
1.04876e-23
2.26962e-26
1.85376e-27
1.8023e-27
4.60692e-27
6.23139e-27
7.39157e-27
5.66002e-27
7.7805e-27
7.40324e-27
1.0666e-26
8.62445e-27
1.30302e-26
1.16409e-26
1.65041e-26
1.23346e-26
1.75983e-26
1.62848e-26
2.1568e-26
1.88903e-26
2.4525e-26
2.34345e-26
2.90914e-26
2.83882e-26
3.44373e-26
3.24065e-26
3.97902e-26
3.95502e-26
4.64668e-26
4.64754e-26
5.42442e-26
5.20966e-26
6.11058e-26
6.14269e-26
7.10008e-26
7.16748e-26
8.02696e-26
7.72962e-26
8.75751e-26
8.78123e-26
9.52521e-26
9.68296e-26
1.02359e-25
9.48011e-26
9.83336e-26
9.27367e-26
8.9916e-26
7.5063e-26
6.77735e-26
4.81655e-26
2.93977e-26
7.60366e-27
3.9456e-28
2.85961e-27
9.68916e-26
3.4281e-24
9.80829e-23
8.88061e-23
4.24442e-22
3.99383e-23
1.48538e-23
3.07235e-26
3.25839e-27
1.76163e-27
4.62833e-27
6.33596e-27
7.52685e-27
5.84999e-27
7.91289e-27
7.59407e-27
1.0839e-26
8.86493e-27
1.3348e-26
1.19008e-26
1.70371e-26
1.24151e-26
1.82186e-26
1.64657e-26
2.23398e-26
1.90663e-26
2.53884e-26
2.36877e-26
3.00375e-26
2.87526e-26
3.55287e-26
3.28396e-26
4.10642e-26
4.00402e-26
4.77889e-26
4.71989e-26
5.57398e-26
5.29678e-26
6.27989e-26
6.24992e-26
7.30318e-26
7.27597e-26
8.24923e-26
7.85344e-26
9.01089e-26
8.91048e-26
9.77942e-26
9.85323e-26
1.05034e-25
9.65216e-26
1.00846e-25
9.43028e-26
9.19977e-26
7.65513e-26
6.94025e-26
4.92243e-26
3.02677e-26
7.98927e-27
5.06169e-28
4.33017e-27
1.22833e-25
4.42244e-24
1.23495e-22
9.02791e-23
5.45026e-22
4.14069e-23
2.00953e-23
4.31059e-26
5.31462e-27
1.7612e-27
4.69111e-27
6.38492e-27
7.70022e-27
6.02629e-27
8.05282e-27
7.80872e-27
1.10349e-26
9.13857e-27
1.36635e-26
1.22279e-26
1.7529e-26
1.25692e-26
1.88416e-26
1.67014e-26
2.31192e-26
1.92899e-26
2.62795e-26
2.39828e-26
3.10458e-26
2.91582e-26
3.66696e-26
3.33326e-26
4.24047e-26
4.05693e-26
4.9229e-26
4.79739e-26
5.73578e-26
5.39017e-26
6.46099e-26
6.36449e-26
7.51843e-26
7.39386e-26
8.48583e-26
7.98819e-26
9.28052e-26
9.04443e-26
1.00594e-25
1.00288e-25
1.07941e-25
9.827e-26
1.03513e-25
9.58995e-26
9.4313e-26
7.79975e-26
7.11883e-26
5.03214e-26
3.12776e-26
8.43726e-27
7.13337e-28
6.95159e-27
1.59934e-25
5.63645e-24
1.49885e-22
9.16449e-23
6.77915e-22
4.21863e-23
2.60989e-23
5.9929e-26
7.97774e-27
1.83073e-27
4.78032e-27
6.40146e-27
7.89526e-27
6.18463e-27
8.21127e-27
8.02913e-27
1.1238e-26
9.4434e-27
1.39799e-26
1.25919e-26
1.79738e-26
1.27824e-26
1.94519e-26
1.69829e-26
2.3886e-26
1.9565e-26
2.71909e-26
2.43188e-26
3.20804e-26
2.96025e-26
3.7851e-26
3.38588e-26
4.3792e-26
4.11531e-26
5.07555e-26
4.87752e-26
5.90562e-26
5.48873e-26
6.65363e-26
6.48371e-26
7.73992e-26
7.51902e-26
8.73323e-26
8.12683e-26
9.56127e-26
9.18475e-26
1.03556e-25
1.02019e-25
1.10966e-25
9.99899e-26
1.06352e-25
9.74215e-26
9.67354e-26
7.94087e-26
7.31027e-26
5.1396e-26
3.23896e-26
8.94514e-27
1.07971e-27
1.1212e-26
2.09608e-25
7.04143e-24
1.75693e-22
9.30082e-23
8.18626e-22
4.23183e-23
3.27958e-23
8.18803e-26
1.11764e-26
1.95944e-27
4.90729e-27
6.39357e-27
8.12832e-27
6.32342e-27
8.3958e-27
8.25668e-27
1.14797e-26
9.76084e-27
1.43123e-26
1.29932e-26
1.84054e-26
1.30582e-26
2.0055e-26
1.73187e-26
2.46553e-26
1.98959e-26
2.81145e-26
2.47073e-26
3.31615e-26
3.00951e-26
3.90694e-26
3.44501e-26
4.52354e-26
4.17957e-26
5.23708e-26
4.9632e-26
6.08641e-26
5.59337e-26
6.85561e-26
6.60878e-26
7.973e-26
7.65348e-26
8.99048e-26
8.27581e-26
9.85369e-26
9.33153e-26
1.06687e-25
1.03787e-25
1.14157e-25
1.01725e-25
1.09278e-25
9.89505e-26
9.93173e-26
8.07593e-26
7.51258e-26
5.24888e-26
3.36193e-26
9.57813e-27
1.70908e-27
1.76145e-26
2.72148e-25
8.58581e-24
2.0011e-22
9.51042e-23
9.6439e-22
4.20984e-23
4.00538e-23
1.1005e-25
1.47554e-26
2.15328e-27
5.04878e-27
6.37965e-27
8.39131e-27
6.44362e-27
8.61538e-27
8.47742e-27
1.17447e-26
1.00895e-26
1.46648e-26
1.34073e-26
1.8828e-26
1.33782e-26
2.0649e-26
1.76991e-26
2.54155e-26
2.02816e-26
2.90501e-26
2.51452e-26
3.42545e-26
3.06345e-26
4.03251e-26
3.50853e-26
4.67182e-26
4.25037e-26
5.40449e-26
5.05294e-26
6.27418e-26
5.70334e-26
7.06699e-26
6.73792e-26
8.21161e-26
7.79482e-26
9.25601e-26
8.42938e-26
1.01533e-25
9.48483e-26
1.09895e-25
1.05542e-25
1.17419e-25
1.03436e-25
1.12311e-25
1.00405e-25
1.01931e-25
8.20649e-26
7.72217e-26
5.35555e-26
3.49767e-26
1.03697e-26
2.70839e-27
2.66193e-26
3.47967e-25
1.02315e-23
2.21892e-22
9.78603e-23
1.11001e-21
4.15465e-23
4.78073e-23
1.45467e-25
1.86216e-26
2.39351e-27
5.21433e-27
6.36938e-27
8.69559e-27
6.55256e-27
8.86871e-27
8.69944e-27
1.20584e-26
1.0416e-26
1.50482e-26
1.38407e-26
1.92705e-26
1.37402e-26
2.12475e-26
1.81292e-26
2.61863e-26
2.07201e-26
2.99951e-26
2.56411e-26
3.53855e-26
3.1227e-26
4.1612e-26
3.57928e-26
4.82517e-26
4.32771e-26
5.57844e-26
5.14946e-26
6.47131e-26
5.81911e-26
7.28568e-26
6.87315e-26
8.46124e-26
7.94387e-26
9.52875e-26
8.59289e-26
1.04614e-25
9.64401e-26
1.132e-25
1.07337e-25
1.20793e-25
1.05146e-25
1.15368e-25
1.01864e-25
1.04644e-25
8.33006e-26
7.9388e-26
5.46536e-26
3.64975e-26
1.13947e-26
4.22282e-27
3.86472e-26
4.36728e-25
1.19146e-23
2.40701e-22
1.01997e-22
1.25309e-21
4.09422e-23
5.5863e-23
1.89405e-25
2.26663e-26
2.68337e-27
5.37838e-27
6.38403e-27
9.02078e-27
6.65785e-27
9.15764e-27
8.91603e-27
1.23999e-26
1.07463e-26
1.54679e-26
1.42788e-26
1.97274e-26
1.41267e-26
2.18546e-26
1.85973e-26
2.69589e-26
2.12072e-26
3.0954e-26
2.6189e-26
3.65286e-26
3.1874e-26
4.29309e-26
3.65473e-26
4.98166e-26
4.41209e-26
5.75727e-26
5.2514e-26
6.67366e-26
5.94003e-26
7.51173e-26
7.01353e-26
8.71622e-26
8.09931e-26
9.8075e-26
8.76005e-26
1.07729e-25
9.80964e-26
1.16547e-25
1.0914e-25
1.2418e-25
1.0682e-25
1.18473e-25
1.03259e-25
1.07332e-25
8.45035e-26
8.16197e-26
5.57923e-26
3.82098e-26
1.26929e-26
6.38301e-27
5.41701e-26
5.38753e-25
1.35974e-23
2.55701e-22
1.07247e-22
1.38856e-21
4.02784e-23
6.40878e-23
2.43644e-25
2.68991e-26
2.99968e-27
5.55371e-27
6.42186e-27
9.37544e-27
6.76716e-27
9.47582e-27
9.13658e-27
1.27897e-26
1.10729e-26
1.5926e-26
1.47276e-26
2.02194e-26
1.45376e-26
2.2484e-26
1.91031e-26
2.77537e-26
2.17384e-26
3.19275e-26
2.67905e-26
3.77089e-26
3.25744e-26
4.42742e-26
3.73713e-26
5.14264e-26
4.5029e-26
5.94122e-26
5.36039e-26
6.8831e-26
6.06666e-26
7.74311e-26
7.16009e-26
8.98045e-26
8.26093e-26
1.00905e-25
8.93525e-26
1.10894e-25
9.97982e-26
1.19944e-25
1.10979e-25
1.27611e-25
1.08484e-25
1.21547e-25
1.04644e-25
1.10068e-25
8.56565e-26
8.3911e-26
5.70181e-26
4.01517e-26
1.4337e-26
9.371e-27
7.3656e-26
6.55087e-25
1.52113e-23
2.66697e-22
1.14393e-22
1.51526e-21
3.97815e-23
7.22285e-23
3.09729e-25
3.1279e-26
3.34145e-27
5.72237e-27
6.48209e-27
9.75515e-27
6.88063e-27
9.8284e-27
9.35516e-27
1.32097e-26
1.14029e-26
1.64243e-26
1.5174e-26
2.07453e-26
1.49627e-26
2.31415e-26
1.9635e-26
2.85674e-26
2.23095e-26
3.29256e-26
2.74361e-26
3.8901e-26
3.33266e-26
4.5655e-26
3.82434e-26
5.30666e-26
4.60014e-26
6.12879e-26
5.47506e-26
7.09657e-26
6.19897e-26
7.98047e-26
7.3113e-26
9.24743e-26
8.42789e-26
1.03786e-25
9.1136e-26
1.14071e-25
1.01542e-25
1.23331e-25
1.12819e-25
1.31021e-25
1.10121e-25
1.24623e-25
1.05963e-25
1.12746e-25
8.67993e-26
8.62508e-26
5.83246e-26
4.23747e-26
1.63773e-26
1.33561e-26
9.7865e-26
7.86751e-25
1.67113e-23
2.73118e-22
1.23257e-22
1.62769e-21
3.94671e-23
8.01327e-23
3.89416e-25
3.57815e-26
3.6913e-27
5.9007e-27
6.56324e-27
1.01658e-26
7.0043e-27
1.02059e-26
9.58454e-27
1.36757e-26
1.17314e-26
1.69612e-26
1.56287e-26
2.13158e-26
1.54032e-26
2.38351e-26
2.01944e-26
2.9417e-26
2.29134e-26
3.3949e-26
2.81269e-26
4.01347e-26
3.41232e-26
4.70617e-26
3.91812e-26
5.47507e-26
4.70314e-26
6.32059e-26
5.59644e-26
7.31581e-26
6.33655e-26
8.22177e-26
7.46838e-26
9.52148e-26
8.59919e-26
1.06688e-25
9.29849e-26
1.17278e-25
1.0331e-25
1.26728e-25
1.14677e-25
1.34435e-25
1.11731e-25
1.2763e-25
1.07273e-25
1.15446e-25
8.7903e-26
8.86543e-26
5.97562e-26
4.49103e-26
1.88926e-26
1.85887e-26
1.27507e-25
9.361e-25
1.80346e-23
2.75236e-22
1.34652e-22
1.72564e-21
3.96385e-23
8.75252e-23
4.84408e-25
4.03288e-26
4.05401e-27
6.0718e-27
6.67389e-27
1.05911e-26
7.13923e-27
1.06125e-26
9.82187e-27
1.4166e-26
1.20683e-26
1.75433e-26
1.60884e-26
2.19182e-26
1.58518e-26
2.45679e-26
2.07736e-26
3.02953e-26
2.35464e-26
3.50081e-26
2.88558e-26
4.13925e-26
3.49671e-26
4.8508e-26
4.01594e-26
5.64617e-26
4.81219e-26
6.51663e-26
5.72334e-26
7.53787e-26
6.47889e-26
8.4678e-26
7.63064e-26
9.79738e-26
8.77532e-26
1.09619e-25
9.48479e-26
1.20464e-25
1.05115e-25
1.30113e-25
1.16539e-25
1.3778e-25
1.13291e-25
1.30608e-25
1.08534e-25
1.18061e-25
8.90163e-26
9.11409e-26
6.13499e-26
4.77946e-26
2.19556e-26
2.53004e-26
1.63791e-25
1.10483e-24
1.91561e-23
2.73023e-22
1.48034e-22
1.80471e-21
4.0235e-23
9.4228e-23
5.96582e-25
4.49463e-26
4.39814e-27
6.25279e-27
6.80809e-27
1.10382e-26
7.28963e-27
1.10391e-26
1.00755e-26
1.46972e-26
1.24107e-26
1.81621e-26
1.65601e-26
2.25621e-26
1.63138e-26
2.53425e-26
2.1374e-26
3.12177e-26
2.42046e-26
3.6101e-26
2.9621e-26
4.27008e-26
3.58486e-26
4.99817e-26
4.1193e-26
5.82183e-26
4.9263e-26
6.71684e-26
5.85605e-26
7.76471e-26
6.62584e-26
8.71653e-26
7.79805e-26
1.00788e-25
8.95475e-26
1.12549e-25
9.67566e-26
1.23656e-25
1.06932e-25
1.33485e-25
1.18402e-25
1.41083e-25
1.14816e-25
1.33486e-25
1.09777e-25
1.20678e-25
9.01141e-26
9.37053e-26
6.31271e-26
5.10612e-26
2.56615e-26
3.38443e-26
2.07713e-25
1.29794e-24
2.00206e-23
2.66812e-22
1.64424e-22
1.86735e-21
4.141e-23
9.9994e-23
7.27699e-25
4.96516e-26
4.71165e-27
6.43292e-27
6.95622e-27
1.15138e-26
7.44857e-27
1.1498e-26
1.03368e-26
1.52556e-26
1.27658e-26
1.88202e-26
1.7035e-26
2.32473e-26
1.67879e-26
2.61608e-26
2.19892e-26
3.21801e-26
2.48879e-26
3.72387e-26
3.04137e-26
4.40365e-26
3.67698e-26
5.15067e-26
4.22624e-26
6.00095e-26
5.04535e-26
6.92077e-26
5.99341e-26
7.99468e-26
6.77759e-26
8.96926e-26
7.96877e-26
1.03599e-25
9.13811e-26
1.15502e-25
9.86746e-26
1.26819e-25
1.08759e-25
1.36804e-25
1.20244e-25
1.44314e-25
1.16302e-25
1.36309e-25
1.10959e-25
1.23209e-25
9.1241e-26
9.63376e-26
6.50838e-26
5.47794e-26
3.01089e-26
4.45549e-26
2.61159e-25
1.51686e-24
2.06085e-23
2.56772e-22
1.8363e-22
1.90914e-21
4.31478e-23
1.04697e-22
8.79269e-25
5.4328e-26
4.97363e-27
6.62161e-27
7.12244e-27
1.20177e-26
7.62136e-27
1.19761e-26
1.06168e-26
1.58511e-26
1.31295e-26
1.9508e-26
1.75233e-26
2.39737e-26
1.72756e-26
2.70193e-26
2.26238e-26
3.31896e-26
2.55912e-26
3.84156e-26
3.12361e-26
4.54255e-26
3.77166e-26
5.30633e-26
4.33793e-26
6.18497e-26
5.16839e-26
7.12836e-26
6.13536e-26
8.22896e-26
6.93259e-26
9.22403e-26
8.14316e-26
1.06448e-25
9.32238e-26
1.18436e-25
1.00618e-25
1.29972e-25
1.10573e-25
1.40073e-25
1.22054e-25
1.47483e-25
1.17724e-25
1.39012e-25
1.12109e-25
1.25732e-25
9.23444e-26
9.90551e-26
6.72333e-26
5.89837e-26
3.54e-26
5.79049e-26
3.25483e-25
1.76933e-24
2.08945e-23
2.43626e-22
2.06502e-22
1.93345e-21
4.58208e-23
1.08147e-22
1.05414e-24
5.88525e-26
5.19011e-27
6.80466e-27
7.31442e-27
1.25379e-26
7.80587e-27
1.2485e-26
1.09113e-26
1.64674e-26
1.35087e-26
2.02403e-26
1.8027e-26
2.47286e-26
1.77747e-26
2.79225e-26
2.32771e-26
3.42369e-26
2.63159e-26
3.96423e-26
3.2086e-26
4.68516e-26
3.8699e-26
5.46743e-26
4.4524e-26
6.37226e-26
5.29589e-26
7.34092e-26
6.28142e-26
8.46555e-26
7.09062e-26
9.48243e-26
8.32098e-26
1.09293e-25
9.50953e-26
1.21378e-25
1.02552e-25
1.33067e-25
1.1239e-25
1.43299e-25
1.23842e-25
1.50531e-25
1.19072e-25
1.41649e-25
1.13212e-25
1.28139e-25
9.34777e-26
1.01883e-25
6.96366e-26
6.37106e-26
4.16707e-26
7.4312e-26
4.0329e-25
2.05855e-24
2.08939e-23
2.28008e-22
2.31991e-22
1.9374e-21
4.92395e-23
1.10228e-22
1.25329e-24
6.32642e-26
5.32511e-27
6.99387e-27
7.53239e-27
1.30762e-26
8.00857e-27
1.30111e-26
1.1227e-26
1.71184e-26
1.3901e-26
2.10011e-26
1.855e-26
2.55174e-26
1.82904e-26
2.88648e-26
2.39514e-26
3.53309e-26
2.70606e-26
4.09096e-26
3.29632e-26
4.83366e-26
3.97045e-26
5.63173e-26
4.57084e-26
6.56469e-26
5.42678e-26
7.55745e-26
6.43108e-26
8.70597e-26
7.25086e-26
9.74218e-26
8.50132e-26
1.12169e-25
9.69638e-26
1.24283e-25
1.04492e-25
1.36134e-25
1.14179e-25
1.4646e-25
1.25579e-25
1.53481e-25
1.20341e-25
1.44144e-25
1.14269e-25
1.30523e-25
9.4597e-26
1.0481e-25
7.22843e-26
6.9006e-26
4.9036e-26
9.44038e-26
4.96307e-25
2.39589e-24
2.05983e-23
2.10448e-22
2.61346e-22
1.92753e-21
5.34621e-23
1.1086e-22
1.47856e-24
6.77154e-26
5.36399e-27
7.18856e-27
7.75942e-27
1.36527e-26
8.21924e-27
1.35756e-26
1.15519e-26
1.77988e-26
1.43109e-26
2.17994e-26
1.90817e-26
2.63484e-26
1.88248e-26
2.98505e-26
2.46437e-26
3.64698e-26
2.78304e-26
4.22286e-26
3.38629e-26
4.98572e-26
4.07445e-26
5.80231e-26
4.69192e-26
6.76126e-26
5.56124e-26
7.77817e-26
6.58388e-26
8.94949e-26
7.41421e-26
1.0005e-25
8.68249e-26
1.15026e-25
9.88503e-26
1.27195e-25
1.06412e-25
1.3914e-25
1.15944e-25
1.49532e-25
1.27261e-25
1.56322e-25
1.2155e-25
1.46543e-25
1.15251e-25
1.32802e-25
9.57561e-26
1.07817e-25
7.51772e-26
7.49597e-26
5.76537e-26
1.18751e-25
6.08156e-25
2.7817e-24
2.0036e-23
1.91481e-22
2.94419e-22
1.90067e-21
5.8384e-23
1.10018e-22
1.73034e-24
7.19595e-26
5.29956e-27
7.38668e-27
8.00949e-27
1.42544e-26
8.44709e-27
1.4156e-26
1.18982e-26
1.85097e-26
1.47346e-26
2.26179e-26
1.96316e-26
2.72139e-26
1.93762e-26
3.08695e-26
2.53583e-26
3.76532e-26
2.862e-26
4.35867e-26
3.47887e-26
5.14315e-26
4.17998e-26
5.9759e-26
4.81638e-26
6.96282e-26
5.69816e-26
8.00174e-26
6.73892e-26
9.19613e-26
7.57817e-26
1.02683e-25
8.86415e-26
1.17896e-25
1.00703e-25
1.30052e-25
1.08309e-25
1.42104e-25
1.17644e-25
1.52497e-25
1.28844e-25
1.59047e-25
1.22638e-25
1.48784e-25
1.16154e-25
1.35046e-25
9.68713e-26
1.10923e-25
7.82912e-26
8.16124e-26
6.76157e-26
1.48099e-25
7.40815e-25
3.23068e-24
1.92242e-23
1.7183e-22
3.31905e-22
1.86275e-21
6.45182e-23
1.07732e-22
2.01371e-24
7.58144e-26
5.15374e-27
7.58028e-27
8.28852e-27
1.48728e-26
8.68908e-27
1.47717e-26
1.22628e-26
1.92417e-26
1.51766e-26
2.34838e-26
2.02053e-26
2.81036e-26
1.99444e-26
3.19351e-26
2.60989e-26
3.88738e-26
2.94345e-26
4.49978e-26
3.57426e-26
5.30445e-26
4.28898e-26
6.15558e-26
4.94317e-26
7.16764e-26
5.83842e-26
8.23055e-26
6.89693e-26
9.44426e-26
7.74335e-26
1.05343e-25
9.04687e-26
1.20742e-25
1.02558e-25
1.329e-25
1.10166e-25
1.44972e-25
1.19306e-25
1.55387e-25
1.30372e-25
1.61601e-25
1.2362e-25
1.50923e-25
1.16994e-25
1.37141e-25
9.80102e-26
1.14153e-25
8.17204e-26
8.89752e-26
7.91248e-26
1.83054e-25
8.9843e-25
3.74647e-24
1.82085e-23
1.523e-22
3.72009e-22
1.81204e-21
7.14268e-23
1.03999e-22
2.32579e-24
7.9312e-26
4.90512e-27
7.77627e-27
8.60304e-27
1.55008e-26
8.95573e-27
1.54001e-26
1.2653e-26
2.00022e-26
1.56364e-26
2.43718e-26
2.08038e-26
2.90206e-26
2.05331e-26
3.30353e-26
2.68653e-26
4.01374e-26
3.0272e-26
4.64464e-26
3.67242e-26
5.47136e-26
4.39976e-26
6.33784e-26
5.07304e-26
7.3772e-26
5.98095e-26
8.46221e-26
7.05655e-26
9.69455e-26
7.9083e-26
1.07998e-25
9.22905e-26
1.23592e-25
1.04367e-25
1.35675e-25
1.11977e-25
1.47775e-25
1.20887e-25
1.58158e-25
1.31784e-25
1.63998e-25
1.24467e-25
1.52881e-25
1.1774e-25
1.39179e-25
9.91057e-26
1.17488e-25
8.54131e-26
9.71013e-26
9.22639e-26
2.24508e-25
1.08294e-24
4.34556e-24
1.70196e-23
1.33239e-22
4.16168e-22
1.75771e-21
7.90009e-23
9.89929e-23
2.66754e-24
8.27649e-26
4.55145e-27
7.99109e-27
8.92367e-27
1.61777e-26
9.23217e-27
1.60739e-26
1.30536e-26
2.07974e-26
1.61165e-26
2.52993e-26
2.14128e-26
2.99862e-26
2.1147e-26
3.41804e-26
2.76551e-26
4.14489e-26
3.11401e-26
4.79471e-26
3.77305e-26
5.64175e-26
4.51426e-26
6.52645e-26
5.20537e-26
7.59058e-26
6.1264e-26
8.69748e-26
7.21817e-26
9.94699e-26
8.07491e-26
1.10664e-25
9.40949e-26
1.26402e-25
1.0617e-25
1.38431e-25
1.13735e-25
1.50481e-25
1.22401e-25
1.60795e-25
1.33096e-25
1.66248e-25
1.25223e-25
1.54697e-25
1.18384e-25
1.41088e-25
1.0023e-25
1.20889e-25
8.93714e-26
1.06089e-25
1.07236e-25
2.73192e-25
1.29924e-24
5.02163e-24
1.57188e-23
1.15089e-22
4.64498e-22
1.69817e-21
8.69345e-23
9.28099e-23
3.03571e-24
8.57607e-26
4.11079e-27
8.21342e-27
9.27321e-27
1.68753e-26
9.53173e-27
1.67579e-26
1.34795e-26
2.16145e-26
1.66158e-26
2.62389e-26
2.20446e-26
3.09849e-26
2.17814e-26
3.53538e-26
2.84715e-26
4.28019e-26
3.20305e-26
4.94817e-26
3.87637e-26
5.81678e-26
4.62992e-26
6.71712e-26
5.34018e-26
7.80805e-26
6.27318e-26
8.93371e-26
7.37998e-26
1.02003e-25
8.23967e-26
1.13309e-25
9.58716e-26
1.29189e-25
1.07895e-25
1.41092e-25
1.15411e-25
1.53102e-25
1.23791e-25
1.63265e-25
1.34233e-25
1.68332e-25
1.25794e-25
1.56315e-25
1.18886e-25
1.42928e-25
1.01262e-25
1.24375e-25
9.35243e-26
1.15958e-25
1.24043e-25
3.29912e-25
1.54862e-24
5.7923e-24
1.4336e-23
9.8259e-23
5.17358e-22
1.64132e-21
9.58257e-23
8.57216e-23
3.43933e-24
8.79906e-26
3.62606e-27
8.4403e-27
9.65692e-27
1.75877e-26
9.84967e-27
1.74814e-26
1.3929e-26
2.2456e-26
1.71361e-26
2.72336e-26
2.27083e-26
3.20058e-26
2.24365e-26
3.65811e-26
2.93214e-26
4.4191e-26
3.29503e-26
5.10698e-26
3.98278e-26
5.99519e-26
4.74936e-26
6.91349e-26
5.47734e-26
8.02772e-26
6.42259e-26
9.17424e-26
7.54397e-26
1.04529e-25
8.40398e-26
1.15957e-25
9.76343e-26
1.31916e-25
1.09596e-25
1.43706e-25
1.17014e-25
1.55576e-25
1.25094e-25
1.65613e-25
1.35278e-25
1.70183e-25
1.2622e-25
1.57786e-25
1.19299e-25
1.4457e-25
1.02289e-25
1.27963e-25
9.79973e-26
1.26653e-25
1.42905e-25
3.95224e-25
1.8348e-24
6.65598e-24
1.29155e-23
8.33414e-23
5.72355e-22
1.57941e-21
1.05021e-22
7.78252e-23
3.86754e-24
8.95009e-26
3.09869e-27
8.67692e-27
1.00873e-26
1.82982e-26
1.02011e-26
1.82115e-26
1.44105e-26
2.332e-26
1.76801e-26
2.82468e-26
2.34038e-26
3.30508e-26
2.31162e-26
3.78417e-26
3.02015e-26
4.56201e-26
3.38953e-26
5.26903e-26
4.09202e-26
6.17846e-26
4.87029e-26
7.11125e-26
5.61681e-26
8.25082e-26
6.57322e-26
9.41552e-26
7.70767e-26
1.07047e-25
8.56569e-26
1.18567e-25
9.93597e-26
1.34606e-25
1.1121e-25
1.46199e-25
1.18515e-25
1.57932e-25
1.26257e-25
1.67783e-25
1.36138e-25
1.71816e-25
1.26453e-25
1.59037e-25
1.19558e-25
1.4611e-25
1.03217e-25
1.31624e-25
1.02685e-25
1.38202e-25
1.63771e-25
4.6986e-25
2.15774e-24
7.62673e-24
1.14993e-23
7.03305e-23
6.3056e-22
1.51924e-21
1.14265e-22
6.94867e-23
4.31768e-24
9.07582e-26
2.54325e-27
8.95708e-27
1.05212e-26
1.90691e-26
1.05646e-26
1.89963e-26
1.49034e-26
2.42275e-26
1.82468e-26
2.93051e-26
2.41073e-26
3.41575e-26
2.38258e-26
3.91514e-26
3.11066e-26
4.71014e-26
3.48747e-26
5.43615e-26
4.2038e-26
6.36478e-26
4.99509e-26
7.31458e-26
5.75863e-26
8.47649e-26
6.72629e-26
9.65847e-26
7.87205e-26
1.09564e-25
8.72745e-26
1.21153e-25
1.0104e-25
1.37219e-25
1.12788e-25
1.48623e-25
1.1993e-25
1.60135e-25
1.27316e-25
1.69753e-25
1.36849e-25
1.73253e-25
1.26561e-25
1.60083e-25
1.1968e-25
1.4748e-25
1.04139e-25
1.3528e-25
1.07573e-25
1.50695e-25
1.86799e-25
5.54287e-25
2.52071e-24
8.68213e-24
1.01545e-23
5.93201e-23
6.9257e-22
1.47167e-21
1.22813e-22
6.08562e-23
4.78071e-24
9.12481e-26
1.99477e-27
9.26774e-27
1.09882e-26
1.98576e-26
1.09588e-26
1.97859e-26
1.54268e-26
2.51495e-26
1.88397e-26
3.03691e-26
2.48401e-26
3.53022e-26
2.45601e-26
4.04861e-26
3.20415e-26
4.86245e-26
3.58765e-26
5.60612e-26
4.31816e-26
6.55494e-26
5.12062e-26
7.5191e-26
5.90172e-26
8.7049e-26
6.87929e-26
9.89986e-26
8.03436e-26
1.12059e-25
8.88475e-26
1.23677e-25
1.02659e-25
1.39761e-25
1.14247e-25
1.50908e-25
1.21199e-25
1.62201e-25
1.28185e-25
1.71491e-25
1.37311e-25
1.74478e-25
1.26423e-25
1.60892e-25
1.19589e-25
1.48736e-25
1.04896e-25
1.38957e-25
1.12543e-25
1.64077e-25
2.11785e-25
6.48595e-25
2.92121e-24
9.82826e-24
8.89266e-24
5.03884e-23
7.58978e-22
1.43996e-21
1.31531e-22
5.23193e-23
5.27073e-24
9.05158e-26
1.49977e-27
9.60494e-27
1.14956e-26
2.06599e-26
1.13752e-26
2.0623e-26
1.59786e-26
2.61041e-26
1.94552e-26
3.15033e-26
2.56112e-26
3.6465e-26
2.5315e-26
4.18867e-26
3.30142e-26
5.018e-26
3.69082e-26
5.78153e-26
4.43545e-26
6.7478e-26
5.24992e-26
7.72791e-26
6.04688e-26
8.93358e-26
7.03381e-26
1.01437e-25
8.19753e-26
1.14511e-25
9.03929e-26
1.26169e-25
1.04234e-25
1.42194e-25
1.15654e-25
1.53076e-25
1.22362e-25
1.64044e-25
1.28924e-25
1.73045e-25
1.37647e-25
1.75388e-25
1.26104e-25
1.61492e-25
1.19377e-25
1.49723e-25
1.05592e-25
1.42657e-25
1.1773e-25
1.78171e-25
2.38792e-25
7.52723e-25
3.35745e-24
1.1041e-23
7.73764e-24
4.38006e-23
8.26247e-22
1.41667e-21
1.39563e-22
4.39767e-23
5.76532e-24
8.87103e-26
1.06827e-27
9.97969e-27
1.20632e-26
2.14529e-26
1.18354e-26
2.14628e-26
1.65703e-26
2.70748e-26
2.01016e-26
3.2655e-26
2.64234e-26
3.76523e-26
2.60976e-26
4.3322e-26
3.40194e-26
5.17753e-26
3.79636e-26
5.9598e-26
4.55524e-26
6.94486e-26
5.38007e-26
7.93718e-26
6.19295e-26
9.1642e-26
7.18787e-26
1.03858e-25
8.35803e-26
1.16919e-25
9.18834e-26
1.28579e-25
1.05736e-25
1.44537e-25
1.16932e-25
1.55072e-25
1.23364e-25
1.65711e-25
1.29463e-25
1.74359e-25
1.37739e-25
1.76022e-25
1.25538e-25
1.61826e-25
1.18948e-25
1.50546e-25
1.06108e-25
1.46335e-25
1.2298e-25
1.92928e-25
2.6751e-25
8.66273e-25
3.8242e-24
1.23243e-23
6.7107e-24
3.93614e-23
8.95258e-22
1.41083e-21
1.46194e-22
3.61976e-23
6.25658e-24
8.63957e-26
7.11152e-28
1.04385e-26
1.2634e-26
2.23157e-26
1.2311e-26
2.23718e-26
1.71722e-26
2.81064e-26
2.07695e-26
3.38606e-26
2.72328e-26
3.89189e-26
2.69102e-26
4.48117e-26
3.50437e-26
5.34291e-26
3.90516e-26
6.14304e-26
4.67699e-26
7.1444e-26
5.51333e-26
8.15062e-26
6.34054e-26
9.39544e-26
7.34323e-26
1.06265e-25
8.51682e-26
1.19292e-25
9.33486e-26
1.30919e-25
1.07158e-25
1.46756e-25
1.18133e-25
1.56927e-25
1.24243e-25
1.67149e-25
1.29864e-25
1.75385e-25
1.37634e-25
1.76394e-25
1.24816e-25
1.61879e-25
1.18344e-25
1.51135e-25
1.06554e-25
1.49858e-25
1.28231e-25
2.08407e-25
2.97863e-25
9.88722e-25
4.31829e-24
1.36379e-23
5.86557e-24
3.70032e-23
9.68484e-22
1.42374e-21
1.51112e-22
2.90735e-23
6.72855e-24
8.31721e-26
4.46078e-28
1.09832e-26
1.32397e-26
2.32027e-26
1.28246e-26
2.32881e-26
1.78091e-26
2.9153e-26
2.14695e-26
3.50712e-26
2.80753e-26
4.02348e-26
2.77514e-26
4.63277e-26
3.60966e-26
5.51304e-26
4.01572e-26
6.32893e-26
4.80061e-26
7.34738e-26
5.64624e-26
8.36503e-26
6.48739e-26
9.62818e-26
7.49631e-26
1.0863e-25
8.67055e-26
1.2161e-25
9.47381e-26
1.3315e-25
1.08479e-25
1.48849e-25
1.19172e-25
1.58601e-25
1.24912e-25
1.68395e-25
1.30019e-25
1.7612e-25
1.37221e-25
1.76514e-25
1.23805e-25
1.61648e-25
1.17467e-25
1.51545e-25
1.06749e-25
1.53259e-25
1.33336e-25
2.24402e-25
3.2937e-25
1.11824e-24
4.83073e-24
1.49701e-23
5.19724e-24
3.68099e-23
1.04411e-21
1.45726e-21
1.55278e-22
2.28565e-23
7.20035e-24
7.84599e-26
2.8407e-28
1.15975e-26
1.38938e-26
2.40978e-26
1.33648e-26
2.42646e-26
1.84775e-26
3.02451e-26
2.21894e-26
3.63741e-26
2.89546e-26
4.15615e-26
2.86067e-26
4.79244e-26
3.7185e-26
5.68578e-26
4.12868e-26
6.52048e-26
4.926e-26
7.55239e-26
5.78172e-26
8.5814e-26
6.63494e-26
9.85865e-26
7.64862e-26
1.10996e-25
8.8221e-26
1.23835e-25
9.6064e-26
1.35305e-25
1.09712e-25
1.50777e-25
1.20118e-25
1.60057e-25
1.2544e-25
1.69329e-25
1.30001e-25
1.766e-25
1.36647e-25
1.76214e-25
1.22585e-25
1.61127e-25
1.16433e-25
1.51587e-25
1.06796e-25
1.56539e-25
1.38384e-25
2.40593e-25
3.61621e-25
1.25375e-24
5.34914e-24
1.6271e-23
4.70955e-24
3.91435e-23
1.11855e-21
1.51466e-21
1.57704e-22
1.75523e-23
7.64057e-24
7.26774e-26
2.12415e-28
1.23135e-26
1.46201e-26
2.49798e-26
1.3959e-26
2.52493e-26
1.91921e-26
3.13562e-26
2.29445e-26
3.7701e-26
2.98775e-26
4.29213e-26
2.94891e-26
4.95668e-26
3.83004e-26
5.8634e-26
4.24303e-26
6.71502e-26
5.05273e-26
7.76138e-26
5.9163e-26
8.79821e-26
6.78083e-26
1.00897e-25
7.79786e-26
1.13317e-25
8.96751e-26
1.25982e-25
9.72989e-26
1.37327e-25
1.10834e-25
1.52553e-25
1.20888e-25
1.61294e-25
1.25748e-25
1.70019e-25
1.29741e-25
1.76776e-25
1.3578e-25
1.75589e-25
1.21086e-25