/*--------------------------------*- C++ -*----------------------------------*\
| =========                 |                                                 |
| \\      /  F ield         | OpenFOAM: The Open Source CFD Toolbox           |
|  \\    /   O peration     | Version:  2312                                  |
|   \\  /    A nd           | Website:  www.openfoam.com                      |
|    \\/     M anipulation  |                                                 |
\*---------------------------------------------------------------------------*/
FoamFile
{
    version     2.0;
    format      ascii;
    arch        "LSB;label=32;scalar=64";
    class       volScalarField;
    location    "500";
    object      p;
}
// * * * * * * * * * * * * * * * * * * * * * * * * * * * * * * * * * * * * * //

dimensions      [0 2 -2 0 0 0 0];

internalField   nonuniform List<scalar> 
330000
(
-4.92177e-09
-6.79296e-10
-2.74534e-09
-1.95745e-09
-1.33875e-09
-1.03838e-09
-4.64762e-10
-4.62129e-10
3.01138e-11
-9.46837e-11
2.33877e-10
-5.51157e-12
3.26837e-10
4.75681e-11
3.82352e-10
8.197e-11
4.77048e-10
1.67093e-10
5.35803e-10
1.80137e-10
5.78244e-10
1.92589e-10
5.82007e-10
1.58201e-10
5.81181e-10
1.44639e-10
6.02269e-10
1.36923e-10
5.96753e-10
9.22378e-11
5.87729e-10
7.26984e-11
6.14639e-10
7.62491e-11
6.1795e-10
4.35885e-11
6.3519e-10
5.72733e-11
6.89843e-10
8.83253e-11
7.19905e-10
8.28465e-11
7.45714e-10
1.11378e-10
8.23471e-10
1.82048e-10
8.4865e-10
1.90003e-10
8.55564e-10
2.29e-10
8.35244e-10
2.79953e-10
8.20031e-10
4.2888e-10
6.12135e-10
5.4062e-10
1.40305e-10
6.32095e-10
-1.34678e-09
3.68949e-09
-4.88404e-09
-6.82472e-10
-2.75356e-09
-1.96069e-09
-1.34031e-09
-1.03829e-09
-4.65494e-10
-4.6208e-10
2.95181e-11
-9.46532e-11
2.33381e-10
-5.41086e-12
3.26355e-10
4.76988e-11
3.81905e-10
8.21519e-11
4.7661e-10
1.67323e-10
5.35312e-10
1.80393e-10
5.77749e-10
1.92881e-10
5.81528e-10
1.58576e-10
5.80683e-10
1.45044e-10
6.0173e-10
1.37349e-10
5.96219e-10
9.27638e-11
5.87141e-10
7.32382e-11
6.13998e-10
7.68126e-11
6.17294e-10
4.42424e-11
6.34488e-10
5.79601e-11
6.89057e-10
8.9032e-11
7.19108e-10
8.3686e-11
7.44836e-10
1.12226e-10
8.22515e-10
1.82946e-10
8.47648e-10
1.91034e-10
8.54499e-10
2.30128e-10
8.3415e-10
2.81162e-10
8.19038e-10
4.30316e-10
6.11368e-10
5.4259e-10
1.40755e-10
6.30463e-10
-1.35872e-09
3.68126e-09
-4.84406e-09
-6.8769e-10
-2.76516e-09
-1.96504e-09
-1.34188e-09
-1.03796e-09
-4.6585e-10
-4.62154e-10
2.91632e-11
-9.49147e-11
2.33178e-10
-5.58764e-12
3.26166e-10
4.75047e-11
3.81804e-10
8.19818e-11
4.76492e-10
1.67176e-10
5.35162e-10
1.80245e-10
5.77601e-10
1.92742e-10
5.81462e-10
1.58541e-10
5.80623e-10
1.44993e-10
6.0162e-10
1.37275e-10
5.96175e-10
9.28136e-11
5.87067e-10
7.32524e-11
6.13856e-10
7.68052e-11
6.17207e-10
4.43493e-11
6.34375e-10
5.80489e-11
6.88841e-10
8.91014e-11
7.18944e-10
8.39373e-11
7.4461e-10
1.12425e-10
8.22159e-10
1.83175e-10
8.47275e-10
1.91467e-10
8.54029e-10
2.30706e-10
8.33646e-10
2.81916e-10
8.18531e-10
4.31567e-10
6.10993e-10
5.44995e-10
1.41727e-10
6.29311e-10
-1.38199e-09
3.68571e-09
-4.80208e-09
-6.99313e-10
-2.77843e-09
-1.97112e-09
-1.34328e-09
-1.03705e-09
-4.65819e-10
-4.61964e-10
2.8945e-11
-9.51306e-11
2.3314e-10
-5.74303e-12
3.26095e-10
4.72792e-11
3.81845e-10
8.17655e-11
4.76458e-10
1.66952e-10
5.35106e-10
1.80005e-10
5.77526e-10
1.92489e-10
5.81521e-10
1.58432e-10
5.8069e-10
1.44834e-10
6.01604e-10
1.37055e-10
5.96272e-10
9.27636e-11
5.87136e-10
7.3133e-11
6.13822e-10
7.66311e-11
6.17286e-10
4.4336e-11
6.34432e-10
5.79802e-11
6.88757e-10
8.89736e-11
7.18969e-10
8.40547e-11
7.44582e-10
1.12431e-10
8.21943e-10
1.83166e-10
8.47101e-10
1.91712e-10
8.53758e-10
2.3108e-10
8.33421e-10
2.82452e-10
8.18368e-10
4.32621e-10
6.11271e-10
5.47341e-10
1.44499e-10
6.26282e-10
-1.41249e-09
3.70174e-09
-4.75921e-09
-7.15575e-10
-2.79224e-09
-1.97908e-09
-1.34456e-09
-1.03557e-09
-4.65503e-10
-4.61502e-10
2.87644e-11
-9.5258e-11
2.33162e-10
-5.80508e-12
3.26042e-10
4.71123e-11
3.81918e-10
8.16017e-11
4.76399e-10
1.66759e-10
5.35027e-10
1.79788e-10
5.77402e-10
1.92248e-10
5.81569e-10
1.58375e-10
5.80745e-10
1.44707e-10
6.01534e-10
1.36835e-10
5.96351e-10
9.27686e-11
5.87184e-10
7.30444e-11
6.13727e-10
7.64666e-11
6.1735e-10
4.43831e-11
6.3447e-10
5.7947e-11
6.88607e-10
8.88456e-11
7.18974e-10
8.42407e-11
7.4454e-10
1.12453e-10
8.21653e-10
1.83137e-10
8.46901e-10
1.91977e-10
8.53475e-10
2.31451e-10
8.33272e-10
2.82939e-10
8.18391e-10
4.33568e-10
6.12167e-10
5.49503e-10
1.49371e-10
6.20583e-10
-1.44677e-09
3.72515e-09
-4.71866e-09
-7.33678e-10
-2.80554e-09
-1.98881e-09
-1.34576e-09
-1.0336e-09
-4.64952e-10
-4.60831e-10
2.85876e-11
-9.53277e-11
2.33211e-10
-5.8027e-12
3.25989e-10
4.69934e-11
3.82007e-10
8.14817e-11
4.76304e-10
1.66594e-10
5.34916e-10
1.7959e-10
5.7722e-10
1.92018e-10
5.81595e-10
1.58371e-10
5.80779e-10
1.44617e-10
6.01404e-10
1.36622e-10
5.964e-10
9.2833e-11
5.872e-10
7.29934e-11
6.13566e-10
7.63237e-11
6.17383e-10
4.44981e-11
6.34477e-10
5.79612e-11
6.88381e-10
8.87319e-11
7.1894e-10
8.45065e-11
7.44464e-10
1.12506e-10
8.21272e-10
1.83111e-10
8.46647e-10
1.92282e-10
8.53153e-10
2.31848e-10
8.33164e-10
2.83409e-10
8.18556e-10
4.34434e-10
6.1364e-10
5.51421e-10
1.56477e-10
6.12125e-10
-1.48233e-09
3.7533e-09
-4.68451e-09
-7.5132e-10
-2.81702e-09
-2.00012e-09
-1.34683e-09
-1.03121e-09
-4.64188e-10
-4.60013e-10
2.83981e-11
-9.53723e-11
2.3327e-10
-5.76332e-12
3.25931e-10
4.69017e-11
3.82106e-10
8.13847e-11
4.76176e-10
1.66445e-10
5.34779e-10
1.79397e-10
5.76988e-10
1.91788e-10
5.81602e-10
1.58403e-10
5.80798e-10
1.44548e-10
6.01224e-10
1.36405e-10
5.96427e-10
9.29417e-11
5.87197e-10
7.29659e-11
6.13352e-10
7.61926e-11
6.17395e-10
4.4665e-11
6.34465e-10
5.80093e-11
6.88093e-10
8.8622e-11
7.18875e-10
8.48361e-11
7.44364e-10
1.12579e-10
8.20812e-10
1.83084e-10
8.46343e-10
1.92618e-10
8.52795e-10
2.32272e-10
8.33088e-10
2.83863e-10
8.1884e-10
4.35218e-10
6.15674e-10
5.5299e-10
1.65995e-10
6.00582e-10
-1.51661e-09
3.78457e-09
-4.66081e-09
-7.66874e-10
-2.82526e-09
-2.01271e-09
-1.34771e-09
-1.02841e-09
-4.63222e-10
-4.59094e-10
2.81776e-11
-9.54164e-11
2.33321e-10
-5.70763e-12
3.25858e-10
4.68237e-11
3.82206e-10
8.12993e-11
4.76011e-10
1.66305e-10
5.34613e-10
1.79201e-10
5.76707e-10
1.91555e-10
5.81587e-10
1.58463e-10
5.808e-10
1.44497e-10
6.00995e-10
1.36184e-10
5.96429e-10
9.30903e-11
5.87174e-10
7.29599e-11
6.13089e-10
7.60753e-11
6.17384e-10
4.48808e-11
6.34433e-10
5.80911e-11
6.87744e-10
8.85204e-11
7.18775e-10
8.52276e-11
7.44237e-10
1.12674e-10
8.20271e-10
1.83068e-10
8.4598e-10
1.92994e-10
8.5239e-10
2.32734e-10
8.33025e-10
2.84316e-10
8.19217e-10
4.35918e-10
6.18268e-10
5.54069e-10
1.78164e-10
5.85489e-10
-1.54712e-09
3.8178e-09
-4.65123e-09
-7.79264e-10
-2.8289e-09
-2.02625e-09
-1.3483e-09
-1.02524e-09
-4.62061e-10
-4.58109e-10
2.79098e-11
-9.54792e-11
2.33346e-10
-5.65243e-12
3.25758e-10
4.67501e-11
3.82295e-10
8.12177e-11
4.75798e-10
1.66172e-10
5.34413e-10
1.79e-10
5.7637e-10
1.91318e-10
5.81543e-10
1.5855e-10
5.8078e-10
1.44463e-10
6.00714e-10
1.35963e-10
5.964e-10
9.32798e-11
5.87126e-10
7.29789e-11
6.12774e-10
7.59792e-11
6.17343e-10
4.51487e-11
6.34372e-10
5.82129e-11
6.87328e-10
8.84374e-11
7.18628e-10
8.56865e-11
7.44069e-10
1.12803e-10
8.19636e-10
1.8308e-10
8.45539e-10
1.93422e-10
8.51917e-10
2.33252e-10
8.32946e-10
2.84783e-10
8.19659e-10
4.36525e-10
6.21434e-10
5.54489e-10
1.9326e-10
5.66341e-10
-1.57164e-09
3.85228e-09
-4.65899e-09
-7.87855e-10
-2.8267e-09
-2.04037e-09
-1.3485e-09
-1.02167e-09
-4.60702e-10
-4.57083e-10
2.75819e-11
-9.55767e-11
2.33328e-10
-5.61181e-12
3.25617e-10
4.66721e-11
3.82359e-10
8.11337e-11
4.75531e-10
1.66042e-10
5.34174e-10
1.78791e-10
5.75974e-10
1.91077e-10
5.8146e-10
1.5866e-10
5.80728e-10
1.44448e-10
6.00378e-10
1.35746e-10
5.96333e-10
9.35116e-11
5.87046e-10
7.30275e-11
6.12401e-10
7.59121e-11
6.17262e-10
4.54727e-11
6.34272e-10
5.8382e-11
6.86838e-10
8.83846e-11
7.18419e-10
8.62194e-11
7.43847e-10
1.12977e-10
8.18894e-10
1.83138e-10
8.45003e-10
1.9392e-10
8.51355e-10
2.33845e-10
8.32826e-10
2.85279e-10
8.20144e-10
4.37022e-10
6.252e-10
5.54062e-10
2.11571e-10
5.42573e-10
-1.58835e-09
3.88773e-09
-4.68675e-09
-7.92412e-10
-2.8175e-09
-2.05474e-09
-1.34821e-09
-1.0177e-09
-4.59136e-10
-4.56034e-10
2.71866e-11
-9.57211e-11
2.33253e-10
-5.59778e-12
3.25427e-10
4.65827e-11
3.82389e-10
8.10417e-11
4.75201e-10
1.65913e-10
5.3389e-10
1.78572e-10
5.75513e-10
1.90834e-10
5.81332e-10
1.58792e-10
5.80639e-10
1.44452e-10
5.99981e-10
1.35538e-10
5.9622e-10
9.37869e-11
5.86929e-10
7.31097e-11
6.11966e-10
7.58813e-11
6.17135e-10
4.5857e-11
6.34125e-10
5.86052e-11
6.86268e-10
8.83726e-11
7.18138e-10
8.68331e-11
7.43556e-10
1.13209e-10
8.18029e-10
1.83261e-10
8.4435e-10
1.94502e-10
8.50683e-10
2.34529e-10
8.32638e-10
2.85816e-10
8.20657e-10
4.37377e-10
6.29613e-10
5.52586e-10
2.33387e-10
5.13732e-10
-1.59586e-09
3.9242e-09
-4.73666e-09
-7.93015e-10
-2.80038e-09
-2.06894e-09
-1.34735e-09
-1.01329e-09
-4.57351e-10
-4.5497e-10
2.67197e-11
-9.5921e-11
2.33112e-10
-5.61913e-12
3.25179e-10
4.64758e-11
3.82374e-10
8.09377e-11
4.74801e-10
1.6578e-10
5.33554e-10
1.78342e-10
5.74982e-10
1.90587e-10
5.8115e-10
1.58943e-10
5.80504e-10
1.44476e-10
5.99521e-10
1.35344e-10
5.96054e-10
9.41074e-11
5.86768e-10
7.32303e-11
6.11465e-10
7.58941e-11
6.16951e-10
4.63061e-11
6.3392e-10
5.88902e-11
6.85609e-10
8.84127e-11
7.17769e-10
8.75344e-11
7.43181e-10
1.13512e-10
8.17028e-10
1.83463e-10
8.43563e-10
1.95183e-10
8.4988e-10
2.35318e-10
8.32363e-10
2.86395e-10
8.21191e-10
4.37551e-10
6.34727e-10
5.49856e-10
2.58974e-10
4.79428e-10
-1.59315e-09
3.96198e-09
-4.81029e-09
-7.90003e-10
-2.77454e-09
-2.08265e-09
-1.34585e-09
-1.00843e-09
-4.55333e-10
-4.53894e-10
2.6181e-11
-9.61811e-11
2.32896e-10
-5.68216e-12
3.24865e-10
4.63478e-11
3.82305e-10
8.08189e-11
4.74325e-10
1.65641e-10
5.33161e-10
1.78099e-10
5.74376e-10
1.90337e-10
5.80908e-10
1.59113e-10
5.80317e-10
1.44522e-10
5.98992e-10
1.35167e-10
5.95828e-10
9.4475e-11
5.86557e-10
7.33943e-11
6.10892e-10
7.59574e-11
6.16703e-10
4.68251e-11
6.33649e-10
5.92444e-11
6.84853e-10
8.85152e-11
7.17299e-10
8.83307e-11
7.42708e-10
1.13898e-10
8.15877e-10
1.83761e-10
8.42623e-10
1.95973e-10
8.48931e-10
2.36221e-10
8.31984e-10
2.87017e-10
8.21749e-10
4.37497e-10
6.40606e-10
5.45674e-10
2.88557e-10
4.39358e-10
-1.57963e-09
4.00152e-09
-4.90866e-09
-7.83894e-10
-2.73933e-09
-2.09555e-09
-1.34365e-09
-1.00307e-09
-4.53071e-10
-4.52804e-10
2.55725e-11
-9.65032e-11
2.326e-10
-5.79056e-12
3.2448e-10
4.61963e-11
3.82175e-10
8.0684e-11
4.73768e-10
1.65494e-10
5.32705e-10
1.77844e-10
5.73691e-10
1.90085e-10
5.80599e-10
1.59301e-10
5.80071e-10
1.44591e-10
5.9839e-10
1.35012e-10
5.95535e-10
9.48918e-11
5.86288e-10
7.3607e-11
6.10242e-10
7.60784e-11
6.16381e-10
4.74193e-11
6.33301e-10
5.96757e-11
6.83992e-10
8.86911e-11
7.16717e-10
8.92292e-11
7.42122e-10
1.1438e-10
8.1456e-10
1.84168e-10
8.41514e-10
1.96885e-10
8.47818e-10
2.37246e-10
8.31489e-10
2.87676e-10
8.22339e-10
4.37162e-10
6.47313e-10
5.39855e-10
3.22311e-10
3.93345e-10
-1.55499e-09
4.04335e-09
-5.03227e-09
-7.75371e-10
-2.69426e-09
-2.10732e-09
-1.34073e-09
-9.9721e-10
-4.50556e-10
-4.51698e-10
2.48968e-11
-9.68874e-11
2.3222e-10
-5.94647e-12
3.2402e-10
4.60204e-11
3.81979e-10
8.05322e-11
4.73124e-10
1.65338e-10
5.32181e-10
1.77577e-10
5.72922e-10
1.89832e-10
5.80215e-10
1.59506e-10
5.79759e-10
1.44685e-10
5.97711e-10
1.34883e-10
5.95168e-10
9.53604e-11
5.85956e-10
7.38735e-11
6.09509e-10
7.62642e-11
6.15978e-10
4.8094e-11
6.32867e-10
6.01916e-11
6.83017e-10
8.895e-11
7.16008e-10
9.02369e-11
7.41408e-10
1.14969e-10
8.13067e-10
1.84697e-10
8.40221e-10
1.97926e-10
8.4653e-10
2.38396e-10
8.30868e-10
2.88359e-10
8.22973e-10
4.36492e-10
6.54908e-10
5.32243e-10
3.60353e-10
3.4132e-10
-1.51929e-09
4.08806e-09
-5.18117e-09
-7.65216e-10
-2.63895e-09
-2.11768e-09
-1.33708e-09
-9.90828e-10
-4.47784e-10
-4.50572e-10
2.41556e-11
-9.73329e-11
2.31753e-10
-6.15022e-12
3.23481e-10
4.58204e-11
3.81709e-10
8.03642e-11
4.7239e-10
1.65173e-10
5.31584e-10
1.77299e-10
5.72066e-10
1.8958e-10
5.79751e-10
1.59729e-10
5.79374e-10
1.44806e-10
5.9695e-10
1.34785e-10
5.9472e-10
9.58832e-11
5.85553e-10
7.41993e-11
6.08688e-10
7.65216e-11
6.15485e-10
4.88548e-11
6.32337e-10
6.07999e-11
6.81921e-10
8.93022e-11
7.15162e-10
9.13603e-11
7.40553e-10
1.15675e-10
8.11384e-10
1.85357e-10
8.38733e-10
1.99101e-10
8.45055e-10
2.39673e-10
8.30116e-10
2.89055e-10
8.23664e-10
4.35438e-10
6.63441e-10
5.22708e-10
4.02733e-10
2.83343e-10
-1.47281e-09
4.13619e-09
-5.35496e-09
-7.54323e-10
-2.57319e-09
-2.12634e-09
-1.33271e-09
-9.83917e-10
-4.44753e-10
-4.49423e-10
2.33512e-11
-9.7838e-11
2.31196e-10
-6.40129e-12
3.22861e-10
4.55973e-11
3.81362e-10
8.01811e-11
4.71562e-10
1.64998e-10
5.30909e-10
1.77011e-10
5.71119e-10
1.8933e-10
5.79201e-10
1.5997e-10
5.7891e-10
1.44957e-10
5.96103e-10
1.34721e-10
5.94186e-10
9.64629e-11
5.85074e-10
7.45896e-11
6.07773e-10
7.68569e-11
6.14895e-10
4.9707e-11
6.31702e-10
6.15075e-11
6.80696e-10
8.97562e-11
7.14167e-10
9.26055e-11
7.39545e-10
1.16506e-10
8.09502e-10
1.86156e-10
8.37037e-10
2.00416e-10
8.43387e-10
2.41075e-10
8.29232e-10
2.89749e-10
8.24428e-10
4.3395e-10
6.72953e-10
5.11153e-10
4.49433e-10
2.19569e-10
-1.41604e-09
4.18828e-09
-5.55287e-09
-7.4362e-10
-2.49687e-09
-2.13305e-09
-1.32761e-09
-9.76479e-10
-4.41469e-10
-4.48246e-10
2.24848e-11
-9.8401e-11
2.30548e-10
-6.69828e-12
3.22156e-10
4.53528e-11
3.80933e-10
7.99848e-11
4.70637e-10
1.64814e-10
5.30152e-10
1.76716e-10
5.70077e-10
1.89085e-10
5.7856e-10
1.60231e-10
5.78362e-10
1.45141e-10
5.95166e-10
1.34698e-10
5.93558e-10
9.71022e-11
5.8451e-10
7.50498e-11
6.06758e-10
7.72763e-11
6.14199e-10
5.06559e-11
6.30955e-10
6.23215e-11
6.79335e-10
9.03207e-11
7.13013e-10
9.39781e-11
7.38373e-10
1.17473e-10
8.07412e-10
1.87102e-10
8.35126e-10
2.01874e-10
8.41519e-10
2.42599e-10
8.28214e-10
2.90427e-10
8.25277e-10
4.31992e-10
6.83467e-10
4.97515e-10
5.00369e-10
1.50274e-10
-1.34966e-09
4.24479e-09
-5.77371e-09
-7.34069e-10
-2.41004e-09
-2.13756e-09
-1.32184e-09
-9.68521e-10
-4.37938e-10
-4.47041e-10
2.15563e-11
-9.90204e-11
2.29806e-10
-7.03986e-12
3.21366e-10
4.5089e-11
3.80419e-10
7.97773e-11
4.69612e-10
1.64622e-10
5.29309e-10
1.76416e-10
5.68937e-10
1.88848e-10
5.77823e-10
1.60513e-10
5.77723e-10
1.4536e-10
5.94135e-10
1.34718e-10
5.92832e-10
9.78037e-11
5.83857e-10
7.55845e-11
6.05639e-10
7.77855e-11
6.13392e-10
5.17065e-11
6.30086e-10
6.32482e-11
6.77831e-10
9.10033e-11
7.11692e-10
9.54828e-11
7.37026e-10
1.18581e-10
8.05106e-10
1.882e-10
8.32992e-10
2.03474e-10
8.39447e-10
2.44242e-10
8.27061e-10
2.91075e-10
8.26223e-10
4.29529e-10
6.94995e-10
4.8177e-10
5.55391e-10
7.5835e-11
-1.27454e-09
4.30608e-09
-6.01597e-09
-7.26621e-10
-2.31285e-09
-2.13964e-09
-1.3154e-09
-9.60059e-10
-4.34169e-10
-4.45806e-10
2.05647e-11
-9.9695e-11
2.28968e-10
-7.42429e-12
3.20487e-10
4.48079e-11
3.79817e-10
7.95608e-11
4.68486e-10
1.64423e-10
5.28377e-10
1.76113e-10
5.67697e-10
1.88619e-10
5.76986e-10
1.60817e-10
5.7699e-10
1.45617e-10
5.93006e-10
1.34785e-10
5.92002e-10
9.85699e-11
5.83109e-10
7.61985e-11
6.04411e-10
7.83898e-11
6.12468e-10
5.28633e-11
6.2909e-10
6.42932e-11
6.76178e-10
9.18109e-11
7.10196e-10
9.71237e-11
7.35495e-10
1.19837e-10
8.02579e-10
1.89453e-10
8.3063e-10
2.05218e-10
8.37167e-10
2.45998e-10
8.25774e-10
2.91681e-10
8.27272e-10
4.2654e-10
7.07528e-10
4.63924e-10
6.14287e-10
-3.26669e-12
-1.19165e-09
4.37238e-09
-6.27787e-09
-7.22257e-10
-2.20561e-09
-2.13906e-09
-1.30835e-09
-9.51109e-10
-4.30173e-10
-4.44538e-10
1.95091e-11
-1.00424e-10
2.28031e-10
-7.84971e-12
3.19517e-10
4.45118e-11
3.79123e-10
7.93378e-11
4.67257e-10
1.64216e-10
5.27353e-10
1.7581e-10
5.66355e-10
1.88403e-10
5.76045e-10
1.61145e-10
5.76158e-10
1.45915e-10
5.91777e-10
1.34904e-10
5.91064e-10
9.94033e-11
5.8226e-10
7.68962e-11
6.0307e-10
7.90938e-11
6.11419e-10
5.41306e-11
6.27959e-10
6.54619e-11
6.74372e-10
9.27497e-11
7.08518e-10
9.89043e-11
7.33774e-10
1.21245e-10
7.99824e-10
1.90865e-10
8.28036e-10
2.07105e-10
8.34678e-10
2.47863e-10
8.24353e-10
2.92235e-10
8.28427e-10
4.23011e-10
7.21045e-10
4.44024e-10
6.76779e-10
-8.64843e-11
-1.10205e-09
4.44386e-09
-6.55739e-09
-7.21906e-10
-2.0887e-09
-2.13563e-09
-1.30072e-09
-9.417e-10
-4.25966e-10
-4.43235e-10
1.83886e-11
-1.01205e-10
2.26994e-10
-8.314e-12
3.18455e-10
4.42029e-11
3.78335e-10
7.91107e-11
4.65922e-10
1.64005e-10
5.26234e-10
1.75509e-10
5.64908e-10
1.882e-10
5.74998e-10
1.61498e-10
5.75222e-10
1.46255e-10
5.90444e-10
1.35078e-10
5.90015e-10
1.00306e-10
5.81306e-10
7.76817e-11
6.01612e-10
7.99019e-11
6.10243e-10
5.55124e-11
6.26688e-10
6.67588e-11
6.72407e-10
9.38252e-11
7.06654e-10
1.00828e-10
7.31855e-10
1.22811e-10
7.96839e-10
1.92437e-10
8.25206e-10
2.09134e-10
8.31977e-10
2.49832e-10
8.22798e-10
2.9273e-10
8.29688e-10
4.18937e-10
7.35503e-10
4.22147e-10
7.42526e-10
-1.73179e-10
-1.00684e-09
4.52052e-09
-6.85218e-09
-7.26428e-10
-1.96268e-09
-2.12917e-09
-1.29255e-09
-9.31862e-10
-4.21561e-10
-4.41896e-10
1.7202e-11
-1.02037e-10
2.25854e-10
-8.81539e-12
3.17298e-10
4.38835e-11
3.7745e-10
7.88817e-11
4.64481e-10
1.63789e-10
5.25017e-10
1.75212e-10
5.63355e-10
1.88014e-10
5.73842e-10
1.61879e-10
5.74181e-10
1.46641e-10
5.89006e-10
1.35311e-10
5.8885e-10
1.0128e-10
5.80243e-10
7.85585e-11
6.00033e-10
8.08178e-11
6.08934e-10
5.70121e-11
6.25272e-10
6.81881e-11
6.70281e-10
9.50423e-11
7.04597e-10
1.02896e-10
7.29732e-10
1.24537e-10
7.9362e-10
1.94171e-10
8.22138e-10
2.11303e-10
8.29063e-10
2.51901e-10
8.21106e-10
2.9316e-10
8.31049e-10
4.14325e-10
7.50847e-10
3.98409e-10
8.11138e-10
-2.62635e-10
-9.07223e-10
4.60221e-09
-7.15977e-09
-7.366e-10
-1.82816e-09
-2.11951e-09
-1.28389e-09
-9.21635e-10
-4.16974e-10
-4.40519e-10
1.59476e-11
-1.02919e-10
2.2461e-10
-9.35179e-12
3.16045e-10
4.35557e-11
3.76468e-10
7.86527e-11
4.62932e-10
1.63569e-10
5.237e-10
1.74923e-10
5.61695e-10
1.87847e-10
5.72574e-10
1.62289e-10
5.73029e-10
1.47074e-10
5.87459e-10
1.35605e-10
5.87566e-10
1.02328e-10
5.79066e-10
7.95299e-11
5.9833e-10
8.18451e-11
6.07489e-10
5.86327e-11
6.23706e-10
6.97532e-11
6.67989e-10
9.64052e-11
7.02345e-10
1.05112e-10
7.27401e-10
1.26426e-10
7.90164e-10
1.96066e-10
8.18831e-10
2.13612e-10
8.25934e-10
2.54066e-10
8.19277e-10
2.93523e-10
8.32499e-10
4.09191e-10
7.67e-10
3.72956e-10
8.82173e-10
-3.54068e-10
-8.04411e-10
4.68861e-09
-7.47753e-09
-7.53185e-10
-1.68587e-09
-2.1065e-09
-1.27477e-09
-9.11059e-10
-4.12222e-10
-4.39102e-10
1.46251e-11
-1.03849e-10
2.2326e-10
-9.92082e-12
3.14694e-10
4.32215e-11
3.75385e-10
7.8426e-11
4.61275e-10
1.63347e-10
5.22281e-10
1.74642e-10
5.59925e-10
1.87699e-10
5.71193e-10
1.62729e-10
5.71767e-10
1.47556e-10
5.85803e-10
1.35963e-10
5.86162e-10
1.03451e-10
5.77772e-10
8.05988e-11
5.965e-10
8.29863e-11
6.05905e-10
6.03769e-11
6.21987e-10
7.14571e-11
6.6553e-10
9.79174e-11
6.99895e-10
1.07477e-10
7.24858e-10
1.28481e-10
7.86471e-10
1.98123e-10
8.15283e-10
2.16058e-10
8.22591e-10
2.56323e-10
8.17307e-10
2.93819e-10
8.34024e-10
4.03558e-10
7.83873e-10
3.45966e-10
9.55135e-10
-4.4667e-10
-6.99591e-10
4.77932e-09
-7.80273e-09
-7.76844e-10
-1.53665e-09
-2.09001e-09
-1.26523e-09
-9.0018e-10
-4.07323e-10
-4.3764e-10
1.32352e-11
-1.04824e-10
2.21803e-10
-1.05197e-11
3.13245e-10
4.28832e-11
3.742e-10
7.82036e-11
4.59509e-10
1.63123e-10
5.20759e-10
1.74373e-10
5.58047e-10
1.87573e-10
5.69698e-10
1.63202e-10
5.70389e-10
1.4809e-10
5.84035e-10
1.36389e-10
5.84635e-10
1.0465e-10
5.76359e-10
8.17679e-11
5.94542e-10
8.4244e-11
6.04178e-10
6.22471e-11
6.20111e-10
7.3302e-11
6.62901e-10
9.95821e-11
6.97244e-10
1.09991e-10
7.22099e-10
1.30704e-10
7.82539e-10
2.00342e-10
8.11495e-10
2.1864e-10
8.19032e-10
2.58669e-10
8.15193e-10
2.94051e-10
8.35603e-10
3.97462e-10
8.01359e-10
3.17644e-10
1.02949e-09
-5.39586e-10
-5.93913e-10
4.8738e-09
-8.13247e-09
-8.08114e-10
-1.3814e-09
-2.06994e-09
-1.25531e-09
-8.8905e-10
-4.02294e-10
-4.3613e-10
1.17776e-11
-1.05841e-10
2.20239e-10
-1.11461e-11
3.11697e-10
4.2543e-11
3.72914e-10
7.79872e-11
4.57633e-10
1.62897e-10
5.19131e-10
1.74116e-10
5.56058e-10
1.87471e-10
5.68086e-10
1.63707e-10
5.68896e-10
1.48676e-10
5.82155e-10
1.36884e-10
5.82983e-10
1.05927e-10
5.74822e-10
8.30394e-11
5.92453e-10
8.56203e-11
6.02306e-10
6.42453e-11
6.18075e-10
7.529e-11
6.601e-10
1.01402e-10
6.9439e-10
1.12656e-10
7.19123e-10
1.33095e-10
7.78369e-10
2.0272e-10
8.07467e-10
2.21355e-10
8.15257e-10
2.61102e-10
8.1293e-10
2.94225e-10
8.37213e-10
3.90947e-10
8.19336e-10
2.88225e-10
1.10466e-09
-6.31917e-10
-4.88551e-10
4.97132e-09
-8.46383e-09
-8.474e-10
-1.22109e-09
-2.0462e-09
-1.24503e-09
-8.77725e-10
-3.97154e-10
-4.34569e-10
1.02531e-11
-1.06898e-10
2.18568e-10
-1.17971e-11
3.10049e-10
4.2203e-11
3.71524e-10
7.77782e-11
4.55648e-10
1.6267e-10
5.17398e-10
1.73874e-10
5.53958e-10
1.87394e-10
5.66359e-10
1.64246e-10
5.67286e-10
1.49317e-10
5.80162e-10
1.37452e-10
5.81205e-10
1.07284e-10
5.73161e-10
8.4415e-11
5.90231e-10
8.71168e-11
6.00289e-10
6.63728e-11
6.15878e-10
7.74224e-11
6.57127e-10
1.03378e-10
6.91334e-10
1.15472e-10
7.15927e-10
1.35655e-10
7.7396e-10
2.05257e-10
8.032e-10
2.24201e-10
8.11266e-10
2.6362e-10
8.10512e-10
2.94348e-10
8.38823e-10
3.84066e-10
8.37669e-10
2.57965e-10
1.18005e-09
-7.22737e-10
-3.84613e-10
5.071e-09
-8.79388e-09
-8.95098e-10
-1.05678e-09
-2.01872e-09
-1.23442e-09
-8.6626e-10
-3.91922e-10
-4.32953e-10
8.66358e-12
-1.07991e-10
2.1679e-10
-1.24697e-11
3.08302e-10
4.18654e-11
3.70033e-10
7.75783e-11
4.53554e-10
1.62443e-10
5.15558e-10
1.73647e-10
5.51749e-10
1.87342e-10
5.64514e-10
1.64822e-10
5.65557e-10
1.50013e-10
5.78054e-10
1.38092e-10
5.793e-10
1.0872e-10
5.71374e-10
8.58964e-11
5.87876e-10
8.87348e-11
5.98123e-10
6.8631e-11
6.13517e-10
7.97001e-11
6.53981e-10
1.05513e-10
6.88073e-10
1.18439e-10
7.12511e-10
1.38384e-10
7.69315e-10
2.07951e-10
7.98694e-10
2.27177e-10
8.07057e-10
2.66222e-10
8.07933e-10
2.9443e-10
8.40401e-10
3.76877e-10
8.56209e-10
2.27142e-10
1.25504e-09
-8.11148e-10
-2.8313e-10
5.17194e-09
-9.11974e-09
-9.51494e-10
-8.89538e-10
-1.98742e-09
-1.22348e-09
-8.54709e-10
-3.86614e-10
-4.31273e-10
7.01264e-12
-1.09115e-10
2.14908e-10
-1.31604e-11
3.06456e-10
4.15325e-11
3.68439e-10
7.73894e-11
4.51352e-10
1.62215e-10
5.13611e-10
1.73438e-10
5.49428e-10
1.87318e-10
5.62551e-10
1.65433e-10
5.63709e-10
1.50765e-10
5.75832e-10
1.38808e-10
5.77267e-10
1.10237e-10
5.69458e-10
8.74848e-11
5.85386e-10
9.04751e-11
5.95808e-10
7.1021e-11
6.10992e-10
8.21235e-11
6.50662e-10
1.07808e-10
6.8461e-10
1.21557e-10
7.08874e-10
1.41282e-10
7.64434e-10
2.108e-10
7.93952e-10
2.30281e-10
8.02632e-10
2.68907e-10
8.05184e-10
2.94486e-10
8.41908e-10
3.69451e-10
8.74798e-10
1.96049e-10
1.32898e-09
-8.96247e-10
-1.85037e-10
5.27312e-09
-9.43843e-09
-1.01672e-09
-7.20512e-10
-1.9523e-09
-1.21222e-09
-8.43136e-10
-3.81249e-10
-4.29526e-10
5.30288e-12
-1.10266e-10
2.12923e-10
-1.3866e-11
3.04514e-10
4.12065e-11
3.66745e-10
7.72125e-11
4.49044e-10
1.61988e-10
5.11557e-10
1.73248e-10
5.46998e-10
1.87322e-10
5.60471e-10
1.66083e-10
5.61741e-10
1.51573e-10
5.73495e-10
1.39601e-10
5.75106e-10
1.11836e-10
5.67412e-10
8.91813e-11
5.82761e-10
9.23385e-11
5.93344e-10
7.35432e-11
6.08301e-10
8.46927e-11
6.47169e-10
1.10263e-10
6.80943e-10
1.24825e-10
7.05017e-10
1.44347e-10
7.5932e-10
2.13801e-10
7.88975e-10
2.3351e-10
7.97989e-10
2.71674e-10
8.02258e-10
2.9453e-10
8.43304e-10
3.61859e-10
8.93268e-10
1.64993e-10
1.40122e-09
-9.77125e-10
-9.12466e-11
5.37338e-09
-9.74708e-09
-1.09077e-09
-5.50853e-10
-1.91333e-09
-1.20065e-09
-8.31602e-10
-3.75845e-10
-4.27706e-10
3.53774e-12
-1.1144e-10
2.10837e-10
-1.45833e-11
3.02476e-10
4.08898e-11
3.64952e-10
7.7049e-11
4.46629e-10
1.61762e-10
5.09396e-10
1.73078e-10
5.44458e-10
1.87355e-10
5.58274e-10
1.66771e-10
5.59653e-10
1.5244e-10
5.71043e-10
1.40472e-10
5.72816e-10
1.13517e-10
5.65237e-10
9.09864e-11
5.8e-10
9.43253e-11
5.9073e-10
7.61978e-11
6.05445e-10
8.74073e-11
6.43503e-10
1.12878e-10
6.77075e-10
1.28242e-10
7.0094e-10
1.47578e-10
7.53975e-10
2.1695e-10
7.83767e-10
2.36862e-10
7.93128e-10
2.74525e-10
7.99145e-10
2.94578e-10
8.44541e-10
3.54183e-10
9.11442e-10
1.34292e-10
1.47112e-09
-1.05288e-09
-2.58515e-12
5.47144e-09
-1.00429e-08
-1.17364e-09
-3.81733e-10
-1.87051e-09
-1.18875e-09
-8.20164e-10
-3.70418e-10
-4.25804e-10
1.72243e-12
-1.12631e-10
2.08654e-10
-1.53087e-11
3.00344e-10
4.05846e-11
3.63061e-10
7.69004e-11
4.44109e-10
1.61536e-10
5.07129e-10
1.72929e-10
5.41809e-10
1.87418e-10
5.5596e-10
1.67499e-10
5.57445e-10
1.53364e-10
5.68476e-10
1.41422e-10
5.70399e-10
1.1528e-10
5.62931e-10
9.29005e-11
5.77104e-10
9.64354e-11
5.87966e-10
7.89849e-11
6.02423e-10
9.02663e-11
6.39666e-10
1.15653e-10
6.73006e-10
1.31806e-10
6.96646e-10
1.50973e-10
7.48402e-10
2.20246e-10
7.78328e-10
2.40335e-10
7.88049e-10
2.77461e-10
7.95834e-10
2.94652e-10
8.45574e-10
3.46506e-10
9.29139e-10
1.04268e-10
1.53803e-09
-1.1227e-09
8.02417e-11
5.56608e-09
-1.03238e-08
-1.26526e-09
-2.1432e-10
-1.82384e-09
-1.17649e-09
-8.08877e-10
-3.64984e-10
-4.23812e-10
-1.35889e-13
-1.13833e-10
2.06379e-10
-1.6038e-11
2.98123e-10
4.02931e-11
3.61077e-10
7.67685e-11
4.41487e-10
1.61311e-10
5.04755e-10
1.72803e-10
5.39052e-10
1.87512e-10
5.5353e-10
1.68267e-10
5.55118e-10
1.54347e-10
5.65795e-10
1.42452e-10
5.67853e-10
1.17125e-10
5.60494e-10
9.49239e-11
5.74072e-10
9.86683e-11
5.85053e-10
8.19042e-11
5.99237e-10
9.32687e-11
6.35659e-10
1.18588e-10
6.68739e-10
1.35516e-10
6.92137e-10
1.54531e-10
7.42604e-10
2.23684e-10
7.72664e-10
2.43926e-10
7.82752e-10
2.80481e-10
7.92314e-10
2.94771e-10
8.46351e-10
3.38916e-10
9.46176e-10
7.52423e-11
1.60129e-09
-1.18577e-09
1.56639e-10
5.65604e-09
-1.05863e-08
-1.36545e-09
-4.97915e-11
-1.77336e-09
-1.16386e-09
-7.97798e-10
-3.59556e-10
-4.21721e-10
-2.03131e-12
-1.15041e-10
2.04014e-10
-1.67677e-11
2.95815e-10
4.00178e-11
3.59e-10
7.66547e-11
4.38763e-10
1.61088e-10
5.02276e-10
1.72702e-10
5.36188e-10
1.87637e-10
5.50985e-10
1.69077e-10
5.52671e-10
1.55388e-10
5.63e-10
1.43563e-10
5.6518e-10
1.19053e-10
5.57926e-10
9.70566e-11
5.70906e-10
1.01024e-10
5.81991e-10
8.49552e-11
5.95886e-10
9.6413e-11
6.31482e-10
1.2168e-10
6.64277e-10
1.3937e-10
6.87415e-10
1.58247e-10
7.36585e-10
2.2726e-10
7.66775e-10
2.47635e-10
7.77236e-10
2.8359e-10
7.88574e-10
2.94957e-10
8.46821e-10
3.31501e-10
9.62366e-10
4.75367e-11
1.66029e-09
-1.24132e-09
2.26049e-10
5.74002e-09
-1.08286e-08
-1.47389e-09
1.10706e-10
-1.71912e-09
-1.15082e-09
-7.86985e-10
-3.5415e-10
-4.19523e-10
-3.95717e-12
-1.16248e-10
2.01567e-10
-1.74943e-11
2.93422e-10
3.9761e-11
3.56836e-10
7.65599e-11
4.3594e-10
1.60866e-10
4.99694e-10
1.72625e-10
5.33217e-10
1.87795e-10
5.48325e-10
1.69929e-10
5.50106e-10
1.56489e-10
5.60092e-10
1.44755e-10
5.62381e-10
1.21063e-10
5.55229e-10
9.92981e-11
5.67604e-10
1.035e-10
5.78782e-10
8.81369e-11
5.92373e-10
9.96972e-11
6.27139e-10
1.24929e-10
6.59621e-10
1.43364e-10
6.82483e-10
1.6212e-10
7.30349e-10
2.30971e-10
7.60667e-10
2.51458e-10
7.71499e-10
2.86788e-10
7.84602e-10
2.95234e-10
8.46927e-10
3.24353e-10
9.77526e-10
2.14659e-11
1.71445e-09
-1.28863e-09
2.87994e-10
5.81665e-09
-1.10484e-08
-1.59029e-09
2.66056e-10
-1.66118e-09
-1.13732e-09
-7.76485e-10
-3.48777e-10
-4.17208e-10
-5.90491e-12
-1.17449e-10
1.99043e-10
-1.82136e-11
2.90951e-10
3.95253e-11
3.54587e-10
7.64866e-11
4.3302e-10
1.60647e-10
4.97008e-10
1.72575e-10
5.30141e-10
1.87986e-10
5.45551e-10
1.70824e-10
5.47423e-10
1.57647e-10
5.57072e-10
1.46028e-10
5.59455e-10
1.23154e-10
5.52402e-10
1.01648e-10
5.64169e-10
1.06097e-10
5.75426e-10
9.14481e-11
5.88699e-10
1.03119e-10
6.22632e-10
1.28333e-10
6.54776e-10
1.47497e-10
6.77347e-10
1.66146e-10
7.23899e-10
2.34812e-10
7.54342e-10
2.55393e-10
7.65542e-10
2.90079e-10
7.80384e-10
2.95625e-10
8.46617e-10
3.17562e-10
9.91473e-10
-2.6682e-12
1.76318e-09
-1.32706e-09
3.4213e-10
5.88465e-09
-1.12437e-08
-1.71432e-09
4.15192e-10
-1.59957e-09
-1.12332e-09
-7.6634e-10
-3.43445e-10
-4.14765e-10
-7.86345e-12
-1.18635e-10
1.96448e-10
-1.89209e-11
2.88404e-10
3.93131e-11
3.52256e-10
7.6437e-11
4.30005e-10
1.60429e-10
4.94221e-10
1.72554e-10
5.26962e-10
1.88211e-10
5.42666e-10
1.71762e-10
5.44625e-10
1.58865e-10
5.53941e-10
1.47383e-10
5.56406e-10
1.25328e-10
5.49447e-10
1.04106e-10
5.60602e-10
1.08813e-10
5.71926e-10
9.48877e-11
5.84866e-10
1.06677e-10
6.17963e-10
1.31889e-10
6.49744e-10
1.51765e-10
6.72008e-10
1.70321e-10
7.1724e-10
2.38778e-10
7.47804e-10
2.59438e-10
7.59364e-10
2.93463e-10
7.75907e-10
2.96155e-10
8.45836e-10
3.11214e-10
1.00403e-09
-2.45797e-11
1.80594e-09
-1.35604e-09
3.88211e-10
5.94279e-09
-1.14127e-08
-1.84552e-09
5.5709e-10
-1.53439e-09
-1.10874e-09
-7.56593e-10
-3.38164e-10
-4.12181e-10
-9.82348e-12
-1.19801e-10
1.93789e-10
-1.96122e-11
2.85786e-10
3.91269e-11
3.4985e-10
7.6413e-11
4.26897e-10
1.60214e-10
4.91334e-10
1.72562e-10
5.23681e-10
1.88469e-10
5.39671e-10
1.72744e-10
5.41712e-10
1.60141e-10
5.50701e-10
1.4882e-10
5.53233e-10
1.27582e-10
5.46366e-10
1.06671e-10
5.56904e-10
1.11645e-10
5.68283e-10
9.8454e-11
5.80876e-10
1.10367e-10
6.13134e-10
1.35595e-10
6.44529e-10
1.56164e-10
6.66473e-10
1.74642e-10
7.10376e-10
2.42865e-10
7.41057e-10
2.63592e-10
7.52964e-10
2.96946e-10
7.71159e-10
2.96848e-10
8.44529e-10
3.05396e-10
1.01504e-09
-4.39985e-11
1.84225e-09
-1.375e-09
4.26026e-10
5.98984e-09
-1.15536e-08
-1.98339e-09
6.90787e-10
-1.46573e-09
-1.09355e-09
-7.47284e-10
-3.32941e-10
-4.09447e-10
-1.17752e-11
-1.20938e-10
1.91075e-10
-2.02834e-11
2.83103e-10
3.89696e-11
3.47371e-10
7.64163e-11
4.23697e-10
1.60002e-10
4.8835e-10
1.726e-10
5.20298e-10
1.88762e-10
5.36567e-10
1.73772e-10
5.38685e-10
1.61475e-10
5.47352e-10
1.50339e-10
5.49939e-10
1.29916e-10
5.43159e-10
1.09342e-10
5.53076e-10
1.14593e-10
5.645e-10
1.02145e-10
5.76733e-10
1.14187e-10
6.0815e-10
1.39448e-10
6.39135e-10
1.60691e-10
6.60747e-10
1.79105e-10
7.03311e-10
2.47067e-10
7.34104e-10
2.67852e-10
7.46339e-10
3.00528e-10
7.66126e-10
2.97727e-10
8.42643e-10
3.00189e-10
1.02432e-09
-6.06745e-11
1.87165e-09
-1.38349e-09
4.5542e-10
6.02455e-09
-1.1665e-08
-2.12748e-09
8.15395e-10
-1.39367e-09
-1.07767e-09
-7.38441e-10
-3.2778e-10
-4.06549e-10