/*--------------------------------*- C++ -*----------------------------------*\
| =========                 |                                                 |
| \\      /  F ield         | OpenFOAM: The Open Source CFD Toolbox           |
|  \\    /   O peration     | Version:  2312                                  |
|   \\  /    A nd           | Website:  www.openfoam.com                      |
|    \\/     M anipulation  |                                                 |
\*---------------------------------------------------------------------------*/
FoamFile
{
    version     2.0;
    format      ascii;
    arch        "LSB;label=32;scalar=64";
    class       volScalarField;
    location    "500";
    object      pMean;
}
// * * * * * * * * * * * * * * * * * * * * * * * * * * * * * * * * * * * * * //

dimensions      [0 2 -2 0 0 0 0];

internalField   nonuniform List<scalar> 
330000
(
-1.05459e-08
-2.67843e-09
-6.4186e-09
-4.97406e-09
-3.32673e-09
-2.42652e-09
-1.24305e-09
-9.95902e-10
-1.36104e-10
-1.9367e-10
3.88485e-10
1.0833e-10
6.75324e-10
2.95029e-10
8.54185e-10
4.05294e-10
1.0455e-09
5.50193e-10
1.17267e-09
5.89049e-10
1.27074e-09
6.18042e-10
1.3177e-09
5.86391e-10
1.36353e-09
5.84113e-10
1.4428e-09
5.91033e-10
1.49285e-09
5.49745e-10
1.53998e-09
5.32343e-10
1.62802e-09
5.32755e-10
1.68266e-09
4.80564e-10
1.75193e-09
4.78384e-10
1.86871e-09
4.91556e-10
1.96361e-09
4.64503e-10
2.06538e-09
4.81021e-10
2.24098e-09
5.50083e-10
2.37695e-09
5.62269e-10
2.52e-09
6.33275e-10
2.66698e-09
7.5922e-10
2.85209e-09
1.06104e-09
2.84356e-09
1.52606e-09
2.5269e-09
2.44727e-09
-3.21718e-09
1.20715e-08
-1.04547e-08
-2.67151e-09
-6.43188e-09
-4.98092e-09
-3.3296e-09
-2.42719e-09
-1.24475e-09
-9.96739e-10
-1.37547e-10
-1.94437e-10
3.87321e-10
1.07793e-10
6.74278e-10
2.94637e-10
8.53272e-10
4.05059e-10
1.04466e-09
5.50096e-10
1.17181e-09
5.89043e-10
1.2699e-09
6.18138e-10
1.3169e-09
5.8664e-10
1.3627e-09
5.8444e-10
1.44191e-09
5.91435e-10
1.49196e-09
5.50324e-10
1.539e-09
5.32988e-10
1.62695e-09
5.33497e-10
1.68154e-09
4.81497e-10
1.75071e-09
4.79432e-10
1.86734e-09
4.92723e-10
1.96214e-09
4.65944e-10
2.06372e-09
4.82591e-10
2.23911e-09
5.51886e-10
2.37486e-09
5.64454e-10
2.51762e-09
6.35895e-10
2.66425e-09
7.62415e-10
2.84897e-09
1.06538e-09
2.83958e-09
1.53265e-09
2.52428e-09
2.45779e-09
-3.25244e-09
1.20342e-08
-1.03609e-08
-2.67098e-09
-6.44862e-09
-4.98883e-09
-3.33211e-09
-2.42736e-09
-1.24591e-09
-9.97826e-10
-1.38741e-10
-1.95789e-10
3.86506e-10
1.06706e-10
6.73609e-10
2.93627e-10
8.52843e-10
4.04169e-10
1.04431e-09
5.49297e-10
1.17149e-09
5.88277e-10
1.26965e-09
6.17411e-10
1.3168e-09
5.86067e-10
1.36265e-09
5.8385e-10
1.44183e-09
5.90836e-10
1.49201e-09
5.49895e-10
1.53906e-09
5.32512e-10
1.62696e-09
5.33005e-10
1.68164e-09
4.81162e-10
1.7508e-09
4.79074e-10
1.86732e-09
4.92367e-10
1.9622e-09
4.65844e-10
2.06369e-09
4.8245e-10
2.23891e-09
5.51857e-10
2.37458e-09
5.64801e-10
2.51708e-09
6.36647e-10
2.6634e-09
7.638e-10
2.84759e-09
1.06827e-09
2.83692e-09
1.53841e-09
2.52263e-09
2.47216e-09
-3.31552e-09
1.20273e-08
-1.02684e-08
-2.68852e-09
-6.46318e-09
-4.9975e-09
-3.33366e-09
-2.42611e-09
-1.24635e-09
-9.98449e-10
-1.39741e-10
-1.97055e-10
3.85909e-10
1.05646e-10
6.73085e-10
2.92555e-10
8.52601e-10
4.03199e-10
1.04407e-09
5.48373e-10
1.1713e-09
5.87357e-10
1.26951e-09
6.16495e-10
1.3169e-09
5.85349e-10
1.3628e-09
5.83067e-10
1.44193e-09
5.89994e-10
1.4923e-09
5.49275e-10
1.53937e-09
5.31787e-10
1.62719e-09
5.3221e-10
1.68205e-09
4.80578e-10
1.75121e-09
4.784e-10
1.86761e-09
4.91625e-10
1.96263e-09
4.65418e-10
2.06405e-09
4.81888e-10
2.23906e-09
5.51338e-10
2.3747e-09
5.64696e-10
2.51695e-09
6.36907e-10
2.66301e-09
7.64664e-10
2.84665e-09
1.07067e-09
2.83477e-09
1.54322e-09
2.52388e-09
2.48125e-09
-3.39112e-09
1.20486e-08
-1.01854e-08
-2.72037e-09
-6.47067e-09
-5.00592e-09
-3.33395e-09
-2.42326e-09
-1.24616e-09
-9.986e-10
-1.40724e-10
-1.9824e-10
3.85323e-10
1.04667e-10
6.72512e-10
2.91523e-10
8.52339e-10
4.02277e-10
1.04374e-09
5.47474e-10
1.17102e-09
5.86455e-10
1.26926e-09
6.15588e-10
1.31692e-09
5.84705e-10
1.36288e-09
5.82337e-10
1.4419e-09
5.89177e-10
1.49252e-09
5.48759e-10
1.5396e-09
5.31138e-10
1.62729e-09
5.31471e-10
1.68238e-09
4.80123e-10
1.75152e-09
4.77826e-10
1.86773e-09
4.90951e-10
1.96293e-09
4.65157e-10
2.06428e-09
4.81437e-10
2.23897e-09
5.50912e-10
2.3746e-09
5.64765e-10
2.51653e-09
6.37366e-10
2.66232e-09
7.65769e-10
2.84528e-09
1.07339e-09
2.83221e-09
1.54773e-09
2.52793e-09
2.48176e-09
-3.46587e-09
1.20879e-08
-1.01223e-08
-2.76063e-09
-6.46739e-09
-5.0131e-09
-3.33258e-09
-2.41871e-09
-1.24528e-09
-9.98344e-10
-1.41742e-10
-1.99419e-10
3.84671e-10
1.03692e-10
6.71826e-10
2.90472e-10
8.51997e-10
4.01351e-10
1.04328e-09
5.46566e-10
1.17062e-09
5.85543e-10
1.26885e-09
6.14671e-10
1.31685e-09
5.84116e-10
1.36287e-09
5.81651e-10
1.44174e-09
5.88382e-10
1.49263e-09
5.48345e-10
1.53973e-09
5.30569e-10
1.62725e-09
5.30802e-10
1.68259e-09
4.79809e-10
1.75171e-09
4.77374e-10
1.86764e-09
4.90372e-10
1.96306e-09
4.65094e-10
2.0643e-09
4.81146e-10
2.23858e-09
5.50647e-10
2.37418e-09
5.65092e-10
2.51571e-09
6.38156e-10
2.66111e-09
7.67313e-10
2.84317e-09
1.07674e-09
2.82875e-09
1.55221e-09
2.5346e-09
2.47191e-09
-3.53174e-09
1.21392e-08
-1.00883e-08
-2.80438e-09
-6.45009e-09
-5.01831e-09
-3.32919e-09
-2.41229e-09
-1.2436e-09
-9.97683e-10
-1.42768e-10
-2.00614e-10
3.83934e-10
1.02669e-10
6.7101e-10
2.89354e-10
8.51552e-10
4.00371e-10
1.04266e-09
5.45606e-10
1.17009e-09
5.84578e-10
1.26829e-09
6.13708e-10
1.31667e-09
5.83542e-10
1.36276e-09
5.80975e-10
1.44143e-09
5.87577e-10
1.49265e-09
5.47997e-10
1.53977e-09
5.30047e-10
1.62706e-09
5.30177e-10
1.68269e-09
4.79603e-10
1.75177e-09
4.7702e-10
1.86737e-09
4.89869e-10
1.96301e-09
4.65204e-10
2.06414e-09
4.81e-10
2.23789e-09
5.50548e-10
2.37341e-09
5.65692e-10
2.51443e-09
6.39328e-10
2.65929e-09
7.69396e-10
2.84011e-09
1.08088e-09
2.82414e-09
1.55665e-09
2.54393e-09
2.4503e-09
-3.58261e-09
1.21983e-08
-1.00908e-08
-2.84784e-09
-6.41593e-09
-5.02094e-09
-3.32353e-09
-2.40387e-09
-1.24097e-09
-9.96583e-10
-1.43748e-10
-2.01806e-10
3.83121e-10
1.01587e-10
6.70059e-10
2.88152e-10
8.50986e-10
3.99312e-10
1.04187e-09
5.44578e-10
1.16941e-09
5.8354e-10
1.26756e-09
6.12686e-10
1.31637e-09
5.82966e-10
1.36254e-09
5.80296e-10
1.44098e-09
5.86756e-10
1.49255e-09
5.47703e-10
1.5397e-09
5.29567e-10
1.62673e-09
5.29599e-10
1.68267e-09
4.79504e-10
1.7517e-09
4.76767e-10
1.8669e-09
4.89455e-10
1.96276e-09
4.65498e-10
2.06374e-09
4.81025e-10
2.23684e-09
5.50663e-10
2.37222e-09
5.66623e-10
2.51258e-09
6.40971e-10
2.65669e-09
7.72146e-10
2.83589e-09
1.08592e-09
2.81822e-09
1.56092e-09
2.55612e-09
2.41593e-09
-3.61358e-09
1.22613e-08
-1.01352e-08
-2.8881e-09
-6.36255e-09
-5.02058e-09
-3.31545e-09
-2.39341e-09
-1.23733e-09
-9.95014e-10
-1.4463e-10
-2.02964e-10
3.82255e-10
1.00456e-10
6.68981e-10
2.86867e-10
8.50292e-10
3.98169e-10
1.0409e-09
5.43474e-10
1.16858e-09
5.82422e-10
1.26666e-09
6.116e-10
1.31594e-09
5.82381e-10
1.3622e-09
5.79611e-10
1.44037e-09
5.85922e-10
1.49232e-09
5.47464e-10
1.53951e-09
5.29133e-10
1.62623e-09
5.29079e-10
1.6825e-09
4.79521e-10
1.75146e-09
4.76637e-10
1.86619e-09
4.89162e-10
1.96227e-09
4.66009e-10
2.06307e-09
4.81268e-10
2.23537e-09
5.51062e-10
2.37051e-09
5.67968e-10
2.51005e-09
6.43198e-10
2.65318e-09
7.75697e-10
2.83033e-09
1.09197e-09
2.81091e-09
1.56479e-09
2.57144e-09
2.36813e-09
-3.62112e-09
1.23253e-08
-1.02255e-08
-2.92315e-09
-6.28809e-09
-5.01683e-09
-3.3049e-09
-2.3809e-09
-1.23261e-09
-9.92965e-10
-1.45372e-10
-2.04059e-10
3.81362e-10
9.92923e-11
6.67793e-10
2.85511e-10
8.49475e-10
3.96946e-10
1.03975e-09
5.42298e-10
1.1676e-09
5.81224e-10
1.26558e-09
6.10452e-10
1.31535e-09
5.81784e-10
1.36173e-09
5.78923e-10
1.43958e-09
5.85081e-10
1.49193e-09
5.47282e-10
1.53917e-09
5.28755e-10
1.62555e-09
5.28634e-10
1.68215e-09
4.7967e-10
1.75103e-09
4.76652e-10
1.86521e-09
4.89024e-10
1.96147e-09
4.66772e-10
2.06205e-09
4.81785e-10
2.23342e-09
5.51819e-10
2.36821e-09
5.69815e-10
2.50673e-09
6.46118e-10
2.64859e-09
7.80166e-10
2.82329e-09
1.09905e-09
2.80225e-09
1.56794e-09
2.59025e-09
2.30652e-09
-3.60277e-09
1.23878e-08
-1.03641e-08
-2.95187e-09
-6.19114e-09
-5.00937e-09
-3.29191e-09
-2.36636e-09
-1.22681e-09
-9.90448e-10
-1.45948e-10
-2.05071e-10
3.80467e-10
9.81148e-11
6.66515e-10
2.84104e-10
8.48546e-10
3.95654e-10
1.03843e-09
5.41058e-10
1.16646e-09
5.79951e-10
1.26431e-09
6.09248e-10
1.31461e-09
5.81177e-10
1.36111e-09
5.78236e-10
1.43862e-09
5.84242e-10
1.49138e-09
5.47162e-10
1.53867e-09
5.28443e-10
1.62466e-09
5.28282e-10
1.68159e-09
4.79968e-10
1.75037e-09
4.76841e-10
1.86393e-09
4.89078e-10
1.96034e-09
4.67827e-10
2.06063e-09
4.82631e-10
2.2309e-09
5.53008e-10
2.36521e-09
5.72247e-10
2.5025e-09
6.49828e-10
2.64281e-09
7.85636e-10
2.81467e-09
1.10714e-09
2.79235e-09
1.57002e-09
2.61292e-09
2.23098e-09
-3.55729e-09
1.24473e-08
-1.05521e-08
-2.97397e-09
-6.07087e-09
-4.99789e-09
-3.27654e-09
-2.34987e-09
-1.21996e-09
-9.87491e-10
-1.46349e-10
-2.05991e-10
3.79583e-10
9.69382e-11
6.65167e-10
2.82663e-10
8.47517e-10
3.9431e-10
1.03695e-09
5.39766e-10
1.16517e-09
5.78617e-10
1.26287e-09
6.08001e-10
1.31371e-09
5.80569e-10
1.36034e-09
5.7756e-10
1.43747e-09
5.83419e-10
1.49065e-09
5.47114e-10
1.538e-09
5.28213e-10
1.62354e-09
5.28045e-10
1.68081e-09
4.80436e-10
1.74945e-09
4.77232e-10
1.8623e-09
4.89364e-10
1.95882e-09
4.69214e-10
2.05876e-09
4.83863e-10
2.22775e-09
5.54698e-10
2.36144e-09
5.75338e-10
2.49727e-09
6.54404e-10
2.63576e-09
7.92155e-10
2.80446e-09
1.11615e-09
2.7814e-09
1.57066e-09
2.63977e-09
2.14173e-09
-3.4844e-09
1.2503e-08
-1.07889e-08
-2.98979e-09
-5.927e-09
-4.98215e-09
-3.25892e-09
-2.33152e-09
-1.2121e-09
-9.84132e-10
-1.46583e-10
-2.06827e-10
3.78716e-10
9.577e-11
6.63762e-10
2.81202e-10
8.46398e-10
3.9293e-10
1.03531e-09
5.38436e-10
1.16375e-09
5.77236e-10
1.26126e-09
6.06725e-10
1.31266e-09
5.79968e-10
1.35941e-09
5.7691e-10
1.43614e-09
5.82627e-10
1.48973e-09
5.47153e-10
1.53713e-09
5.28085e-10
1.62219e-09
5.27945e-10
1.67977e-09
4.81099e-10
1.74824e-09
4.77858e-10
1.86031e-09
4.89923e-10
1.95686e-09
4.70975e-10
2.05639e-09
4.85535e-10
2.22391e-09
5.56953e-10
2.35682e-09
5.7915e-10
2.49098e-09
6.599e-10
2.62738e-09
7.99732e-10
2.79269e-09
1.12597e-09
2.76963e-09
1.56949e-09
2.671e-09
2.03926e-09
-3.38474e-09
1.25546e-08
-1.10726e-08
-3.00013e-09
-5.75962e-09
-4.96197e-09
-3.23922e-09
-2.31144e-09
-1.20329e-09
-9.80426e-10
-1.46671e-10
-2.07591e-10
3.77858e-10
9.46103e-11
6.62302e-10
2.79733e-10
8.45196e-10
3.91527e-10
1.03353e-09
5.37083e-10
1.16221e-09
5.75822e-10
1.25948e-09
6.05437e-10
1.31144e-09
5.79391e-10
1.35833e-09
5.76302e-10
1.43461e-09
5.81887e-10
1.4886e-09
5.47293e-10
1.53606e-09
5.28079e-10
1.62059e-09
5.2801e-10
1.67845e-09
4.81981e-10
1.74671e-09
4.78751e-10
1.85792e-09
4.90794e-10
1.95443e-09
4.73149e-10
2.05345e-09
4.87696e-10
2.21934e-09
5.59824e-10
2.35131e-09
5.8373e-10
2.48359e-09
6.66345e-10
2.61766e-09
8.08343e-10
2.77941e-09
1.13642e-09
2.75729e-09
1.56624e-09
2.70666e-09
1.92442e-09
-3.25975e-09
1.26021e-08
-1.14001e-08
-3.0061e-09
-5.56931e-09
-4.93718e-09
-3.21765e-09
-2.28978e-09
-1.19361e-09
-9.76431e-10
-1.46644e-10
-2.08308e-10
3.76995e-10
9.34522e-11
6.60786e-10
2.78261e-10
8.43911e-10
3.90112e-10
1.03162e-09
5.35715e-10
1.16054e-09
5.74393e-10
1.25754e-09
6.04153e-10
1.31007e-09
5.7885e-10
1.35708e-09
5.75752e-10
1.43289e-09
5.81218e-10
1.48727e-09
5.47553e-10
1.53477e-09
5.28218e-10
1.61871e-09
5.28263e-10
1.67683e-09
4.8311e-10
1.74484e-09
4.79942e-10
1.85509e-09
4.92014e-10
1.95148e-09
4.7577e-10
2.04993e-09
4.90387e-10
2.21398e-09
5.63352e-10
2.34487e-09
5.89104e-10
2.47506e-09
6.73746e-10
2.6066e-09
8.17941e-10
2.76472e-09
1.14737e-09
2.7446e-09
1.56069e-09
2.74662e-09
1.79838e-09
-3.11156e-09
1.26454e-08
-1.17674e-08
-3.00894e-09
-5.35696e-09
-4.90765e-09
-3.19443e-09
-2.26669e-09
-1.18317e-09
-9.72212e-10
-1.46541e-10
-2.09006e-10
3.76104e-10
9.22839e-11
6.59204e-10
2.76785e-10
8.42537e-10
3.8869e-10
1.02956e-09
5.34344e-10
1.15875e-09
5.7296e-10
1.25545e-09
6.02888e-10
1.30854e-09
5.78361e-10
1.35568e-09
5.7528e-10
1.43098e-09
5.8064e-10
1.48571e-09
5.47951e-10
1.53325e-09
5.28524e-10
1.61655e-09
5.28731e-10
1.6749e-09
4.84508e-10
1.74261e-09
4.8146e-10
1.85182e-09
4.93616e-10
1.94801e-09
4.78868e-10
2.04578e-09
4.93641e-10
2.20783e-09
5.67564e-10
2.33749e-09
5.95289e-10
2.4654e-09
6.82092e-10
2.59424e-09
8.28463e-10
2.74873e-09
1.15865e-09
2.73176e-09
1.55274e-09
2.79062e-09
1.6626e-09
-2.94276e-09
1.26846e-08
-1.21695e-08
-3.01017e-09
-5.12388e-09
-4.87327e-09
-3.16977e-09
-2.24234e-09
-1.17204e-09
-9.6783e-10
-1.46404e-10
-2.09719e-10
3.75157e-10
9.10901e-11
6.57542e-10
2.75302e-10
8.41067e-10
3.87264e-10
1.02737e-09
5.32972e-10
1.15683e-09
5.71534e-10
1.2532e-09
6.01655e-10
1.30685e-09
5.77937e-10
1.3541e-09
5.749e-10
1.42886e-09
5.80174e-10
1.48393e-09
5.48503e-10
1.5315e-09
5.2902e-10
1.6141e-09
5.29436e-10
1.67264e-09
4.862e-10
1.74e-09
4.8333e-10
1.84809e-09
4.95627e-10
1.94397e-09
4.82464e-10
2.04099e-09
4.97481e-10
2.20087e-09
5.72477e-10
2.32914e-09
6.02284e-10
2.45461e-09
6.91359e-10
2.58062e-09
8.3984e-10
2.73154e-09
1.17013e-09
2.71891e-09
1.54237e-09
2.83819e-09
1.51874e-09
-2.75632e-09
1.27196e-08
-1.26008e-08
-3.01128e-09
-4.87164e-09
-4.83393e-09
-3.1439e-09
-2.2169e-09
-1.16034e-09
-9.63344e-10
-1.46276e-10
-2.10477e-10
3.74127e-10
8.98543e-11
6.55783e-10
2.73804e-10
8.39487e-10
3.85835e-10
1.02504e-09
5.31604e-10
1.15479e-09
5.70124e-10
1.25079e-09
6.00466e-10
1.305e-09
5.77588e-10
1.35236e-09
5.74627e-10
1.42655e-09
5.79835e-10
1.48192e-09
5.49225e-10
1.5295e-09
5.29722e-10
1.61135e-09
5.30399e-10
1.67003e-09
4.88203e-10
1.73699e-09
4.85572e-10
1.84388e-09
4.98068e-10
1.93937e-09
4.86575e-10
2.03554e-09
5.01924e-10
2.19309e-09
5.78098e-10
2.31985e-09
6.10084e-10
2.44273e-09
7.01515e-10
2.5658e-09
8.52002e-10
2.71326e-09
1.1817e-09
2.70618e-09
1.52965e-09
2.88876e-09
1.36861e-09
-2.55538e-09
1.27503e-08
-1.30551e-08
-3.01373e-09
-4.60218e-09
-4.78961e-09
-3.11701e-09
-2.19054e-09
-1.14814e-09
-9.58805e-10
-1.46198e-10
-2.11311e-10
3.72985e-10
8.85594e-11
6.53907e-10
2.72285e-10
8.37784e-10
3.84401e-10
1.02256e-09
5.30239e-10
1.15261e-09
5.68736e-10
1.24822e-09
5.99328e-10
1.30297e-09
5.77323e-10
1.35043e-09
5.74473e-10
1.42403e-09
5.79638e-10
1.47967e-09
5.5013e-10
1.52724e-09
5.30648e-10
1.60828e-09
5.31635e-10
1.66708e-09
4.90533e-10
1.73358e-09
4.88204e-10
1.83918e-09
5.00957e-10
1.9342e-09
4.91212e-10
2.02944e-09
5.06978e-10
2.18449e-09
5.84427e-10
2.30962e-09
6.18672e-10
2.42978e-09
7.12524e-10
2.54983e-09
8.64882e-10
2.69398e-09
1.19328e-09
2.69362e-09
1.51474e-09
2.94161e-09
1.21417e-09
-2.34329e-09
1.27764e-08
-1.35258e-08
-3.01884e-09
-4.31759e-09
-4.7403e-09
-3.08931e-09
-2.16343e-09
-1.13554e-09
-9.54259e-10
-1.46207e-10
-2.12248e-10
3.71703e-10
8.71903e-11
6.51897e-10
2.70736e-10
8.35943e-10
3.82958e-10
1.01992e-09
5.28877e-10
1.15028e-09
5.67375e-10
1.24549e-09
5.98249e-10
1.30077e-09
5.7715e-10
1.34832e-09
5.74447e-10
1.4213e-09
5.79595e-10
1.47717e-09
5.51228e-10
1.52472e-09
5.31811e-10
1.60491e-09
5.33158e-10
1.66376e-09
4.93201e-10
1.72976e-09
4.91236e-10
1.83401e-09
5.04306e-10
1.92844e-09
4.96379e-10
2.02267e-09
5.12648e-10
2.17509e-09
5.91458e-10
2.29848e-09
6.2803e-10
2.4158e-09
7.24347e-10
2.53277e-09
8.78415e-10
2.67379e-09
1.20478e-09
2.68125e-09
1.49785e-09
2.99596e-09
1.05752e-09
-2.1234e-09
1.27972e-08
-1.40064e-08
-3.02794e-09
-4.02021e-09
-4.686e-09
-3.06097e-09
-2.13575e-09
-1.12263e-09
-9.49742e-10
-1.46334e-10
-2.13309e-10
3.70258e-10
8.57338e-11
6.49736e-10
2.6915e-10
8.33952e-10
3.81504e-10
1.01711e-09
5.27516e-10
1.14781e-09
5.66043e-10
1.24258e-09
5.97234e-10
1.29838e-09
5.77074e-10
1.34603e-09
5.74558e-10
1.41835e-09
5.79717e-10
1.47443e-09
5.52527e-10
1.52193e-09
5.3322e-10
1.60122e-09
5.34978e-10
1.66009e-09
4.96217e-10
1.72552e-09
4.94678e-10
1.82835e-09
5.08121e-10
1.92212e-09
5.02078e-10
2.01525e-09
5.18933e-10
2.16491e-09
5.99181e-10
2.28644e-09
6.38135e-10
2.40083e-09
7.36945e-10
2.51467e-09
8.92543e-10
2.65277e-09
1.21618e-09
2.66907e-09
1.47927e-09
3.05093e-09
9.00686e-10
-1.89894e-09
1.2812e-08
-1.44901e-08
-3.04219e-09
-3.71251e-09
-4.62675e-09
-3.03213e-09
-2.10764e-09
-1.10946e-09
-9.45283e-10
-1.46605e-10
-2.14513e-10
3.68627e-10
8.41795e-11
6.47408e-10
2.67521e-10
8.31796e-10
3.80036e-10
1.01413e-09
5.26153e-10
1.14517e-09
5.64742e-10
1.23949e-09
5.96284e-10
1.29581e-09
5.77099e-10
1.34353e-09
5.74809e-10
1.4152e-09
5.8001e-10
1.47143e-09
5.54032e-10
1.51887e-09
5.34884e-10
1.59721e-09
5.37101e-10
1.65605e-09
4.99586e-10
1.72087e-09
4.98533e-10
1.82221e-09
5.12408e-10
1.91522e-09
5.08307e-10
2.00718e-09
5.25829e-10
2.15394e-09
6.07582e-10
2.27353e-09
6.48964e-10
2.38489e-09
7.50276e-10
2.4956e-09
9.07213e-10
2.63097e-09
1.22745e-09
2.65702e-09
1.45933e-09
3.10557e-09
7.45709e-10
-1.67298e-09
1.28202e-08
-1.49702e-08
-3.06251e-09
-3.39708e-09
-4.56266e-09
-3.00294e-09
-2.07929e-09
-1.09613e-09
-9.40903e-10
-1.47042e-10
-2.15873e-10
3.66795e-10
8.25196e-11
6.44901e-10
2.65843e-10
8.29465e-10
3.78552e-10
1.01096e-09
5.24787e-10
1.14236e-09
5.63474e-10
1.23622e-09
5.95403e-10
1.29305e-09
5.77226e-10
1.34083e-09
5.75206e-10
1.41182e-09
5.8048e-10
1.46818e-09
5.55747e-10
1.51554e-09
5.36807e-10
1.59289e-09
5.39532e-10
1.65165e-09
5.03309e-10
1.71581e-09
5.02803e-10
1.8156e-09
5.17168e-10
1.90776e-09
5.15061e-10
1.99847e-09
5.33328e-10
2.14223e-09
6.16646e-10
2.25978e-09
6.6049e-10
2.36805e-09
7.64301e-10
2.47561e-09
9.22376e-10
2.60846e-09
1.23857e-09
2.64503e-09
1.4384e-09
3.15894e-09
5.94618e-10
-1.44844e-09
1.28207e-08
-1.54404e-08
-3.08952e-09
-3.07653e-09
-4.49387e-09
-2.97353e-09
-2.05084e-09
-1.08269e-09
-9.36619e-10
-1.47662e-10
-2.17398e-10
3.64748e-10
8.07489e-11
6.42204e-10
2.64115e-10
8.26951e-10
3.77048e-10
1.00761e-09
5.23416e-10
1.13937e-09
5.6224e-10
1.23276e-09
5.94592e-10
1.29008e-09
5.77457e-10
1.33793e-09
5.75749e-10
1.40822e-09
5.8113e-10
1.46467e-09
5.57674e-10
1.51193e-09
5.38992e-10
1.58824e-09
5.42273e-10
1.64689e-09
5.07389e-10
1.71034e-09
5.07489e-10
1.80851e-09
5.22398e-10
1.89975e-09
5.22334e-10
1.98913e-09
5.41421e-10
2.12978e-09
6.26353e-10
2.24521e-09
6.72685e-10
2.35032e-09
7.78979e-10
2.45475e-09
9.37985e-10
2.58528e-09
1.24956e-09
2.63299e-09
1.41688e-09
3.21008e-09
4.49374e-10
-1.22801e-09
1.28122e-08
-1.58946e-08
-3.12383e-09
-2.75349e-09
-4.42054e-09
-2.94398e-09
-2.02246e-09
-1.06921e-09
-9.3244e-10
-1.48475e-10
-2.19093e-10
3.62474e-10
7.88653e-11
6.39311e-10
2.62334e-10
8.24246e-10
3.75525e-10
1.00407e-09
5.22038e-10
1.1362e-09
5.6104e-10
1.2291e-09
5.93852e-10
1.28692e-09
5.77792e-10
1.33482e-09
5.76441e-10
1.4044e-09
5.81963e-10
1.4609e-09
5.59814e-10
1.50804e-09
5.41442e-10
1.58328e-09
5.45324e-10
1.64176e-09
5.11823e-10
1.70446e-09
5.12586e-10
1.80097e-09
5.28095e-10
1.8912e-09
5.30116e-10
1.97918e-09
5.50095e-10
2.11663e-09
6.36684e-10
2.22987e-09
6.8552e-10
2.33177e-09
7.94269e-10
2.43307e-09
9.54001e-10
2.56147e-09
1.26044e-09
2.62078e-09
1.3952e-09
3.258e-09
3.11767e-10
-1.01401e-09
1.27935e-08
-1.63271e-08
-3.16583e-09
-2.43053e-09
-4.34281e-09
-2.91437e-09
-1.99429e-09
-1.05573e-09
-9.28368e-10
-1.49488e-10
-2.20959e-10
3.59969e-10
7.68693e-11
6.36215e-10
2.60499e-10
8.21345e-10
3.73984e-10
1.00033e-09
5.20651e-10
1.13285e-09
5.59876e-10
1.22526e-09
5.93184e-10
1.28354e-09
5.78232e-10
1.33149e-09
5.7728e-10
1.40035e-09
5.8298e-10
1.45687e-09
5.62165e-10
1.50386e-09
5.44156e-10
1.578e-09
5.48684e-10
1.63628e-09
5.16609e-10
1.69817e-09
5.1809e-10
1.79297e-09
5.34253e-10
1.88211e-09
5.38396e-10
1.96862e-09
5.59336e-10
2.10279e-09
6.47615e-10
2.21378e-09
6.98965e-10
2.31242e-09
8.10132e-10
2.41062e-09
9.70386e-10
2.53707e-09
1.27123e-09
2.60827e-09
1.37377e-09
3.30178e-09
1.83428e-10
-8.08437e-10
1.27635e-08
-1.67328e-08
-3.21561e-09
-2.11018e-09
-4.26092e-09
-2.88474e-09
-1.96648e-09
-1.04233e-09
-9.24404e-10
-1.50707e-10
-2.22994e-10
3.57227e-10
7.47628e-11
6.32915e-10
2.58614e-10
8.18245e-10
3.72424e-10
9.96398e-10
5.19257e-10
1.1293e-09
5.58749e-10
1.22121e-09
5.92588e-10
1.27997e-09
5.78777e-10
1.32795e-09
5.78268e-10
1.39608e-09
5.84182e-10
1.45258e-09
5.64726e-10
1.49941e-09
5.47132e-10
1.5724e-09
5.52349e-10
1.63044e-09
5.21743e-10
1.69149e-09
5.23996e-10
1.78452e-09
5.40866e-10
1.87251e-09
5.47163e-10
1.95748e-09
5.6913e-10
2.08828e-09
6.59125e-10
2.19696e-09
7.12989e-10
2.29232e-09
8.26526e-10
2.38745e-09
9.87106e-10
2.51209e-09
1.28199e-09
2.59529e-09
1.35303e-09
3.34051e-09
6.58774e-11
-6.13007e-10
1.27209e-08
-1.71069e-08
-3.27301e-09
-1.79481e-09
-4.17511e-09
-2.85515e-09
-1.93916e-09
-1.02904e-09
-9.20546e-10
-1.52131e-10
-2.25195e-10
3.54247e-10
7.25496e-11
6.29408e-10
2.5668e-10
8.14945e-10
3.70848e-10
9.92267e-10
5.17855e-10
1.12556e-09
5.5766e-10
1.21697e-09
5.92064e-10
1.27618e-09
5.79425e-10
1.32418e-09
5.79403e-10
1.39159e-09
5.85567e-10
1.44804e-09
5.67496e-10
1.49468e-09
5.50369e-10
1.5665e-09
5.56318e-10
1.62425e-09
5.27219e-10
1.68441e-09
5.30295e-10
1.77565e-09
5.47925e-10
1.8624e-09
5.56403e-10
1.94577e-09
5.79457e-10
2.07314e-09
6.71187e-10
2.17947e-09
7.2756e-10
2.27151e-09
8.43411e-10
2.36361e-09
1.00413e-09
2.48656e-09
1.29275e-09
2.58169e-09
1.33339e-09
3.37338e-09
-3.95383e-11
-4.29149e-10
1.26642e-08
-1.74454e-08
-3.33789e-09
-1.48667e-09
-4.08562e-09
-2.8256e-09
-1.91245e-09
-1.01592e-09
-9.16784e-10
-1.53758e-10
-2.27554e-10
3.5103e-10
7.02356e-11
6.25696e-10
2.54701e-10
8.11445e-10
3.69258e-10
9.8794e-10
5.16447e-10
1.12162e-09
5.56611e-10
1.21253e-09
5.91614e-10
1.27218e-09
5.80178e-10
1.3202e-09
5.80684e-10
1.38687e-09
5.87137e-10
1.44323e-09
5.70472e-10
1.48966e-09
5.53865e-10
1.56029e-09
5.60585e-10
1.61771e-09
5.33031e-10
1.67695e-09
5.3698e-10
1.76634e-09
5.55419e-10
1.8518e-09
5.661e-10
1.93351e-09
5.903e-10
2.0574e-09
6.83775e-10
2.16132e-09
7.42644e-10
2.25003e-09
8.60747e-10
2.33913e-09
1.02142e-09
2.46049e-09
1.30358e-09
2.5673e-09
1.31527e-09
3.39963e-09
-1.31711e-10
-2.5788e-10
1.25922e-08
-1.7745e-08
-3.40995e-09
-1.18783e-09
-3.99266e-09
-2.79609e-09
-1.88648e-09
-1.003e-09
-9.13108e-10
-1.55583e-10
-2.30063e-10
3.47579e-10
6.78281e-11
6.21781e-10
2.52682e-10
8.07746e-10
3.67658e-10
9.83419e-10
5.15033e-10
1.11749e-09
5.55604e-10
1.20789e-09
5.91238e-10
1.26797e-09
5.81034e-10
1.31601e-09
5.82109e-10
1.38193e-09
5.88889e-10
1.43817e-09
5.73651e-10
1.48437e-09
5.57614e-10
1.55378e-09
5.65145e-10
1.61084e-09
5.39174e-10
1.6691e-09
5.44041e-10
1.75663e-09
5.63339e-10
1.84072e-09
5.7624e-10
1.92072e-09
6.01639e-10
2.04107e-09
6.96862e-10
2.14255e-09
7.58208e-10
2.22793e-09
8.78494e-10
2.31406e-09
1.03896e-09
2.43388e-09
1.31452e-09
2.55197e-09
1.29903e-09
3.41857e-09
-2.09752e-10
-9.98802e-11
1.25039e-08
-1.80027e-08
-3.48868e-09
-9.00181e-10
-3.89651e-09
-2.76659e-09
-1.86134e-09
-9.90323e-10
-9.09504e-10
-1.57597e-10
-2.32711e-10
3.43899e-10
6.53347e-11
6.17667e-10
2.50628e-10
8.03851e-10
3.66052e-10
9.78705e-10
5.13617e-10
1.11317e-09
5.54641e-10
1.20305e-09
5.90937e-10
1.26355e-09
5.81993e-10
1.31159e-09
5.83678e-10
1.37677e-09
5.90822e-10
1.43285e-09
5.7703e-10
1.47881e-09
5.61614e-10
1.54697e-09
5.69993e-10
1.60363e-09
5.45638e-10
1.66089e-09
5.51468e-10
1.74651e-09
5.71672e-10
1.82919e-09
5.86806e-10
1.90741e-09
6.13452e-10
2.02418e-09
7.1042e-10
2.12319e-09
7.74218e-10
2.20525e-09
8.96613e-10
2.28844e-09
1.05672e-09
2.40675e-09
1.32564e-09
2.53552e-09
1.28503e-09
3.42961e-09
-2.72936e-10
4.44321e-11
1.2398e-08
-1.82165e-08
-3.57341e-09
-6.25382e-10
-3.79745e-09
-2.73708e-09
-1.83713e-09
-9.77923e-10
-9.05959e-10
-1.59794e-10
-2.35485e-10
3.39996e-10
6.27642e-11
6.13358e-10
2.48547e-10
7.99764e-10
3.64443e-10
9.73801e-10
5.122e-10
1.10864e-09
5.53724e-10
1.19802e-09
5.90711e-10
1.25892e-09
5.83054e-10
1.30695e-09
5.85387e-10
1.37139e-09
5.92935e-10
1.42729e-09
5.80604e-10
1.47297e-09
5.6586e-10
1.53987e-09
5.75121e-10
1.5961e-09
5.52416e-10
1.65232e-09
5.59248e-10
1.73601e-09
5.80405e-10
1.81721e-09
5.97781e-10
1.89361e-09
6.25716e-10
2.00677e-09
7.24419e-10
2.10329e-09
7.90639e-10
2.18202e-09
9.15066e-10
2.26231e-09
1.07468e-09
2.37908e-09
1.337e-09
2.5178e-09
1.27357e-09
3.43229e-09
-3.20753e-10
1.74855e-10
1.22737e-08
-1.83845e-08
-3.66352e-09
-3.64894e-10
-3.6957e-09
-2.70752e-09
-1.81393e-09
-9.65829e-10
-9.02455e-10
-1.62161e-10
-2.38374e-10
3.35878e-10
6.01263e-11
6.08861e-10
2.46444e-10
7.9549e-10
3.62837e-10
9.68711e-10
5.10785e-10
1.10393e-09
5.52857e-10
1.19279e-09
5.90562e-10
1.25409e-09
5.84218e-10
1.30211e-09
5.87236e-10
1.36579e-09
5.95225e-10
1.42148e-09
5.84371e-10
1.46687e-09
5.70346e-10
1.53248e-09
5.80524e-10
1.58825e-09
5.59499e-10
1.6434e-09
5.67371e-10
1.72513e-09
5.89524e-10
1.8048e-09
6.09145e-10
1.87934e-09
6.38409e-10
1.98886e-09
7.38831e-10
2.08287e-09
8.07436e-10
2.15828e-09
9.33814e-10
2.2357e-09
1.09281e-09
2.35089e-09
1.34865e-09
2.49868e-09
1.26494e-09
3.42622e-09
-3.52903e-10
2.91544e-10
1.21301e-08
-1.85061e-08
-3.75838e-09
-1.19946e-10
-3.59149e-09
-2.67783e-09
-1.7918e-09
-9.54064e-10
-8.98971e-10
-1.64684e-10
-2.41361e-10
3.31553e-10
5.74317e-11
6.04181e-10
2.44327e-10
7.91033e-10
3.61239e-10
9.6344e-10
5.09374e-10
1.09903e-09
5.5204e-10
1.18737e-09
5.9049e-10
1.24906e-09
5.85484e-10
1.29705e-09
5.89222e-10
1.35998e-09
5.97691e-10
1.41542e-09
5.88326e-10
1.46051e-09
5.75067e-10
1.52482e-09
5.86194e-10
1.58009e-09
5.66877e-10
1.63413e-09
5.75824e-10
1.71389e-09
5.99016e-10
1.79199e-09
6.2088e-10
1.86461e-09
6.51508e-10
1.97048e-09
7.53625e-10
2.06197e-09
8.24575e-10
2.13408e-09
9.52819e-10
2.20866e-09
1.1111e-09
2.32217e-09
1.36064e-09
2.47801e-09
1.25936e-09
3.41112e-09
-3.69314e-10
3.94898e-10
1.19668e-08
-1.85807e-08
-3.85722e-09
1.08472e-10
-3.48507e-09
-2.64795e-09
-1.77079e-09
-9.42648e-10
-8.95489e-10
-1.67351e-10
-2.44432e-10
3.27032e-10
5.46904e-11
5.99327e-10
2.42203e-10
7.86401e-10
3.59653e-10
9.57991e-10
5.07971e-10
1.09394e-09
5.51278e-10
1.18177e-09
5.90496e-10
1.24383e-09
5.86852e-10
1.29178e-09
5.91343e-10
1.35396e-09
6.0033e-10
1.40913e-09
5.92466e-10
1.45388e-09
5.80018e-10
1.51688e-09
5.92123e-10
1.57163e-09
5.74542e-10
1.62454e-09
5.84593e-10
1.7023e-09
6.08864e-10
1.77878e-09
6.32967e-10
1.84947e-09
6.64987e-10
1.95166e-09
7.68772e-10
2.04062e-09
8.42023e-10
2.10946e-09
9.72047e-10
2.18121e-09
1.12953e-09
2.29291e-09
1.37303e-09
2.45568e-09
1.25701e-09
3.38681e-09
-3.70068e-10
4.85495e-10
1.17832e-08
-1.86086e-08
-3.95923e-09
3.1958e-10
-3.37667e-09
-2.61781e-09
-1.75096e-09
-9.31601e-10
-8.91987e-10
-1.70148e-10
-2.47572e-10
3.22325e-10
5.1913e-11
5.94306e-10
2.4008e-10
7.816e-10
3.58085e-10
9.52369e-10
5.06579e-10
1.08866e-09
5.50573e-10
1.17598e-09
5.90582e-10
1.2384e-09
5.88321e-10
1.2863e-09
5.93597e-10
1.34773e-09
6.0314e-10
1.40261e-09
5.96784e-10
1.44701e-09
5.85192e-10
1.50868e-09
5.98303e-10
1.56287e-09
5.82482e-10
1.61463e-09
5.93665e-10
1.69038e-09
6.19054e-10
1.76521e-09
6.45386e-10
1.83391e-09
6.78821e-10
1.93243e-09
7.84241e-10
2.01886e-09
8.59745e-10
2.08444e-09
9.91462e-10
2.15338e-09
1.14808e-09
2.26311e-09
1.38585e-09
2.4316e-09
1.25804e-09
3.35325e-09
-3.55438e-10
5.64013e-10
1.1579e-08
-1.85902e-08
-4.06366e-09
5.12838e-10
-3.26649e-09
-2.58734e-09
-1.73232e-09
-9.20931e-10
-8.88444e-10
-1.73057e-10
-2.50765e-10
3.17444e-10
4.91106e-11
5.89126e-10
2.37964e-10
7.76638e-10
3.5654e-10
9.46578e-10
5.052e-10
1.08321e-09
5.49926e-10
1.17001e-09
5.90747e-10
1.23278e-09
5.8989e-10
1.28063e-09
5.95981e-10
1.34131e-09
6.06117e-10
1.39587e-09
6.01278e-10
1.43989e-09
5.90582e-10
1.50023e-09
6.04727e-10
1.55384e-09
5.90687e-10
1.60441e-09
6.03027e-10
1.67814e-09
6.29569e-10
1.75128e-09
6.58116e-10
1.81798e-09
6.92986e-10
1.91282e-09
8.00002e-10
1.99672e-09
8.77707e-10
2.05907e-09
1.01103e-09
2.12522e-09
1.16672e-09
2.23278e-09
1.39913e-09
2.40568e-09
1.26251e-09
3.31046e-09
-3.25845e-10
6.31381e-10
1.13543e-08
-1.8527e-08
-4.16985e-09
6.87912e-10
-3.1547e-09
-2.55643e-09
-1.71488e-09
-9.10644e-10
-8.84835e-10
-1.7606e-10
-2.53993e-10
3.12402e-10
4.62949e-11
5.83797e-10
2.35865e-10
7.71523e-10
3.55025e-10
9.40625e-10
5.03836e-10
1.07758e-09
5.49342e-10
1.16386e-09
5.90991e-10
1.22697e-09
5.9156e-10
1.27476e-09
5.98493e-10
1.33468e-09
6.09258e-10
1.3889e-09
6.05941e-10
1.43254e-09
5.96183e-10
1.49153e-09
6.11383e-10
1.54453e-09
5.99147e-10
1.5939e-09
6.12663e-10
1.6656e-09
6.40392e-10
1.73701e-09
6.71138e-10
1.80169e-09
7.07458e-10
1.89285e-09
8.16025e-10
1.97424e-09
8.95878e-10
2.03338e-09
1.03071e-09
2.09674e-09
1.18545e-09
2.20189e-09
1.41291e-09
2.37786e-09
1.27048e-09
3.25858e-09
-2.81891e-10
6.88663e-10
1.11091e-08
-1.84204e-08
-4.27707e-09
8.44707e-10
-3.04147e-09
-2.525e-09
-1.69865e-09
-9.00742e-10
-8.81136e-10
-1.7914e-10
-2.57239e-10
3.07211e-10
4.34768e-11
5.78328e-10
2.33789e-10
7.66261e-10
3.53545e-10
9.34515e-10
5.02492e-10
1.07178e-09
5.48822e-10
1.15754e-09
5.91316e-10
1.22098e-09
5.93328e-10
1.2687e-09
6.01129e-10
1.32787e-09
6.12559e-10
1.38172e-09
6.10768e-10
1.42496e-09
6.01987e-10
1.48259e-09
6.18265e-10
1.53496e-09
6.0785e-10
1.58312e-09
6.2256e-10
1.65277e-09
6.51508e-10
1.72244e-09
6.8443e-10
1.78507e-09
7.22211e-10
1.87255e-09
8.3228e-10
1.95144e-09
9.14226e-10
2.00741e-09
1.05049e-09
2.06798e-09
1.20425e-09
2.17047e-09
1.42719e-09
2.3481e-09
1.28193e-09
3.19782e-09
-2.24291e-10
7.37004e-10
1.08439e-08
-1.82724e-08
-4.38466e-09
9.83301e-10
-2.92697e-09
-2.493e-09
-1.68362e-09
-8.91224e-10
-8.77327e-10
-1.82279e-10
-2.60487e-10
3.01886e-10
4.06668e-11
5.72729e-10
2.31743e-10
7.60864e-10
3.52105e-10
9.28251e-10
5.01169e-10
1.06581e-09
5.48368e-10
1.15106e-09
5.91722e-10
1.21481e-09
5.95194e-10
1.26245e-09
6.03888e-10
1.32088e-09
6.16018e-10
1.37433e-09
6.15754e-10
1.41715e-09
6.07987e-10
1.47342e-09
6.25362e-10
1.52515e-09
6.16786e-10
1.57206e-09
6.32702e-10
1.63968e-09
6.629e-10
1.70756e-09
6.97972e-10
1.76814e-09
7.37221e-10
1.85196e-09
8.4874e-10
1.92836e-09
9.32719e-10
1.98118e-09
1.07031e-09
2.03896e-09
1.2231e-09
2.1385e-09
1.442e-09
2.31636e-09
1.29681e-09
3.12853e-09
-1.53904e-10
7.77548e-10
1.05592e-08
-1.80854e-08
-4.49197e-09
1.10399e-09
-2.81134e-09
-2.46032e-09
-1.66977e-09
-8.82082e-10
-8.73383e-10