/*--------------------------------*- C++ -*----------------------------------*\
| =========                 |                                                 |
| \\      /  F ield         | OpenFOAM: The Open Source CFD Toolbox           |
|  \\    /   O peration     | Version:  2312                                  |
|   \\  /    A nd           | Website:  www.openfoam.com                      |
|    \\/     M anipulation  |                                                 |
\*---------------------------------------------------------------------------*/
FoamFile
{
    version     2.0;
    format      ascii;
    arch        "LSB;label=32;scalar=64";
    class       volScalarField;
    location    "500";
    object      pPrime2Mean;
}
// * * * * * * * * * * * * * * * * * * * * * * * * * * * * * * * * * * * * * //

dimensions      [0 4 -4 0 0 0 0];

internalField   nonuniform List<scalar> 
330000
(
1.95418e-16
7.85838e-17
4.56784e-17
4.00622e-17
4.33892e-17
4.17496e-17
4.01322e-17
3.60156e-17
3.454e-17
3.17778e-17
3.09016e-17
2.88538e-17
2.86388e-17
2.68156e-17
2.66419e-17
2.48098e-17
2.49463e-17
2.3577e-17
2.31907e-17
2.24791e-17
2.18162e-17
2.11407e-17
2.09766e-17
1.94869e-17
2.04024e-17
1.82093e-17
1.97117e-17
1.74493e-17
1.87743e-17
1.69428e-17
1.78249e-17
1.6527e-17
1.69946e-17
1.6151e-17
1.62422e-17
1.58749e-17
1.56534e-17
1.55706e-17
1.52619e-17
1.51989e-17
1.50497e-17
1.50121e-17
1.49735e-17
1.49708e-17
1.50164e-17
1.48506e-17
1.54488e-17
1.52387e-17
1.61607e-17
1.64282e-17
1.72699e-17
1.77947e-17
2.18762e-17
1.4996e-17
3.50648e-17
1.28739e-17
5.08933e-17
3.854e-17
1.27988e-17
1.45656e-16
1.93868e-16
7.82344e-17
4.56086e-17
4.00397e-17
4.33798e-17
4.17589e-17
4.01367e-17
3.60223e-17
3.45395e-17
3.17781e-17
3.08987e-17
2.88526e-17
2.86362e-17
2.68151e-17
2.664e-17
2.48099e-17
2.49452e-17
2.35776e-17
2.31902e-17
2.24794e-17
2.18163e-17
2.11413e-17
2.09763e-17
1.94884e-17
2.04011e-17
1.82115e-17
1.97099e-17
1.74513e-17
1.8773e-17
1.69439e-17
1.78242e-17
1.6527e-17
1.69944e-17
1.61501e-17
1.62424e-17
1.5873e-17
1.5654e-17
1.55677e-17
1.52626e-17
1.51954e-17
1.50504e-17
1.5008e-17
1.49738e-17
1.49665e-17
1.50165e-17
1.48458e-17
1.54487e-17
1.52338e-17
1.61598e-17
1.64237e-17
1.72713e-17
1.77854e-17
2.18894e-17
1.49782e-17
3.50811e-17
1.28833e-17
5.08196e-17
3.87416e-17
1.29129e-17
1.44859e-16
1.9233e-16
7.79937e-17
4.54681e-17
3.99867e-17
4.33789e-17
4.1783e-17
4.01517e-17
3.60353e-17
3.45429e-17
3.17804e-17
3.08993e-17
2.88532e-17
2.86368e-17
2.68158e-17
2.66412e-17
2.48107e-17
2.49463e-17
2.35793e-17
2.31911e-17
2.24816e-17
2.18177e-17
2.11432e-17
2.09784e-17
1.949e-17
2.04032e-17
1.82131e-17
1.97117e-17
1.74531e-17
1.8775e-17
1.69453e-17
1.78265e-17
1.6528e-17
1.69969e-17
1.61509e-17
1.62452e-17
1.58733e-17
1.56574e-17
1.55675e-17
1.52667e-17
1.5195e-17
1.50549e-17
1.50075e-17
1.49787e-17
1.49666e-17
1.50227e-17
1.4846e-17
1.54568e-17
1.52355e-17
1.61685e-17
1.64296e-17
1.72844e-17
1.77888e-17
2.19255e-17
1.49655e-17
3.51449e-17
1.28966e-17
5.07494e-17
3.9034e-17
1.31455e-17
1.44419e-16
1.90624e-16
7.78899e-17
4.52019e-17
3.9859e-17
4.33646e-17
4.18072e-17
4.01666e-17
3.60499e-17
3.45466e-17
3.17841e-17
3.09023e-17
2.88558e-17
2.86392e-17
2.68179e-17
2.66439e-17
2.48121e-17
2.49482e-17
2.35819e-17
2.31925e-17
2.24848e-17
2.18197e-17
2.11457e-17
2.09819e-17
1.94916e-17
2.04069e-17
1.82147e-17
1.97148e-17
1.7455e-17
1.87781e-17
1.69472e-17
1.78298e-17
1.65296e-17
1.70002e-17
1.61524e-17
1.62487e-17
1.58745e-17
1.56613e-17
1.55685e-17
1.52715e-17
1.51958e-17
1.50603e-17
1.50082e-17
1.49844e-17
1.49686e-17
1.50299e-17
1.48481e-17
1.54662e-17
1.52391e-17
1.61784e-17
1.64384e-17
1.7297e-17
1.7796e-17
2.19605e-17
1.49558e-17
3.51934e-17
1.29139e-17
5.05933e-17
3.93263e-17
1.34582e-17
1.44229e-16
1.88602e-16
7.78544e-17
4.47442e-17
3.95971e-17
4.32942e-17
4.1802e-17
4.01619e-17
3.60549e-17
3.45438e-17
3.17847e-17
3.09036e-17
2.88572e-17
2.86405e-17
2.68188e-17
2.66455e-17
2.48125e-17
2.49488e-17
2.35841e-17
2.3193e-17
2.24879e-17
2.18213e-17
2.11479e-17
2.09855e-17
1.94929e-17
2.04108e-17
1.82162e-17
1.97179e-17
1.7457e-17
1.87813e-17
1.69492e-17
1.7833e-17
1.65314e-17
1.70034e-17
1.6154e-17
1.62522e-17
1.58759e-17
1.56652e-17
1.55694e-17
1.52762e-17
1.51966e-17
1.50654e-17
1.50089e-17
1.49896e-17
1.49707e-17
1.50366e-17
1.48501e-17
1.54748e-17
1.52419e-17
1.61871e-17
1.64455e-17
1.73068e-17
1.78e-17
2.19865e-17
1.49437e-17
3.5197e-17
1.29413e-17
5.02821e-17
3.9552e-17
1.38087e-17
1.44115e-16
1.86293e-16
7.77633e-17
4.40703e-17
3.91662e-17
4.31326e-17
4.17412e-17
4.012e-17
3.60389e-17
3.4527e-17
3.17771e-17
3.08989e-17
2.88539e-17
2.86372e-17
2.6816e-17
2.66435e-17
2.48098e-17
2.49463e-17
2.35842e-17
2.31912e-17
2.24897e-17
2.18214e-17
2.1149e-17
2.09885e-17
1.94933e-17
2.04144e-17
1.8217e-17
1.97207e-17
1.74587e-17
1.87842e-17
1.69509e-17
1.78362e-17
1.65328e-17
1.70066e-17
1.61554e-17
1.62555e-17
1.58769e-17
1.5669e-17
1.55701e-17
1.52808e-17
1.51972e-17
1.50702e-17
1.50093e-17
1.49941e-17
1.49726e-17
1.50424e-17
1.48515e-17
1.54824e-17
1.5243e-17
1.61945e-17
1.64485e-17
1.73142e-17
1.77959e-17
2.20021e-17
1.49258e-17
3.51386e-17
1.29846e-17
4.9775e-17
3.96674e-17
1.4152e-17
1.43873e-16
1.83871e-16
7.74396e-17
4.31855e-17
3.85603e-17
4.28614e-17
4.16073e-17
4.00267e-17
3.59915e-17
3.44892e-17
3.17558e-17
3.08838e-17
2.88421e-17
2.86265e-17
2.68069e-17
2.66358e-17
2.48023e-17
2.49389e-17
2.35809e-17
2.31859e-17
2.24888e-17
2.18191e-17
2.11481e-17
2.099e-17
1.94923e-17
2.0417e-17
1.82167e-17
1.97228e-17
1.74594e-17
1.87867e-17
1.69518e-17
1.7839e-17
1.65336e-17
1.70094e-17
1.61562e-17
1.62586e-17
1.58775e-17
1.56726e-17
1.55701e-17
1.52852e-17
1.51972e-17
1.50747e-17
1.50091e-17
1.49978e-17
1.49741e-17
1.5047e-17
1.48519e-17
1.54886e-17
1.52413e-17
1.62005e-17
1.64452e-17
1.73191e-17
1.778e-17
2.20052e-17
1.48994e-17
3.50053e-17
1.30488e-17
4.9046e-17
3.9653e-17
1.44448e-17
1.43249e-16
1.81573e-16
7.67282e-17
4.21065e-17
3.77965e-17
4.24763e-17
4.13922e-17
3.98734e-17
3.59048e-17
3.44243e-17
3.17161e-17
3.08544e-17
2.8819e-17
2.86057e-17
2.67894e-17
2.66202e-17
2.47883e-17
2.4925e-17
2.35727e-17
2.31758e-17
2.24842e-17
2.18134e-17
2.11444e-17
2.09891e-17
1.94891e-17
2.0418e-17
1.82147e-17
1.97237e-17
1.74587e-17
1.87885e-17
1.69514e-17
1.78415e-17
1.65332e-17
1.7012e-17
1.61561e-17
1.62614e-17
1.58771e-17
1.56759e-17
1.55694e-17
1.52893e-17
1.51965e-17
1.50785e-17
1.5008e-17
1.50005e-17
1.49748e-17
1.50501e-17
1.48507e-17
1.54929e-17
1.5236e-17
1.62044e-17
1.64339e-17
1.73206e-17
1.77496e-17
2.1993e-17
1.48637e-17
3.4788e-17
1.31375e-17
4.80848e-17
3.95137e-17
1.46514e-17
1.42001e-16
1.79651e-16
7.55217e-17
4.08536e-17
3.69057e-17
4.19845e-17
4.10967e-17
3.96573e-17
3.57744e-17
3.4328e-17
3.16546e-17
3.08079e-17
2.8782e-17
2.85725e-17
2.67619e-17
2.65954e-17
2.47667e-17
2.49034e-17
2.35585e-17
2.31599e-17
2.24749e-17
2.18033e-17
2.11371e-17
2.09852e-17
1.94832e-17
2.04167e-17
1.82105e-17
1.9723e-17
1.74559e-17
1.87893e-17
1.69492e-17
1.78432e-17
1.65313e-17
1.70139e-17
1.61546e-17
1.62638e-17
1.58755e-17
1.56789e-17
1.55674e-17
1.52929e-17
1.51946e-17
1.50816e-17
1.50058e-17
1.50017e-17
1.49744e-17
1.50512e-17
1.48475e-17
1.54949e-17
1.52263e-17
1.62053e-17
1.64139e-17
1.73173e-17
1.77042e-17
2.19625e-17
1.48204e-17
3.44835e-17
1.32528e-17
4.69001e-17
3.92772e-17
1.47492e-17
1.39945e-16
1.7834e-16
7.3789e-17
3.94486e-17
3.59215e-17
4.14003e-17
4.0728e-17
3.93809e-17
3.55996e-17
3.41986e-17
3.15691e-17
3.07424e-17
2.87296e-17
2.85257e-17
2.67231e-17
2.656e-17
2.47366e-17
2.48732e-17
2.35378e-17
2.31375e-17
2.24601e-17
2.17881e-17
2.11256e-17
2.09775e-17
1.9474e-17
2.04127e-17
1.82035e-17
1.97204e-17
1.74507e-17
1.87888e-17
1.69448e-17
1.78441e-17
1.65275e-17
1.70151e-17
1.61516e-17
1.62655e-17
1.58725e-17
1.56812e-17
1.5564e-17
1.52957e-17
1.51915e-17
1.50837e-17
1.50023e-17
1.50013e-17
1.49726e-17
1.50501e-17
1.48419e-17
1.54941e-17
1.52121e-17
1.62024e-17
1.63853e-17
1.73078e-17
1.76448e-17
2.19114e-17
1.4773e-17
3.40952e-17
1.33958e-17
4.55172e-17
3.89851e-17
1.47271e-17
1.37013e-16
1.77824e-16
7.15707e-17
3.79187e-17
3.48779e-17
4.07414e-17
4.02975e-17
3.90503e-17
3.53824e-17
3.40364e-17
3.14592e-17
3.0657e-17
2.86612e-17
2.84644e-17
2.66725e-17
2.65136e-17
2.46976e-17
2.48339e-17
2.35099e-17
2.3108e-17
2.24393e-17
2.17674e-17
2.11093e-17
2.09655e-17
1.94612e-17
2.04056e-17
1.81934e-17
1.97155e-17
1.74426e-17
1.87869e-17
1.69379e-17
1.78438e-17
1.65215e-17
1.70152e-17
1.61466e-17
1.62663e-17
1.58677e-17
1.56827e-17
1.55589e-17
1.52977e-17
1.51868e-17
1.50844e-17
1.49973e-17
1.49989e-17
1.49692e-17
1.50465e-17
1.48338e-17
1.54902e-17
1.51936e-17
1.61948e-17
1.63493e-17
1.72908e-17
1.75742e-17
2.18385e-17
1.47255e-17
3.36315e-17
1.35661e-17
4.39735e-17
3.86825e-17
1.4585e-17
1.33251e-16
1.78237e-16
6.89518e-17
3.62934e-17
3.38022e-17
4.00244e-17
3.98175e-17
3.86739e-17
3.5127e-17
3.38432e-17
3.13257e-17
3.0552e-17
2.85769e-17
2.83887e-17
2.66102e-17
2.6456e-17
2.46496e-17
2.47853e-17
2.34747e-17
2.30714e-17
2.24123e-17
2.1741e-17
2.10881e-17
2.09489e-17
1.94445e-17
2.03949e-17
1.81798e-17
1.97082e-17
1.74313e-17
1.87832e-17
1.69282e-17
1.78421e-17
1.65131e-17
1.70141e-17
1.61397e-17
1.6266e-17
1.58611e-17
1.56831e-17
1.55522e-17
1.52985e-17
1.51806e-17
1.50836e-17
1.49909e-17
1.49944e-17
1.49642e-17
1.50402e-17
1.48232e-17
1.54828e-17
1.51715e-17
1.61819e-17
1.63073e-17
1.72655e-17
1.74959e-17
2.17437e-17
1.46819e-17
3.31044e-17
1.37624e-17
4.23116e-17
3.84102e-17
1.43294e-17
1.28785e-16
1.79655e-16
6.6035e-17
3.4605e-17
3.27168e-17
3.92647e-17
3.92998e-17
3.82604e-17
3.48386e-17
3.36219e-17
3.11699e-17
3.04283e-17
2.84773e-17
2.82988e-17
2.65362e-17
2.63873e-17
2.45929e-17
2.47277e-17
2.34324e-17
2.30277e-17
2.23789e-17
2.17087e-17
2.10616e-17
2.09277e-17
1.94236e-17
2.03806e-17
1.81626e-17
1.96981e-17
1.74167e-17
1.87775e-17
1.69155e-17
1.78388e-17
1.65023e-17
1.70116e-17
1.61306e-17
1.62644e-17
1.58527e-17
1.56823e-17
1.55437e-17
1.5298e-17
1.51728e-17
1.50811e-17
1.49831e-17
1.49876e-17
1.49576e-17
1.50312e-17
1.48105e-17
1.54717e-17
1.51465e-17
1.61634e-17
1.62611e-17
1.72314e-17
1.7413e-17
2.16281e-17
1.46451e-17
3.25271e-17
1.39831e-17
4.05723e-17
3.81992e-17
1.39741e-17
1.23788e-16
1.82098e-16
6.29195e-17
3.2886e-17
3.16389e-17
3.84747e-17
3.87543e-17
3.78178e-17
3.45224e-17
3.3376e-17
3.09939e-17
3.02871e-17
2.83635e-17
2.81956e-17
2.64514e-17
2.6308e-17
2.45279e-17
2.46613e-17
2.33832e-17
2.29772e-17
2.23393e-17
2.16708e-17
2.103e-17
2.09018e-17
1.93985e-17
2.03626e-17
1.81417e-17
1.96852e-17
1.73987e-17
1.87696e-17
1.69e-17
1.78337e-17
1.64889e-17
1.70073e-17
1.61196e-17
1.62613e-17
1.58424e-17
1.568e-17
1.55335e-17
1.52959e-17
1.51636e-17
1.50767e-17
1.49739e-17
1.49785e-17
1.49495e-17
1.50194e-17
1.47959e-17
1.54569e-17
1.51194e-17
1.61392e-17
1.62121e-17
1.71886e-17
1.73284e-17
2.14931e-17
1.46168e-17
3.19124e-17
1.42259e-17
3.87918e-17
3.80692e-17
1.35369e-17
1.18441e-16
1.85529e-16
5.96956e-17
3.11695e-17
3.05807e-17
3.76643e-17
3.81889e-17
3.73531e-17
3.41834e-17
3.31086e-17
3.07997e-17
3.013e-17
2.82364e-17
2.80801e-17
2.63563e-17
2.62186e-17
2.44549e-17
2.45867e-17
2.33273e-17
2.29203e-17
2.22937e-17
2.16275e-17
2.09932e-17
2.08714e-17
1.93692e-17
2.0341e-17
1.81172e-17
1.96694e-17
1.73775e-17
1.87594e-17
1.68816e-17
1.78266e-17
1.64732e-17
1.70012e-17
1.61065e-17
1.62565e-17
1.58304e-17
1.56761e-17
1.55217e-17
1.52921e-17
1.5153e-17
1.50704e-17
1.49635e-17
1.4967e-17
1.494e-17
1.50049e-17
1.47798e-17
1.54385e-17
1.50908e-17
1.61096e-17
1.61613e-17
1.71373e-17
1.72444e-17
2.13408e-17
1.4598e-17
3.12716e-17
1.44887e-17
3.69999e-17
3.80297e-17
1.30406e-17
1.12917e-16
1.8987e-16
5.64366e-17
2.94863e-17
2.95508e-17
3.68414e-17
3.76098e-17
3.68719e-17
3.38259e-17
3.2823e-17
3.05893e-17
2.99583e-17
2.80973e-17
2.79531e-17
2.62517e-17
2.61199e-17
2.43744e-17
2.45043e-17
2.3265e-17
2.28573e-17
2.22423e-17
2.15792e-17
2.09515e-17
2.08366e-17
1.93358e-17
2.03157e-17
1.80891e-17
1.96507e-17
1.73531e-17
1.87466e-17
1.68606e-17
1.78173e-17
1.64553e-17
1.69931e-17
1.60916e-17
1.62498e-17
1.58167e-17
1.56705e-17
1.55084e-17
1.52865e-17
1.51411e-17
1.5062e-17
1.49519e-17
1.49533e-17
1.49292e-17
1.49878e-17
1.47623e-17
1.54166e-17
1.5061e-17
1.60749e-17
1.61097e-17
1.70781e-17
1.71623e-17
2.11734e-17
1.45887e-17
3.06142e-17
1.47694e-17
3.52213e-17
3.80823e-17
1.25095e-17
1.07364e-16
1.95002e-16
5.32019e-17
2.78649e-17
2.85544e-17
3.6012e-17
3.70216e-17
3.63788e-17
3.34536e-17
3.2522e-17
3.03645e-17
2.97733e-17
2.79471e-17
2.78157e-17
2.61385e-17
2.60126e-17
2.42871e-17
2.44148e-17
2.31968e-17
2.27888e-17
2.21854e-17
2.15263e-17
2.09049e-17
2.07979e-17
1.92983e-17
2.02869e-17
1.80576e-17
1.96288e-17
1.73259e-17
1.87312e-17
1.68371e-17
1.78056e-17
1.64354e-17
1.69828e-17
1.6075e-17
1.62411e-17
1.58016e-17
1.5663e-17
1.54937e-17
1.52791e-17
1.51281e-17
1.50516e-17
1.49392e-17
1.49373e-17
1.49172e-17
1.49682e-17
1.47436e-17
1.53915e-17
1.50302e-17
1.60356e-17
1.60577e-17
1.70116e-17
1.7083e-17
2.09932e-17
1.45881e-17
2.99479e-17
1.50658e-17
3.34746e-17
3.82224e-17
1.19686e-17
1.01907e-16
2.00775e-16
5.00368e-17
2.63304e-17
2.75949e-17
3.51809e-17
3.64276e-17
3.58774e-17
3.30694e-17
3.22079e-17
3.0127e-17
2.95765e-17
2.77868e-17
2.76688e-17
2.60173e-17
2.58975e-17
2.41934e-17
2.43187e-17
2.3123e-17
2.27151e-17
2.21232e-17
2.14691e-17
2.08536e-17
2.07555e-17
1.92571e-17
2.02548e-17
1.80231e-17
1.96039e-17
1.72961e-17
1.87131e-17
1.68115e-17
1.77915e-17
1.64136e-17
1.69703e-17
1.60568e-17
1.62304e-17
1.5785e-17
1.56536e-17
1.54778e-17
1.52698e-17
1.5114e-17
1.50392e-17
1.49255e-17
1.49193e-17
1.4904e-17
1.49463e-17
1.47239e-17
1.53634e-17
1.49987e-17
1.59921e-17
1.60056e-17
1.69385e-17
1.70069e-17
2.08022e-17
1.45955e-17
2.92787e-17
1.53754e-17
3.17742e-17
3.84406e-17
1.14408e-17
9.66425e-17
2.07007e-16
4.69763e-17
2.49048e-17
2.66738e-17
3.43517e-17
3.58301e-17
3.53703e-17
3.26759e-17
3.18829e-17
2.98783e-17
2.93689e-17
2.76173e-17
2.75132e-17
2.58887e-17
2.57752e-17
2.40937e-17
2.42167e-17
2.30438e-17
2.26368e-17
2.20561e-17
2.14081e-17
2.07979e-17
2.07097e-17
1.92122e-17
2.02195e-17
1.79857e-17
1.9576e-17
1.7264e-17
1.8692e-17
1.6784e-17
1.77749e-17
1.63902e-17
1.69554e-17
1.60373e-17
1.62176e-17
1.57672e-17
1.56423e-17
1.54606e-17
1.52586e-17
1.50988e-17
1.50248e-17
1.49107e-17
1.48993e-17
1.48895e-17
1.49222e-17
1.47031e-17
1.53325e-17
1.49662e-17
1.59448e-17
1.59534e-17
1.68593e-17
1.69339e-17
2.06022e-17
1.46096e-17
2.86113e-17
1.56959e-17
3.01314e-17
3.87232e-17
1.09466e-17
9.16418e-17
2.13497e-16
4.40459e-17
2.36055e-17
2.57918e-17
3.35273e-17
3.52309e-17
3.48596e-17
3.22753e-17
3.1549e-17
2.96198e-17
2.91516e-17
2.74395e-17
2.73498e-17
2.57535e-17
2.56465e-17
2.39887e-17
2.41092e-17
2.29597e-17
2.25542e-17
2.19843e-17
2.13437e-17
2.07379e-17
2.06608e-17
1.91639e-17
2.01811e-17
1.79458e-17
1.95449e-17
1.723e-17
1.8668e-17
1.67549e-17
1.77556e-17
1.63654e-17
1.69382e-17
1.60165e-17
1.62027e-17
1.57483e-17
1.5629e-17
1.54424e-17
1.52455e-17
1.50825e-17
1.50086e-17
1.48948e-17
1.48774e-17
1.48738e-17
1.48961e-17
1.46811e-17
1.52991e-17
1.49329e-17
1.5894e-17
1.59013e-17
1.67747e-17
1.68637e-17
2.0395e-17
1.46294e-17
2.7949e-17
1.60245e-17
2.85544e-17
3.90534e-17
1.05021e-17
8.69522e-17
2.20027e-16
4.12643e-17
2.24442e-17
2.49486e-17
3.27101e-17
3.46312e-17
3.4347e-17
3.18691e-17
3.12078e-17
2.93529e-17
2.89258e-17
2.72539e-17
2.71793e-17
2.56122e-17
2.5512e-17
2.38786e-17
2.39968e-17
2.2871e-17
2.24679e-17
2.19081e-17
2.12763e-17
2.06739e-17
2.06092e-17
1.91124e-17
2.01398e-17
1.79036e-17
1.95107e-17
1.71944e-17
1.86411e-17
1.67245e-17
1.77337e-17
1.63393e-17
1.69186e-17
1.59946e-17
1.61856e-17
1.57282e-17
1.56139e-17
1.5423e-17
1.52307e-17
1.50652e-17
1.49906e-17
1.48778e-17
1.48537e-17
1.48568e-17
1.48681e-17
1.4658e-17
1.52634e-17
1.48986e-17
1.584e-17
1.5849e-17
1.66852e-17
1.6796e-17
2.01821e-17
1.46535e-17
2.72948e-17
1.63587e-17
2.7049e-17
3.9413e-17
1.01193e-17
8.26016e-17
2.26382e-16
3.8644e-17
2.14273e-17
2.41436e-17
3.19023e-17
3.40319e-17
3.38339e-17
3.14591e-17
3.08608e-17
2.90787e-17
2.86925e-17
2.70615e-17
2.70025e-17
2.54653e-17
2.53723e-17
2.37639e-17
2.38801e-17
2.2778e-17
2.23781e-17
2.18278e-17
2.12063e-17
2.06061e-17
2.0555e-17
1.90579e-17
2.00956e-17
1.78595e-17
1.94734e-17
1.71574e-17
1.86111e-17
1.66929e-17
1.77091e-17
1.63123e-17
1.68967e-17
1.59717e-17
1.61666e-17
1.5707e-17
1.55969e-17
1.54025e-17
1.52141e-17
1.50467e-17
1.49709e-17
1.48595e-17
1.48284e-17
1.48383e-17
1.48382e-17
1.46335e-17
1.52255e-17
1.48632e-17
1.5783e-17
1.57966e-17
1.65912e-17
1.67301e-17
1.99648e-17
1.46808e-17
2.66505e-17
1.66952e-17
2.56193e-17
3.97821e-17
9.80562e-18
7.86e-17
2.32337e-16
3.61929e-17
2.05564e-17
2.33761e-17
3.11056e-17
3.34338e-17
3.33213e-17
3.10465e-17
3.05094e-17
2.87984e-17
2.84526e-17
2.68629e-17
2.68199e-17
2.53134e-17
2.5228e-17
2.36452e-17
2.37596e-17
2.2681e-17
2.22852e-17
2.17436e-17
2.11339e-17
2.05347e-17
2.04986e-17
1.90008e-17
2.00488e-17
1.78138e-17
1.9433e-17
1.71193e-17
1.85781e-17
1.66605e-17
1.76819e-17
1.62843e-17
1.68725e-17
1.59478e-17
1.61455e-17
1.56849e-17
1.55781e-17
1.53809e-17
1.51959e-17
1.50271e-17
1.49496e-17
1.484e-17
1.48015e-17
1.48183e-17
1.48066e-17
1.46077e-17
1.51855e-17
1.48266e-17
1.57231e-17
1.5744e-17
1.64933e-17
1.66657e-17
1.97444e-17
1.47102e-17
2.60178e-17
1.70311e-17
2.42675e-17
4.01399e-17
9.5647e-18
7.49421e-17
2.37684e-16
3.39156e-17
1.98277e-17
2.26454e-17
3.03215e-17
3.28374e-17
3.28101e-17
3.06325e-17
3.01548e-17
2.85131e-17
2.82072e-17
2.66589e-17
2.66324e-17
2.51569e-17
2.50797e-17
2.35228e-17
2.36357e-17
2.25804e-17
2.21897e-17
2.16558e-17
2.10596e-17
2.046e-17
2.04402e-17
1.89414e-17
1.99993e-17
1.77666e-17
1.93897e-17
1.70804e-17
1.85422e-17
1.66274e-17
1.76521e-17
1.62555e-17
1.68461e-17
1.59231e-17
1.61225e-17
1.56617e-17
1.55576e-17
1.53583e-17
1.51761e-17
1.50063e-17
1.49268e-17
1.48191e-17
1.47731e-17
1.47968e-17
1.47735e-17
1.45804e-17
1.51436e-17
1.4789e-17
1.56605e-17
1.5691e-17
1.63919e-17
1.6602e-17
1.9522e-17
1.47409e-17
2.53979e-17
1.73632e-17
2.29945e-17
4.04657e-17
9.39703e-18
7.16096e-17
2.42234e-16
3.18138e-17
1.92329e-17
2.19506e-17
2.95518e-17
3.22433e-17
3.2301e-17
3.02182e-17
2.97983e-17
2.8224e-17
2.79571e-17
2.64501e-17
2.64404e-17
2.49964e-17
2.49279e-17
2.33971e-17
2.35088e-17
2.24766e-17
2.20919e-17
2.15646e-17
2.09836e-17
2.03823e-17
2.03801e-17
1.88798e-17
1.99474e-17
1.77184e-17
1.93433e-17
1.7041e-17
1.85033e-17
1.65937e-17
1.76197e-17
1.62261e-17
1.68175e-17
1.58975e-17
1.60976e-17
1.56376e-17
1.55354e-17
1.53345e-17
1.51548e-17
1.49843e-17
1.49026e-17
1.47969e-17
1.47433e-17
1.47737e-17
1.47388e-17
1.45516e-17
1.50997e-17
1.47502e-17
1.55951e-17
1.56377e-17
1.62875e-17
1.65385e-17
1.92986e-17
1.47719e-17
2.47919e-17
1.76882e-17
2.18002e-17
4.07406e-17
9.30096e-18
6.85749e-17
2.45821e-16
2.98871e-17
1.87598e-17
2.12908e-17
2.87978e-17
3.16523e-17
3.17949e-17
2.98044e-17
2.94408e-17
2.79319e-17
2.77034e-17
2.62373e-17
2.62447e-17
2.48324e-17
2.4773e-17
2.32685e-17
2.33794e-17
2.23698e-17
2.1992e-17
2.14704e-17
2.09061e-17
2.03017e-17
2.03182e-17
1.88163e-17
1.98931e-17
1.76694e-17
1.92942e-17
1.70011e-17
1.84616e-17
1.65597e-17
1.7585e-17
1.61961e-17
1.67869e-17
1.58712e-17
1.60709e-17
1.56126e-17
1.55117e-17
1.53097e-17
1.5132e-17
1.49611e-17
1.4877e-17
1.47733e-17
1.47121e-17
1.47489e-17
1.47028e-17
1.45214e-17
1.5054e-17
1.47103e-17
1.55273e-17
1.55838e-17
1.61806e-17
1.6475e-17
1.9075e-17
1.48026e-17
2.42005e-17
1.80031e-17
2.06836e-17
4.09475e-17
9.27309e-18
6.58047e-17
2.48315e-16
2.81331e-17
1.83939e-17
2.06653e-17
2.80612e-17
3.1065e-17
3.12923e-17
2.93922e-17
2.90833e-17
2.7638e-17
2.74468e-17
2.60212e-17
2.60458e-17
2.46653e-17
2.46156e-17
2.31376e-17
2.3248e-17
2.22605e-17
2.18905e-17
2.13735e-17
2.08275e-17
2.02186e-17
2.0255e-17
1.87513e-17
1.98366e-17
1.76197e-17
1.92422e-17
1.6961e-17
1.84173e-17
1.65253e-17
1.75479e-17
1.61656e-17
1.67543e-17
1.58442e-17
1.60426e-17
1.55867e-17
1.54865e-17
1.52838e-17
1.51079e-17
1.49367e-17
1.48501e-17
1.47484e-17
1.46798e-17
1.47225e-17
1.46655e-17
1.44896e-17
1.50066e-17
1.46695e-17
1.5457e-17
1.55294e-17
1.60717e-17
1.64109e-17
1.88521e-17
1.48325e-17
2.36245e-17
1.83046e-17
1.96432e-17
4.10713e-17
9.30929e-18
6.32598e-17
2.49614e-16
2.65479e-17
1.81188e-17
2.00736e-17
2.73431e-17
3.04821e-17
3.0794e-17
2.89822e-17
2.87268e-17
2.73431e-17
2.71884e-17
2.58026e-17
2.58444e-17
2.44956e-17
2.4456e-17
2.30045e-17
2.31149e-17
2.2149e-17
2.17877e-17
2.12741e-17
2.0748e-17
2.01333e-17
2.01904e-17
1.86851e-17
1.97779e-17
1.75696e-17
1.91877e-17
1.69208e-17
1.83704e-17
1.64909e-17
1.75086e-17
1.61348e-17
1.67199e-17
1.58166e-17
1.60127e-17
1.556e-17
1.546e-17
1.52569e-17
1.50826e-17
1.49111e-17
1.48221e-17
1.47221e-17
1.46463e-17
1.46945e-17
1.4627e-17
1.44565e-17
1.49575e-17
1.46278e-17
1.53846e-17
1.54745e-17
1.59614e-17
1.6346e-17
1.86307e-17
1.48611e-17
2.30646e-17
1.85899e-17
1.8677e-17
4.10996e-17
9.40527e-18
6.08993e-17
2.49657e-16
2.51264e-17
1.79172e-17
1.95149e-17
2.66449e-17
2.99044e-17
3.03005e-17
2.85754e-17
2.83719e-17
2.70481e-17
2.69288e-17
2.55821e-17
2.5641e-17
2.43237e-17
2.42948e-17
2.28698e-17
2.29805e-17
2.20356e-17
2.16838e-17
2.11726e-17
2.06677e-17
2.00461e-17
2.01247e-17
1.86178e-17
1.97172e-17
1.75194e-17
1.91307e-17
1.68807e-17
1.83211e-17
1.64563e-17
1.74672e-17
1.61037e-17
1.66838e-17
1.57885e-17
1.59814e-17
1.55324e-17
1.54322e-17
1.5229e-17
1.50562e-17
1.48844e-17
1.47929e-17
1.46946e-17
1.46118e-17
1.4665e-17
1.45874e-17
1.4422e-17
1.49067e-17
1.45855e-17
1.53102e-17
1.54191e-17
1.58503e-17
1.62802e-17
1.84115e-17
1.4888e-17
2.25214e-17
1.88564e-17
1.77828e-17
4.10239e-17
9.55694e-18
5.8682e-17
2.48419e-16
2.38625e-17
1.77719e-17
1.89884e-17
2.59678e-17
2.93329e-17
2.98126e-17
2.81724e-17
2.80194e-17
2.67537e-17
2.66689e-17
2.53604e-17
2.54362e-17
2.41502e-17
2.41322e-17
2.27339e-17
2.28452e-17
2.19207e-17
2.15792e-17
2.10692e-17
2.05868e-17
1.99572e-17
2.00579e-17
1.85498e-17
1.96547e-17
1.74691e-17
1.90715e-17
1.68407e-17
1.82695e-17
1.64218e-17
1.74239e-17
1.60723e-17
1.6646e-17
1.57598e-17
1.59488e-17
1.55041e-17
1.54033e-17
1.52002e-17
1.50287e-17
1.48566e-17
1.47628e-17
1.46659e-17
1.45764e-17
1.4634e-17
1.4547e-17
1.43865e-17
1.48545e-17
1.45426e-17
1.52341e-17
1.53632e-17
1.57388e-17
1.62134e-17
1.8195e-17
1.49131e-17
2.19955e-17
1.91014e-17
1.69583e-17
4.08393e-17
9.76054e-18
5.65701e-17
2.45916e-16
2.27487e-17
1.76667e-17
1.84936e-17
2.5313e-17
2.87684e-17
2.93309e-17
2.77739e-17
2.767e-17
2.64606e-17
2.64094e-17
2.51382e-17
2.52305e-17
2.39755e-17
2.39687e-17
2.25969e-17
2.27093e-17
2.18046e-17
2.14741e-17
2.09643e-17
2.05056e-17
1.9867e-17
1.99902e-17
1.84813e-17
1.95905e-17
1.7419e-17
1.90102e-17
1.6801e-17
1.82159e-17
1.63874e-17
1.73788e-17
1.60408e-17
1.66069e-17
1.57307e-17
1.5915e-17
1.5475e-17
1.53734e-17
1.51705e-17
1.50003e-17
1.48279e-17
1.47317e-17
1.46361e-17
1.45403e-17
1.46016e-17
1.45057e-17
1.43499e-17
1.4801e-17
1.44994e-17
1.51566e-17
1.53068e-17
1.56275e-17
1.61457e-17
1.79819e-17
1.49362e-17
2.14877e-17
1.93229e-17
1.62011e-17
4.05434e-17
1.00125e-17
5.45273e-17
2.42194e-16
2.17766e-17
1.75871e-17
1.80299e-17
2.46812e-17
2.82119e-17
2.88561e-17
2.73806e-17
2.73242e-17
2.61696e-17
2.61509e-17
2.49161e-17
2.50245e-17
2.38e-17
2.38047e-17
2.24593e-17
2.25731e-17
2.16875e-17
2.13688e-17
2.08581e-17
2.04242e-17
1.97757e-17
1.99217e-17
1.84126e-17
1.95248e-17
1.73691e-17
1.89469e-17
1.67616e-17
1.81605e-17
1.63532e-17
1.73322e-17
1.60093e-17
1.65665e-17
1.57013e-17
1.58801e-17
1.54454e-17
1.53426e-17
1.514e-17
1.4971e-17
1.47983e-17
1.46999e-17
1.46053e-17
1.45035e-17
1.4568e-17
1.44638e-17
1.43127e-17
1.47464e-17
1.4456e-17
1.50782e-17
1.52501e-17
1.55169e-17
1.60771e-17
1.77728e-17
1.49569e-17
2.09986e-17
1.95192e-17
1.55092e-17
4.01374e-17
1.03098e-17
5.25225e-17
2.37329e-16
2.09369e-17
1.75203e-17
1.75965e-17
2.40732e-17
2.76643e-17
2.83887e-17
2.69931e-17
2.69826e-17
2.58812e-17
2.58939e-17
2.46947e-17
2.48187e-17
2.36242e-17
2.36404e-17
2.23214e-17
2.24368e-17
2.15699e-17
2.12636e-17
2.0751e-17
2.03427e-17
1.96836e-17
1.98525e-17
1.83437e-17
1.94576e-17
1.73197e-17
1.8882e-17
1.67226e-17
1.81034e-17
1.63192e-17
1.7284e-17
1.59777e-17
1.65249e-17
1.56715e-17
1.58443e-17
1.54152e-17
1.53111e-17
1.51088e-17
1.49411e-17
1.47679e-17
1.46675e-17
1.45736e-17
1.44663e-17
1.45334e-17
1.44215e-17
1.42748e-17
1.46907e-17
1.44127e-17
1.49991e-17
1.51931e-17
1.54075e-17
1.60078e-17
1.75681e-17
1.49753e-17
2.05288e-17
1.96886e-17
1.48803e-17
3.96252e-17
1.06494e-17
5.0529e-17
2.31422e-16
2.02195e-17
1.74555e-17
1.71927e-17
2.34898e-17
2.71265e-17
2.79295e-17
2.6612e-17
2.66456e-17
2.55958e-17
2.56392e-17
2.44744e-17
2.46136e-17
2.34485e-17
2.34763e-17
2.21835e-17
2.23008e-17
2.14519e-17
2.11585e-17
2.06432e-17
2.02612e-17
1.9591e-17
1.97827e-17
1.8275e-17
1.93893e-17
1.72708e-17
1.88156e-17
1.66841e-17
1.80448e-17
1.62855e-17
1.72346e-17
1.59462e-17
1.64823e-17
1.56416e-17
1.58078e-17
1.53846e-17
1.52789e-17
1.50771e-17
1.49105e-17
1.47369e-17
1.46346e-17
1.45412e-17
1.44287e-17
1.44978e-17
1.43787e-17
1.42366e-17
1.46343e-17
1.43695e-17
1.49197e-17
1.51361e-17
1.52997e-17
1.59381e-17
1.73684e-17
1.49912e-17
2.00788e-17
1.98301e-17
1.43125e-17
3.90136e-17
1.1028e-17
4.85269e-17
2.24599e-16
1.96138e-17
1.73846e-17
1.68179e-17
2.29313e-17
2.65994e-17
2.7479e-17
2.62378e-17
2.63137e-17
2.53139e-17
2.5387e-17
2.42559e-17
2.44095e-17
2.32732e-17
2.33125e-17
2.20458e-17
2.21652e-17
2.13337e-17
2.10539e-17
2.0535e-17
2.01798e-17
1.94982e-17
1.97123e-17
1.82067e-17
1.93199e-17
1.72226e-17
1.8748e-17
1.66461e-17
1.7985e-17
1.62521e-17
1.7184e-17
1.59148e-17
1.64388e-17
1.56115e-17
1.57706e-17
1.53536e-17
1.52462e-17
1.50449e-17
1.48795e-17
1.47053e-17
1.46012e-17
1.45082e-17
1.4391e-17
1.44616e-17
1.43358e-17
1.41983e-17
1.45774e-17
1.43267e-17
1.48404e-17
1.50791e-17
1.5194e-17
1.58682e-17
1.7174e-17
1.50044e-17
1.96491e-17
1.9943e-17
1.38039e-17
3.83109e-17
1.14417e-17
4.65016e-17
2.16994e-16
1.9109e-17
1.73019e-17
1.64712e-17
2.23981e-17
2.60837e-17
2.70377e-17
2.5871e-17
2.59872e-17
2.5036e-17
2.51377e-17
2.40394e-17
2.42069e-17
2.30988e-17
2.31495e-17
2.19086e-17
2.20303e-17
2.12157e-17
2.09498e-17
2.04267e-17
2.00987e-17
1.94053e-17
1.96416e-17
1.81387e-17
1.92496e-17
1.7175e-17
1.86792e-17
1.66087e-17
1.79241e-17
1.62192e-17
1.71325e-17
1.58836e-17
1.63946e-17
1.55813e-17
1.57329e-17
1.53223e-17
1.52131e-17
1.50123e-17
1.48481e-17
1.46734e-17
1.45676e-17
1.44747e-17
1.43532e-17
1.44249e-17
1.42928e-17
1.41601e-17
1.45201e-17
1.42845e-17
1.47616e-17
1.50223e-17
1.50905e-17
1.57983e-17
1.69854e-17
1.50148e-17
1.92403e-17
2.00268e-17
1.33528e-17
3.75267e-17
1.18865e-17
4.44447e-17
2.08753e-16
1.86932e-17
1.72034e-17
1.61519e-17
2.18902e-17
2.55803e-17
2.66062e-17
2.5512e-17
2.56666e-17
2.47622e-17
2.48918e-17
2.38254e-17
2.40061e-17
2.29256e-17
2.29874e-17
2.17721e-17
2.18963e-17
2.1098e-17
2.08464e-17
2.03185e-17
2.0018e-17
1.93127e-17
1.95705e-17
1.80714e-17
1.91785e-17
1.71281e-17
1.86096e-17
1.65719e-17
1.78623e-17
1.61867e-17
1.70802e-17
1.58526e-17
1.63499e-17
1.55512e-17
1.56948e-17
1.52908e-17
1.51797e-17
1.49796e-17
1.48164e-17
1.46411e-17
1.45339e-17
1.44409e-17
1.43155e-17
1.43878e-17
1.42498e-17
1.41222e-17
1.44628e-17
1.42429e-17
1.46836e-17
1.4966e-17
1.49897e-17
1.57288e-17
1.6803e-17
1.50223e-17
1.88526e-17
2.00815e-17
1.29574e-17
3.66717e-17
1.2357e-17
4.2352e-17
2.00023e-16
1.83552e-17
1.7087e-17
1.58592e-17
2.14078e-17
2.50897e-17
2.6185e-17
2.51613e-17
2.5352e-17
2.44931e-17
2.46495e-17
2.36141e-17
2.38074e-17
2.27539e-17
2.28265e-17
2.16365e-17
2.17633e-17
2.09808e-17
2.07439e-17
2.02107e-17
1.99376e-17
1.92204e-17
1.94992e-17
1.80047e-17
1.91068e-17
1.70821e-17
1.85393e-17
1.65358e-17
1.77998e-17
1.61546e-17
1.70272e-17
1.5822e-17
1.63047e-17
1.55211e-17
1.56564e-17
1.52593e-17
1.51461e-17
1.49467e-17
1.47846e-17
1.46088e-17
1.45002e-17
1.44069e-17
1.4278e-17
1.43506e-17
1.42071e-17
1.40848e-17
1.44056e-17
1.42021e-17
1.46067e-17
1.49102e-17
1.48919e-17
1.56597e-17
1.66271e-17
1.50267e-17
1.84864e-17
2.01071e-17
1.2616e-17
3.57573e-17
1.28473e-17
4.02254e-17
1.90952e-16
1.80834e-17
1.69525e-17
1.55922e-17
2.09506e-17
2.46126e-17
2.57744e-17
2.48192e-17
2.50437e-17
2.42287e-17
2.4411e-17
2.3406e-17
2.3611e-17
2.25839e-17
2.26671e-17
2.1502e-17
2.16315e-17
2.08642e-17
2.06424e-17
2.01034e-17
1.98577e-17
1.91288e-17
1.94277e-17
1.79389e-17
1.90347e-17
1.70369e-17
1.84685e-17
1.65004e-17
1.77368e-17
1.61232e-17
1.69738e-17
1.57916e-17
1.62591e-17
1.54911e-17
1.56179e-17
1.52277e-17
1.51124e-17
1.49137e-17
1.47528e-17
1.45763e-17
1.44666e-17
1.43729e-17
1.42408e-17
1.43134e-17
1.41647e-17
1.4048e-17
1.43488e-17
1.41621e-17
1.45313e-17
1.48552e-17
1.47971e-17
1.55914e-17
1.6458e-17
1.5028e-17
1.81416e-17
2.01042e-17
1.23268e-17
3.47946e-17
1.33501e-17
3.80711e-17
1.81683e-16
1.78669e-17
1.68011e-17
1.53502e-17
2.05184e-17
2.41496e-17
2.53748e-17
2.4486e-17
2.4742e-17
2.39692e-17
2.41766e-17
2.3201e-17
2.34173e-17
2.24159e-17
2.25093e-17
2.13688e-17
2.1501e-17
2.07485e-17
2.05418e-17
1.99969e-17
1.97784e-17
1.9038e-17
1.93563e-17
1.78739e-17
1.89623e-17
1.69926e-17
1.83974e-17
1.64657e-17
1.76734e-17
1.60922e-17
1.692e-17
1.57617e-17
1.62134e-17
1.54614e-17
1.55793e-17
1.51963e-17
1.50787e-17
1.48809e-17
1.4721e-17
1.4544e-17
1.44332e-17
1.4339e-17
1.4204e-17
1.42765e-17
1.41228e-17
1.4012e-17
1.42926e-17
1.41232e-17
1.44575e-17
1.48011e-17
1.47056e-17
1.5524e-17
1.62959e-17
1.50259e-17
1.78185e-17
2.00734e-17
1.20879e-17
3.37942e-17
1.38577e-17
3.58995e-17
1.72347e-16
1.76944e-17
1.66345e-17
1.51324e-17
2.01109e-17
2.37009e-17
2.49865e-17
2.4162e-17
2.44471e-17
2.37149e-17
2.39465e-17
2.29996e-17
2.32265e-17
2.22502e-17
2.23533e-17
2.12371e-17
2.1372e-17
2.06338e-17
2.04424e-17
1.98913e-17
1.96997e-17
1.8948e-17
1.92848e-17
1.781e-17
1.88897e-17
1.69492e-17
1.8326e-17
1.64317e-17
1.76097e-17
1.60619e-17
1.6866e-17
1.57322e-17
1.61676e-17
1.54319e-17
1.55407e-17
1.5165e-17
1.50451e-17
1.48483e-17
1.46894e-17
1.45118e-17
1.44001e-17
1.43053e-17
1.41677e-17
1.42399e-17
1.40816e-17
1.39768e-17
1.42372e-17