/*--------------------------------*- C++ -*----------------------------------*\
| =========                 |                                                 |
| \\      /  F ield         | OpenFOAM: The Open Source CFD Toolbox           |
|  \\    /   O peration     | Version:  2312                                  |
|   \\  /    A nd           | Website:  www.openfoam.com                      |
|    \\/     M anipulation  |                                                 |
\*---------------------------------------------------------------------------*/
FoamFile
{
    version     2.0;
    format      ascii;
    arch        "LSB;label=32;scalar=64";
    class       volScalarField;
    location    "700";
    object      nut;
}
// * * * * * * * * * * * * * * * * * * * * * * * * * * * * * * * * * * * * * //

dimensions      [0 2 -1 0 0 0 0];

internalField   nonuniform List<scalar> 
330000
(
6.02422e-24
8.62632e-25
6.04834e-26
2.33045e-27
4.12312e-29
4.69056e-29
4.6936e-28
3.77934e-28
5.87523e-28
4.2205e-28
5.52816e-28
6.05528e-28
7.43235e-28
7.82527e-28
8.8313e-28
1.07634e-27
1.09002e-27
1.07077e-27
1.23301e-27
1.37751e-27
1.51842e-27
1.53771e-27
1.77044e-27
1.88058e-27
2.10896e-27
2.23201e-27
2.47228e-27
2.46452e-27
2.8553e-27
2.934e-27
3.36078e-27
3.47294e-27
3.89324e-27
3.8345e-27
4.39008e-27
4.54844e-27
5.04903e-27
5.08975e-27
5.68625e-27
5.39034e-27
6.22228e-27
5.99038e-27
6.78943e-27
6.53104e-27
7.16695e-27
6.16655e-27
6.82888e-27
5.95982e-27
6.13907e-27
4.69222e-27
4.42299e-27
2.92028e-27
1.69996e-27
4.54135e-28
9.16839e-30
1.58652e-28
3.97074e-27
9.27327e-26
9.1042e-25
5.17466e-24
6.63576e-24
2.33352e-24
2.23552e-25
3.09406e-27
2.60799e-30
1.68619e-28
6.56599e-28
9.04201e-28
1.0659e-27
9.02892e-28
1.01414e-27
1.28031e-27
1.45131e-27
1.59882e-27
1.71504e-27
2.20837e-27
2.14658e-27
2.17954e-27
2.39382e-27
2.79474e-27
2.97013e-27
3.10836e-27
3.45094e-27
3.79408e-27
4.12379e-27
4.47035e-27
4.85692e-27
4.91834e-27
5.55985e-27
5.85599e-27
6.55877e-27
6.86145e-27
7.62806e-27
7.52173e-27
8.52462e-27
8.91344e-27
9.69264e-27
9.98555e-27
1.09667e-26
1.04998e-26
1.18142e-26
1.16333e-26
1.27823e-26
1.25489e-26
1.34967e-26
1.16306e-26
1.25626e-26
1.10634e-26
1.11491e-26
8.27762e-27
7.67265e-27
4.78437e-27
2.81573e-27
4.42831e-28
3.93176e-31
9.97652e-28
1.15184e-26
2.01474e-25
2.51283e-24
8.05991e-24
1.16553e-23
3.56342e-24
2.49007e-25
6.08288e-27
8.61766e-30
2.65682e-28
9.45677e-28
1.21863e-27
1.54678e-27
1.21869e-27
1.51181e-27
1.71763e-27
2.18078e-27
2.11352e-27
2.56643e-27
2.93202e-27
3.11424e-27
3.00348e-27
3.47983e-27
3.82019e-27
4.26257e-27
4.30914e-27
4.9414e-27
5.26395e-27
5.90221e-27
6.2114e-27
6.91986e-27
6.87417e-27
7.88056e-27
8.22725e-27
9.3409e-27
9.57746e-27
1.08134e-26
1.05562e-26
1.20899e-26
1.24747e-26
1.36798e-26
1.41122e-26
1.54822e-26
1.48548e-26
1.65953e-26
1.65482e-26
1.80518e-26
1.77457e-26
1.89701e-26
1.65981e-26
1.7716e-26
1.58244e-26
1.57683e-26
1.18846e-26
1.09215e-26
6.87878e-27
3.97156e-27
6.73531e-28
2.67743e-31
1.06609e-27
1.74769e-26
2.96913e-25
3.26306e-24
1.13041e-23
1.36041e-23
3.61188e-24
2.76689e-25
5.59789e-27
1.41591e-29
2.37787e-28
1.03512e-27
1.11639e-27
1.65167e-27
1.12198e-27
1.64699e-27
1.60573e-27
2.33089e-27
1.97874e-27
2.73526e-27
2.75537e-27
3.26059e-27
2.90185e-27
3.60571e-27
3.70275e-27
4.3799e-27
4.23292e-27
5.07377e-27
5.17206e-27
6.02804e-27
6.12624e-27
7.04437e-27
6.8146e-27
8.01514e-27
8.18401e-27
9.47906e-27
9.4986e-27
1.09481e-26
1.05214e-26
1.22842e-26
1.23774e-26
1.38376e-26
1.41321e-26
1.56337e-26
1.49111e-26
1.67515e-26
1.66628e-26
1.81875e-26
1.78635e-26
1.9085e-26
1.6846e-26
1.7951e-26
1.60689e-26
1.59834e-26
1.21537e-26
1.12261e-26
7.08791e-27
4.19896e-27
7.02006e-28
1.08775e-30
9.5221e-28
1.62579e-26
2.91222e-25
3.99515e-24
1.32733e-23
1.66652e-23
4.22796e-24
3.55988e-25
5.49765e-27
1.90842e-29
2.3571e-28
1.02298e-27
1.10261e-27
1.66773e-27
1.07178e-27
1.695e-27
1.52418e-27
2.3865e-27
1.85813e-27
2.80854e-27
2.58506e-27
3.34944e-27
2.76761e-27
3.64222e-27
3.54654e-27
4.41872e-27
4.08863e-27
5.08819e-27
5.00817e-27
6.02909e-27
5.94112e-27
7.03483e-27
6.62857e-27
7.98493e-27
7.98775e-27
9.40621e-27
9.25219e-27
1.08762e-26
1.02689e-26
1.21839e-26
1.20506e-26
1.37356e-26
1.38344e-26
1.54701e-26
1.46082e-26
1.65455e-26
1.63711e-26
1.79044e-26
1.75443e-26
1.88139e-26
1.66097e-26
1.76795e-26
1.58513e-26
1.57283e-26
1.19938e-26
1.10829e-26
7.00665e-27
4.16316e-27
6.73981e-28
1.60375e-30
9.09947e-28
1.61993e-26
3.0301e-25
5.20077e-24
1.41516e-23
2.22501e-23
5.16895e-24
5.29542e-25
5.52083e-27
3.36753e-29
2.40856e-28
1.00701e-27
1.12543e-27
1.69187e-27
1.07175e-27
1.7545e-27
1.50225e-27
2.46007e-27
1.8157e-27
2.92033e-27
2.5098e-27
3.51336e-27
2.70466e-27
3.75997e-27
3.49044e-27
4.5655e-27
4.04897e-27
5.227e-27
4.97238e-27
6.17314e-27
5.90695e-27
7.19748e-27
6.60432e-27
8.15875e-27
7.97915e-27
9.55732e-27
9.23607e-27
1.10661e-26
1.02701e-26
1.238e-26
1.20277e-26
1.39875e-26
1.38457e-26
1.56923e-26
1.46328e-26
1.67763e-26
1.64308e-26
1.80689e-26
1.76113e-26
1.9015e-26
1.67269e-26
1.78484e-26
1.59483e-26
1.58292e-26
1.20754e-26
1.11712e-26
7.03958e-27
4.18232e-27
6.58235e-28
2.25327e-30
9.31922e-28
1.6806e-26
3.41536e-25
7.2902e-24
1.51176e-23
3.12568e-23
6.20067e-24
8.26828e-25
5.72408e-27
7.79851e-29
2.39291e-28
1.00058e-27
1.15691e-27
1.72767e-27
1.08976e-27
1.81733e-27
1.50621e-27
2.54188e-27
1.80738e-27
3.04565e-27
2.48521e-27
3.70926e-27
2.6697e-27
3.91873e-27
3.47537e-27
4.76494e-27
4.04477e-27
5.42369e-27
4.9837e-27
6.38733e-27
5.93169e-27
7.43996e-27
6.643e-27
8.4267e-27
8.03433e-27
9.81429e-27
9.31653e-27
1.13797e-26
1.03694e-26
1.27068e-26
1.21349e-26
1.44077e-26
1.3981e-26
1.60995e-26
1.47952e-26
1.7216e-26
1.66223e-26
1.84629e-26
1.78592e-26
1.94619e-26
1.69968e-26
1.82278e-26
1.6199e-26
1.6128e-26
1.22761e-26
1.13918e-26
7.16069e-27
4.26107e-27
6.68781e-28
3.4379e-30
9.83774e-28
1.80688e-26
4.06667e-25
1.03154e-23
1.60826e-23
4.41707e-23
7.17362e-24
1.27313e-24
6.3025e-27
1.85236e-28
2.32592e-28
9.97291e-28
1.1867e-27
1.75861e-27
1.11489e-27
1.86909e-27
1.51726e-27
2.60643e-27
1.81592e-27
3.15642e-27
2.47957e-27
3.89277e-27
2.63606e-27
4.082e-27
3.46422e-27
4.96791e-27
4.03905e-27
5.63139e-27
4.99278e-27
6.60775e-27
5.95548e-27
7.69162e-27
6.67631e-27
8.70963e-27
8.08062e-27
1.0087e-26
9.39427e-27
1.17031e-26
1.04681e-26
1.3058e-26
1.22511e-26
1.48444e-26
1.41017e-26
1.65371e-26
1.49432e-26
1.77006e-26
1.67931e-26
1.89042e-26
1.80903e-26
1.99483e-26
1.72447e-26
1.86678e-26
1.64195e-26
1.64644e-26
1.24757e-26
1.16488e-26
7.27896e-27
4.36517e-27
6.90921e-28
5.42146e-30
1.09205e-27
2.03196e-26
5.04786e-25
1.42082e-23
1.68227e-23
6.11361e-23
7.97811e-24
1.88632e-24
7.4238e-27
4.0368e-28
2.22759e-28
1.00034e-27
1.20794e-27
1.79117e-27
1.14236e-27
1.91181e-27
1.53545e-27
2.6643e-27
1.83522e-27
3.25598e-27
2.49357e-27
4.06085e-27
2.61085e-27
4.24615e-27
3.45898e-27
5.17108e-27
4.03288e-27
5.84297e-27
4.99991e-27
6.83608e-27
5.97846e-27
7.94719e-27
6.70894e-27
8.99939e-27
8.11531e-27
1.03743e-26
9.47056e-27
1.20375e-26
1.0563e-26
1.34195e-26
1.23697e-26
1.52923e-26
1.42135e-26
1.69939e-26
1.50865e-26
1.82085e-26
1.69375e-26
1.93873e-26
1.83134e-26
2.04682e-26
1.74735e-26
1.91266e-26
1.66222e-26
1.68347e-26
1.26581e-26
1.1926e-26
7.40271e-27
4.49712e-27
7.24145e-28
9.62357e-30
1.31037e-27
2.4103e-26
6.42607e-25
1.88866e-23
1.73388e-23
8.20923e-23
8.60629e-24
2.66562e-24
9.26162e-27
7.78269e-28
2.1905e-28
1.00903e-27
1.22003e-27
1.8242e-27
1.1704e-27
1.94907e-27
1.55817e-27
2.71336e-27
1.86657e-27
3.3455e-27
2.52119e-27
4.20823e-27
2.59585e-27
4.40863e-27
3.46005e-27
5.37029e-27
4.03144e-27
6.06035e-27
5.00859e-27
7.06778e-27
6.00245e-27
8.20787e-27
6.74101e-27
9.29684e-27
8.14849e-27
1.06768e-26
9.5435e-27
1.238e-26
1.06604e-26
1.38025e-26
1.24922e-26
1.57427e-26
1.43211e-26
1.74703e-26
1.52226e-26
1.87414e-26
1.70711e-26
1.99043e-26
1.8515e-26
2.10071e-26
1.76818e-26
1.96242e-26
1.67937e-26
1.72269e-26
1.2827e-26
1.22277e-26
7.51519e-27
4.65097e-27
7.61949e-28
1.91434e-29
1.70729e-27
3.00236e-26
8.26235e-25
2.4082e-23
1.76197e-23
1.06513e-22
9.02973e-24
3.61191e-24
1.19341e-26
1.34249e-27
2.24369e-28
1.02894e-27
1.2208e-27
1.86523e-27
1.1959e-27
1.98565e-27
1.58637e-27
2.76569e-27
1.90542e-27
3.43136e-27
2.5646e-27
4.34275e-27
2.59652e-27
4.5703e-27
3.47214e-27
5.57011e-27
4.03859e-27
6.28265e-27
5.02434e-27
7.31157e-27
6.0336e-27
8.47775e-27
6.78283e-27
9.60571e-27
8.18642e-27
1.10021e-26
9.62463e-27
1.27461e-26
1.07669e-26
1.4207e-26
1.26258e-26
1.62138e-26
1.44432e-26
1.79751e-26
1.5374e-26
1.93035e-26
1.72069e-26
2.04704e-26
1.87225e-26
2.15904e-26
1.78883e-26
2.01482e-26
1.6965e-26
1.76631e-26
1.29832e-26
1.25567e-26
7.63434e-27
4.8308e-27
8.09175e-28
4.1624e-29
2.37567e-27
3.84841e-26
1.05293e-24
2.96071e-23
1.78211e-23
1.33897e-22
9.2951e-24
4.70708e-24
1.55745e-26
2.09417e-27
2.44183e-28
1.05667e-27
1.21476e-27
1.90985e-27
1.21795e-27
2.02407e-27
1.61608e-27
2.8168e-27
1.95139e-27
3.51428e-27
2.6159e-27
4.46116e-27
2.60972e-27
4.72657e-27
3.49307e-27
5.76431e-27
4.05539e-27
6.50767e-27
5.04679e-27
7.55868e-27
6.07026e-27
8.75287e-27
6.82886e-27
9.92145e-27
8.23197e-27
1.13429e-26
9.70701e-27
1.31246e-26
1.08806e-26
1.46325e-26
1.27644e-26
1.66917e-26
1.45734e-26
1.84964e-26
1.55269e-26
1.98842e-26
1.73476e-26
2.10646e-26
1.89167e-26
2.21895e-26
1.80832e-26
2.07025e-26
1.71152e-26
1.81163e-26
1.3129e-26
1.29094e-26
7.74652e-27
5.02921e-27
8.65698e-28
8.9307e-29
3.40981e-27
4.98484e-26
1.32095e-24
3.51491e-23
1.79684e-23
1.63439e-22
9.40526e-24
5.9437e-24
2.02693e-26
3.0177e-27
2.7795e-28
1.09496e-27
1.20275e-27
1.96296e-27
1.23557e-27
2.0668e-27
1.64755e-27
2.87522e-27
2.0001e-27
3.59781e-27
2.67567e-27
4.57214e-27
2.63643e-27
4.87823e-27
3.52488e-27
5.9565e-27
4.08275e-27
6.73301e-27
5.07852e-27
7.81369e-27
6.11511e-27
9.03361e-27
6.88549e-27
1.02455e-26
8.28638e-27
1.17e-26
9.79749e-27
1.35238e-26
1.10028e-26
1.50735e-26
1.29104e-26
1.7188e-26
1.47182e-26
1.90349e-26
1.56942e-26
2.04829e-26
1.74946e-26
2.16888e-26
1.91128e-26
2.28186e-26
1.82749e-26
2.12693e-26
1.72622e-26
1.8599e-26
1.32601e-26
1.32811e-26
7.86203e-27
5.24909e-27
9.40979e-28
1.8171e-28
4.91041e-27
6.41818e-26
1.6218e-24
4.0544e-23
1.82024e-23
1.9459e-22
9.42239e-24
7.30086e-24
2.61098e-26
4.06955e-27
3.27522e-28
1.13808e-27
1.18854e-27
2.02223e-27
1.24876e-27
2.11624e-27
1.67741e-27
2.93691e-27
2.05107e-27
3.68326e-27
2.73754e-27
4.67578e-27
2.67263e-27
5.02402e-27
3.56533e-27
6.14271e-27
4.12068e-27
6.95809e-27
5.11878e-27
8.06813e-27
6.16714e-27
9.31819e-27
6.94841e-27
1.05743e-26
8.35068e-27
1.20662e-26
9.89192e-27
1.39331e-26
1.11323e-26
1.55303e-26
1.30594e-26
1.76891e-26
1.48713e-26
1.9583e-26
1.58648e-26
2.10908e-26
1.76474e-26
2.23229e-26
1.9298e-26
2.34536e-26
1.84571e-26
2.18529e-26
1.73899e-26
1.90842e-26
1.338e-26
1.36659e-26
7.97062e-27
5.49077e-27
1.04044e-27
3.41143e-28
6.95727e-27
8.15874e-26
1.9498e-24
4.55326e-23
1.85098e-23
2.26385e-22
9.34586e-24
8.77249e-24
3.32756e-26
5.223e-27
3.9064e-28
1.18794e-27
1.17377e-27
2.0909e-27
1.25852e-27
2.17262e-27
1.70714e-27
3.00876e-27
2.10103e-27
3.77305e-27
2.80331e-27
4.78006e-27
2.71771e-27
5.16685e-27
3.61562e-27
6.32776e-27
4.16865e-27
7.18171e-27
5.16957e-27
8.32759e-27
6.22829e-27
9.60622e-27
7.02313e-27
1.09094e-26
8.42536e-27
1.24426e-26
9.99668e-27
1.43593e-26
1.12692e-26
1.59975e-26
1.32157e-26
1.8207e-26
1.50359e-26
2.0141e-26
1.60487e-26
2.17089e-26
1.7806e-26
2.2971e-26
1.9486e-26
2.41076e-26
1.86334e-26
2.24364e-26
1.75148e-26
1.95868e-26
1.34841e-26
1.40619e-26
8.08445e-27
5.76081e-27
1.17536e-27
5.95685e-28
9.62753e-27
1.01917e-25
2.29366e-24
5.00355e-23
1.90299e-23
2.58315e-22
9.23161e-24
1.03281e-23
4.20107e-26
6.44373e-27
4.67684e-28
1.23836e-27
1.163e-27
2.1635e-27
1.26642e-27
2.23638e-27
1.73495e-27
3.08538e-27
2.15106e-27
3.86896e-27
2.8688e-27
4.88328e-27
2.7677e-27
5.30719e-27
3.67314e-27
6.50853e-27
4.22593e-27
7.40434e-27
5.22965e-27
8.5856e-27
6.29824e-27
9.89621e-27
7.1047e-27
1.12467e-26
8.51106e-27
1.28249e-26
1.01081e-26
1.47914e-26
1.14124e-26
1.64748e-26
1.33768e-26
1.87292e-26
1.52077e-26
2.07027e-26
1.62342e-26
2.23265e-26
1.79711e-26
2.36204e-26
1.96679e-26
2.47559e-26
1.87984e-26
2.30242e-26
1.76236e-26
2.00803e-26
1.35802e-26
1.4469e-26
8.20262e-27
6.06352e-27
1.35272e-27
9.71302e-28
1.29875e-26
1.25199e-25
2.64729e-24
5.38647e-23
1.97201e-23
2.89411e-22
9.07639e-24
1.19507e-23
5.26536e-26
7.72767e-27
5.55326e-28
1.29191e-27
1.15565e-27
2.24239e-27
1.27375e-27
2.30624e-27
1.76253e-27
3.17221e-27
2.19912e-27
3.97132e-27
2.93548e-27
4.99141e-27
2.82217e-27
5.44836e-27
3.73775e-27
6.69019e-27
4.29137e-27
7.62571e-27
5.29941e-27
8.84735e-27
6.37719e-27
1.01872e-26
7.19747e-27
1.15881e-26
8.60676e-27
1.3213e-26
1.023e-26
1.52344e-26
1.15624e-26
1.69571e-26
1.3545e-26
1.92636e-26
1.53868e-26
2.12666e-26
1.64293e-26
2.29458e-26
1.81396e-26
2.4272e-26
1.98516e-26
2.54084e-26
1.89563e-26
2.35997e-26
1.7728e-26
2.058e-26
1.36649e-26
1.48842e-26
8.33473e-27
6.40643e-27
1.58389e-27
1.50109e-27
1.71076e-26
1.51488e-25
2.99869e-24
5.69647e-23
2.07206e-23
3.19337e-22
8.93283e-24
1.35972e-23
6.54903e-26
9.05586e-27
6.53313e-28
1.34386e-27
1.15193e-27
2.32601e-27
1.28066e-27
2.38336e-27
1.7883e-27
3.26473e-27
2.24644e-27
4.08115e-27
2.99979e-27
5.10383e-27
2.87869e-27
5.59184e-27
3.80671e-27
6.87129e-27
4.36404e-27
7.84794e-27
5.37666e-27
9.10675e-27
6.46443e-27
1.04804e-26
7.2973e-27
1.19304e-26
8.71194e-27
1.3603e-26
1.03591e-26
1.56795e-26
1.17194e-26
1.74455e-26
1.37166e-26
1.97961e-26
1.55705e-26
2.18309e-26
1.66251e-26
2.35589e-26
1.83101e-26
2.49132e-26
2.00293e-26
2.60475e-26
1.91054e-26
2.417e-26
1.78167e-26
2.10635e-26
1.3746e-26
1.53065e-26
8.47802e-27
6.79831e-27
1.87762e-27
2.21515e-27
2.2093e-26
1.80959e-25
3.34046e-24
5.91927e-23
2.1987e-23
3.46981e-22
8.79935e-24
1.52452e-23
8.08713e-26
1.0423e-26
7.59044e-28
1.39763e-27
1.15145e-27
2.41561e-27
1.28831e-27
2.46537e-27
1.81478e-27
3.3669e-27
2.29171e-27
4.19762e-27
3.0642e-27
5.22382e-27
2.937e-27
5.73976e-27
3.88007e-27
7.05637e-27
4.44209e-27
8.07098e-27
5.46159e-27
9.37002e-27
6.5588e-27
1.07739e-26
7.40718e-27
1.22755e-26
8.82552e-27
1.39953e-26
1.0498e-26
1.61307e-26
1.18818e-26
1.79347e-26
1.38942e-26
2.03349e-26
1.57574e-26
2.23917e-26
1.68269e-26
2.4168e-26
1.84801e-26
2.55471e-26
2.02061e-26
2.66811e-26
1.92446e-26
2.472e-26
1.7901e-26
2.15478e-26
1.3818e-26
1.57372e-26
8.64134e-27
7.24577e-27
2.24602e-27
3.15712e-27
2.80493e-26
2.13914e-25
3.66051e-24
6.05734e-23
2.36759e-23
3.72151e-22
8.73764e-24
1.68442e-23
9.91271e-26
1.18116e-26
8.72319e-28
1.44958e-27
1.15602e-27
2.5069e-27
1.29709e-27
2.55294e-27
1.84131e-27
3.4732e-27
2.33691e-27
4.32286e-27
3.12725e-27
5.34817e-27
2.99541e-27
5.89296e-27
3.95589e-27
7.24338e-27
4.52466e-27
8.29708e-27
5.55244e-27
9.63321e-27
6.66024e-27
1.10693e-26
7.52221e-27
1.26197e-26
8.94758e-27
1.43895e-26
1.06435e-26
1.65801e-26
1.20491e-26
1.84257e-26
1.40763e-26
2.08689e-26
1.59475e-26
2.29477e-26
1.70257e-26
2.47634e-26
1.86514e-26
2.61693e-26
2.03779e-26
2.72911e-26
1.93716e-26
2.52576e-26
1.79741e-26
2.20102e-26
1.38907e-26
1.61813e-26
8.82967e-27
7.75507e-27
2.70137e-27
4.36623e-27
3.51566e-26
2.50611e-25
3.95327e-24
6.10628e-23
2.56976e-23
3.93888e-22
8.73656e-24
1.83646e-23
1.20671e-25
1.32237e-26
9.87832e-28
1.50354e-27
1.16413e-27
2.60152e-27
1.30777e-27
2.6437e-27
1.8696e-27
3.58755e-27
2.38129e-27
4.4542e-27
3.19059e-27
5.47966e-27
3.05458e-27
6.05226e-27
4.03409e-27
7.43641e-27
4.61042e-27
8.52578e-27
5.64862e-27
9.90172e-27
6.76672e-27
1.13645e-26
7.64486e-27
1.2966e-26
9.07619e-27
1.47846e-26
1.07965e-26
1.7032e-26
1.22205e-26
1.89132e-26
1.42629e-26
2.14044e-26
1.61382e-26
2.34943e-26
1.72267e-26
2.53488e-26
1.882e-26
2.67784e-26
2.05457e-26
2.78858e-26
1.94879e-26
2.57681e-26
1.80425e-26
2.24688e-26
1.39598e-26
1.66364e-26
9.04752e-27
8.33297e-27
3.25831e-27
5.90369e-27
4.35592e-26
2.9183e-25
4.20747e-24
6.06963e-23
2.82381e-23
4.12459e-22
8.83917e-24
1.97547e-23
1.45862e-25
1.46511e-26
1.10255e-27
1.55673e-27
1.17398e-27
2.70094e-27
1.31897e-27
2.74046e-27
1.89776e-27
3.70652e-27
2.42619e-27
4.59286e-27
3.2519e-27
5.61782e-27
3.11411e-27
6.21836e-27
4.11305e-27
7.63426e-27
4.69919e-27
8.75971e-27
5.74786e-27
1.01706e-26
6.87816e-27
1.16636e-26
7.77138e-27
1.3312e-26
9.21039e-27
1.51795e-26
1.09542e-26
1.7481e-26
1.23965e-26
1.93997e-26
1.44501e-26
2.19292e-26
1.63301e-26
2.40338e-26
1.7424e-26
2.59177e-26
1.89848e-26
2.73669e-26
2.07051e-26
2.84553e-26
1.95952e-26
2.62606e-26
1.80986e-26
2.29053e-26
1.40337e-26
1.71018e-26
9.29341e-27
8.99139e-27
3.93322e-27
7.82484e-27
5.35552e-26
3.37787e-25
4.41755e-24
5.94721e-23
3.12412e-23
4.26841e-22
9.03772e-24
2.09908e-23
1.75069e-25
1.60683e-26
1.21196e-27
1.61086e-27
1.18627e-27
2.8044e-27
1.33179e-27
2.83969e-27
1.92807e-27
3.83208e-27
2.47078e-27
4.73556e-27
3.31357e-27
5.76264e-27
3.17404e-27
6.39027e-27
4.19342e-27
7.83882e-27
4.78933e-27
8.99742e-27
5.85025e-27
1.0445e-26
6.99163e-27
1.19627e-26
7.903e-27
1.36599e-26
9.34829e-27
1.55729e-26
1.11164e-26
1.793e-26
1.25734e-26
1.988e-26
1.46385e-26
2.24502e-26
1.6518e-26
2.45587e-26
1.76192e-26
2.64729e-26
1.91419e-26
2.79343e-26
2.08545e-26
2.90041e-26
1.96868e-26
2.67227e-26
1.81477e-26
2.33363e-26
1.41027e-26
1.75798e-26
9.56971e-27
9.73717e-27
4.74148e-27
1.02129e-26
6.53371e-26
3.89744e-25
4.57631e-24
5.75061e-23
3.48844e-23
4.37484e-22
9.40705e-24
2.20281e-23
2.08769e-25
1.74586e-26
1.31422e-27
1.66331e-27
1.20226e-27
2.9093e-27
1.34575e-27
2.94399e-27
1.95966e-27
3.9603e-27
2.51647e-27
4.88634e-27
3.3755e-27
5.91113e-27
3.23394e-27
6.569e-27
4.27475e-27
8.04773e-27
4.88103e-27
9.24118e-27
5.95491e-27
1.07217e-26
7.10846e-27
1.22656e-26
8.036e-27
1.40066e-26
9.49027e-27
1.59677e-26
1.12816e-26
1.83735e-26
1.27514e-26
2.0357e-26
1.48276e-26
2.29593e-26
1.67053e-26
2.50725e-26
1.78071e-26
2.70051e-26
1.92946e-26
2.84826e-26
2.09956e-26
2.95186e-26
1.97641e-26
2.71641e-26
1.81883e-26
2.37401e-26
1.41779e-26
1.80761e-26
9.88637e-27
1.05765e-26
5.70597e-27
1.31362e-26
7.93286e-26
4.48224e-25
4.6833e-24
5.48973e-23
3.89928e-23
4.43642e-22
9.9126e-24
2.28408e-23
2.47322e-25
1.88208e-26
1.40157e-27
1.71627e-27
1.22165e-27
3.01557e-27
1.36204e-27
3.04987e-27
1.99385e-27
4.09399e-27
2.56275e-27
5.04041e-27
3.43868e-27
6.06445e-27
3.29454e-27
6.75291e-27
4.3573e-27
8.263e-27
4.9735e-27
9.48865e-27
6.06151e-27
1.10046e-26
7.22585e-27
1.25682e-26
8.17182e-27
1.43549e-26
9.63407e-27
1.63609e-26
1.14485e-26
1.88152e-26
1.29278e-26
2.08252e-26
1.50157e-26
2.34621e-26
1.68862e-26
2.55675e-26
1.79895e-26
2.75189e-26
1.94377e-26
2.90066e-26
2.11238e-26
3.00057e-26
1.98245e-26
2.75708e-26
1.82209e-26
2.41353e-26
1.42509e-26
1.85874e-26
1.02419e-26
1.15184e-26
6.84419e-27
1.67061e-26
9.57726e-26
5.15174e-25
4.73446e-24
5.17313e-23
4.38018e-23
4.46422e-22
1.05854e-23
2.33973e-23
2.91211e-25
2.01747e-26
1.46924e-27
1.76925e-27
1.24121e-27
3.1284e-27
1.37842e-27
3.16254e-27
2.02807e-27
4.23219e-27
2.6103e-27
5.20071e-27
3.50075e-27
6.2242e-27
3.35625e-27
6.94322e-27
4.44025e-27
8.48386e-27
5.06759e-27
9.7423e-27
6.16862e-27
1.12892e-26
7.34546e-27
1.28763e-26
8.30818e-27
1.47032e-26
9.77922e-27
1.67535e-26
1.16161e-26
1.92523e-26
1.31049e-26
2.12883e-26
1.51994e-26
2.39494e-26
1.70644e-26
2.60504e-26
1.81639e-26
2.80088e-26
1.95714e-26
2.95027e-26
2.12391e-26
3.0461e-26
1.9874e-26
2.7952e-26
1.82415e-26
2.45059e-26
1.43324e-26
1.91114e-26
1.06369e-26
1.25787e-26
8.18289e-27
2.10165e-26
1.15299e-25
5.90561e-25
4.73089e-24
4.81001e-23
4.92393e-23
4.44959e-22
1.14005e-23
2.36858e-23
3.40667e-25
2.14674e-26
1.51378e-27
1.82064e-27
1.26364e-27
3.24327e-27
1.39684e-27
3.27604e-27
2.06472e-27
4.37423e-27
2.65845e-27
5.36176e-27
3.56369e-27
6.38793e-27
3.41847e-27
7.13673e-27
4.52423e-27
8.70964e-27
5.16176e-27
9.99871e-27
6.27658e-27
1.15779e-26
7.46339e-27
1.31827e-26
8.44522e-27
1.50521e-26
9.92345e-27
1.71414e-26
1.1782e-26
1.96848e-26
1.32768e-26
2.17406e-26
1.53778e-26
2.44253e-26
1.72304e-26
2.65095e-26
1.83271e-26
2.84768e-26
1.9689e-26
2.99656e-26
2.13333e-26
3.08844e-26
1.98995e-26
2.82964e-26
1.82481e-26
2.48662e-26
1.44065e-26
1.96509e-26
1.10662e-26
1.37654e-26
9.73506e-27
2.62037e-26
1.3818e-25
6.77017e-25
4.67316e-24
4.41409e-23
5.54765e-23
4.40317e-22
1.24636e-23
2.36938e-23
3.96533e-25
2.26825e-26
1.53549e-27
1.86968e-27
1.28965e-27
3.35919e-27
1.41651e-27
3.39498e-27
2.10307e-27
4.51853e-27
2.70799e-27
5.5306e-27
3.62826e-27
6.55363e-27
3.4813e-27
7.33638e-27
4.6097e-27
8.93859e-27
5.25702e-27
1.02606e-26
6.38551e-27
1.18684e-26
7.583e-27
1.34932e-26
8.58122e-27
1.53988e-26
1.00681e-26
1.75301e-26
1.19474e-26
2.01094e-26
1.34453e-26
2.21862e-26
1.55518e-26
2.48844e-26
1.73913e-26
2.69529e-26
1.84784e-26
2.89143e-26
1.9796e-26
3.04031e-26
2.14153e-26
3.12651e-26
1.99074e-26
2.8614e-26
1.8246e-26
2.51943e-26
1.44874e-26
2.02111e-26
1.15469e-26
1.50806e-26
1.15369e-26
3.23659e-26
1.6516e-25
7.75259e-25
4.56582e-24
4.00187e-23
6.21959e-23
4.3195e-22
1.36946e-23
2.34095e-23
4.58645e-25
2.38149e-26
1.52851e-27
1.91687e-27
1.32023e-27
3.47346e-27
1.4394e-27
3.51371e-27
2.14446e-27
4.66579e-27
2.75879e-27
5.70009e-27
3.69462e-27
6.72136e-27
3.54502e-27
7.53863e-27
4.69644e-27
9.17133e-27
5.35255e-27
1.05239e-26
6.49512e-27
1.21628e-26
7.70071e-27
1.38008e-26
8.71675e-27
1.5745e-26
1.02108e-26
1.79137e-26
1.21092e-26
2.05274e-26
1.36067e-26
2.26184e-26
1.57186e-26
2.53304e-26
1.75377e-26
2.73694e-26
1.86155e-26
2.9325e-26
1.98853e-26
3.08053e-26
2.14741e-26
3.16073e-26
1.98905e-26
2.88906e-26
1.8229e-26
2.55085e-26
1.45624e-26
2.0788e-26
1.20698e-26
1.65352e-26
1.36003e-26
3.96716e-26
1.96511e-25
8.88279e-25
4.41274e-24
3.58021e-23
6.96799e-23
4.2166e-22
1.51044e-23
2.2845e-23
5.27407e-25
2.49187e-26
1.49065e-27
1.96576e-27
1.34991e-27
3.5963e-27
1.46227e-27
3.64044e-27
2.18579e-27
4.81833e-27
2.81095e-27
5.87542e-27
3.75991e-27
6.89578e-27
3.61048e-27
7.74618e-27
4.78382e-27
9.40864e-27
5.44971e-27
1.07918e-26
6.60458e-27
1.24575e-26
7.81988e-27
1.41127e-26
8.8512e-27
1.60893e-26
1.03522e-26
1.82946e-26
1.22684e-26
2.09383e-26
1.3765e-26
2.3041e-26
1.58758e-26
2.57566e-26
1.76771e-26
2.77686e-26
1.87396e-26
2.97048e-26
1.99594e-26
3.11721e-26
2.15147e-26
3.19114e-26
1.98596e-26
2.91344e-26
1.8198e-26
2.5795e-26
1.46456e-26
2.13757e-26
1.26374e-26
1.81468e-26
1.59627e-26
4.82454e-26
2.33216e-25
1.01484e-24
4.22103e-24
3.15976e-23
7.78606e-23
4.08675e-22
1.66324e-23
2.20062e-23
6.02485e-25
2.59023e-26
1.4232e-27
2.01199e-27
1.38311e-27
3.71896e-27
1.48792e-27
3.76593e-27
2.22982e-27
4.97171e-27
2.86428e-27
6.04834e-27
3.8263e-27
7.07209e-27
3.67639e-27
7.95393e-27
4.87213e-27
9.64805e-27
5.54646e-27
1.10594e-26
6.71401e-27
1.27527e-26
7.9355e-27
1.44194e-26
8.98331e-27
1.64308e-26
1.04893e-26
1.86658e-26
1.24208e-26
2.1339e-26
1.39126e-26
2.34471e-26
1.60212e-26
2.61636e-26
1.77963e-26
2.8136e-26
1.88427e-26
3.00544e-26
2.00082e-26
3.14943e-26
2.15227e-26
3.21743e-26
1.97958e-26
2.93357e-26
1.81441e-26
2.60657e-26
1.47146e-26
2.19779e-26
1.32358e-26
1.99206e-26
1.86223e-26
5.82504e-26
2.7543e-25
1.15836e-24
3.9954e-24
2.75032e-23
8.68569e-23
3.94402e-22
1.84257e-23
2.09291e-23
6.85329e-25
2.67334e-26
1.33201e-27
2.05629e-27
1.42017e-27
3.84184e-27
1.51521e-27
3.89715e-27
2.27606e-27
5.12736e-27
2.91902e-27
6.22945e-27
3.89527e-27
7.24863e-27
3.74306e-27
8.16757e-27
4.96248e-27
9.88863e-27
5.64429e-27
1.13307e-26
6.82391e-27
1.30473e-26
8.05244e-27
1.47278e-26
9.11344e-27
1.67669e-26
1.06244e-26
1.90349e-26
1.25703e-26
2.1727e-26
1.40533e-26
2.38416e-26
1.61574e-26
2.65475e-26
1.79061e-26
2.84807e-26
1.89292e-26
3.03647e-26
2.00399e-26
3.17833e-26
2.15146e-26
3.23844e-26
1.9711e-26
2.95029e-26
1.80796e-26
2.62973e-26
1.47878e-26
2.25973e-26
1.38891e-26
2.18473e-26
2.16244e-26
6.97787e-26
3.23966e-25
1.31898e-24
3.74153e-24
2.36709e-23
9.61691e-23
3.78527e-22
2.0321e-23
1.96175e-23
7.744e-25
2.74025e-26
1.21635e-27
2.09836e-27
1.46317e-27
3.95958e-27
1.5469e-27
4.02589e-27
2.32598e-27
5.28307e-27
2.97564e-27
6.40872e-27
3.96653e-27
7.42468e-27
3.81063e-27
8.38142e-27
5.05398e-27
1.01302e-26
5.74196e-27
1.16002e-26
6.93374e-27
1.33422e-26
8.16598e-27
1.50291e-26
9.24061e-27
1.70982e-26
1.07547e-26
1.93932e-26
1.27119e-26
2.21018e-26
1.4182e-26
2.42159e-26
1.62803e-26
2.691e-26
1.79941e-26
2.87899e-26
1.89923e-26
3.06393e-26
2.00455e-26
3.20264e-26
2.14735e-26
3.25457e-26
1.95939e-26
2.96232e-26
1.79923e-26
2.65077e-26
1.48476e-26
2.32287e-26
1.45787e-26
2.39341e-26
2.49594e-26
8.29969e-26
3.78793e-25
1.49928e-24
3.46772e-24
2.01168e-23
1.06139e-22
3.62688e-22
2.22977e-23
1.81327e-23
8.69617e-25
2.7994e-26
1.07953e-27
2.1456e-27
1.50435e-27
4.08818e-27
1.57844e-27
4.16416e-27
2.37559e-27
5.44533e-27
3.03336e-27
6.59378e-27
4.03568e-27
7.60843e-27
3.88003e-27
8.59972e-27
5.14563e-27
1.03752e-26
5.84105e-27
1.18722e-26
7.04283e-27
1.36349e-26
8.28032e-27
1.53317e-26
9.36575e-27
1.74236e-26
1.08821e-26
1.97444e-26
1.28478e-26
2.24648e-26
1.43045e-26
2.4574e-26
1.6389e-26
2.72465e-26
1.80704e-26
2.90737e-26
1.90382e-26
3.08737e-26
2.00313e-26
3.2224e-26
2.14087e-26
3.26615e-26
1.94603e-26
2.97015e-26
1.78886e-26
2.66849e-26
1.49124e-26
2.38601e-26
1.53065e-26
2.61981e-26
2.86643e-26
9.79958e-26
4.40849e-25
1.69487e-24
3.18449e-24
1.6899e-23
1.16738e-22
3.45961e-22
2.42606e-23
1.6493e-23
9.6933e-25
2.83887e-26
9.28118e-28
2.19271e-27
1.54937e-27
4.21508e-27
1.61356e-27
4.29896e-27
2.42825e-27
5.60515e-27
3.09292e-27
6.77316e-27
4.1064e-27
7.79301e-27
3.94984e-27
8.8154e-27
5.23791e-27
1.06203e-26
5.93892e-27
1.21409e-26
7.1509e-27
1.39243e-26
8.38961e-27
1.56257e-26
9.48558e-27
1.7742e-26
1.10019e-26
2.00798e-26
1.29725e-26
2.2811e-26
1.44114e-26
2.49079e-26
1.648e-26
2.75548e-26
1.81199e-26
2.93188e-26
1.90531e-26
3.10699e-26
1.99829e-26
3.2367e-26
2.13013e-26
3.27297e-26
1.92862e-26
2.97325e-26
1.77528e-26
2.68396e-26
1.49529e-26
2.44962e-26
1.60502e-26
2.86318e-26
3.27034e-26
1.14837e-25
5.09676e-25
1.90805e-24
2.89561e-24
1.4053e-23
1.27958e-22
3.30362e-22
2.63866e-23
1.47727e-23
1.07588e-24
2.85201e-26
7.72866e-28
2.24007e-27
1.59869e-27
4.34112e-27
1.65057e-27
4.44003e-27
2.48346e-27
5.7679e-27
3.15359e-27
6.96205e-27
4.18009e-27
7.97521e-27
4.01982e-27
9.03752e-27
5.33216e-27
1.08639e-26
6.03723e-27
1.24113e-26
7.25833e-27
1.42104e-26
8.49945e-27
1.59169e-26
9.60227e-27
1.80501e-26
1.11173e-26
2.04084e-26
1.30917e-26
2.31373e-26
1.45076e-26
2.52234e-26
1.65567e-26
2.78319e-26
1.8156e-26
2.95293e-26
1.90476e-26
3.12156e-26
1.9912e-26
3.24673e-26
2.11753e-26
3.27324e-26
1.90889e-26
2.97201e-26
1.76043e-26
2.69441e-26
1.49917e-26
2.51363e-26
1.68375e-26
3.1205e-26
3.71063e-26
1.33517e-25
5.85325e-25
2.13682e-24
2.60481e-24
1.16689e-23
1.39155e-22
3.15674e-22
2.84321e-23
1.29838e-23
1.18548e-24
2.83967e-26
6.17576e-28
2.28835e-27
1.65553e-27
4.45876e-27
1.69328e-27
4.57631e-27
2.54314e-27
5.92761e-27
3.21684e-27
7.14659e-27
4.25691e-27
8.15505e-27
4.0906e-27
9.25786e-27
5.42717e-27
1.11063e-26
6.13434e-27
1.26771e-26
7.36441e-27
1.44933e-26
8.60417e-27
1.61978e-26
9.71292e-27
1.8349e-26
1.12245e-26
2.07203e-26
1.31986e-26
2.34435e-26
1.45871e-26
2.55107e-26
1.66146e-26
2.80783e-26
1.81645e-26
2.96973e-26
1.90102e-26
3.13174e-26
1.98074e-26
3.25127e-26
2.10088e-26
3.26788e-26
1.88538e-26
2.96557e-26
1.74257e-26
2.70184e-26
1.50069e-26
2.57732e-26
1.76414e-26
3.39126e-26
4.1821e-26
1.54031e-25
6.66951e-25
2.38184e-24
2.32108e-24
9.71002e-24
1.50695e-22
3.03295e-22
3.03274e-23
1.12121e-23
1.29693e-24
2.8119e-26
4.68818e-28
2.34735e-27
1.71018e-27
4.58903e-27
1.73576e-27
4.724e-27
2.60189e-27
6.09562e-27
3.28032e-27
7.33709e-27
4.3292e-27
8.34405e-27
4.16261e-27
9.48184e-27
5.52064e-27
1.13513e-26
6.23182e-27
1.29434e-26
7.46816e-27
1.47713e-26
8.70764e-27
1.64757e-26
9.81968e-27
1.86371e-26
1.13264e-26
2.10189e-26
1.32959e-26
2.3731e-26
1.46564e-26
2.57737e-26
1.66533e-26
2.82912e-26
1.81554e-26
2.98285e-26
1.89517e-26
3.13681e-26
1.96798e-26
3.25006e-26
2.08141e-26
3.25709e-26
1.86006e-26
2.95388e-26
1.72282e-26
2.70498e-26
1.502e-26
2.63858e-26
1.8458e-26
3.67662e-26
4.68549e-26
1.76326e-25
7.5474e-25
2.63544e-24
2.0563e-24
8.16933e-24
1.62716e-22
2.92708e-22
3.19624e-23
9.47533e-24
1.40702e-24
2.75827e-26
3.3402e-28
2.41423e-27
1.76856e-27
4.71799e-27
1.78246e-27
4.86699e-27
2.66385e-27
6.25889e-27
3.34608e-27
7.51949e-27
4.40314e-27
8.53413e-27
4.23504e-27
9.70121e-27
5.61385e-27
1.15952e-26
6.32654e-27
1.32039e-26
7.56915e-27
1.50434e-26
8.80393e-27
1.67434e-26
9.91737e-27
1.89143e-26
1.1417e-26
2.12961e-26
1.33774e-26
2.3996e-26
1.47053e-26
2.60041e-26
1.66689e-26
2.84667e-26
1.81144e-26
2.99167e-26
1.88544e-26
3.13739e-26
1.95116e-26
3.24269e-26
2.05711e-26
3.24128e-26
1.83037e-26
2.93703e-26
1.69923e-26
2.705e-26
1.49982e-26
2.69798e-26
1.92604e-26
3.97322e-26
5.21254e-26
2.00111e-25
8.46731e-25
2.88886e-24
1.80941e-24
7.04238e-24
1.75055e-22
2.84614e-22
3.35795e-23
7.84834e-24
1.51909e-24
2.6676e-26
2.21937e-28
2.48561e-27
1.83217e-27
4.84374e-27
1.83147e-27
5.01674e-27
2.72852e-27
6.42607e-27
3.41206e-27
7.7137e-27
4.47921e-27
8.71814e-27
4.30632e-27
9.92759e-27
5.708e-27
1.18341e-26
6.4202e-27
1.34645e-26
7.667e-27
1.53093e-26
8.89828e-27
1.70019e-26
1.00094e-26
1.91755e-26
1.14992e-26
2.15611e-26
1.34485e-26
2.42316e-26
1.47387e-26
2.62085e-26
1.66639e-26
2.86028e-26
1.8055e-26
2.9954e-26
1.87332e-26
3.13171e-26
1.93168e-26
3.23016e-26
2.03068e-26
3.21741e-26
1.79832e-26
2.91481e-26
1.67409e-26
2.69858e-26
1.49644e-26
2.75548e-26
2.007e-26
4.27546e-26
5.75908e-26
2.25209e-25
9.40873e-25
3.1324e-24
1.58082e-24
6.36788e-24
1.86863e-22
2.79208e-22
3.48997e-23
6.33634e-24
1.62692e-24
2.54769e-26
1.34384e-28
2.56667e-27
1.90462e-27
4.95972e-27
1.88715e-27
5.16068e-27
2.7981e-27
6.58861e-27
3.48088e-27
7.90237e-27
4.55817e-27
8.89969e-27
4.3778e-27
1.01518e-26
5.80138e-27
1.20713e-26
6.51055e-27
1.37186e-26
7.76127e-27
1.55697e-26
8.9846e-27
1.72487e-26
1.00912e-26
1.94237e-26
1.15694e-26
2.18036e-26
1.35026e-26
2.44412e-26
1.47504e-26
2.63759e-26
1.66354e-26
2.86982e-26
1.79634e-26
2.99439e-26
1.8574e-26
3.12086e-26
1.90849e-26
3.21143e-26
1.99992e-26
3.18768e-26
1.76241e-26
2.8869e-26
1.64564e-26
2.68791e-26