/*--------------------------------*- C++ -*----------------------------------*\
| =========                 |                                                 |
| \\      /  F ield         | OpenFOAM: The Open Source CFD Toolbox           |
|  \\    /   O peration     | Version:  2312                                  |
|   \\  /    A nd           | Website:  www.openfoam.com                      |
|    \\/     M anipulation  |                                                 |
\*---------------------------------------------------------------------------*/
FoamFile
{
    version     2.0;
    format      ascii;
    arch        "LSB;label=32;scalar=64";
    class       volScalarField;
    location    "700";
    object      p;
}
// * * * * * * * * * * * * * * * * * * * * * * * * * * * * * * * * * * * * * //

dimensions      [0 2 -2 0 0 0 0];

internalField   nonuniform List<scalar> 
330000
(
-2.67399e-09
-4.00928e-10
-1.63446e-09
-1.18011e-09
-8.83491e-10
-7.054e-10
-3.88542e-10
-3.83818e-10
-9.94152e-11
-1.67463e-10
2.41141e-11
-1.09446e-10
8.65485e-11
-7.01671e-11
1.29807e-10
-3.73088e-11
1.97124e-10
2.46701e-11
2.41415e-10
4.21817e-11
2.75335e-10
5.81019e-11
2.85751e-10
4.76822e-11
2.9568e-10
5.38099e-11
3.21353e-10
6.50393e-11
3.31499e-10
5.35034e-11
3.39072e-10
5.57285e-11
3.66075e-10
6.74974e-11
3.73394e-10
5.32488e-11
3.85321e-10
6.59958e-11
4.18548e-10
8.67539e-11
4.35846e-10
8.58389e-11
4.52061e-10
1.09435e-10
5.03296e-10
1.59876e-10
5.2439e-10
1.74482e-10
5.35507e-10
2.09065e-10
5.31117e-10
2.49845e-10
5.29123e-10
3.41126e-10
4.01858e-10
3.88231e-10
1.12604e-10
4.05206e-10
-6.70227e-10
2.00886e-09
-2.65381e-09
-4.02571e-10
-1.6388e-09
-1.18195e-09
-8.84442e-10
-7.0538e-10
-3.88963e-10
-3.83772e-10
-9.97443e-11
-1.67427e-10
2.3831e-11
-1.09373e-10
8.6263e-11
-7.00816e-11
1.29538e-10
-3.71954e-11
1.96859e-10
2.48101e-11
2.4112e-10
4.2336e-11
2.75038e-10
5.82741e-11
2.85462e-10
4.79038e-11
2.95378e-10
5.40438e-11
3.21024e-10
6.52804e-11
3.31176e-10
5.38019e-11
3.38722e-10
5.60337e-11
3.65698e-10
6.78152e-11
3.73015e-10
5.36257e-11
3.84919e-10
6.63884e-11
4.18101e-10
8.7153e-11
4.35398e-10
8.63151e-11
4.51571e-10
1.09909e-10
5.02762e-10
1.60368e-10
5.23838e-10
1.75051e-10
5.34925e-10
2.09681e-10
5.30539e-10
2.50494e-10
5.28643e-10
3.419e-10
4.01581e-10
3.89333e-10
1.1293e-10
4.04081e-10
-6.76422e-10
2.00416e-09
-2.63244e-09
-4.04963e-10
-1.64506e-09
-1.18445e-09
-8.85502e-10
-7.05277e-10
-3.89189e-10
-3.83814e-10
-9.99339e-11
-1.67554e-10
2.37152e-11
-1.09461e-10
8.61458e-11
-7.01842e-11
1.29466e-10
-3.7285e-11
1.96778e-10
2.47345e-11
2.41017e-10
4.22586e-11
2.74938e-10
5.81964e-11
2.85408e-10
4.78911e-11
2.95322e-10
5.40174e-11
3.20933e-10
6.5238e-11
3.31127e-10
5.38353e-11
3.38662e-10
5.60452e-11
3.656e-10
6.78124e-11
3.72956e-10
5.37031e-11
3.84846e-10
6.64518e-11
4.17966e-10
8.71994e-11
4.35298e-10
8.6473e-11
4.51436e-10
1.10029e-10
5.02548e-10
1.60493e-10
5.23624e-10
1.75303e-10
5.34658e-10
2.10012e-10
5.30273e-10
2.50918e-10
5.28426e-10
3.42616e-10
4.01547e-10
3.90767e-10
1.13509e-10
4.03145e-10
-6.8869e-10
2.00612e-09
-2.60987e-09
-4.10556e-10
-1.65238e-09
-1.18805e-09
-8.86562e-10
-7.04923e-10
-3.89216e-10
-3.83712e-10
-1.00045e-10
-1.67664e-10
2.36936e-11
-1.09542e-10
8.60964e-11
-7.03076e-11
1.29476e-10
-3.7402e-11
1.96746e-10
2.4615e-11
2.40968e-10
4.21279e-11
2.74879e-10
5.80506e-11
2.85426e-10
4.78365e-11
2.95337e-10
5.39302e-11
3.20892e-10
6.5114e-11
3.31158e-10
5.38178e-11
3.38685e-10
5.5985e-11
3.65564e-10
6.77166e-11
3.72996e-10
5.37201e-11
3.84869e-10
6.64306e-11
4.17902e-10
8.71352e-11
4.35303e-10
8.65618e-11
4.51409e-10
1.10044e-10
5.02404e-10
1.60484e-10
5.23516e-10
1.75459e-10
5.34497e-10
2.1024e-10
5.30162e-10
2.51235e-10
5.28413e-10
3.4325e-10
4.01932e-10
3.92255e-10
1.15087e-10
4.01121e-10
-7.04908e-10
2.01415e-09
-2.58654e-09
-4.1853e-10
-1.66022e-09
-1.19282e-09
-8.87642e-10
-7.04322e-10
-3.89098e-10
-3.83467e-10
-1.00132e-10
-1.67723e-10
2.37079e-11
-1.09572e-10
8.60589e-11
-7.03986e-11
1.29505e-10
-3.74892e-11
1.967e-10
2.45128e-11
2.40905e-10
4.20092e-11
2.74791e-10
5.79074e-11
2.85438e-10
4.78126e-11
2.95345e-10
5.38616e-11
3.20819e-10
6.49906e-11
3.3118e-10
5.38355e-11
3.387e-10
5.59442e-11
3.65497e-10
6.76256e-11
3.73032e-10
5.37761e-11
3.84884e-10
6.64306e-11
4.17801e-10
8.70685e-11
4.35297e-10
8.66914e-11
4.51375e-10
1.10065e-10
5.02216e-10
1.60457e-10
5.23394e-10
1.75628e-10
5.3433e-10
2.10469e-10
5.30101e-10
2.51528e-10
5.28526e-10
3.43839e-10
4.02724e-10
3.93718e-10
1.17818e-10
3.97708e-10
-7.23354e-10
2.02609e-09
-2.56398e-09
-4.27464e-10
-1.6681e-09
-1.1987e-09
-8.8875e-10
-7.0351e-10
-3.88858e-10
-3.8311e-10
-1.0021e-10
-1.67747e-10
2.37413e-11
-1.09565e-10
8.60244e-11
-7.0462e-11
1.29544e-10
-3.7551e-11
1.96635e-10
2.44275e-11
2.40824e-10
4.19009e-11
2.7467e-10
5.77681e-11
2.85438e-10
4.7819e-11
2.95341e-10
5.3813e-11
3.20711e-10
6.48709e-11
3.31186e-10
5.38898e-11
3.38702e-10
5.59252e-11
3.65395e-10
6.75452e-11
3.73055e-10
5.38738e-11
3.84885e-10
6.64572e-11
4.17656e-10
8.70065e-11
4.3527e-10
8.68666e-11
4.51323e-10
1.10101e-10
5.01976e-10
1.60426e-10
5.23245e-10
1.75818e-10
5.34146e-10
2.10713e-10
5.30074e-10
2.5181e-10
5.28743e-10
3.44395e-10
4.03899e-10
3.95122e-10
1.21775e-10
3.92794e-10
-7.42796e-10
2.04061e-09
-2.54424e-09
-4.36165e-10
-1.67539e-09
-1.20558e-09
-8.89854e-10
-7.02517e-10
-3.88503e-10
-3.8267e-10
-1.00288e-10
-1.67752e-10
2.37866e-11
-1.09535e-10
8.59923e-11
-7.05085e-11
1.29593e-10
-3.75993e-11
1.96554e-10
2.43511e-11
2.40728e-10
4.17942e-11
2.74522e-10
5.76261e-11
2.85429e-10
4.7846e-11
2.9533e-10
5.37761e-11
3.20574e-10
6.47482e-11
3.31182e-10
5.39709e-11
3.38696e-10
5.59187e-11
3.65268e-10
6.74688e-11
3.73071e-10
5.40026e-11
3.84879e-10
6.65013e-11
4.17478e-10
8.69426e-11
4.3523e-10
8.7077e-11
4.51262e-10
1.10143e-10
5.01695e-10
1.60386e-10
5.23073e-10
1.76022e-10
5.33949e-10
2.10968e-10
5.30077e-10
2.52082e-10
5.29053e-10
3.44913e-10
4.05444e-10
3.9641e-10
1.27053e-10
3.86268e-10
-7.61965e-10
2.05684e-09
-2.52937e-09
-4.43765e-10
-1.68143e-09
-1.21331e-09
-8.90905e-10
-7.01357e-10
-3.8804e-10
-3.82172e-10
-1.00373e-10
-1.67751e-10
2.38349e-11
-1.09493e-10
8.59577e-11
-7.05455e-11
1.29645e-10
-3.76403e-11
1.96456e-10
2.4281e-11
2.40619e-10
4.16851e-11
2.74349e-10
5.74796e-11
2.85411e-10
4.78896e-11
2.95313e-10
5.37484e-11
3.20411e-10
6.46222e-11
3.31166e-10
5.40754e-11
3.38683e-10
5.59226e-11
3.65117e-10
6.73968e-11
3.7308e-10
5.41593e-11
3.84865e-10
6.65618e-11
4.17269e-10
8.68786e-11
4.35174e-10
8.73203e-11
4.5119e-10
1.10192e-10
5.01372e-10
1.60343e-10
5.22873e-10
1.76243e-10
5.33736e-10
2.1124e-10
5.30102e-10
2.52346e-10
5.29441e-10
3.45392e-10
4.07352e-10
3.97507e-10
1.33778e-10
3.77931e-10
-7.79586e-10
2.07414e-09
-2.52124e-09
-4.49659e-10
-1.68553e-09
-1.22173e-09
-8.91847e-10
-7.00033e-10
-3.87467e-10
-3.81632e-10
-1.00474e-10
-1.67753e-10
2.38769e-11
-1.09447e-10
8.5915e-11
-7.05772e-11
1.29694e-10
-3.76782e-11
1.96335e-10
2.42154e-11
2.40493e-10
4.15721e-11
2.74148e-10
5.73292e-11
2.85381e-10
4.79482e-11
2.95287e-10
5.37297e-11
3.20221e-10
6.44947e-11
3.31137e-10
5.42026e-11
3.38662e-10
5.59374e-11
3.6494e-10
6.73322e-11
3.73077e-10
5.43442e-11
3.84841e-10
6.66409e-11
4.17026e-10
8.68194e-11
4.35097e-10
8.75981e-11
4.51102e-10
1.10251e-10
5.01003e-10
1.60306e-10
5.22639e-10
1.76487e-10
5.33496e-10
2.11535e-10
5.30135e-10
2.5261e-10
5.29893e-10
3.45823e-10
4.09627e-10
3.98321e-10
1.42093e-10
3.67529e-10
-7.94513e-10
2.09212e-09
-2.52157e-09
-4.53462e-10
-1.68707e-09
-1.23064e-09
-8.92618e-10
-6.9854e-10
-3.86784e-10
-3.81062e-10
-1.00598e-10
-1.67764e-10
2.39047e-11
-1.09404e-10
8.58582e-11
-7.06078e-11
1.29735e-10
-3.77161e-11
1.96189e-10
2.41529e-11
2.40348e-10
4.14539e-11
2.73917e-10
5.71753e-11
2.85333e-10
4.80206e-11
2.95248e-10
5.37203e-11
3.20002e-10
6.43681e-11
3.3109e-10
5.43522e-11
3.38627e-10
5.59646e-11
3.64737e-10
6.72786e-11
3.73058e-10
5.4558e-11
3.84801e-10
6.67416e-11
4.16748e-10
8.67708e-11
4.34993e-10
8.79127e-11
4.50992e-10
1.10327e-10
5.00582e-10
1.60284e-10
5.22362e-10
1.7676e-10
5.33221e-10
2.11861e-10
5.30163e-10
2.5288e-10
5.30397e-10
3.46196e-10
4.12278e-10
3.98754e-10
1.52153e-10
3.54822e-10
-8.05765e-10
2.11055e-09
-2.5318e-09
-4.54996e-10
-1.68547e-09
-1.23987e-09
-8.93157e-10
-6.96866e-10
-3.85983e-10
-3.80471e-10
-1.00746e-10
-1.67792e-10
2.39118e-11
-1.09369e-10
8.57829e-11
-7.06409e-11
1.29763e-10
-3.77571e-11
1.96012e-10
2.40916e-11
2.40183e-10
4.13294e-11
2.73655e-10
5.70184e-11
2.85266e-10
4.81054e-11
2.95193e-10
5.37203e-11
3.19754e-10
6.42445e-11
3.31022e-10
5.45241e-11
3.38578e-10
5.60053e-11
3.64504e-10
6.72391e-11
3.73018e-10
5.48018e-11
3.84741e-10
6.68665e-11
4.1643e-10
8.67381e-11
4.34856e-10
8.82666e-11
4.50854e-10
1.10425e-10
5.00103e-10
1.60285e-10
5.22032e-10
1.77069e-10
5.329e-10
2.12226e-10
5.30175e-10
2.53158e-10
5.30945e-10
3.46493e-10
4.15323e-10
3.98695e-10
1.64113e-10
3.39571e-10
-8.12572e-10
2.12942e-09
-2.55314e-09
-4.54239e-10
-1.68023e-09
-1.24923e-09
-8.93408e-10
-6.94993e-10
-3.85059e-10
-3.79864e-10
-1.00923e-10
-1.6784e-10
2.38931e-11
-1.09348e-10
8.56847e-11
-7.06791e-11
1.29771e-10
-3.78033e-11
1.95802e-10
2.403e-11
2.39993e-10
4.11978e-11
2.73359e-10
5.6859e-11
2.85176e-10
4.82017e-11
2.95119e-10
5.37302e-11
3.19476e-10
6.41258e-11
3.30929e-10
5.4718e-11
3.38509e-10
5.60611e-11
3.6424e-10
6.7217e-11
3.72954e-10
5.50769e-11
3.84656e-10
6.70189e-11
4.16071e-10
8.67268e-11
4.3468e-10
8.86625e-11
4.50679e-10
1.10552e-10
4.99561e-10
1.60318e-10
5.2164e-10
1.77419e-10
5.32525e-10
2.12634e-10
5.30159e-10
2.53446e-10
5.31531e-10
3.46694e-10
4.18787e-10
3.98032e-10
1.78121e-10
3.21568e-10
-8.14339e-10
2.14884e-09
-2.58655e-09
-4.51312e-10
-1.67092e-09
-1.25854e-09
-8.93323e-10
-6.92903e-10
-3.84001e-10
-3.7924e-10
-1.01127e-10
-1.67911e-10
2.38448e-11
-1.09342e-10
8.55607e-11
-7.07242e-11
1.29757e-10
-3.78561e-11
1.95555e-10
2.39665e-11
2.39777e-10
4.10585e-11
2.73028e-10
5.66974e-11
2.85058e-10
4.83087e-11
2.95023e-10
5.37506e-11
3.19164e-10
6.40142e-11
3.30809e-10
5.49342e-11
3.38418e-10
5.61339e-11
3.63941e-10
6.72155e-11
3.72859e-10
5.53848e-11
3.84542e-10
6.7202e-11
4.15665e-10
8.67423e-11
4.34458e-10
8.91034e-11
4.50462e-10
1.10712e-10
4.98947e-10
1.6039e-10
5.21178e-10
1.77816e-10
5.32087e-10
2.13091e-10
5.30107e-10
2.53742e-10
5.32156e-10
3.46771e-10
4.227e-10
3.96654e-10
1.94308e-10
3.00645e-10
-8.10663e-10
2.16902e-09
-2.63272e-09
-4.46431e-10
-1.65716e-09
-1.26763e-09
-8.92866e-10
-6.90576e-10
-3.82804e-10
-3.78597e-10
-1.01357e-10
-1.68004e-10
2.37644e-11
-1.09353e-10
8.54082e-11
-7.07772e-11
1.29716e-10
-3.79161e-11
1.95269e-10
2.39003e-11
2.39531e-10
4.09114e-11
2.7266e-10
5.65345e-11
2.84911e-10
4.8426e-11
2.94902e-10
5.37824e-11
3.18818e-10
6.39119e-11
3.30656e-10
5.51732e-11
3.383e-10
5.62259e-11
3.63604e-10
6.72379e-11
3.72729e-10
5.57276e-11
3.84392e-10
6.74195e-11
4.1521e-10
8.67901e-11
4.34184e-10
8.95926e-11
4.50195e-10
1.10913e-10
4.98257e-10
1.60508e-10
5.20638e-10
1.78265e-10
5.31577e-10
2.13598e-10
5.30012e-10
2.54042e-10
5.32823e-10
3.46695e-10
4.27094e-10
3.94457e-10
2.12782e-10
2.76687e-10
-8.01302e-10
2.19021e-09
-2.69209e-09
-4.39905e-10
-1.63865e-09
-1.27634e-09
-8.92009e-10
-6.87996e-10
-3.8146e-10
-3.77935e-10
-1.01613e-10
-1.6812e-10
2.36501e-11
-1.09384e-10
8.52251e-11
-7.08381e-11
1.29645e-10
-3.79835e-11
1.94942e-10
2.38306e-11
2.39255e-10
4.07569e-11
2.72252e-10
5.63713e-11
2.84731e-10
4.85535e-11
2.94753e-10
5.38267e-11
3.18436e-10
6.38211e-11
3.30467e-10
5.54357e-11
3.38153e-10
5.63392e-11
3.63227e-10
6.72876e-11
3.7256e-10
5.61073e-11
3.84203e-10
6.7675e-11
4.14701e-10
8.68753e-11
4.33851e-10
9.01332e-11
4.49871e-10
1.11159e-10
4.97483e-10
1.60679e-10
5.20011e-10
1.78769e-10
5.30991e-10
2.14158e-10
5.2987e-10
2.5434e-10
5.33538e-10
3.46436e-10
4.31998e-10
3.91345e-10
2.33626e-10
2.49624e-10
-7.86181e-10
2.21272e-09
-2.76488e-09
-4.32106e-10
-1.61515e-09
-1.28451e-09
-8.90737e-10
-6.85149e-10
-3.79966e-10
-3.77248e-10
-1.01892e-10
-1.68258e-10
2.35005e-11
-1.09432e-10
8.50099e-11
-7.09067e-11
1.29541e-10
-3.8058e-11
1.9457e-10
2.3757e-11
2.38944e-10
4.05955e-11
2.71804e-10
5.62087e-11
2.84515e-10
4.86914e-11
2.94572e-10
5.38846e-11
3.18014e-10
6.3744e-11
3.3024e-10
5.57224e-11
3.37972e-10
5.64762e-11
3.62806e-10
6.73678e-11
3.72347e-10
5.65261e-11
3.83968e-10
6.79721e-11
4.14134e-10
8.7003e-11
4.33453e-10
9.07283e-11
4.49484e-10
1.11457e-10
4.9662e-10
1.60908e-10
5.19293e-10
1.7933e-10
5.30321e-10
2.1477e-10
5.29678e-10
2.54628e-10
5.34307e-10
3.45963e-10
4.37439e-10
3.87236e-10
2.56893e-10
2.19447e-10
-7.65338e-10
2.23685e-09
-2.8511e-09
-4.23468e-10
-1.58646e-09
-1.292e-09
-8.8904e-10
-6.82025e-10
-3.7832e-10
-3.76536e-10
-1.02193e-10
-1.68416e-10
2.33148e-11
-1.09498e-10
8.47613e-11
-7.09821e-11
1.29402e-10
-3.81388e-11
1.94153e-10
2.36796e-11
2.38598e-10
4.0428e-11
2.71312e-10
5.6048e-11
2.84259e-10
4.88399e-11
2.94357e-10
5.39576e-11
3.17553e-10
6.36831e-11
3.2997e-10
5.60346e-11
3.37753e-10
5.66396e-11
3.62338e-10
6.74818e-11
3.72084e-10
5.69864e-11
3.83683e-10
6.83144e-11
4.13505e-10
8.71781e-11
4.32985e-10
9.13807e-11
4.49026e-10
1.11811e-10
4.95663e-10
1.61201e-10
5.18476e-10
1.79952e-10
5.29565e-10
2.15434e-10
5.29433e-10
2.54896e-10
5.35138e-10
3.45249e-10
4.43442e-10
3.82065e-10
2.82599e-10
1.8619e-10
-7.38929e-10
2.26292e-09
-2.95058e-09
-4.14454e-10
-1.55246e-09
-1.29867e-09
-8.86918e-10
-6.78616e-10
-3.76521e-10
-3.75793e-10
-1.02516e-10
-1.68594e-10
2.30921e-11
-1.09581e-10
8.44781e-11
-7.10631e-11
1.29227e-10
-3.82246e-11
1.93689e-10
2.35986e-11
2.38213e-10
4.02556e-11
2.70777e-10
5.58904e-11
2.83962e-10
4.89996e-11
2.94104e-10
5.40471e-11
3.17049e-10
6.36407e-11
3.29654e-10
5.63732e-11
3.37493e-10
5.68318e-11
3.61819e-10
6.76326e-11
3.71769e-10
5.74906e-11
3.83344e-10
6.87054e-11
4.1281e-10
8.74051e-11
4.32441e-10
9.20933e-11
4.48492e-10
1.12226e-10
4.94606e-10
1.61559e-10
5.17556e-10
1.80634e-10
5.28718e-10
2.16146e-10
5.29135e-10
2.55137e-10
5.36039e-10
3.44268e-10
4.50021e-10
3.75778e-10
3.10733e-10
1.49946e-10
-7.072e-10
2.29118e-09
-3.06291e-09
-4.05561e-10
-1.51309e-09
-1.30438e-09
-8.84375e-10
-6.7492e-10
-3.74573e-10
-3.75018e-10
-1.02859e-10
-1.6879e-10
2.28318e-11
-1.0968e-10
8.41594e-11
-7.11484e-11
1.29013e-10
-3.83143e-11
1.93177e-10
2.35143e-11
2.37789e-10
4.00796e-11
2.70195e-10
5.57376e-11
2.83621e-10
4.91713e-11
2.9381e-10
5.41549e-11
3.165e-10
6.36189e-11
3.29289e-10
5.67396e-11
3.37189e-10
5.70553e-11
3.61247e-10
6.78233e-11
3.71396e-10
5.80409e-11
3.82945e-10
6.91483e-11
4.12046e-10
8.76879e-11
4.31817e-10
9.28685e-11
4.47877e-10
1.12705e-10
4.93447e-10
1.61988e-10
5.1653e-10
1.81378e-10
5.27778e-10
2.16906e-10
5.28784e-10
2.55342e-10
5.37014e-10
3.42999e-10
4.57185e-10
3.68345e-10
3.41249e-10
1.10852e-10
-6.70505e-10
2.32191e-09
-3.18757e-09
-3.97294e-10
-1.46833e-09
-1.309e-09
-8.81423e-10
-6.70935e-10
-3.72479e-10
-3.7421e-10
-1.03222e-10
-1.69003e-10
2.25328e-11
-1.09793e-10
8.38041e-11
-7.12367e-11
1.28759e-10
-3.84065e-11
1.92615e-10
2.34273e-11
2.37323e-10
3.99013e-11
2.69566e-10
5.55909e-11
2.83234e-10
4.93558e-11
2.93473e-10
5.42822e-11
3.15904e-10
6.36203e-11
3.28872e-10
5.71349e-11
3.36836e-10
5.73128e-11
3.60619e-10
6.80567e-11
3.70962e-10
5.86394e-11
3.82482e-10
6.96461e-11
4.11209e-10
8.80307e-11
4.31107e-10
9.37083e-11
4.47175e-10
1.13253e-10
4.9218e-10
1.62488e-10
5.15394e-10
1.82184e-10
5.26743e-10
2.17708e-10
5.2838e-10
2.55503e-10
5.38069e-10
3.41425e-10
4.64936e-10
3.59747e-10
3.74072e-10
6.91002e-11
-6.2925e-10
2.3553e-09
-3.32385e-09
-3.90185e-10
-1.41822e-09
-1.31239e-09
-8.78071e-10
-6.66666e-10
-3.70242e-10
-3.73367e-10
-1.03607e-10
-1.69233e-10
2.21942e-11
-1.09919e-10
8.34114e-11
-7.13265e-11
1.28464e-10
-3.84997e-11
1.92002e-10
2.33382e-11
2.36815e-10
3.97224e-11
2.68888e-10
5.54518e-11
2.82798e-10
4.95539e-11
2.9309e-10
5.44309e-11
3.1526e-10
6.36469e-11
3.28401e-10
5.75605e-11
3.36431e-10
5.76065e-11
3.59931e-10
6.83354e-11
3.70464e-10
5.92883e-11
3.81951e-10
7.02018e-11
4.10295e-10
8.84367e-11
4.30309e-10
9.46147e-11
4.46382e-10
1.13872e-10
4.90804e-10
1.63063e-10
5.14145e-10
1.83051e-10
5.25611e-10
2.18552e-10
5.27923e-10
2.55613e-10
5.39207e-10
3.39533e-10
4.73267e-10
3.49988e-10
4.09092e-10
2.4916e-11
-5.83902e-10
2.39151e-09
-3.47091e-09
-3.84752e-10
-1.36288e-09
-1.31445e-09
-8.74337e-10
-6.62117e-10
-3.6787e-10
-3.72486e-10
-1.04013e-10
-1.69478e-10
2.18154e-11
-1.10058e-10
8.29803e-11
-7.14164e-11
1.28126e-10
-3.85922e-11
1.91339e-10
2.32477e-11
2.36261e-10
3.95443e-11
2.68161e-10
5.53218e-11
2.82312e-10
4.97668e-11
2.9266e-10
5.46024e-11
3.14567e-10
6.37009e-11
3.27873e-10
5.80177e-11
3.35972e-10
5.79389e-11
3.59182e-10
6.86619e-11
3.69898e-10
5.99896e-11
3.8135e-10
7.0818e-11
4.09303e-10
8.89091e-11
4.29418e-10
9.55894e-11
4.45494e-10
1.14564e-10
4.89316e-10
1.63713e-10
5.12782e-10
1.83978e-10
5.24381e-10
2.19433e-10
5.27412e-10
2.55668e-10
5.40428e-10
3.37316e-10
4.82162e-10
3.39086e-10
4.46164e-10
-2.14254e-11
-5.34961e-10
2.43064e-09
-3.62776e-09
-3.81502e-10
-1.30248e-09
-1.31506e-09
-8.70239e-10
-6.57298e-10
-3.65369e-10
-3.71566e-10
-1.0444e-10
-1.69738e-10
2.13952e-11
-1.10207e-10
8.25098e-11
-7.15049e-11
1.27744e-10
-3.86828e-11
1.90624e-10
2.31564e-11
2.35662e-10
3.93686e-11
2.67383e-10
5.52024e-11
2.81774e-10
4.99953e-11
2.92179e-10
5.47983e-11
3.13821e-10
6.37842e-11
3.27286e-10
5.85077e-11
3.35456e-10
5.8312e-11
3.58368e-10
6.90384e-11
3.69262e-10
6.07451e-11
3.80674e-10
7.14968e-11
4.0823e-10
8.94506e-11
4.28432e-10
9.66338e-11
4.44508e-10
1.15333e-10
4.87713e-10
1.64439e-10
5.11303e-10
1.84965e-10
5.23052e-10
2.2035e-10
5.26847e-10
2.55662e-10
5.41729e-10
3.34771e-10
4.91598e-10
3.27078e-10
4.85122e-10
-6.96104e-11
-4.82995e-10
2.47273e-09
-3.79329e-09
-3.8091e-10
-1.23722e-09
-1.3141e-09
-8.65796e-10
-6.52223e-10
-3.62745e-10
-3.70606e-10
-1.0489e-10
-1.70012e-10
2.09329e-11
-1.10366e-10
8.19989e-11
-7.15909e-11
1.27318e-10
-3.87702e-11
1.89856e-10
2.30649e-11
2.35016e-10
3.91967e-11
2.66552e-10
5.50949e-11
2.81183e-10
5.02405e-11
2.91646e-10
5.50198e-11
3.13022e-10
6.38988e-11
3.26638e-10
5.90315e-11
3.3488e-10
5.87279e-11
3.57489e-10
6.94669e-11
3.68553e-10
6.15565e-11
3.79921e-10
7.22404e-11
4.07073e-10
9.00638e-11
4.27349e-10
9.7749e-11
4.4342e-10
1.1618e-10
4.85994e-10
1.65242e-10
5.09707e-10
1.86012e-10
5.21623e-10
2.21299e-10
5.26227e-10
2.55594e-10
5.43107e-10
3.319e-10
5.01541e-10
3.14019e-10
5.25766e-10
-1.19283e-10
-4.28579e-10
2.51773e-09
-3.96631e-09
-3.83457e-10
-1.1674e-09
-1.31147e-09
-8.61025e-10
-6.46904e-10
-3.60006e-10
-3.69604e-10
-1.05363e-10
-1.703e-10
2.04278e-11
-1.10533e-10
8.14472e-11
-7.1673e-11
1.26846e-10
-3.88529e-11
1.89035e-10
2.29739e-11
2.34322e-10
3.90302e-11
2.65669e-10
5.50007e-11
2.80537e-10
5.05033e-11
2.91059e-10
5.52684e-11
3.12169e-10
6.40465e-11
3.25927e-10
5.95905e-11
3.34242e-10
5.91886e-11
3.56541e-10
6.99493e-11
3.67769e-10
6.24253e-11
3.79087e-10
7.30506e-11
4.05831e-10
9.07508e-11
4.26166e-10
9.8936e-11
4.42227e-10
1.17107e-10
4.84157e-10
1.66123e-10
5.07993e-10
1.87117e-10
5.20093e-10
2.22279e-10
5.25549e-10
2.5546e-10
5.44555e-10
3.28712e-10
5.1195e-10
2.99979e-10
5.67869e-10
-1.70069e-10
-3.72305e-10
2.56556e-09
-4.14553e-09
-3.89584e-10
-1.09331e-09
-1.30708e-09
-8.55945e-10
-6.41358e-10
-3.57159e-10
-3.68557e-10
-1.05857e-10
-1.70598e-10
1.98798e-11
-1.10707e-10
8.08539e-11
-7.17499e-11
1.26328e-10
-3.89296e-11
1.88161e-10
2.28838e-11
2.33578e-10
3.88705e-11
2.64733e-10
5.49209e-11
2.79834e-10
5.07847e-11
2.90416e-10
5.55452e-11
3.1126e-10
6.42288e-11
3.25152e-10
6.01855e-11
3.33539e-10
5.96957e-11
3.55523e-10
7.04872e-11
3.66908e-10
6.3353e-11
3.78172e-10
7.3929e-11
4.04501e-10
9.15136e-11
4.2488e-10
1.00196e-10
4.40928e-10
1.18115e-10
4.82202e-10
1.67081e-10
5.06159e-10
1.88279e-10
5.18461e-10
2.23288e-10
5.24813e-10
2.55263e-10
5.46064e-10
3.25218e-10
5.22775e-10
2.85046e-10
6.11175e-10
-2.21561e-10
-3.14755e-10
2.61604e-09
-4.32956e-09
-3.99685e-10
-1.01536e-09
-1.30084e-09
-8.50574e-10
-6.35608e-10
-3.54214e-10
-3.67464e-10
-1.06373e-10
-1.70908e-10
1.92885e-11
-1.10886e-10
8.02186e-11
-7.18202e-11
1.25763e-10
-3.89991e-11
1.87233e-10
2.27953e-11
2.32784e-10
3.87189e-11
2.63741e-10
5.48568e-11
2.79075e-10
5.10856e-11
2.89716e-10
5.58513e-11
3.10294e-10
6.44474e-11
3.24311e-10
6.08177e-11
3.3277e-10
6.02507e-11
3.54434e-10
7.10821e-11
3.65967e-10
6.43408e-11
3.77172e-10
7.48769e-11
4.03083e-10
9.23539e-11
4.23492e-10
1.01529e-10
4.39519e-10
1.19205e-10
4.80126e-10
1.68116e-10
5.04206e-10
1.89499e-10
5.16725e-10
2.24324e-10
5.24015e-10
2.55002e-10
5.47621e-10
3.21436e-10
5.33958e-10
2.69324e-10
6.55412e-10
-2.73323e-10
-2.56548e-10
2.66894e-09
-4.51695e-09
-4.14099e-10
-9.33961e-10
-1.29267e-09
-8.44929e-10
-6.29676e-10
-3.51177e-10
-3.66324e-10
-1.0691e-10
-1.71226e-10
1.86539e-11
-1.11068e-10
7.9541e-11
-7.18828e-11
1.25151e-10
-3.90606e-11
1.8625e-10
2.27088e-11
2.3194e-10
3.85767e-11
2.62695e-10
5.48094e-11
2.78258e-10
5.14067e-11
2.88957e-10
5.61877e-11
3.09271e-10
6.47035e-11
3.23403e-10
6.14878e-11
3.31934e-10
6.08551e-11
3.53272e-10
7.17353e-11
3.64947e-10
6.53897e-11
3.76086e-10
7.58955e-11
4.01575e-10
9.32731e-11
4.21999e-10
1.02936e-10
4.38e-10
1.20378e-10
4.77931e-10
1.69228e-10
5.02133e-10
1.90774e-10
5.14885e-10
2.25386e-10
5.23151e-10
2.54682e-10
5.49213e-10
3.17389e-10
5.45433e-10
2.52928e-10
7.00285e-10
-3.24893e-10
-1.98284e-10
2.7239e-09
-4.70621e-09
-4.33167e-10
-8.49574e-10
-1.28249e-09
-8.39022e-10
-6.23584e-10
-3.48056e-10
-3.65132e-10
-1.07467e-10
-1.71552e-10
1.79765e-11
-1.11253e-10
7.88212e-11
-7.19362e-11
1.24493e-10
-3.91126e-11
1.85214e-10
2.26247e-11
2.31043e-10
3.84451e-11
2.61594e-10
5.47797e-11
2.77382e-10
5.17488e-11
2.88139e-10
5.65551e-11
3.08189e-10
6.49984e-11
3.22427e-10
6.21968e-11
3.31028e-10
6.15101e-11
3.52036e-10
7.24478e-11
3.63845e-10
6.65008e-11
3.74912e-10
7.69855e-11
3.99976e-10
9.42724e-11
4.204e-10
1.04418e-10
4.36368e-10
1.21634e-10
4.75614e-10
1.70417e-10
4.99939e-10
1.92104e-10
5.1294e-10
2.26473e-10
5.22218e-10
2.54306e-10
5.50821e-10
3.13104e-10
5.57125e-10
2.3599e-10
7.45477e-10
-3.75813e-10
-1.40539e-10
2.78059e-09
-4.89584e-09
-4.5718e-10
-7.62699e-10
-1.27023e-09
-8.32861e-10
-6.17358e-10
-3.4486e-10
-3.63886e-10
-1.08042e-10
-1.71883e-10
1.72573e-11
-1.11439e-10
7.80595e-11
-7.19791e-11
1.23787e-10
-3.91541e-11
1.84124e-10
2.25435e-11
2.30094e-10
3.83252e-11
2.60436e-10
5.47685e-11
2.76447e-10
5.21128e-11
2.87261e-10
5.69543e-11
3.07048e-10
6.53333e-11
3.21383e-10
6.29452e-11
3.30051e-10
6.22168e-11
3.50725e-10
7.32206e-11
3.62661e-10
6.7675e-11
3.7365e-10
7.81477e-11
3.98285e-10
9.53528e-11
4.18696e-10
1.05974e-10
4.34624e-10
1.22975e-10
4.73177e-10
1.71682e-10
4.97626e-10
1.93489e-10
5.10889e-10
2.27585e-10
5.21211e-10
2.53881e-10
5.52426e-10
3.08612e-10
5.68953e-10
2.1865e-10
7.90656e-10
-4.25607e-10
-8.38598e-11
2.83857e-09
-5.08425e-09
-4.8636e-10
-6.73882e-10
-1.25583e-09
-8.26454e-10
-6.11027e-10
-3.41597e-10
-3.62583e-10
-1.08633e-10
-1.72217e-10
1.64968e-11
-1.11622e-10
7.72561e-11
-7.20101e-11
1.23035e-10
-3.91841e-11
1.8298e-10
2.24656e-11
2.29092e-10
3.82183e-11
2.59222e-10
5.47768e-11
2.75451e-10
5.24993e-11
2.86321e-10
5.73859e-11
3.05847e-10
6.5709e-11
3.20269e-10
6.37339e-11
3.29002e-10
6.29762e-11
3.49338e-10
7.40544e-11
3.61393e-10
6.8913e-11
3.72298e-10
7.93827e-11
3.96502e-10
9.65152e-11
4.16884e-10
1.07605e-10
4.32765e-10
1.24399e-10
4.70619e-10
1.73022e-10
4.95192e-10
1.94928e-10
5.0873e-10
2.28723e-10
5.20125e-10
2.53413e-10
5.54007e-10
3.0395e-10
5.80831e-10
2.01062e-10
8.3548e-10
-4.73784e-10
-2.88024e-11
2.89733e-09
-5.26985e-09
-5.20865e-10
-5.8369e-10
-1.23925e-09
-8.19807e-10
-6.04619e-10
-3.38273e-10
-3.6122e-10
-1.09239e-10
-1.72552e-10
1.56965e-11
-1.11803e-10
7.64117e-11
-7.20277e-11
1.22237e-10
-3.92017e-11
1.81782e-10
2.23915e-11
2.28038e-10
3.81252e-11
2.57952e-10
5.48052e-11
2.74396e-10
5.29088e-11
2.85319e-10
5.78503e-11
3.04586e-10
6.61266e-11
3.19086e-10
6.45634e-11
3.27881e-10
6.37889e-11
3.47876e-10
7.49499e-11
3.60041e-10
7.02153e-11
3.70855e-10
8.06906e-11
3.94626e-10
9.77603e-11
4.14966e-10
1.0931e-10
4.30791e-10
1.25907e-10
4.6794e-10
1.74436e-10
4.92638e-10
1.96419e-10
5.06461e-10
2.29885e-10
5.18953e-10
2.52911e-10
5.5554e-10
2.99155e-10
5.92666e-10
1.83386e-10
8.79599e-10
-5.19849e-10
2.41062e-11
2.95629e-09
-5.45108e-09
-5.60864e-10
-4.9272e-10
-1.22044e-09
-8.12915e-10
-5.98161e-10
-3.34897e-10
-3.59792e-10
-1.09855e-10
-1.72885e-10
1.4858e-11
-1.11977e-10
7.55273e-11
-7.20306e-11
1.21393e-10
-3.92057e-11
1.80531e-10
2.23214e-11
2.2693e-10
3.80471e-11
2.56624e-10
5.48545e-11
2.7328e-10
5.33421e-11
2.84254e-10
5.83481e-11
3.03264e-10
6.65868e-11
3.17832e-10
6.54341e-11
3.26686e-10
6.46557e-11
3.46336e-10
7.59076e-11
3.58605e-10
7.15825e-11
3.69321e-10
8.20717e-11
3.92657e-10
9.90882e-11
4.12941e-10
1.11091e-10
4.28703e-10
1.27498e-10
4.65141e-10
1.75923e-10
4.89965e-10
1.97963e-10
5.04082e-10
2.31074e-10
5.1769e-10
2.52384e-10
5.56997e-10
2.9427e-10
6.0436e-10
1.6579e-10
9.22653e-10
-5.63324e-10
7.43872e-11
3.01489e-09
-5.62641e-09
-6.06476e-10
-4.01577e-10
-1.19935e-09
-8.05771e-10
-5.91681e-10
-3.31474e-10
-3.58295e-10
-1.10478e-10
-1.73212e-10
1.39836e-11
-1.12144e-10
7.46042e-11
-7.20172e-11
1.20506e-10
-3.91948e-11
1.79227e-10
2.22555e-11
2.25769e-10
3.79851e-11
2.55241e-10
5.49252e-11
2.72103e-10
5.37996e-11
2.83126e-10
5.88794e-11
3.01881e-10
6.70902e-11
3.16507e-10
6.63467e-11
3.25417e-10
6.55772e-11
3.44719e-10
7.69277e-11
3.57084e-10
7.3015e-11
3.67696e-10
8.35258e-11
3.90595e-10
1.00499e-10
4.10809e-10
1.12945e-10
4.265e-10
1.29173e-10
4.62223e-10
1.77482e-10
4.87172e-10
1.99559e-10
5.01592e-10
2.32289e-10
5.16329e-10
2.51843e-10
5.58351e-10
2.89342e-10
6.15813e-10
1.48445e-10
9.64274e-10
-6.03737e-10
1.21608e-10
3.07252e-09
-5.79433e-09
-6.57752e-10
-3.109e-10
-1.17596e-09
-7.98366e-10
-5.8521e-10
-3.2801e-10
-3.56724e-10
-1.11105e-10
-1.73531e-10
1.30752e-11
-1.12301e-10
7.36435e-11
-7.19861e-11
1.19576e-10
-3.91682e-11
1.77871e-10
2.21943e-11
2.24554e-10
3.794e-11
2.538e-10
5.5018e-11
2.70866e-10
5.4282e-11
2.81936e-10
5.94446e-11
3.00438e-10
6.76375e-11
3.15112e-10
6.73014e-11
3.24073e-10
6.65539e-11
3.43025e-10
7.80105e-11
3.55479e-10
7.45131e-11
3.65979e-10
8.50528e-11
3.8844e-10
1.01994e-10
4.0857e-10
1.14874e-10
4.24183e-10
1.3093e-10
4.59185e-10
1.79111e-10
4.84261e-10
2.01206e-10
4.98987e-10
2.33533e-10
5.14861e-10
2.513e-10
5.59573e-10
2.84416e-10
6.2692e-10
1.31528e-10
1.0041e-09
-6.4061e-10
1.65332e-10
3.12849e-09
-5.95319e-09
-7.14688e-10
-2.21331e-10
-1.15024e-09
-7.90686e-10
-5.78775e-10
-3.24513e-10
-3.55074e-10
-1.11731e-10
-1.73839e-10
1.21355e-11
-1.12447e-10
7.26466e-11
-7.19357e-11
1.18604e-10
-3.9125e-11
1.76464e-10
2.2138e-11
2.23287e-10
3.79128e-11
2.52302e-10
5.51333e-11
2.69568e-10
5.47896e-11
2.80682e-10
6.00439e-11
2.98933e-10
6.82292e-11
3.13646e-10
6.82985e-11
3.22656e-10
6.75859e-11
3.41253e-10
7.9156e-11
3.53788e-10
7.60768e-11
3.64171e-10
8.66523e-11
3.86192e-10
1.03571e-10
4.06225e-10
1.16875e-10
4.21752e-10
1.32769e-10
4.56029e-10
1.80809e-10
4.81231e-10
2.02903e-10
4.96267e-10
2.34807e-10
5.13279e-10
2.50766e-10
5.60631e-10
2.79541e-10
6.37577e-10
1.15216e-10
1.04177e-09
-6.73477e-10
2.05156e-10
3.1821e-09
-6.10159e-09
-7.77305e-10
-1.33515e-10
-1.12218e-09
-7.82709e-10
-5.72404e-10
-3.20985e-10
-3.5334e-10
-1.12352e-10
-1.74131e-10
1.11675e-11
-1.12577e-10
7.16156e-11
-7.18645e-11
1.17592e-10
-3.90637e-11
1.75005e-10
2.20866e-11
2.21966e-10
3.79044e-11
2.50749e-10
5.52716e-11
2.68209e-10
5.5323e-11
2.79365e-10
6.06772e-11
2.97367e-10
6.88656e-11
3.12109e-10
6.93383e-11
3.21163e-10
6.86738e-11
3.39403e-10
8.03642e-11
3.52013e-10
7.77062e-11
3.62271e-10
8.83237e-11
3.83852e-10
1.05231e-10
4.03775e-10
1.18949e-10
4.19208e-10
1.34687e-10
4.52756e-10
1.82574e-10
4.78084e-10
2.04651e-10
4.9343e-10
2.36112e-10
5.11575e-10
2.50256e-10
5.61493e-10
2.74768e-10
6.47676e-10
9.9684e-11
1.07694e-09
-7.01905e-10
2.40736e-10
3.23269e-09
-6.23816e-09
-8.45587e-10
-4.8091e-11
-1.09175e-09
-7.74406e-10
-5.66119e-10
-3.17431e-10
-3.51515e-10
-1.12961e-10
-1.74404e-10
1.0175e-11
-1.12691e-10
7.05527e-11
-7.17708e-11
1.16543e-10
-3.89827e-11
1.73497e-10
2.20403e-11
2.20593e-10
3.79159e-11
2.49138e-10
5.54331e-11
2.66791e-10
5.58826e-11
2.77985e-10
6.13448e-11
2.9574e-10
6.9547e-11
3.10502e-10
7.0421e-11
3.19596e-10
6.98175e-11
3.37475e-10
8.16347e-11
3.50153e-10
7.94013e-11
3.60281e-10
9.00666e-11
3.8142e-10
1.06974e-10
4.01221e-10
1.21095e-10
4.16553e-10
1.36686e-10
4.49367e-10
1.84404e-10
4.74819e-10
2.06449e-10
4.90473e-10
2.3745e-10
5.09739e-10
2.49784e-10
5.62127e-10
2.70145e-10
6.57114e-10
8.51038e-11
1.10924e-09
-7.2548e-10
2.71773e-10
3.27957e-09
-6.3615e-09
-9.19444e-10
3.42994e-11
-1.05896e-09
-7.6575e-10
-5.59947e-10
-3.13854e-10
-3.49593e-10
-1.13554e-10
-1.74654e-10
9.16125e-12
-1.12785e-10
6.94599e-11
-7.16532e-11
1.15457e-10
-3.88808e-11
1.71939e-10
2.19991e-11
2.19168e-10
3.79482e-11
2.47472e-10
5.56182e-11
2.65312e-10
5.64688e-11
2.76543e-10
6.20467e-11
2.94053e-10
7.02738e-11
3.08825e-10
7.15465e-11
3.17955e-10
7.10174e-11
3.35471e-10
8.29673e-11
3.48209e-10
8.11621e-11
3.582e-10
9.18801e-11
3.78897e-10
1.08798e-10
3.98563e-10
1.23311e-10
4.13787e-10
1.38763e-10
4.45862e-10
1.86297e-10
4.71438e-10
2.08297e-10
4.87395e-10
2.38823e-10
5.07763e-10
2.49362e-10
5.625e-10
2.65723e-10
6.65786e-10
7.16442e-11
1.13835e-09
-7.43795e-10
2.97968e-10
3.32202e-09
-6.4703e-09
-9.98742e-10
1.13024e-10
-1.0238e-09
-7.56709e-10
-5.53909e-10
-3.10257e-10
-3.47567e-10
-1.14123e-10
-1.74877e-10
8.13033e-12
-1.12857e-10
6.83395e-11
-7.151e-11
1.14338e-10
-3.8757e-11
1.70333e-10
2.19632e-11
2.17692e-10
3.8002e-11
2.45751e-10
5.5827e-11
2.63775e-10
5.70821e-11
2.75038e-10
6.27828e-11
2.92305e-10
7.10461e-11
3.07077e-10
7.2715e-11
3.1624e-10
7.22734e-11
3.33389e-10
8.43615e-11
3.46181e-10
8.29881e-11
3.56029e-10
9.37634e-11
3.76284e-10
1.10702e-10
3.95802e-10
1.25597e-10
4.10912e-10
1.40917e-10
4.42243e-10
1.88252e-10
4.67941e-10
2.10193e-10
4.84193e-10
2.40235e-10
5.05638e-10
2.49006e-10
5.62576e-10
2.6155e-10
6.7359e-10
5.94657e-11
1.16396e-09
-7.56466e-10