/*--------------------------------*- C++ -*----------------------------------*\
| =========                 |                                                 |
| \\      /  F ield         | OpenFOAM: The Open Source CFD Toolbox           |
|  \\    /   O peration     | Version:  2312                                  |
|   \\  /    A nd           | Website:  www.openfoam.com                      |
|    \\/     M anipulation  |                                                 |
\*---------------------------------------------------------------------------*/
FoamFile
{
    version     2.0;
    format      ascii;
    arch        "LSB;label=32;scalar=64";
    class       volScalarField;
    location    "700";
    object      pMean;
}
// * * * * * * * * * * * * * * * * * * * * * * * * * * * * * * * * * * * * * //

dimensions      [0 2 -2 0 0 0 0];

internalField   nonuniform List<scalar> 
330000
(
-8.55525e-09
-2.05583e-09
-5.18146e-09
-3.98162e-09
-2.68318e-09
-1.9763e-09
-1.00983e-09
-8.33624e-10
-1.12998e-10
-1.8161e-10
3.05949e-10
5.37512e-11
5.32027e-10
1.99827e-10
6.73543e-10
2.88222e-10
8.32828e-10
4.12386e-10
9.37974e-10
4.44675e-10
1.01883e-09
4.69906e-10
1.05508e-09
4.42448e-10
1.09061e-09
4.41831e-10
1.15582e-09
4.4984e-10
1.19441e-09
4.15001e-10
1.22971e-09
4.01833e-10
1.30104e-09
4.04959e-10
1.34154e-09
3.61169e-10
1.39424e-09
3.62669e-10
1.48878e-09
3.78486e-10
1.56216e-09
3.57837e-10
1.63995e-09
3.7687e-10
1.78299e-09
4.43304e-10
1.88686e-09
4.5581e-10
1.99216e-09
5.17649e-10
2.09436e-09
6.21164e-10
2.22489e-09
8.70317e-10
2.17303e-09
1.22378e-09
1.84254e-09
1.895e-09
-2.56583e-09
9.39713e-09
-8.48221e-09
-2.05153e-09
-5.19264e-09
-3.98721e-09
-2.68557e-09
-1.97676e-09
-1.0112e-09
-8.34206e-10
-1.14154e-10
-1.82146e-10
3.05011e-10
5.33932e-11
5.31174e-10
1.99579e-10
6.72792e-10
2.88097e-10
8.32128e-10
4.12369e-10
9.37246e-10
4.44729e-10
1.01812e-09
4.70039e-10
1.0544e-09
4.42708e-10
1.0899e-09
4.42152e-10
1.15506e-09
4.50218e-10
1.19365e-09
4.15526e-10
1.22889e-09
4.02408e-10
1.30014e-09
4.05609e-10
1.3406e-09
3.61976e-10
1.39322e-09
3.63565e-10
1.48764e-09
3.7947e-10
1.56094e-09
3.59046e-10
1.63858e-09
3.78171e-10
1.78145e-09
4.4478e-10
1.88516e-09
4.57587e-10
1.99023e-09
5.19756e-10
2.09218e-09
6.23697e-10
2.22246e-09
8.73715e-10
2.17005e-09
1.2289e-09
1.84078e-09
1.90212e-09
-2.59345e-09
9.36867e-09
-8.40693e-09
-2.05216e-09
-5.20702e-09
-3.99379e-09
-2.68773e-09
-1.97683e-09
-1.01212e-09
-8.34998e-10
-1.1508e-10
-1.83164e-10
3.04386e-10
5.25809e-11
5.30654e-10
1.98818e-10
6.72461e-10
2.87426e-10
8.31848e-10
4.1177e-10
9.36982e-10
4.44152e-10
1.01791e-09
4.69491e-10
1.05431e-09
4.42292e-10
1.08985e-09
4.41718e-10
1.15498e-09
4.49773e-10
1.19367e-09
4.15231e-10
1.2289e-09
4.02072e-10
1.30011e-09
4.05257e-10
1.34065e-09
3.61764e-10
1.39326e-09
3.63332e-10
1.48758e-09
3.79233e-10
1.56095e-09
3.59031e-10
1.63851e-09
3.78115e-10
1.78123e-09
4.44807e-10
1.88487e-09
4.57928e-10
1.98975e-09
5.20418e-10
2.09147e-09
6.24846e-10
2.22138e-09
8.76049e-10
2.1681e-09
1.23354e-09
1.83981e-09
1.91208e-09
-2.6433e-09
9.36458e-09
-8.3321e-09
-2.06697e-09
-5.2202e-09
-4.00131e-09
-2.68919e-09
-1.97577e-09
-1.01243e-09
-8.35404e-10
-1.15838e-10
-1.84112e-10
3.03952e-10
5.17915e-11
5.30263e-10
1.98005e-10
6.72294e-10
2.86689e-10
8.31669e-10
4.11064e-10
9.36831e-10
4.43444e-10
1.01779e-09
4.68782e-10
1.05439e-09
4.41756e-10
1.08996e-09
4.41124e-10
1.15503e-09
4.49125e-10
1.19389e-09
4.14779e-10
1.22914e-09
4.0153e-10
1.30027e-09
4.04654e-10
1.34096e-09
3.6135e-10
1.39356e-09
3.6284e-10
1.48776e-09
3.78678e-10
1.56126e-09
3.58757e-10
1.63876e-09
3.77718e-10
1.78128e-09
4.44435e-10
1.88492e-09
4.57909e-10
1.98959e-09
5.20687e-10
2.09115e-09
6.25582e-10
2.22069e-09
8.77995e-10
2.16666e-09
1.23751e-09
1.8413e-09
1.91787e-09
-2.7036e-09
9.38304e-09
-8.26387e-09
-2.09294e-09
-5.2285e-09
-4.00907e-09
-2.68973e-09
-1.97347e-09
-1.01223e-09
-8.35416e-10
-1.16576e-10
-1.84984e-10
3.03539e-10
5.10787e-11
5.29841e-10
1.97233e-10
6.72121e-10
2.85996e-10
8.31419e-10
4.10382e-10
9.36615e-10
4.42755e-10
1.01757e-09
4.68081e-10
1.05441e-09
4.41283e-10
1.09003e-09
4.40574e-10
1.15499e-09
4.48494e-10
1.19406e-09
4.14415e-10
1.22931e-09
4.0105e-10
1.30032e-09
4.04093e-10
1.34121e-09
3.61042e-10
1.39379e-09
3.62427e-10
1.48781e-09
3.7817e-10
1.56147e-09
3.58616e-10
1.6389e-09
3.77404e-10
1.78115e-09
4.44122e-10
1.88481e-09
4.58017e-10
1.98923e-09
5.21099e-10
2.09062e-09
6.26479e-10
2.21973e-09
8.80151e-10
2.16507e-09
1.24123e-09
1.84523e-09
1.91699e-09
-2.76413e-09
9.41587e-09
-8.21019e-09
-2.12531e-09
-5.22905e-09
-4.01635e-09
-2.68909e-09
-1.96985e-09
-1.01151e-09
-8.35094e-10
-1.17338e-10
-1.85838e-10
3.03085e-10
5.03825e-11
5.29339e-10
1.96458e-10
6.71893e-10
2.85311e-10
8.31065e-10
4.09701e-10
9.36302e-10
4.42062e-10
1.01724e-09
4.67374e-10
1.05436e-09
4.40861e-10
1.09002e-09
4.40063e-10
1.15484e-09
4.4788e-10
1.19415e-09
4.14136e-10
1.22941e-09
4.00635e-10
1.30025e-09
4.03586e-10
1.34137e-09
3.6085e-10
1.39392e-09
3.62112e-10
1.4877e-09
3.77733e-10
1.56155e-09
3.58633e-10
1.6389e-09
3.7721e-10
1.78079e-09
4.43924e-10
1.88445e-09
4.58319e-10
1.98858e-09
5.21753e-10
2.08974e-09
6.27687e-10
2.21828e-09
8.82743e-10
2.16298e-09
1.2449e-09
1.85149e-09
1.90813e-09
-2.81864e-09
9.45823e-09
-8.17852e-09
-2.16006e-09
-5.2193e-09
-4.02256e-09
-2.68698e-09
-1.96483e-09
-1.01016e-09
-8.34453e-10
-1.18106e-10
-1.86698e-10
3.02574e-10
4.96603e-11
5.28744e-10
1.95641e-10
6.71594e-10
2.84592e-10
8.30595e-10
4.08986e-10
9.35889e-10
4.41332e-10
1.01679e-09
4.66634e-10
1.05423e-09
4.40457e-10
1.08994e-09
4.39563e-10
1.15457e-09
4.47259e-10
1.19416e-09
4.13915e-10
1.22943e-09
4.00259e-10
1.30008e-09
4.03113e-10
1.34144e-09
3.60747e-10
1.39396e-09
3.61873e-10
1.48744e-09
3.7735e-10
1.5615e-09
3.58786e-10
1.63876e-09
3.77122e-10
1.78018e-09
4.43843e-10
1.88383e-09
4.5882e-10
1.98758e-09
5.22684e-10
2.08843e-09
6.29276e-10
2.21618e-09
8.85879e-10
2.16019e-09
1.24848e-09
1.86017e-09
1.89024e-09
-2.86225e-09
9.50677e-09
-8.17491e-09
-2.19419e-09
-5.19691e-09
-4.02724e-09
-2.68322e-09
-1.9583e-09
-1.00809e-09
-8.33476e-10
-1.18847e-10
-1.87555e-10
3.02009e-10
4.88999e-11
5.28051e-10
1.94767e-10
6.71209e-10
2.83819e-10
8.29996e-10
4.08224e-10
9.35367e-10
4.40549e-10
1.01621e-09
4.65851e-10
1.05401e-09
4.40059e-10
1.08978e-09
4.39065e-10
1.15419e-09
4.46626e-10
1.19409e-09
4.13742e-10
1.22938e-09
3.99917e-10
1.29978e-09
4.02676e-10
1.34143e-09
3.60731e-10
1.39391e-09
3.61714e-10
1.48703e-09
3.77032e-10
1.5613e-09
3.59085e-10
1.63845e-09
3.77161e-10
1.77932e-09
4.43916e-10
1.88291e-09
4.59565e-10
1.98618e-09
5.23959e-10
2.08657e-09
6.31339e-10
2.21328e-09
8.89647e-10
2.15659e-09
1.25185e-09
1.87144e-09
1.86252e-09
-2.89095e-09
9.55863e-09
-8.20403e-09
-2.22537e-09
-5.15994e-09
-4.03002e-09
-2.67769e-09
-1.95024e-09
-1.00526e-09
-8.32148e-10
-1.19526e-10
-1.8839e-10
3.01401e-10
4.81046e-11
5.27261e-10
1.93835e-10
6.70732e-10
2.82987e-10
8.29259e-10
4.0741e-10
9.34728e-10
4.39708e-10
1.01549e-09
4.65021e-10
1.05369e-09
4.39659e-10
1.08953e-09
4.38567e-10
1.15369e-09
4.45983e-10
1.19391e-09
4.13616e-10
1.22924e-09
3.99613e-10
1.29936e-09
4.02284e-10
1.3413e-09
3.60809e-10
1.39373e-09
3.61649e-10
1.48643e-09
3.76802e-10
1.56092e-09
3.59551e-10
1.63793e-09
3.77361e-10
1.77813e-09
4.44195e-10
1.8816e-09
4.60616e-10
1.98428e-09
5.25662e-10
2.08405e-09
6.33977e-10
2.20943e-09
8.9411e-10
2.15214e-09
1.25481e-09
1.88556e-09
1.82438e-09
-2.90177e-09
9.61139e-09
-8.2694e-09
-2.25203e-09
-5.10681e-09
-4.03052e-09
-2.67032e-09
-1.94064e-09
-1.00162e-09
-8.30468e-10
-1.20116e-10
-1.89185e-10
3.00767e-10
4.72844e-11
5.26387e-10
1.92854e-10
6.70163e-10
2.82098e-10
8.28383e-10
4.06545e-10
9.3397e-10
4.38807e-10
1.01462e-09
4.64145e-10
1.05325e-09
4.39256e-10
1.08918e-09
4.3807e-10
1.15305e-09
4.45335e-10
1.19362e-09
4.1354e-10
1.22898e-09
3.99354e-10
1.2988e-09
4.01951e-10
1.34104e-09
3.60992e-10
1.3934e-09
3.61699e-10
1.48563e-09
3.76688e-10
1.56031e-09
3.60213e-10
1.63715e-09
3.77765e-10
1.77657e-09
4.44738e-10
1.87984e-09
4.62038e-10
1.98179e-09
5.27873e-10
2.08077e-09
6.37274e-10
2.20454e-09
8.99289e-10
2.14684e-09
1.25709e-09
1.90285e-09
1.77545e-09
-2.89258e-09
9.66328e-09
-8.37329e-09
-2.27332e-09
-5.03628e-09
-4.02846e-09
-2.6611e-09
-1.92952e-09
-9.97161e-10
-8.28448e-10
-1.20599e-10
-1.89929e-10
3.00122e-10
4.64499e-11
5.25439e-10
1.91834e-10
6.69506e-10
2.81159e-10
8.27369e-10
4.05635e-10
9.33094e-10
4.37852e-10
1.01362e-09
4.6323e-10
1.05269e-09
4.3885e-10
1.08871e-09
4.37578e-10
1.15228e-09
4.44691e-10
1.1932e-09
4.13517e-10
1.2286e-09
3.99149e-10
1.29808e-09
4.01691e-10
1.34062e-09
3.61294e-10
1.3929e-09
3.61881e-10
1.48459e-09
3.76719e-10
1.55944e-09
3.61099e-10
1.63608e-09
3.78415e-10
1.77458e-09
4.456e-10
1.87757e-09
4.63893e-10
1.97864e-09
5.30665e-10
2.07662e-09
6.41292e-10
2.19855e-09
9.05161e-10
2.14081e-09
1.2584e-09
1.92363e-09
1.71555e-09
-2.8622e-09
9.71324e-09
-8.51685e-09
-2.28902e-09
-4.94756e-09
-4.02354e-09
-2.65008e-09
-1.91692e-09
-9.91904e-10
-8.26107e-10
-1.2097e-10
-1.90618e-10
2.99472e-10
4.561e-11
5.24431e-10
1.90786e-10
6.6877e-10
2.80179e-10
8.26226e-10
4.04687e-10
9.32105e-10
4.3685e-10
1.01248e-09
4.62283e-10
1.05201e-09
4.38448e-10
1.08813e-09
4.37098e-10
1.15135e-09
4.4406e-10
1.19264e-09
4.13554e-10
1.22809e-09
3.99009e-10
1.29718e-09
4.01521e-10
1.34003e-09
3.6173e-10
1.3922e-09
3.62221e-10
1.48329e-09
3.76926e-10
1.55828e-09
3.6224e-10
1.63467e-09
3.79353e-10
1.77212e-09
4.46835e-10
1.87472e-09
4.66237e-10
1.97475e-09
5.34095e-10
2.07155e-09
6.46064e-10
2.19142e-09
9.11654e-10
2.13418e-09
1.25843e-09
1.94818e-09
1.64476e-09
-2.81019e-09
9.76071e-09
-8.70007e-09
-2.29946e-09
-4.84028e-09
-4.01551e-09
-2.63731e-09
-1.90291e-09
-9.85874e-10
-8.23475e-10
-1.21235e-10
-1.91256e-10
2.98822e-10
4.47689e-11
5.2337e-10
1.89722e-10
6.6796e-10
2.79172e-10
8.24959e-10
4.03711e-10
9.31009e-10
4.35812e-10
1.0112e-09
4.61315e-10
1.05121e-09
4.38056e-10
1.08743e-09
4.3664e-10
1.15028e-09
4.43456e-10
1.19193e-09
4.13662e-10
1.22743e-09
3.98948e-10
1.2961e-09
4.01458e-10
1.33924e-09
3.62318e-10
1.39129e-09
3.62741e-10
1.48171e-09
3.77339e-10
1.55679e-09
3.63667e-10
1.63288e-09
3.8062e-10
1.76914e-09
4.48491e-10
1.87123e-09
4.69116e-10
1.97007e-09
5.38203e-10
2.06551e-09
6.51598e-10
2.18318e-09
9.18669e-10
2.12714e-09
1.25689e-09
1.97669e-09
1.56336e-09
-2.73689e-09
9.80559e-09
-8.92189e-09
-2.30528e-09
-4.71438e-09
-4.00418e-09
-2.62291e-09
-1.88756e-09
-9.79116e-10
-8.2059e-10
-1.21408e-10
-1.91853e-10
2.98163e-10
4.39261e-11
5.22258e-10
1.88648e-10
6.67079e-10
2.78145e-10
8.23574e-10
4.02717e-10
9.2981e-10
4.34748e-10
1.00978e-09
4.60338e-10
1.05028e-09
4.37685e-10
1.08661e-09
4.36217e-10
1.14906e-09
4.42891e-10
1.19107e-09
4.13852e-10
1.22662e-09
3.98984e-10
1.29482e-09
4.01522e-10
1.33824e-09
3.63078e-10
1.39013e-09
3.63467e-10
1.47982e-09
3.77989e-10
1.55493e-09
3.65409e-10
1.63067e-09
3.82256e-10
1.7656e-09
4.50607e-10
1.86708e-09
4.72565e-10
1.96457e-09
5.43012e-10
2.0585e-09
6.57875e-10
2.17389e-09
9.26085e-10
2.11986e-09
1.25352e-09
2.00925e-09
1.47192e-09
-2.64323e-09
9.84794e-09
-9.18021e-09
-2.30741e-09
-4.57014e-09
-3.98937e-09
-2.60702e-09
-1.87097e-09
-9.71686e-10
-8.17493e-10
-1.2151e-10
-1.92428e-10
2.97486e-10
4.30762e-11
5.21092e-10
1.87569e-10
6.66126e-10
2.77106e-10
8.22074e-10
4.01712e-10
9.2851e-10
4.33671e-10
1.00824e-09
4.59364e-10
1.04922e-09
4.37344e-10
1.08566e-09
4.35842e-10
1.14769e-09
4.42383e-10
1.19004e-09
4.14137e-10
1.22563e-09
3.99133e-10
1.29333e-09
4.01734e-10
1.33701e-09
3.64029e-10
1.38871e-09
3.64421e-10
1.47761e-09
3.78904e-10
1.55269e-09
3.67492e-10
1.62801e-09
3.84289e-10
1.76147e-09
4.53215e-10
1.86223e-09
4.76607e-10
1.95824e-09
5.48526e-10
2.0505e-09
6.64858e-10
2.1636e-09
9.33777e-10
2.11253e-09
1.24814e-09
2.04579e-09
1.37125e-09
-2.53074e-09
9.88793e-09
-9.47216e-09
-2.3069e-09
-4.40814e-09
-3.97092e-09
-2.58979e-09
-1.85326e-09
-9.63648e-10
-8.14229e-10
-1.2157e-10
-1.93e-10
2.96773e-10
4.2211e-11
5.19864e-10
1.86482e-10
6.65097e-10
2.76059e-10
8.2046e-10
4.00701e-10
9.27108e-10
4.32589e-10
1.00657e-09
4.58405e-10
1.04804e-09
4.37044e-10
1.08458e-09
4.35527e-10
1.14616e-09
4.41946e-10
1.18884e-09
4.1453e-10
1.22447e-09
3.99411e-10
1.29162e-09
4.02111e-10
1.33554e-09
3.6519e-10
1.38702e-09
3.65627e-10
1.47505e-09
3.8011e-10
1.55004e-09
3.69938e-10
1.62488e-09
3.86747e-10
1.75674e-09
4.56336e-10
1.85666e-09
4.81251e-10
1.95105e-09
5.54737e-10
2.04156e-09
6.72499e-10
2.15239e-09
9.41625e-10
2.1053e-09
1.24066e-09
2.08614e-09
1.2624e-09
-2.4013e-09
9.92562e-09
-9.79416e-09
-2.305e-09
-4.22923e-09
-3.9487e-09
-2.57138e-09
-1.83454e-09
-9.55071e-10
-8.1084e-10
-1.21616e-10
-1.93591e-10
2.96005e-10
4.13196e-11
5.18565e-10
1.85387e-10
6.63983e-10
2.75008e-10
8.18728e-10
3.9969e-10
9.25604e-10
4.3151e-10
1.00477e-09
4.5747e-10
1.04673e-09
4.36795e-10
1.08337e-09
4.35284e-10
1.14447e-09
4.41594e-10
1.18746e-09
4.15045e-10
1.22313e-09
3.99835e-10
1.28968e-09
4.02672e-10
1.33381e-09
3.66577e-10
1.38503e-09
3.67104e-10
1.47213e-09
3.81627e-10
1.54697e-09
3.72764e-10
1.62126e-09
3.89648e-10
1.75138e-09
4.59985e-10
1.85037e-09
4.86501e-10
1.94303e-09
5.61629e-10
2.03169e-09
6.80747e-10
2.14035e-09
9.49524e-10
2.09827e-09
1.23102e-09
2.12996e-09
1.14658e-09
-2.25711e-09
9.96115e-09
-1.01421e-08
-2.30298e-09
-4.03451e-09
-3.92257e-09
-2.55194e-09
-1.81493e-09
-9.46021e-10
-8.07368e-10
-1.21679e-10
-1.94225e-10
2.9516e-10
4.03907e-11
5.1718e-10
1.84279e-10
6.62775e-10
2.73952e-10
8.16876e-10
3.98679e-10
9.23991e-10
4.30441e-10
1.00284e-09
4.56568e-10
1.04528e-09
4.36605e-10
1.08202e-09
4.35125e-10
1.14262e-09
4.41341e-10
1.18589e-09
4.15691e-10
1.22158e-09
4.0042e-10
1.28751e-09
4.03433e-10
1.33181e-09
3.68205e-10
1.38273e-09
3.68867e-10
1.46885e-09
3.83475e-10
1.54346e-09
3.75984e-10
1.61714e-09
3.93006e-10
1.7454e-09
4.64167e-10
1.84335e-09
4.92351e-10
1.93419e-09
5.69177e-10
2.02094e-09
6.89547e-10
2.12756e-09
9.57385e-10
2.09154e-09
1.21928e-09
2.17683e-09
1.02512e-09
-2.10053e-09
9.9945e-09
-1.05113e-08
-2.30207e-09
-3.82534e-09
-3.89247e-09
-2.53163e-09
-1.79455e-09
-9.36568e-10
-8.03848e-10
-1.21788e-10
-1.94922e-10
2.94218e-10
3.94124e-11
5.15697e-10
1.83154e-10
6.61464e-10
2.7289e-10
8.14896e-10
3.97669e-10
9.22266e-10
4.29388e-10
1.00078e-09
4.55706e-10
1.04369e-09
4.3648e-10
1.08052e-09
4.35059e-10
1.14061e-09
4.41199e-10
1.18413e-09
4.16479e-10
1.21984e-09
4.01178e-10
1.2851e-09
4.04405e-10
1.32954e-09
3.70086e-10
1.38013e-09
3.7093e-10
1.46519e-09
3.85665e-10
1.5395e-09
3.79604e-10
1.61252e-09
3.96828e-10
1.73879e-09
4.68885e-10
1.83563e-09
4.98791e-10
1.92455e-09
5.77356e-10
2.00934e-09
6.98849e-10
2.11407e-09
9.65136e-10
2.08515e-09
1.20552e-09
2.22622e-09
8.99506e-10
-1.93412e-09
1.00255e-08
-1.0897e-08
-2.3034e-09
-3.60324e-09
-3.85834e-09
-2.51059e-09
-1.77353e-09
-9.26774e-10
-8.00314e-10
-1.2197e-10
-1.957e-10
2.9316e-10
3.83743e-11
5.14102e-10
1.82005e-10
6.60037e-10
2.71822e-10
8.12783e-10
3.96661e-10
9.2042e-10
4.28352e-10
9.98575e-10
4.54888e-10
1.04196e-09
4.36427e-10
1.07888e-09
4.35092e-10
1.13843e-09
4.41176e-10
1.18218e-09
4.17418e-10
1.21789e-09
4.02119e-10
1.28243e-09
4.056e-10
1.32699e-09
3.72229e-10
1.3772e-09
3.73303e-10
1.46116e-09
3.88209e-10
1.5351e-09
3.83631e-10
1.60739e-09
4.01118e-10
1.73157e-09
4.74134e-10
1.82721e-09
5.05807e-10
1.91413e-09
5.86136e-10
1.99695e-09
7.08603e-10
2.09997e-09
9.72726e-10
2.07912e-09
1.18991e-09
2.27753e-09
7.713e-10
-1.76044e-09
1.00538e-08
-1.12939e-08
-2.30814e-09
-3.36993e-09
-3.82012e-09
-2.48895e-09
-1.75199e-09
-9.16701e-10
-7.9679e-10
-1.22246e-10
-1.96577e-10
2.91967e-10
3.72676e-11
5.12382e-10
1.80828e-10
6.58486e-10
2.70744e-10
8.10531e-10
3.95652e-10
9.18447e-10
4.27339e-10
9.96228e-10
4.54118e-10
1.04008e-09
4.36448e-10
1.07708e-09
4.35231e-10
1.13607e-09
4.41281e-10
1.18003e-09
4.18512e-10
1.21573e-09
4.03251e-10
1.27952e-09
4.07026e-10
1.32415e-09
3.7464e-10
1.37395e-09
3.75991e-10
1.45676e-09
3.91112e-10
1.53025e-09
3.88066e-10
1.60176e-09
4.05878e-10
1.72374e-09
4.79907e-10
1.8181e-09
5.13384e-10
1.90296e-09
5.95487e-10
1.98379e-09
7.18766e-10
2.08529e-09
9.80119e-10
2.07344e-09
1.17264e-09
2.33008e-09
6.42066e-10
-1.58201e-09
1.0079e-08
-1.1697e-08
-2.31731e-09
-3.12722e-09
-3.77782e-09
-2.46682e-09
-1.73005e-09
-9.06404e-10
-7.93296e-10
-1.22636e-10
-1.97563e-10
2.90624e-10
3.60852e-11
5.10527e-10
1.7962e-10
6.56799e-10
2.69657e-10
8.08134e-10
3.94641e-10
9.16341e-10
4.26348e-10
9.93735e-10
4.534e-10
1.03804e-09
4.36547e-10
1.07512e-09
4.35481e-10
1.13354e-09
4.41519e-10
1.17767e-09
4.19766e-10
1.21335e-09
4.04581e-10
1.27636e-09
4.08688e-10
1.32103e-09
3.77326e-10
1.37038e-09
3.79e-10
1.45198e-09
3.94379e-10
1.52496e-09
3.92907e-10
1.59562e-09
4.11104e-10
1.71532e-09
4.86197e-10
1.80833e-09
5.21504e-10
1.89106e-09
6.0538e-10
1.96991e-09
7.29299e-10
2.07009e-09
9.87295e-10
2.06806e-09
1.15398e-09
2.38314e-09
5.13374e-10
-1.40123e-09
1.01005e-08
-1.21011e-08
-2.33174e-09
-2.87705e-09
-3.73145e-09
-2.44431e-09
-1.70783e-09
-8.95938e-10
-7.89847e-10
-1.23155e-10
-1.98668e-10
2.89118e-10
3.48219e-11
5.08526e-10
1.78377e-10
6.54969e-10
2.68558e-10
8.05586e-10
3.93628e-10
9.14095e-10
4.25383e-10
9.91089e-10
4.52736e-10
1.03584e-09
4.36726e-10
1.07299e-09
4.35844e-10
1.13084e-09
4.41894e-10
1.17511e-09
4.21184e-10
1.21075e-09
4.06113e-10
1.27294e-09
4.1059e-10
1.31762e-09
3.80287e-10
1.36648e-09
3.82332e-10
1.44682e-09
3.98011e-10
1.51923e-09
3.98153e-10
1.58898e-09
4.16794e-10
1.70631e-09
4.92991e-10
1.79791e-09
5.30147e-10
1.87847e-09
6.15784e-10
1.95535e-09
7.40164e-10
2.05441e-09
9.94249e-10
2.06292e-09
1.1342e-09
2.43595e-09
3.86811e-10
-1.22041e-09
1.01175e-08
-1.25011e-08
-2.35208e-09
-2.6214e-09
-3.6811e-09
-2.42153e-09
-1.68546e-09
-8.85355e-10
-7.86454e-10
-1.23816e-10
-1.99899e-10
2.8744e-10
3.34745e-11
5.06373e-10
1.77097e-10
6.5299e-10
2.67447e-10
8.02883e-10
3.9261e-10
9.11703e-10
4.24443e-10
9.88288e-10
4.52126e-10
1.03349e-09
4.36986e-10
1.0707e-09
4.36322e-10
1.12795e-09
4.42412e-10
1.17233e-09
4.22767e-10
1.20793e-09
4.0785e-10
1.26927e-09
4.12734e-10
1.31393e-09
3.83526e-10
1.36226e-09
3.85986e-10
1.4413e-09
4.02009e-10
1.51307e-09
4.03798e-10
1.58186e-09
4.22939e-10
1.69673e-09
5.00276e-10
1.78686e-09
5.39294e-10
1.86522e-09
6.26671e-10
1.94014e-09
7.51328e-10
2.03827e-09
1.00099e-09
2.05793e-09
1.11362e-09
2.48775e-09
2.63927e-10
-1.04172e-09
1.01293e-08
-1.28921e-08
-2.37891e-09
-2.36226e-09
-3.62681e-09
-2.39854e-09
-1.66305e-09
-8.747e-10
-7.83123e-10
-1.24627e-10
-2.01258e-10
2.85581e-10
3.20421e-11
5.04062e-10
1.75781e-10
6.50856e-10
2.66323e-10
8.00022e-10
3.91588e-10
9.09162e-10
4.23531e-10
9.85329e-10
4.51573e-10
1.03096e-09
4.37328e-10
1.06824e-09
4.36917e-10
1.12488e-09
4.43073e-10
1.16935e-09
4.24516e-10
1.20489e-09
4.09794e-10
1.26534e-09
4.15122e-10
1.30994e-09
3.87041e-10
1.35772e-09
3.89962e-10
1.43542e-09
4.06371e-10
1.50647e-09
4.09837e-10
1.57426e-09
4.29532e-10
1.68659e-09
5.08038e-10
1.77521e-09
5.48923e-10
1.85132e-09
6.3801e-10
1.92433e-09
7.62761e-10
2.02171e-09
1.00753e-09
2.05299e-09
1.09256e-09
2.53773e-09
1.46158e-10
-8.67058e-10
1.01348e-08
-1.32697e-08
-2.41268e-09
-2.10164e-09
-3.56869e-09
-2.37539e-09
-1.64071e-09
-8.64019e-10
-7.79855e-10
-1.25591e-10
-2.02746e-10
2.83538e-10
3.05255e-11
5.01588e-10
1.74427e-10
6.48563e-10
2.65189e-10
7.97001e-10
3.90561e-10
9.06466e-10
4.22647e-10
9.82209e-10
4.51077e-10
1.02827e-09
4.37753e-10
1.0656e-09
4.3763e-10
1.12164e-09
4.43879e-10
1.16616e-09
4.26431e-10
1.20161e-09
4.11946e-10
1.26116e-09
4.17753e-10
1.30567e-09
3.90832e-10
1.35285e-09
3.94256e-10
1.42917e-09
4.11093e-10
1.49946e-09
4.16261e-10
1.56618e-09
4.36564e-10
1.67592e-09
5.16261e-10
1.76297e-09
5.59013e-10
1.83682e-09
6.49772e-10
1.90794e-09
7.74438e-10
2.00474e-09
1.01391e-09
2.04797e-09
1.07137e-09
2.58513e-09
3.48348e-11
-6.98076e-10
1.01332e-08
-1.36296e-08
-2.45357e-09
-1.8415e-09
-3.50685e-09
-2.35214e-09
-1.61856e-09
-8.53352e-10
-7.76651e-10
-1.26713e-10
-2.04361e-10
2.81306e-10
2.89266e-11
4.98949e-10
1.73038e-10
6.46108e-10
2.64043e-10
7.93819e-10
3.89528e-10
9.03614e-10
4.21794e-10
9.78927e-10
4.50638e-10
1.0254e-09
4.38261e-10
1.06278e-09
4.38459e-10
1.1182e-09
4.44831e-10
1.16275e-09
4.28511e-10
1.19811e-09
4.14304e-10
1.25672e-09
4.20624e-10
1.30111e-09
3.94896e-10
1.34766e-09
3.98865e-10
1.42258e-09
4.1617e-10
1.49204e-09
4.23063e-10
1.55765e-09
4.44023e-10
1.66474e-09
5.24929e-10
1.75018e-09
5.69542e-10
1.82175e-09
6.61927e-10
1.891e-09
7.86335e-10
1.98738e-09
1.02016e-09
2.04275e-09
1.05041e-09
2.6292e-09
-6.87759e-11
-5.36244e-10
1.01232e-08
-1.39677e-08
-2.50159e-09
-1.58371e-09
-3.44146e-09
-2.32883e-09
-1.59671e-09
-8.42741e-10
-7.73507e-10
-1.27992e-10
-2.061e-10
2.78886e-10
2.72487e-11
4.96145e-10
1.71617e-10
6.43491e-10
2.62889e-10
7.90474e-10
3.88491e-10
9.00603e-10
4.20971e-10
9.75481e-10
4.50259e-10
1.02236e-09
4.38851e-10
1.05978e-09
4.39406e-10
1.11459e-09
4.45929e-10
1.15913e-09
4.30755e-10
1.19439e-09
4.16868e-10
1.25204e-09
4.23736e-10
1.29627e-09
3.9923e-10
1.34216e-09
4.03784e-10
1.41563e-09
4.21598e-10
1.48422e-09
4.30233e-10
1.54866e-09
4.51898e-10
1.65304e-09
5.34022e-10
1.73684e-09
5.80484e-10
1.80612e-09
6.74447e-10
1.87356e-09
7.98429e-10
1.96962e-09
1.02632e-09
2.03717e-09
1.03002e-09
2.66923e-09
-1.63528e-10
-3.82815e-10
1.01039e-08
-1.42806e-08
-2.55674e-09
-1.3301e-09
-3.37266e-09
-2.30547e-09
-1.57525e-09
-8.3222e-10
-7.70416e-10
-1.29427e-10
-2.07957e-10
2.76277e-10
2.54967e-11
4.93176e-10
1.70165e-10
6.40711e-10
2.61728e-10
7.86967e-10
3.8745e-10
8.97432e-10
4.20182e-10
9.71871e-10
4.49939e-10
1.01915e-09
4.39524e-10
1.05661e-09
4.4047e-10
1.11078e-09
4.47174e-10
1.1553e-09
4.33162e-10
1.19043e-09
4.19637e-10
1.24711e-09
4.27084e-10
1.29116e-09
4.03828e-10
1.33636e-09
4.09008e-10
1.40835e-09
4.27369e-10
1.476e-09
4.3776e-10
1.53923e-09
4.60175e-10
1.64087e-09
5.43522e-10
1.723e-09
5.91818e-10
1.78998e-09
6.87301e-10
1.85563e-09
8.10702e-10
1.95148e-09
1.03245e-09
2.03109e-09
1.01054e-09
2.70454e-09
-2.48447e-10
-2.38733e-10
1.00742e-08
-1.45654e-08
-2.6189e-09
-1.08233e-09
-3.30058e-09
-2.28204e-09
-1.55428e-09
-8.21822e-10
-7.67369e-10
-1.31012e-10
-2.09924e-10
2.73482e-10
2.36765e-11
4.90044e-10
1.68689e-10
6.3777e-10
2.60564e-10
7.833e-10
3.86406e-10
8.941e-10
4.19428e-10
9.68098e-10
4.49679e-10
1.01577e-09
4.4028e-10
1.05325e-09
4.4165e-10
1.1068e-09
4.48565e-10
1.15127e-09
4.3573e-10
1.18625e-09
4.22608e-10
1.24193e-09
4.30665e-10
1.28576e-09
4.08688e-10
1.33024e-09
4.14528e-10
1.40074e-09
4.33475e-10
1.4674e-09
4.45634e-10
1.52939e-09
4.6884e-10
1.62824e-09
5.53409e-10
1.70866e-09
6.03518e-10
1.77334e-09
7.00462e-10
1.83725e-09
8.23138e-10
1.93295e-09
1.0386e-09
2.02437e-09
9.923e-10
2.73451e-09
-3.22712e-10
-1.0469e-10
1.0033e-08
-1.48193e-08
-2.68774e-09
-8.41993e-10
-3.2254e-09
-2.25855e-09
-1.53388e-09
-8.11579e-10
-7.64356e-10
-1.32742e-10
-2.11994e-10
2.70505e-10
2.17941e-11
4.86753e-10
1.67191e-10
6.3467e-10
2.59399e-10
7.79475e-10
3.85361e-10
8.90607e-10
4.1871e-10
9.64161e-10
4.49481e-10
1.01221e-09
4.41119e-10
1.04972e-09
4.42944e-10
1.10264e-09
4.50102e-10
1.14702e-09
4.38456e-10
1.18185e-09
4.25779e-10
1.23651e-09
4.34475e-10
1.2801e-09
4.13803e-10
1.32383e-09
4.20339e-10
1.39281e-09
4.3991e-10
1.45844e-09
4.53842e-10
1.51912e-09
4.77877e-10
1.61516e-09
5.63662e-10
1.69386e-09
6.15559e-10
1.75625e-09
7.13901e-10
1.81845e-09
8.35722e-10
1.91403e-09
1.04482e-09
2.01685e-09
9.75614e-10
2.75861e-09
-3.85616e-10
1.8815e-11
9.97942e-09
-1.50401e-08
-2.76283e-09
-6.105e-10
-3.14731e-09
-2.23497e-09
-1.51413e-09
-8.01517e-10
-7.61366e-10
-1.3461e-10
-2.14157e-10
2.67351e-10
1.98566e-11
4.83304e-10
1.65677e-10
6.31414e-10
2.58237e-10
7.75492e-10
3.84317e-10
8.86954e-10
4.18031e-10
9.60062e-10
4.49344e-10
1.00848e-09
4.4204e-10
1.046e-09
4.44353e-10
1.09829e-09
4.51783e-10
1.14257e-09
4.41339e-10
1.17722e-09
4.29146e-10
1.23085e-09
4.38511e-10
1.27417e-09
4.19168e-10
1.31712e-09
4.26431e-10
1.38456e-09
4.46663e-10
1.44911e-09
4.62372e-10
1.50847e-09
4.87269e-10
1.60165e-09
5.74261e-10
1.67862e-09
6.27917e-10
1.73872e-09
7.27592e-10
1.79924e-09
8.4844e-10
1.89471e-09
1.05118e-09
2.00839e-09
9.60769e-10
2.77635e-09
-4.36602e-10
1.31448e-10
9.91246e-09
-1.52262e-08
-2.84375e-09
-3.89133e-10
-3.06646e-09
-2.21128e-09
-1.49511e-09
-7.91662e-10
-7.58384e-10
-1.36607e-10
-2.16403e-10
2.64026e-10
1.78717e-11
4.79703e-10
1.64152e-10
6.28006e-10
2.57081e-10
7.71356e-10
3.83277e-10
8.83143e-10
4.17393e-10
9.55803e-10
4.4927e-10
1.00458e-09
4.43044e-10
1.04211e-09
4.45874e-10
1.09377e-09
4.53607e-10
1.13791e-09
4.44375e-10
1.17237e-09
4.32707e-10
1.22496e-09
4.42767e-10
1.26799e-09
4.24777e-10
1.31013e-09
4.32798e-10
1.37601e-09
4.53724e-10
1.43944e-09
4.7121e-10
1.49743e-09
4.97002e-10
1.58775e-09
5.85184e-10
1.66296e-09
6.40566e-10
1.72079e-09
7.41507e-10
1.77966e-09
8.61281e-10
1.87497e-09
1.05773e-09
1.99884e-09
9.48027e-10
2.78732e-09
-4.75279e-10
2.33155e-10
9.83132e-09
-1.53764e-08
-2.93008e-09
-1.79011e-10
-2.98302e-09
-2.1874e-09
-1.47686e-09
-7.82031e-10
-7.55394e-10
-1.38722e-10
-2.18719e-10
2.60537e-10
1.58477e-11
4.75956e-10
1.62622e-10
6.2445e-10
2.55936e-10
7.67069e-10
3.82241e-10
8.79175e-10
4.16799e-10
9.51386e-10
4.4926e-10
1.00052e-09
4.44131e-10
1.03804e-09
4.47506e-10
1.08907e-09
4.55574e-10
1.13305e-09
4.47562e-10
1.16731e-09
4.36457e-10
1.21884e-09
4.47237e-10
1.26154e-09
4.30622e-10
1.30286e-09
4.39428e-10
1.36717e-09
4.61084e-10
1.42944e-09
4.80342e-10
1.48603e-09
5.07056e-10
1.57347e-09
5.96408e-10
1.64692e-09
6.53482e-10
1.70249e-09
7.55619e-10
1.75972e-09
8.74235e-10
1.85481e-09
1.06452e-09
1.98808e-09
9.37616e-10
2.79117e-09
-5.01421e-10
3.24073e-10
9.73536e-09
-1.54897e-08
-3.02124e-09
1.89136e-11
-2.89715e-09
-2.1633e-09
-1.45944e-09
-7.72644e-10
-7.5238e-10
-1.40943e-10
-2.21094e-10
2.56892e-10
1.37929e-11
4.72068e-10
1.61093e-10
6.2075e-10
2.54806e-10
7.62635e-10
3.81212e-10
8.75053e-10
4.16249e-10
9.46812e-10
4.49314e-10
9.96282e-10
4.453e-10
1.0338e-09
4.49248e-10
1.08419e-09
4.57681e-10
1.128e-09
4.50897e-10
1.16204e-09
4.40392e-10
1.2125e-09
4.51917e-10
1.25486e-09
4.36698e-10
1.29532e-09
4.46313e-10
1.35804e-09
4.68731e-10
1.41911e-09
4.89756e-10
1.47428e-09
5.17415e-10
1.55882e-09
6.07912e-10
1.63051e-09
6.66641e-10
1.68383e-09
7.69905e-10
1.73946e-09
8.87295e-10
1.83421e-09
1.07161e-09
1.97598e-09
9.29736e-10
2.78766e-09
-5.14911e-10
4.04475e-10
9.624e-09
-1.55656e-08
-3.11662e-09
2.03837e-10
-2.80902e-09
-2.13892e-09
-1.4429e-09
-7.63515e-10
-7.49326e-10
-1.43259e-10
-2.23516e-10
2.531e-10
1.17154e-11
4.68045e-10
1.5957e-10
6.16913e-10
2.53695e-10
7.58057e-10
3.80192e-10
8.70778e-10
4.15747e-10
9.42085e-10
4.49433e-10
9.91884e-10
4.46552e-10
1.02938e-09
4.51098e-10
1.07915e-09
4.59927e-10
1.12275e-09
4.54377e-10
1.15655e-09
4.44508e-10
1.20594e-09
4.56801e-10
1.24793e-09
4.42997e-10
1.28752e-09
4.53443e-10
1.34864e-09
4.76655e-10
1.40849e-09
4.99435e-10
1.46219e-09
5.2806e-10
1.54384e-09
6.19673e-10
1.61376e-09
6.80016e-10
1.66485e-09
7.84339e-10
1.71888e-09
9.0045e-10
1.81315e-09
1.07905e-09
1.96242e-09
9.24551e-10
2.77661e-09
-5.15779e-10
4.74716e-10
9.49674e-09
-1.56043e-08
-3.21566e-09
3.75133e-10
-2.71877e-09
-2.11419e-09
-1.42725e-09
-7.54654e-10
-7.46215e-10
-1.45657e-10
-2.25971e-10
2.49169e-10
9.62415e-12
4.63894e-10
1.5806e-10
6.12944e-10
2.52607e-10
7.53338e-10
3.79185e-10
8.66355e-10
4.15295e-10
9.37207e-10
4.49618e-10
9.87327e-10
4.47885e-10
1.0248e-09
4.53054e-10
1.07394e-09
4.62309e-10
1.11732e-09
4.57998e-10
1.15087e-09
4.48801e-10
1.19916e-09
4.61882e-10
1.24076e-09
4.4951e-10
1.27947e-09
4.60807e-10
1.33898e-09
4.84842e-10
1.39757e-09
5.09365e-10
1.4498e-09
5.38973e-10
1.52854e-09
6.31669e-10
1.5967e-09
6.93585e-10
1.64558e-09
7.98897e-10
1.698e-09
9.13693e-10
1.79162e-09
1.08688e-09
1.94732e-09
9.2219e-10
2.75792e-09
-5.04175e-10
5.35357e-10
9.35328e-09
-1.5606e-08
-3.31786e-09
5.32325e-10
-2.62653e-09
-2.08904e-09
-1.41251e-09
-7.46066e-10
-7.43026e-10
-1.4812e-10
-2.28447e-10
2.45112e-10
7.52852e-12
4.59622e-10
1.56569e-10
6.0885e-10
2.51547e-10
7.48484e-10
3.7819e-10
8.61785e-10
4.14895e-10
9.32182e-10
4.49869e-10
9.82612e-10
4.49301e-10
1.02006e-09
4.55115e-10
1.06857e-09
4.64827e-10
1.1117e-09
4.61756e-10
1.14498e-09
4.53265e-10
1.19219e-09
4.67154e-10
1.23337e-09
4.56231e-10
1.27117e-09
4.68395e-10
1.32907e-09
4.93282e-10
1.38637e-09
5.19531e-10
1.4371e-09
5.50135e-10
1.51294e-09
6.43878e-10
1.57934e-09
7.07324e-10
1.62603e-09
8.13555e-10
1.67685e-09
9.27018e-10
1.76961e-09
1.09514e-09
1.93059e-09
9.22741e-10
2.73156e-09
-4.80388e-10
5.87076e-10
9.19352e-09
-1.55714e-08
-3.42261e-09
6.75114e-10
-2.53244e-09
-2.0634e-09
-1.3987e-09
-7.37754e-10
-7.39741e-10
-1.50636e-10
-2.30929e-10
2.40938e-10
5.43712e-12
4.55238e-10
1.55101e-10
6.04636e-10
2.50519e-10
7.43499e-10
3.77211e-10
8.57073e-10
4.14548e-10
9.27013e-10
4.50187e-10
9.77744e-10
4.50797e-10
1.01515e-09
4.57278e-10
1.06303e-09
4.67476e-10
1.1059e-09
4.65649e-10
1.13891e-09
4.57896e-10
1.18501e-09
4.7261e-10
1.22577e-09
4.63151e-10
1.26264e-09
4.76197e-10
1.31891e-09
5.01961e-10
1.37491e-09
5.29917e-10
1.42413e-09
5.61528e-10
1.49707e-09
6.56278e-10
1.56172e-09
7.21211e-10
1.60623e-09
8.28293e-10
1.65545e-09
9.40417e-10
1.74711e-09
1.10386e-09
1.91215e-09
9.26258e-10
2.69756e-09
-4.44794e-10
6.30612e-10
9.01739e-09
-1.55015e-08
-3.52937e-09
8.03333e-10
-2.43662e-09
-2.03719e-09
-1.38583e-09
-7.29719e-10
-7.36341e-10
-1.53188e-10
-2.33404e-10
2.36658e-10
3.35849e-12
4.50747e-10
1.53664e-10
6.00312e-10
2.49528e-10
7.38385e-10
3.76249e-10
8.52224e-10
4.14257e-10
9.21702e-10
4.5057e-10
9.72726e-10
4.52374e-10
1.01009e-09
4.59542e-10
1.05735e-09
4.70255e-10
1.09993e-09
4.69672e-10
1.13265e-09
4.62689e-10
1.17763e-09
4.78243e-10
1.21795e-09
4.70262e-10
1.25388e-09
4.84201e-10
1.30854e-09
5.10868e-10
1.3632e-09
5.40509e-10
1.4109e-09
5.73135e-10
1.48094e-09
6.68848e-10
1.54385e-09
7.35221e-10
1.5862e-09
8.43088e-10
1.6338e-09
9.53882e-10
1.72411e-09
1.11306e-09
1.89197e-09
9.32759e-10
2.65606e-09
-3.9788e-10
6.66711e-10
8.82503e-09
-1.53976e-08
-3.63761e-09
9.16979e-10
-2.33917e-09
-2.01036e-09
-1.37387e-09
-7.21956e-10
-7.32806e-10