/*--------------------------------*- C++ -*----------------------------------*\
| =========                 |                                                 |
| \\      /  F ield         | OpenFOAM: The Open Source CFD Toolbox           |
|  \\    /   O peration     | Version:  2312                                  |
|   \\  /    A nd           | Website:  www.openfoam.com                      |
|    \\/     M anipulation  |                                                 |
\*---------------------------------------------------------------------------*/
FoamFile
{
    version     2.0;
    format      ascii;
    arch        "LSB;label=32;scalar=64";
    class       volScalarField;
    location    "700";
    object      pPrime2Mean;
}
// * * * * * * * * * * * * * * * * * * * * * * * * * * * * * * * * * * * * * //

dimensions      [0 4 -4 0 0 0 0];

internalField   nonuniform List<scalar> 
330000
(
1.49605e-16
5.7102e-17
3.64818e-17
3.10921e-17
3.20327e-17
3.03307e-17
2.88021e-17
2.57916e-17
2.46731e-17
2.26989e-17
2.20905e-17
2.06176e-17
2.05089e-17
1.9177e-17
1.9113e-17
1.77559e-17
1.79337e-17
1.68887e-17
1.67046e-17
1.61091e-17
1.57439e-17
1.51558e-17
1.51579e-17
1.39714e-17
1.47616e-17
1.30576e-17
1.4288e-17
1.2514e-17
1.36352e-17
1.21477e-17
1.29749e-17
1.18478e-17
1.24085e-17
1.15774e-17
1.18946e-17
1.1375e-17
1.1503e-17
1.11554e-17
1.12644e-17
1.08885e-17
1.11549e-17
1.07515e-17
1.115e-17
1.07206e-17
1.12529e-17
1.06362e-17
1.16377e-17
1.09132e-17
1.22422e-17
1.17679e-17
1.31575e-17
1.27582e-17
1.66113e-17
1.08026e-17
2.61714e-17
9.42479e-18
3.75233e-17
2.82925e-17
1.02129e-17
1.21986e-16
1.48315e-16
5.68443e-17
3.64451e-17
3.10824e-17
3.20275e-17
3.03379e-17
2.88057e-17
2.57966e-17
2.46728e-17
2.26992e-17
2.20884e-17
2.06166e-17
2.05069e-17
1.91765e-17
1.91115e-17
1.77559e-17
1.79328e-17
1.6889e-17
1.67041e-17
1.61093e-17
1.57438e-17
1.51562e-17
1.51576e-17
1.39724e-17
1.47605e-17
1.30591e-17
1.42865e-17
1.25154e-17
1.3634e-17
1.21484e-17
1.29742e-17
1.18478e-17
1.24081e-17
1.15769e-17
1.18944e-17
1.13737e-17
1.1503e-17
1.11535e-17
1.12645e-17
1.08861e-17
1.11548e-17
1.07487e-17
1.11496e-17
1.07177e-17
1.12521e-17
1.06329e-17
1.16367e-17
1.09099e-17
1.22404e-17
1.1765e-17
1.31569e-17
1.2752e-17
1.66185e-17
1.07908e-17
2.61797e-17
9.43374e-18
3.74677e-17
2.84459e-17
1.03196e-17
1.21297e-16
1.47033e-16
5.66688e-17
3.63598e-17
3.10512e-17
3.2028e-17
3.03552e-17
2.88168e-17
2.58061e-17
2.46752e-17
2.27008e-17
2.20888e-17
2.0617e-17
2.05072e-17
1.9177e-17
1.91122e-17
1.77563e-17
1.79335e-17
1.68902e-17
1.67047e-17
1.61107e-17
1.57448e-17
1.51575e-17
1.51591e-17
1.39735e-17
1.4762e-17
1.30602e-17
1.42878e-17
1.25165e-17
1.36355e-17
1.21493e-17
1.29759e-17
1.18485e-17
1.241e-17
1.15773e-17
1.18966e-17
1.13738e-17
1.15055e-17
1.11533e-17
1.12675e-17
1.08857e-17
1.11582e-17
1.07482e-17
1.11532e-17
1.07177e-17
1.12566e-17
1.0633e-17
1.16425e-17
1.09111e-17
1.22465e-17
1.17693e-17
1.31659e-17
1.27546e-17
1.66434e-17
1.07823e-17
2.62229e-17
9.44494e-18
3.74152e-17
2.8667e-17
1.05302e-17
1.20946e-16
1.45641e-16
5.66032e-17
3.61784e-17
3.09658e-17
3.20181e-17
3.03721e-17
2.88275e-17
2.58167e-17
2.46779e-17
2.27035e-17
2.20908e-17
2.06188e-17
2.05089e-17
1.91783e-17
1.91141e-17
1.77572e-17
1.79348e-17
1.68919e-17
1.67056e-17
1.61129e-17
1.57462e-17
1.51591e-17
1.51616e-17
1.39745e-17
1.47646e-17
1.30612e-17
1.42901e-17
1.25178e-17
1.36378e-17
1.21506e-17
1.29784e-17
1.18495e-17
1.24124e-17
1.15783e-17
1.18992e-17
1.13746e-17
1.15085e-17
1.11538e-17
1.12711e-17
1.08861e-17
1.11623e-17
1.07487e-17
1.11575e-17
1.0719e-17
1.1262e-17
1.06344e-17
1.16494e-17
1.09136e-17
1.22536e-17
1.17755e-17
1.31747e-17
1.27598e-17
1.66676e-17
1.07758e-17
2.62551e-17
9.45856e-18
3.73029e-17
2.88851e-17
1.08059e-17
1.2085e-16
1.44053e-16
5.65962e-17
3.58468e-17
3.07822e-17
3.1967e-17
3.03672e-17
2.88242e-17
2.58204e-17
2.4676e-17
2.2704e-17
2.20917e-17
2.06197e-17
2.05096e-17
1.91788e-17
1.91151e-17
1.77574e-17
1.79351e-17
1.68933e-17
1.67059e-17
1.61149e-17
1.57473e-17
1.51605e-17
1.51642e-17
1.39753e-17
1.47675e-17
1.30621e-17
1.42924e-17
1.25191e-17
1.36401e-17
1.21519e-17
1.29808e-17
1.18506e-17
1.24148e-17
1.15793e-17
1.19018e-17
1.13755e-17
1.15114e-17
1.11544e-17
1.12746e-17
1.08866e-17
1.11661e-17
1.07491e-17
1.11614e-17
1.07205e-17
1.12669e-17
1.06358e-17
1.16556e-17
1.09156e-17
1.22597e-17
1.17807e-17
1.31812e-17
1.27628e-17
1.66849e-17
1.07677e-17
2.62544e-17
9.47935e-18
3.70811e-17
2.90502e-17
1.11062e-17
1.20856e-16
1.42311e-16
5.65563e-17
3.53419e-17
3.0474e-17
3.18493e-17
3.03216e-17
2.8794e-17
2.5809e-17
2.4664e-17
2.26985e-17
2.20882e-17
2.06172e-17
2.05072e-17
1.91767e-17
1.91136e-17
1.77553e-17
1.79332e-17
1.68932e-17
1.67045e-17
1.6116e-17
1.57473e-17
1.51611e-17
1.51663e-17
1.39755e-17
1.477e-17
1.30626e-17
1.42943e-17
1.25202e-17
1.36423e-17
1.2153e-17
1.29831e-17
1.18516e-17
1.24171e-17
1.15802e-17
1.19043e-17
1.13762e-17
1.15142e-17
1.11548e-17
1.12779e-17
1.0887e-17
1.11696e-17
1.07493e-17
1.11646e-17
1.07218e-17
1.12709e-17
1.06367e-17
1.16609e-17
1.09164e-17
1.22645e-17
1.17829e-17
1.31855e-17
1.27602e-17
1.6694e-17
1.07557e-17
2.62082e-17
9.51157e-18
3.67202e-17
2.91299e-17
1.13921e-17
1.20804e-16
1.40557e-16
5.63539e-17
3.46636e-17
3.00364e-17
3.16514e-17
3.02228e-17
2.8727e-17
2.57751e-17
2.4637e-17
2.26834e-17
2.20773e-17
2.06088e-17
2.04994e-17
1.91701e-17
1.9108e-17
1.77498e-17
1.79278e-17
1.68906e-17
1.67006e-17
1.61152e-17
1.57455e-17
1.51603e-17
1.51673e-17
1.39746e-17
1.47719e-17
1.30623e-17
1.42957e-17
1.25205e-17
1.36441e-17
1.21536e-17
1.29851e-17
1.1852e-17
1.24191e-17
1.15807e-17
1.19065e-17
1.13765e-17
1.15168e-17
1.11548e-17
1.1281e-17
1.08869e-17
1.11728e-17
1.07492e-17
1.11673e-17
1.07229e-17
1.1274e-17
1.0637e-17
1.16649e-17
1.09153e-17
1.2268e-17
1.17807e-17
1.31876e-17
1.27492e-17
1.66932e-17
1.07377e-17
2.61069e-17
9.55874e-18
3.62017e-17
2.91091e-17
1.16278e-17
1.205e-16
1.38973e-16
5.58762e-17
3.38209e-17
2.94808e-17
3.13702e-17
3.0065e-17
2.86168e-17
2.57131e-17
2.45907e-17
2.2655e-17
2.20563e-17
2.05922e-17
2.04843e-17
1.91574e-17
1.90967e-17
1.77396e-17
1.79177e-17
1.68846e-17
1.66932e-17
1.61118e-17
1.57412e-17
1.51575e-17
1.51666e-17
1.39722e-17
1.47725e-17
1.30607e-17
1.42963e-17
1.25199e-17
1.36453e-17
1.21532e-17
1.29868e-17
1.18516e-17
1.24209e-17
1.15805e-17
1.19086e-17
1.13762e-17
1.15192e-17
1.11542e-17
1.12838e-17
1.08864e-17
1.11755e-17
1.07484e-17
1.1169e-17
1.07234e-17
1.12758e-17
1.06362e-17
1.16673e-17
1.09116e-17
1.22696e-17
1.17728e-17
1.31866e-17
1.2728e-17
1.66804e-17
1.07135e-17
2.5944e-17
9.62346e-18
3.55184e-17
2.8991e-17
1.1784e-17
1.19761e-16
1.37748e-16
5.50444e-17
3.28266e-17
2.88292e-17
3.10108e-17
2.98485e-17
2.84616e-17
2.56198e-17
2.45219e-17
2.26111e-17
2.2023e-17
2.05657e-17
2.04604e-17
1.91376e-17
1.90788e-17
1.7724e-17
1.7902e-17
1.68743e-17
1.66816e-17
1.61049e-17
1.57337e-17
1.51521e-17
1.51636e-17
1.39679e-17
1.47715e-17
1.30576e-17
1.42956e-17
1.25178e-17
1.36458e-17
1.21516e-17
1.2988e-17
1.18502e-17
1.24221e-17
1.15794e-17
1.19102e-17
1.1375e-17
1.15212e-17
1.11527e-17
1.12862e-17
1.0885e-17
1.11775e-17
1.07469e-17
1.11695e-17
1.07231e-17
1.1276e-17
1.0634e-17
1.16678e-17
1.09048e-17
1.22687e-17
1.17588e-17
1.31814e-17
1.26961e-17
1.66532e-17
1.06842e-17
2.57171e-17
9.70726e-18
3.46763e-17
2.87955e-17
1.18424e-17
1.18446e-16
1.37054e-16
5.38347e-17
3.16957e-17
2.81053e-17
3.05834e-17
2.95787e-17
2.82629e-17
2.54946e-17
2.44295e-17
2.255e-17
2.1976e-17
2.05282e-17
2.04268e-17
1.91097e-17
1.90533e-17
1.77023e-17
1.78801e-17
1.68593e-17
1.66653e-17
1.60941e-17
1.57226e-17
1.51437e-17
1.51579e-17
1.39612e-17
1.47685e-17
1.30524e-17
1.42935e-17
1.25139e-17
1.36454e-17
1.21484e-17
1.29885e-17
1.18474e-17
1.24228e-17
1.15771e-17
1.19112e-17
1.13728e-17
1.15227e-17
1.11503e-17
1.12879e-17
1.08827e-17
1.11785e-17
1.07444e-17
1.11687e-17
1.07219e-17
1.12743e-17
1.06301e-17
1.16659e-17
1.08949e-17
1.22644e-17
1.17388e-17
1.31709e-17
1.26545e-17
1.66101e-17
1.06522e-17
2.54287e-17
9.81073e-18
3.36937e-17
2.85526e-17
1.1794e-17
1.16497e-16
1.3703e-16
5.22754e-17
3.04482e-17
2.73335e-17
3.01007e-17
2.92636e-17
2.80252e-17
2.53391e-17
2.43137e-17
2.24716e-17
2.19149e-17
2.04792e-17
2.03828e-17
1.90734e-17
1.90199e-17
1.76742e-17
1.78517e-17
1.68391e-17
1.6644e-17
1.60791e-17
1.57075e-17
1.51319e-17
1.51491e-17
1.39519e-17
1.47631e-17
1.30451e-17
1.42898e-17
1.2508e-17
1.36438e-17
1.21434e-17
1.29881e-17
1.1843e-17
1.24226e-17
1.15735e-17
1.19116e-17
1.13694e-17
1.15234e-17
1.11467e-17
1.12888e-17
1.08794e-17
1.11785e-17
1.0741e-17
1.11663e-17
1.07195e-17
1.12705e-17
1.06245e-17
1.16613e-17
1.0882e-17
1.22561e-17
1.17136e-17
1.31541e-17
1.26052e-17
1.65499e-17
1.06205e-17
2.50849e-17
9.93354e-18
3.25976e-17
2.82954e-17
1.16395e-17
1.13942e-16
1.37775e-16
5.04266e-17
2.91071e-17
2.65333e-17
2.9575e-17
2.89123e-17
2.77545e-17
2.51561e-17
2.41757e-17
2.23762e-17
2.18398e-17
2.04189e-17
2.03284e-17
1.90287e-17
1.89785e-17
1.76398e-17
1.78167e-17
1.68138e-17
1.66175e-17
1.60595e-17
1.56883e-17
1.51165e-17
1.5137e-17
1.39398e-17
1.47552e-17
1.30352e-17
1.42842e-17
1.24998e-17
1.36408e-17
1.21364e-17
1.29866e-17
1.1837e-17
1.24215e-17
1.15685e-17
1.19111e-17
1.13647e-17
1.15233e-17
1.11419e-17
1.12888e-17
1.0875e-17
1.11773e-17
1.07365e-17
1.11621e-17
1.07161e-17
1.12644e-17
1.06172e-17
1.16538e-17
1.08666e-17
1.22434e-17
1.16843e-17
1.31304e-17
1.25505e-17
1.64728e-17
1.05919e-17
2.46944e-17
1.00747e-17
3.14185e-17
2.80541e-17
1.13853e-17
1.10866e-16
1.39343e-16
4.83616e-17
2.7698e-17
2.57207e-17
2.90172e-17
2.85331e-17
2.7457e-17
2.49495e-17
2.40176e-17
2.2265e-17
2.17514e-17
2.03477e-17
2.0264e-17
1.89757e-17
1.89291e-17
1.75991e-17
1.77751e-17
1.67833e-17
1.65859e-17
1.60354e-17
1.56648e-17
1.50974e-17
1.51215e-17
1.39247e-17
1.47447e-17
1.30228e-17
1.42767e-17
1.24892e-17
1.36364e-17
1.21273e-17
1.2984e-17
1.18292e-17
1.24192e-17
1.15621e-17
1.19095e-17
1.13588e-17
1.15222e-17
1.11359e-17
1.12876e-17
1.08695e-17
1.11745e-17
1.07311e-17
1.1156e-17
1.07116e-17
1.1256e-17
1.06084e-17
1.16431e-17
1.08493e-17
1.22259e-17
1.16522e-17
1.30995e-17
1.24928e-17
1.63793e-17
1.05685e-17
2.42668e-17
1.02329e-17
3.01856e-17
2.7852e-17
1.1044e-17
1.0739e-16
1.41749e-16
4.6152e-17
2.6248e-17
2.49083e-17
2.84364e-17
2.81334e-17
2.71386e-17
2.4723e-17
2.38419e-17
2.21393e-17
2.16505e-17
2.02663e-17
2.019e-17
1.89149e-17
1.88722e-17
1.75524e-17
1.77273e-17
1.67479e-17
1.65494e-17
1.60069e-17
1.56373e-17
1.50745e-17
1.51026e-17
1.39067e-17
1.47315e-17
1.30078e-17
1.4267e-17
1.24763e-17
1.36304e-17
1.21162e-17
1.29799e-17
1.18197e-17
1.24156e-17
1.15541e-17
1.19067e-17
1.13515e-17
1.152e-17
1.11287e-17
1.12852e-17
1.08631e-17
1.11703e-17
1.07247e-17
1.11479e-17
1.07061e-17
1.12452e-17
1.05984e-17
1.16292e-17
1.08305e-17
1.22037e-17
1.16181e-17
1.30613e-17
1.24341e-17
1.62708e-17
1.05515e-17
2.38115e-17
1.04065e-17
2.89247e-17
2.77046e-17
1.06322e-17
1.03643e-16
1.44964e-16
4.38625e-17
2.47851e-17
2.41051e-17
2.78401e-17
2.77188e-17
2.68041e-17
2.44802e-17
2.3651e-17
2.20006e-17
2.15382e-17
2.01755e-17
2.01073e-17
1.88468e-17
1.88081e-17
1.75e-17
1.76735e-17
1.67077e-17
1.65083e-17
1.59741e-17
1.56058e-17
1.50481e-17
1.50805e-17
1.38856e-17
1.47156e-17
1.29901e-17
1.42553e-17
1.2461e-17
1.36227e-17
1.2103e-17
1.29744e-17
1.18085e-17
1.24106e-17
1.15448e-17
1.19026e-17
1.1343e-17
1.15164e-17
1.11204e-17
1.12813e-17
1.08557e-17
1.11643e-17
1.07176e-17
1.11379e-17
1.06996e-17
1.1232e-17
1.05874e-17
1.16122e-17
1.08108e-17
1.21769e-17
1.15831e-17
1.30161e-17
1.23761e-17
1.61487e-17
1.05415e-17
2.33368e-17
1.05939e-17
2.76568e-17
2.76205e-17
1.01701e-17
9.97446e-17
1.48923e-16
4.15463e-17
2.33362e-17
2.33173e-17
2.72341e-17
2.72939e-17
2.64578e-17
2.42241e-17
2.34469e-17
2.18503e-17
2.14154e-17
2.0076e-17
2.00163e-17
1.87719e-17
1.87373e-17
1.74424e-17
1.76142e-17
1.6663e-17
1.64629e-17
1.59371e-17
1.55708e-17
1.5018e-17
1.50552e-17
1.38616e-17
1.46971e-17
1.29699e-17
1.42413e-17
1.24435e-17
1.3613e-17
1.2088e-17
1.29672e-17
1.17957e-17
1.24041e-17
1.15342e-17
1.1897e-17
1.13334e-17
1.15114e-17
1.11111e-17
1.1276e-17
1.08474e-17
1.11567e-17
1.07097e-17
1.11259e-17
1.06924e-17
1.12166e-17
1.05755e-17
1.15922e-17
1.07904e-17
1.21457e-17
1.15475e-17
1.29644e-17
1.23197e-17
1.60149e-17
1.05385e-17
2.28496e-17
1.07937e-17
2.63994e-17
2.76022e-17
9.67952e-18
9.58009e-17
1.53534e-16
3.92468e-17
2.19267e-17
2.25491e-17
2.66228e-17
2.68621e-17
2.61028e-17
2.39573e-17
2.32319e-17
2.16897e-17
2.12833e-17
1.99686e-17
1.99179e-17
1.86909e-17
1.86603e-17
1.73798e-17
1.75498e-17
1.66141e-17
1.64134e-17
1.58962e-17
1.55324e-17
1.49845e-17
1.5027e-17
1.38347e-17
1.46761e-17
1.29474e-17
1.42251e-17
1.2424e-17
1.36015e-17
1.20713e-17
1.29582e-17
1.17815e-17
1.23959e-17
1.15225e-17
1.18899e-17
1.13228e-17
1.15049e-17
1.11008e-17
1.12691e-17
1.08384e-17
1.11473e-17
1.07011e-17
1.11121e-17
1.06843e-17
1.1199e-17
1.05629e-17
1.15693e-17
1.07695e-17
1.21105e-17
1.15119e-17
1.29065e-17
1.22655e-17
1.58709e-17
1.0542e-17
2.23556e-17
1.10041e-17
2.51651e-17
2.76481e-17
9.1823e-18
9.18984e-17
1.58676e-16
3.6997e-17
2.05798e-17
2.18031e-17
2.60099e-17
2.6426e-17
2.57418e-17
2.36821e-17
2.30075e-17
2.15201e-17
2.11426e-17
1.98541e-17
1.98127e-17
1.86041e-17
1.85778e-17
1.73126e-17
1.74807e-17
1.65611e-17
1.63603e-17
1.58516e-17
1.5491e-17
1.49477e-17
1.49962e-17
1.38051e-17
1.46526e-17
1.29226e-17
1.42066e-17
1.24026e-17
1.35878e-17
1.2053e-17
1.29474e-17
1.1766e-17
1.2386e-17
1.15096e-17
1.18812e-17
1.13112e-17
1.14969e-17
1.10897e-17
1.12607e-17
1.08287e-17
1.11363e-17
1.06918e-17
1.10964e-17
1.06754e-17
1.11793e-17
1.05496e-17
1.15438e-17
1.0748e-17
1.20717e-17
1.14764e-17
1.28432e-17
1.22139e-17
1.57183e-17
1.05514e-17
2.18592e-17
1.12237e-17
2.39639e-17
2.77526e-17
8.69847e-18
8.81043e-17
1.64204e-16
3.48229e-17
1.93162e-17
2.10809e-17
2.53982e-17
2.59872e-17
2.53766e-17
2.34003e-17
2.27754e-17
2.13424e-17
2.09942e-17
1.97329e-17
1.97013e-17
1.85121e-17
1.84901e-17
1.72412e-17
1.74072e-17
1.65043e-17
1.63038e-17
1.58034e-17
1.54468e-17
1.49077e-17
1.49629e-17
1.3773e-17
1.46268e-17
1.28959e-17
1.41859e-17
1.23797e-17
1.35721e-17
1.20335e-17
1.29347e-17
1.17494e-17
1.23743e-17
1.14959e-17
1.18709e-17
1.12987e-17
1.14874e-17
1.10778e-17
1.12508e-17
1.08182e-17
1.11236e-17
1.06818e-17
1.1079e-17
1.06658e-17
1.11577e-17
1.05357e-17
1.15158e-17
1.07262e-17
1.20295e-17
1.14411e-17
1.27747e-17
1.21646e-17
1.55586e-17
1.05658e-17
2.13636e-17
1.14508e-17
2.2803e-17
2.7907e-17
8.24574e-18
8.44671e-17
1.69955e-16
3.27433e-17
1.81531e-17
2.03833e-17
2.47899e-17
2.55472e-17
2.50089e-17
2.31133e-17
2.25368e-17
2.11578e-17
2.08389e-17
1.96058e-17
1.95843e-17
1.84154e-17
1.83978e-17
1.7166e-17
1.73299e-17
1.6444e-17
1.62443e-17
1.57519e-17
1.54001e-17
1.48646e-17
1.49274e-17
1.37384e-17
1.45988e-17
1.28673e-17
1.41629e-17
1.23554e-17
1.35541e-17
1.20128e-17
1.29201e-17
1.17318e-17
1.23608e-17
1.14812e-17
1.1859e-17
1.12855e-17
1.14763e-17
1.10652e-17
1.12393e-17
1.08071e-17
1.11093e-17
1.06711e-17
1.10599e-17
1.06553e-17
1.11341e-17
1.0521e-17
1.14855e-17
1.07038e-17
1.19843e-17
1.14059e-17
1.27017e-17
1.21177e-17
1.5393e-17
1.05844e-17
2.08714e-17
1.16835e-17
2.16877e-17
2.81002e-17
7.83793e-18
8.10174e-17
1.75753e-16
3.07721e-17
1.71029e-17
1.97105e-17
2.41869e-17
2.51069e-17
2.46398e-17
2.28224e-17
2.22931e-17
2.09672e-17
2.06776e-17
1.94732e-17
1.94622e-17
1.83142e-17
1.83013e-17
1.70871e-17
1.72491e-17
1.63804e-17
1.6182e-17
1.56972e-17
1.53513e-17
1.48188e-17
1.48898e-17
1.37015e-17
1.45686e-17
1.28372e-17
1.41377e-17
1.23299e-17
1.3534e-17
1.19912e-17
1.29034e-17
1.17134e-17
1.23456e-17
1.14658e-17
1.18454e-17
1.12715e-17
1.14638e-17
1.10518e-17
1.12264e-17
1.07952e-17
1.10936e-17
1.06596e-17
1.10393e-17
1.0644e-17
1.11089e-17
1.05056e-17
1.14531e-17
1.06808e-17
1.19362e-17
1.13708e-17
1.26246e-17
1.20727e-17
1.52228e-17
1.06063e-17
2.03846e-17
1.19201e-17
2.06215e-17
2.83196e-17
7.48522e-18
7.77723e-17
1.81419e-16
2.89189e-17
1.61737e-17
1.90627e-17
2.35907e-17
2.4667e-17
2.42704e-17
2.25288e-17
2.20452e-17
2.07713e-17
2.05108e-17
1.93357e-17
1.93355e-17
1.82091e-17
1.82011e-17
1.70051e-17
1.71651e-17
1.63137e-17
1.61173e-17
1.56396e-17
1.53005e-17
1.47702e-17
1.48505e-17
1.36626e-17
1.45363e-17
1.28057e-17
1.41101e-17
1.23035e-17
1.35116e-17
1.19688e-17
1.28848e-17
1.16943e-17
1.23286e-17
1.14497e-17
1.18302e-17
1.12568e-17
1.14497e-17
1.10376e-17
1.1212e-17
1.07826e-17
1.10764e-17
1.06473e-17
1.10172e-17
1.06317e-17
1.10819e-17
1.04894e-17
1.14187e-17
1.06572e-17
1.18854e-17
1.13359e-17
1.25438e-17
1.20293e-17
1.5049e-17
1.06307e-17
1.99048e-17
1.21585e-17
1.96064e-17
2.85512e-17
7.19361e-18
7.47362e-17
1.86769e-16
2.71896e-17
1.53692e-17
1.84398e-17
2.30027e-17
2.42282e-17
2.39013e-17
2.22334e-17
2.17942e-17
2.05712e-17
2.03393e-17
1.91937e-17
1.92048e-17
1.81004e-17
1.80976e-17
1.692e-17
1.70784e-17
1.62442e-17
1.60503e-17
1.55793e-17
1.52481e-17
1.4719e-17
1.48095e-17
1.36218e-17
1.45021e-17
1.2773e-17
1.40804e-17
1.22764e-17
1.3487e-17
1.19459e-17
1.28643e-17
1.16745e-17
1.23098e-17
1.1433e-17
1.18135e-17
1.12415e-17
1.14343e-17
1.10228e-17
1.11963e-17
1.07693e-17
1.10578e-17
1.06342e-17
1.09937e-17
1.06185e-17
1.10535e-17
1.04724e-17
1.13824e-17
1.0633e-17
1.18322e-17
1.13009e-17
1.24596e-17
1.19871e-17
1.48725e-17
1.06568e-17
1.94328e-17
1.23966e-17
1.86432e-17
2.87801e-17
6.96594e-18
7.19017e-17
1.91629e-16
2.55876e-17
1.46885e-17
1.78418e-17
2.24242e-17
2.3791e-17
2.35333e-17
2.1937e-17
2.15409e-17
2.03674e-17
2.01638e-17
1.90479e-17
1.90705e-17
1.79885e-17
1.79912e-17
1.68324e-17
1.69892e-17
1.61721e-17
1.59814e-17
1.55164e-17
1.51941e-17
1.46655e-17
1.4767e-17
1.35793e-17
1.44659e-17
1.27394e-17
1.40484e-17
1.22487e-17
1.34603e-17
1.19224e-17
1.28418e-17
1.16543e-17
1.22894e-17
1.14157e-17
1.17953e-17
1.12255e-17
1.14174e-17
1.10072e-17
1.11792e-17
1.07552e-17
1.10379e-17
1.06203e-17
1.09689e-17
1.06043e-17
1.10235e-17
1.04544e-17
1.13443e-17
1.06081e-17
1.17765e-17
1.1266e-17
1.23725e-17
1.19457e-17
1.46943e-17
1.06839e-17
1.89698e-17
1.26324e-17
1.7732e-17
2.89912e-17
6.80207e-18
6.92526e-17
1.95839e-16
2.41143e-17
1.41266e-17
1.72686e-17
2.18563e-17
2.33558e-17
2.3167e-17
2.16404e-17
2.12862e-17
2.01609e-17
1.99851e-17
1.88986e-17
1.8933e-17
1.78736e-17
1.78822e-17
1.67424e-17
1.68978e-17
1.60977e-17
1.59108e-17
1.54511e-17
1.5139e-17
1.46098e-17
1.47231e-17
1.35353e-17
1.4428e-17
1.2705e-17
1.40142e-17
1.22207e-17
1.34314e-17
1.18987e-17
1.28174e-17
1.16336e-17
1.22673e-17
1.13979e-17
1.17756e-17
1.12088e-17
1.13993e-17
1.0991e-17
1.11609e-17
1.07403e-17
1.10168e-17
1.06055e-17
1.09428e-17
1.0589e-17
1.09922e-17
1.04355e-17
1.13045e-17
1.05826e-17
1.17185e-17
1.12309e-17
1.22829e-17
1.19048e-17
1.4515e-17
1.07115e-17
1.85162e-17
1.28636e-17
1.68721e-17
2.91706e-17
6.69991e-18
6.67667e-17
1.99257e-16
2.27692e-17
1.36748e-17
1.672e-17
2.13002e-17
2.29231e-17
2.28027e-17
2.13443e-17
2.10309e-17
1.99523e-17
1.98036e-17
1.87465e-17
1.87927e-17
1.77563e-17
1.7771e-17
1.66503e-17
1.68047e-17
1.60212e-17
1.58387e-17
1.53836e-17
1.50828e-17
1.45522e-17
1.46781e-17
1.349e-17
1.43882e-17
1.26701e-17
1.3978e-17
1.21923e-17
1.34004e-17
1.18746e-17
1.27912e-17
1.16125e-17
1.22437e-17
1.13796e-17
1.17545e-17
1.11916e-17
1.13799e-17
1.0974e-17
1.11415e-17
1.07246e-17
1.09945e-17
1.05898e-17
1.09156e-17
1.05727e-17
1.09597e-17
1.04156e-17
1.12631e-17
1.05564e-17
1.16585e-17
1.11957e-17
1.21912e-17
1.18639e-17
1.43354e-17
1.0739e-17
1.80727e-17
1.3088e-17
1.60621e-17
2.93056e-17
6.65581e-18
6.44181e-17
2.01769e-16
2.15503e-17
1.33221e-17
1.61962e-17
2.07568e-17
2.24936e-17
2.24411e-17
2.10493e-17
2.07756e-17
1.97424e-17
1.96202e-17
1.85921e-17
1.86502e-17
1.76367e-17
1.7658e-17
1.65565e-17
1.67101e-17
1.59429e-17
1.57654e-17
1.53142e-17
1.50257e-17
1.44927e-17
1.4632e-17
1.34436e-17
1.43469e-17
1.26347e-17
1.39397e-17
1.21639e-17
1.33674e-17
1.18504e-17
1.27633e-17
1.15912e-17
1.22186e-17
1.13609e-17
1.17322e-17
1.11738e-17
1.13593e-17
1.09563e-17
1.11209e-17
1.07081e-17
1.09711e-17
1.05732e-17
1.08872e-17
1.05553e-17
1.09259e-17
1.03948e-17
1.12202e-17
1.05297e-17
1.15964e-17
1.11603e-17
1.20979e-17
1.18229e-17
1.41561e-17
1.07662e-17
1.76398e-17
1.33037e-17
1.53005e-17
2.93847e-17
6.66541e-18
6.21772e-17
2.03285e-16
2.04545e-17
1.30553e-17
1.5697e-17
2.02272e-17
2.20677e-17
2.20826e-17
2.07559e-17
2.05209e-17
1.95318e-17
1.94353e-17
1.84358e-17
1.85058e-17
1.75152e-17
1.75435e-17
1.64613e-17
1.66142e-17
1.5863e-17
1.56911e-17
1.5243e-17
1.49679e-17
1.44317e-17
1.45849e-17
1.33963e-17
1.4304e-17
1.25991e-17
1.38995e-17
1.21354e-17
1.33325e-17
1.18262e-17
1.27337e-17
1.15696e-17
1.21921e-17
1.13417e-17
1.17086e-17
1.11554e-17
1.13376e-17
1.09379e-17
1.10993e-17
1.06908e-17
1.09467e-17
1.05557e-17
1.08578e-17
1.05368e-17
1.08911e-17
1.03732e-17
1.11758e-17
1.05026e-17
1.15325e-17
1.11247e-17
1.20033e-17
1.17816e-17
1.39777e-17
1.07927e-17
1.7218e-17
1.35087e-17
1.45857e-17
2.93987e-17
6.72418e-18
6.00137e-17
2.03744e-16
1.94775e-17
1.28604e-17
1.52225e-17
1.97122e-17
2.16461e-17
2.17278e-17
2.04648e-17
2.02674e-17
1.93211e-17
1.92497e-17
1.82781e-17
1.83601e-17
1.73922e-17
1.74277e-17
1.63649e-17
1.65174e-17
1.57818e-17
1.56161e-17
1.51703e-17
1.49095e-17
1.43693e-17
1.4537e-17
1.33483e-17
1.42595e-17
1.25633e-17
1.38575e-17
1.21069e-17
1.32959e-17
1.18019e-17
1.27025e-17
1.15479e-17
1.21642e-17
1.13222e-17
1.16839e-17
1.11365e-17
1.13149e-17
1.09189e-17
1.10768e-17
1.06728e-17
1.09214e-17
1.05374e-17
1.08276e-17
1.05174e-17
1.08554e-17
1.03507e-17
1.11301e-17
1.04751e-17
1.1467e-17
1.1089e-17
1.19079e-17
1.17398e-17
1.38007e-17
1.08183e-17
1.68076e-17
1.3701e-17
1.3916e-17
2.93409e-17
6.82775e-18
5.78987e-17
2.03121e-16
1.86143e-17
1.27225e-17
1.47725e-17
1.92128e-17
2.12295e-17
2.1377e-17
2.01765e-17
2.00157e-17
1.91109e-17
1.90638e-17
1.81197e-17
1.82132e-17
1.72681e-17
1.73109e-17
1.62675e-17
1.64198e-17
1.56995e-17
1.55404e-17
1.50963e-17
1.48507e-17
1.43057e-17
1.44882e-17
1.32998e-17
1.42138e-17
1.25276e-17
1.38139e-17
1.20786e-17
1.32576e-17
1.17777e-17
1.26699e-17
1.1526e-17
1.21352e-17
1.13024e-17
1.16581e-17
1.11171e-17
1.12914e-17
1.08993e-17
1.10533e-17
1.06542e-17
1.08952e-17
1.05184e-17
1.07965e-17
1.0497e-17
1.08188e-17
1.03276e-17
1.10831e-17
1.04475e-17
1.14001e-17
1.1053e-17
1.18122e-17
1.16975e-17
1.36257e-17
1.08427e-17
1.64092e-17
1.38791e-17
1.32897e-17
2.92076e-17
6.9721e-18
5.58065e-17
2.0142e-16
1.78589e-17
1.26277e-17
1.43469e-17
1.87295e-17
2.08184e-17
2.10307e-17
1.98915e-17
1.97661e-17
1.89017e-17
1.88781e-17
1.79608e-17
1.80658e-17
1.7143e-17
1.71935e-17
1.61694e-17
1.63218e-17
1.56163e-17
1.54644e-17
1.50212e-17
1.47916e-17
1.42412e-17
1.44388e-17
1.3251e-17
1.41667e-17
1.2492e-17
1.37687e-17
1.20505e-17
1.32177e-17
1.17536e-17
1.2636e-17
1.15041e-17
1.21051e-17
1.12824e-17
1.16315e-17
1.10972e-17
1.12669e-17
1.08792e-17
1.10291e-17
1.06349e-17
1.08682e-17
1.04987e-17
1.07647e-17
1.04757e-17
1.07815e-17
1.03039e-17
1.1035e-17
1.04197e-17
1.13321e-17
1.1017e-17
1.17166e-17
1.16548e-17
1.34531e-17
1.0866e-17
1.60232e-17
1.40415e-17
1.27054e-17
2.89968e-17
7.15355e-18
5.37135e-17
1.98673e-16
1.72044e-17
1.25629e-17
1.39457e-17
1.82632e-17
2.04136e-17
2.06894e-17
1.96101e-17
1.95192e-17
1.86938e-17
1.86932e-17
1.7802e-17
1.79181e-17
1.70174e-17
1.70756e-17
1.60709e-17
1.62236e-17
1.55325e-17
1.53883e-17
1.49451e-17
1.47323e-17
1.41759e-17
1.43887e-17
1.3202e-17
1.41186e-17
1.24566e-17
1.37221e-17
1.20227e-17
1.31765e-17
1.17296e-17
1.26008e-17
1.14821e-17
1.20739e-17
1.12621e-17
1.1604e-17
1.1077e-17
1.12418e-17
1.08585e-17
1.10043e-17
1.06151e-17
1.08406e-17
1.04783e-17
1.07323e-17
1.04537e-17
1.07436e-17
1.02798e-17
1.0986e-17
1.0392e-17
1.12633e-17
1.09809e-17
1.16214e-17
1.16117e-17
1.32834e-17
1.08879e-17
1.56502e-17
1.41869e-17
1.21618e-17
2.87092e-17
7.36891e-18
5.16008e-17
1.94936e-16
1.66431e-17
1.25163e-17
1.35686e-17
1.78142e-17
2.00157e-17
2.03537e-17
1.9333e-17
1.92752e-17
1.84879e-17
1.85094e-17
1.76437e-17
1.77705e-17
1.68916e-17
1.69575e-17
1.59722e-17
1.61253e-17
1.54482e-17
1.5312e-17
1.48685e-17
1.46729e-17
1.41101e-17
1.43381e-17
1.31529e-17
1.40694e-17
1.24215e-17
1.36742e-17
1.19952e-17
1.31341e-17
1.17058e-17
1.25645e-17
1.14602e-17
1.20419e-17
1.12416e-17
1.15757e-17
1.10564e-17
1.1216e-17
1.08374e-17
1.09788e-17
1.05947e-17
1.08124e-17
1.04574e-17
1.06995e-17
1.04311e-17
1.07052e-17
1.02554e-17
1.09361e-17
1.03645e-17
1.1194e-17
1.09448e-17
1.15271e-17
1.15683e-17
1.31169e-17
1.09084e-17
1.52905e-17
1.43144e-17
1.16582e-17
2.83479e-17
7.61525e-18
4.94538e-17
1.90291e-16
1.61672e-17
1.24778e-17
1.32152e-17
1.73831e-17
1.96253e-17
2.00238e-17
1.90604e-17
1.90346e-17
1.82841e-17
1.83271e-17
1.74863e-17
1.76233e-17
1.67659e-17
1.68395e-17
1.58734e-17
1.60272e-17
1.53636e-17
1.52359e-17
1.47913e-17
1.46135e-17
1.40439e-17
1.4287e-17
1.3104e-17
1.40192e-17
1.23869e-17
1.36253e-17
1.1968e-17
1.30905e-17
1.16823e-17
1.25273e-17
1.14384e-17
1.20091e-17
1.12211e-17
1.15469e-17
1.10356e-17
1.11897e-17
1.0816e-17
1.09527e-17
1.0574e-17
1.07837e-17
1.04361e-17
1.06663e-17
1.04079e-17
1.06665e-17
1.02309e-17
1.08857e-17
1.03372e-17
1.11244e-17
1.09088e-17
1.1434e-17
1.15247e-17
1.2954e-17
1.09273e-17
1.49446e-17
1.44233e-17
1.11936e-17
2.79179e-17
7.88973e-18
4.72642e-17
1.84837e-16
1.5768e-17
1.24392e-17
1.28852e-17
1.697e-17
1.92432e-17
1.97003e-17
1.87927e-17
1.87975e-17
1.80828e-17
1.81466e-17
1.733e-17
1.74769e-17
1.66405e-17
1.67217e-17
1.57748e-17
1.59293e-17
1.5279e-17
1.51601e-17
1.47139e-17
1.45542e-17
1.39776e-17
1.42355e-17
1.30553e-17
1.39683e-17
1.23527e-17
1.35754e-17
1.19413e-17
1.3046e-17
1.1659e-17
1.24892e-17
1.14167e-17
1.19756e-17
1.12004e-17
1.15175e-17
1.10145e-17
1.11629e-17
1.07943e-17
1.09263e-17
1.0553e-17
1.07547e-17
1.04144e-17
1.0633e-17
1.03843e-17
1.06275e-17
1.02065e-17
1.08348e-17
1.03104e-17
1.1055e-17
1.08731e-17
1.13424e-17
1.14812e-17
1.27951e-17
1.09446e-17
1.46131e-17
1.45129e-17
1.07675e-17
2.74252e-17
8.18922e-18
4.50279e-17
1.78685e-16
1.54369e-17
1.23945e-17
1.25782e-17
1.65751e-17
1.88697e-17
1.93834e-17
1.85304e-17
1.85644e-17
1.78844e-17
1.79683e-17
1.71752e-17
1.73316e-17
1.65156e-17
1.66045e-17
1.56766e-17
1.58319e-17
1.51945e-17
1.50847e-17
1.46364e-17
1.4495e-17
1.39112e-17
1.41836e-17
1.30069e-17
1.39167e-17
1.2319e-17
1.35247e-17
1.1915e-17
1.30007e-17
1.16361e-17
1.24504e-17
1.13951e-17
1.19415e-17
1.11798e-17
1.14876e-17
1.09933e-17
1.11358e-17
1.07724e-17
1.08995e-17
1.05318e-17
1.07254e-17
1.03925e-17
1.05995e-17
1.03604e-17
1.05884e-17
1.01822e-17
1.07836e-17
1.02841e-17
1.09859e-17
1.08376e-17
1.12526e-17
1.14379e-17
1.26405e-17
1.09603e-17
1.42962e-17
1.45831e-17
1.03796e-17
2.68773e-17
8.51048e-18
4.27462e-17
1.71956e-16
1.51646e-17
1.23392e-17
1.22938e-17
1.61986e-17
1.85054e-17
1.90737e-17
1.82737e-17
1.83354e-17
1.7689e-17
1.77923e-17
1.70222e-17
1.71875e-17
1.63917e-17
1.64879e-17
1.55788e-17
1.57352e-17
1.51102e-17
1.50097e-17
1.4559e-17
1.4436e-17
1.3845e-17
1.41315e-17
1.29589e-17
1.38645e-17
1.22858e-17
1.34733e-17
1.18891e-17
1.29548e-17
1.16135e-17
1.24109e-17
1.13738e-17
1.1907e-17
1.11592e-17
1.14574e-17
1.0972e-17
1.11083e-17
1.07504e-17
1.08725e-17
1.05105e-17
1.06959e-17
1.03704e-17
1.05659e-17
1.03364e-17
1.05494e-17
1.01583e-17
1.07324e-17
1.02584e-17
1.09175e-17
1.08026e-17
1.11649e-17
1.1395e-17
1.24906e-17
1.09741e-17
1.39942e-17
1.46336e-17
1.00296e-17
2.62821e-17
8.84975e-18
4.04238e-17
1.64774e-16
1.49423e-17
1.22705e-17
1.20314e-17
1.58403e-17
1.81509e-17
1.87714e-17
1.80229e-17
1.81108e-17
1.74968e-17
1.76189e-17
1.68712e-17
1.70449e-17
1.62688e-17
1.63721e-17
1.54817e-17
1.56391e-17
1.50262e-17
1.49353e-17
1.44819e-17
1.43773e-17
1.37792e-17
1.40792e-17
1.29115e-17
1.38119e-17
1.22533e-17
1.34214e-17
1.18638e-17
1.29082e-17
1.15913e-17
1.23709e-17
1.13527e-17
1.18721e-17
1.11387e-17
1.1427e-17
1.09507e-17
1.10807e-17
1.07284e-17
1.08453e-17
1.04891e-17
1.06664e-17
1.03483e-17
1.05325e-17
1.03124e-17
1.05105e-17
1.01348e-17
1.06813e-17
1.02333e-17
1.08499e-17
1.07682e-17
1.10794e-17
1.13526e-17
1.23456e-17
1.09859e-17
1.37076e-17
1.46647e-17
9.7172e-18
2.56482e-17
9.2028e-18
3.80704e-17
1.57267e-16
1.4761e-17
1.21872e-17
1.17903e-17
1.55003e-17
1.78065e-17
1.84768e-17
1.77782e-17
1.78907e-17
1.7308e-17
1.74482e-17
1.67224e-17
1.6904e-17
1.61471e-17
1.62573e-17
1.53854e-17
1.55438e-17
1.49427e-17
1.48616e-17
1.44051e-17
1.43189e-17
1.37137e-17
1.40268e-17
1.28647e-17
1.37589e-17
1.22214e-17
1.33691e-17
1.1839e-17
1.28613e-17
1.15695e-17
1.23306e-17
1.13319e-17
1.18369e-17
1.11184e-17
1.13964e-17
1.09295e-17
1.1053e-17
1.07064e-17
1.08181e-17
1.04677e-17
1.06369e-17
1.03262e-17
1.04993e-17
1.02885e-17
1.04718e-17
1.01119e-17
1.06306e-17
1.02091e-17
1.07835e-17
1.07344e-17
1.09964e-17
1.13109e-17
1.22057e-17
1.09957e-17
1.34363e-17
1.46766e-17
9.44214e-18
2.49836e-17
9.56454e-18
3.56989e-17
1.49557e-16
1.46125e-17
1.20894e-17
1.15701e-17
1.51781e-17
1.74724e-17
1.81902e-17
1.754e-17
1.76752e-17
1.71228e-17
1.72804e-17
1.65759e-17
1.67649e-17
1.60269e-17
1.61437e-17
1.52901e-17
1.54495e-17
1.48599e-17
1.47886e-17
1.43289e-17
1.42608e-17
1.36488e-17
1.39743e-17
1.28185e-17
1.37057e-17
1.21901e-17
1.33166e-17
1.18147e-17
1.2814e-17
1.15481e-17
1.22899e-17
1.13114e-17
1.18016e-17
1.10982e-17
1.13657e-17
1.09084e-17
1.10252e-17
1.06845e-17
1.07908e-17
1.04465e-17
1.06075e-17
1.03043e-17
1.04664e-17
1.02649e-17
1.04335e-17
1.00896e-17
1.05803e-17
1.01857e-17
1.07184e-17
1.07015e-17
1.0916e-17
1.12699e-17
1.20711e-17
1.10034e-17
1.31807e-17
1.46698e-17
9.20403e-18
2.42961e-17
9.92956e-18
3.33254e-17
1.41759e-16
1.4488e-17
1.19783e-17
1.13701e-17
1.48737e-17
1.71491e-17
1.79117e-17
1.73082e-17
1.74647e-17
1.69413e-17
1.71156e-17
1.64318e-17
1.66279e-17
1.59083e-17
1.60314e-17
1.51958e-17
1.53562e-17
1.47777e-17
1.47163e-17
1.42534e-17
1.42032e-17
1.35846e-17
1.39219e-17
1.27731e-17
1.36523e-17
1.21594e-17
1.32638e-17
1.17909e-17
1.27666e-17
1.15272e-17
1.22491e-17
1.12912e-17
1.17661e-17
1.10782e-17
1.1335e-17
1.08874e-17
1.09975e-17
1.06628e-17
1.07636e-17
1.04254e-17
1.05784e-17
1.02826e-17
1.04338e-17
1.02416e-17