/*--------------------------------*- C++ -*----------------------------------*\
| =========                 |                                                 |
| \\      /  F ield         | OpenFOAM: The Open Source CFD Toolbox           |
|  \\    /   O peration     | Version:  2312                                  |
|   \\  /    A nd           | Website:  www.openfoam.com                      |
|    \\/     M anipulation  |                                                 |
\*---------------------------------------------------------------------------*/
FoamFile
{
    version     2.0;
    format      ascii;
    arch        "LSB;label=32;scalar=64";
    class       volScalarField;
    location    "920";
    object      p;
}
// * * * * * * * * * * * * * * * * * * * * * * * * * * * * * * * * * * * * * //

dimensions      [0 2 -2 0 0 0 0];

internalField   nonuniform List<scalar> 
144000
(
1.1148e-10
1.01598e-10
-2.30345e-11
-1.32889e-10
-1.51955e-10
-1.39449e-10
-1.10584e-10
-9.57775e-11
-7.86961e-11
-7.56456e-11
-6.53262e-11
-6.57274e-11
-5.69997e-11
-5.84831e-11
-4.94491e-11
-5.05757e-11
-4.2706e-11
-4.50953e-11
-3.54622e-11
-3.64731e-11
-2.7635e-11
-3.04081e-11
-2.1635e-11
-2.42976e-11
-1.55576e-11
-1.80857e-11
-9.6243e-12
-1.30275e-11
-4.44337e-12
-7.53437e-12
1.36133e-12
-1.25959e-12
6.7233e-12
2.60095e-12
1.07384e-11
7.21683e-12
1.49184e-11
1.16355e-11
1.8512e-11
1.45941e-11
2.02344e-11
1.71745e-11
2.29967e-11
2.07111e-11
2.72175e-11
2.4626e-11
3.02456e-11
2.94571e-11
3.29001e-11
3.30073e-11
3.44399e-11
3.60513e-11
2.89299e-11
2.64387e-11
5.6488e-12
1.41739e-12
-4.21119e-11
-9.18959e-11
-2.19001e-10
-2.58135e-11
1.18153e-10
1.05244e-10
-2.41676e-11
-1.34416e-10
-1.52821e-10
-1.39755e-10
-1.10754e-10
-9.58574e-11
-7.88191e-11
-7.57176e-11
-6.54367e-11
-6.57757e-11
-5.70933e-11
-5.85182e-11
-4.95207e-11
-5.05866e-11
-4.27729e-11
-4.51101e-11
-3.55206e-11
-3.64685e-11
-2.76906e-11
-3.04063e-11
-2.16846e-11
-2.42822e-11
-1.56024e-11
-1.80666e-11
-9.67063e-12
-1.30108e-11
-4.48574e-12
-7.5084e-12
1.32494e-12
-1.22788e-12
6.68384e-12
2.62472e-12
1.07042e-11
7.25292e-12
1.48911e-11
1.16719e-11
1.849e-11
1.46176e-11
2.01796e-11
1.70958e-11
2.29111e-11
2.07586e-11
2.72192e-11
2.46878e-11
3.02628e-11
2.95413e-11
3.29417e-11
3.30979e-11
3.45288e-11
3.61717e-11
2.90921e-11
2.65678e-11
5.94776e-12
1.74259e-12
-4.1125e-11
-9.16209e-11
-2.2366e-10
-2.86975e-11
1.26278e-10
1.09274e-10
-2.54111e-11
-1.36299e-10
-1.5402e-10
-1.40326e-10
-1.10995e-10
-9.60142e-11
-7.89429e-11
-7.58501e-11
-6.55487e-11
-6.58884e-11
-5.71799e-11
-5.86077e-11
-4.95849e-11
-5.06412e-11
-4.2813e-11
-4.51719e-11
-3.55657e-11
-3.65092e-11
-2.77212e-11
-3.04495e-11
-2.17092e-11
-2.43038e-11
-1.56181e-11
-1.8086e-11
-9.68434e-12
-1.30335e-11
-4.49511e-12
-7.5163e-12
1.32109e-12
-1.23158e-12
6.68458e-12
2.61162e-12
1.07054e-11
7.26014e-12
1.49034e-11
1.16792e-11
1.85111e-11
1.46217e-11
2.01556e-11
1.69373e-11
2.28101e-11
2.07611e-11
2.72787e-11
2.47477e-11
3.03283e-11
2.96348e-11
3.30419e-11
3.3203e-11
3.46577e-11
3.63172e-11
2.93127e-11
2.67748e-11
6.31871e-12
2.14977e-12
-3.97301e-11
-9.00059e-11
-2.30948e-10
-3.20955e-11
1.35832e-10
1.13409e-10
-2.64439e-11
-1.38447e-10
-1.55792e-10
-1.41203e-10
-1.11334e-10
-9.61971e-11
-7.90739e-11
-7.60118e-11
-6.56831e-11
-6.60282e-11
-5.72838e-11
-5.87272e-11
-4.9666e-11
-5.07147e-11
-4.28497e-11
-4.52554e-11
-3.5624e-11
-3.6569e-11
-2.77498e-11
-3.05102e-11
-2.17356e-11
-2.43358e-11
-1.56289e-11
-1.81162e-11
-9.6896e-12
-1.30679e-11
-4.49807e-12
-7.53177e-12
1.32608e-12
-1.24317e-12
6.70302e-12
2.58823e-12
1.07173e-11
7.26236e-12
1.49359e-11
1.16803e-11
1.85613e-11
1.46307e-11
2.01528e-11
1.67206e-11
2.26504e-11
2.07184e-11
2.73841e-11
2.48194e-11
3.0435e-11
2.97404e-11
3.32057e-11
3.33151e-11
3.48555e-11
3.64674e-11
2.96572e-11
2.69878e-11
6.873e-12
2.56116e-12
-3.7551e-11
-8.73943e-11
-2.40448e-10
-3.57853e-11
1.45481e-10
1.168e-10
-2.67365e-11
-1.40309e-10
-1.58022e-10
-1.42382e-10
-1.11759e-10
-9.63786e-11
-7.92077e-11
-7.61974e-11
-6.58518e-11
-6.62017e-11
-5.74183e-11
-5.88772e-11
-4.97768e-11
-5.08055e-11
-4.28934e-11
-4.53572e-11
-3.57066e-11
-3.66432e-11
-2.77847e-11
-3.05823e-11
-2.17745e-11
-2.43732e-11
-1.56438e-11
-1.81505e-11
-9.69445e-12
-1.31072e-11
-4.50475e-12
-7.54959e-12
1.33142e-12
-1.25594e-12
6.73225e-12
2.56099e-12
1.07312e-11
7.26311e-12
1.49836e-11
1.16776e-11
1.86406e-11
1.4649e-11
2.01784e-11
1.64668e-11
2.23981e-11
2.06149e-11
2.75322e-11
2.49035e-11
3.05786e-11
2.98495e-11
3.34351e-11
3.34179e-11
3.51303e-11
3.65942e-11
3.01466e-11
2.71569e-11
7.65263e-12
2.88662e-12
-3.44958e-11
-8.39905e-11
-2.51546e-10
-3.91437e-11
1.54198e-10
1.18037e-10
-2.60337e-11
-1.41237e-10
-1.60498e-10
-1.43838e-10
-1.12246e-10
-9.65415e-11
-7.93296e-11
-7.64024e-11
-6.60568e-11
-6.64121e-11
-5.75877e-11
-5.90617e-11
-4.99228e-11
-5.09178e-11
-4.2948e-11
-4.54787e-11
-3.58171e-11
-3.67345e-11
-2.7828e-11
-3.06664e-11
-2.18289e-11
-2.44183e-11
-1.56646e-11
-1.81902e-11
-9.69999e-12
-1.31517e-11
-4.51716e-12
-7.57159e-12
1.3361e-12
-1.27124e-12
6.77225e-12
2.5294e-12
1.07465e-11
7.25837e-12
1.50484e-11
1.16664e-11
1.87553e-11
1.46753e-11
2.02493e-11
1.61771e-11
2.20232e-11
2.04289e-11
2.77246e-11
2.49955e-11
3.07591e-11
2.99485e-11
3.37332e-11
3.34935e-11
3.54895e-11
3.66687e-11
3.07969e-11
2.72355e-11
8.6925e-12
3.03046e-12
-3.05096e-11
-7.99584e-11
-2.63835e-10
-4.10615e-11
1.61584e-10
1.155e-10
-2.44321e-11
-1.40602e-10
-1.62964e-10
-1.4553e-10
-1.12768e-10
-9.66407e-11
-7.94226e-11
-7.66187e-11
-6.62959e-11
-6.66594e-11
-5.77937e-11
-5.92826e-11
-5.0107e-11
-5.10577e-11
-4.30167e-11
-4.56208e-11
-3.59575e-11
-3.68466e-11
-2.78815e-11
-3.0763e-11
-2.19006e-11
-2.44737e-11
-1.56923e-11
-1.82368e-11
-9.70715e-12
-1.32018e-11
-4.53644e-12
-7.59986e-12
1.33992e-12
-1.29113e-12
6.82279e-12
2.49293e-12
1.07636e-11
7.24369e-12
1.51325e-11
1.16412e-11
1.8912e-11
1.47066e-11
2.03919e-11
1.58484e-11
2.1486e-11
2.01382e-11
2.79637e-11
2.50905e-11
3.09776e-11
3.0023e-11
3.41039e-11
3.35245e-11
3.59437e-11
3.66605e-11
3.16269e-11
2.71738e-11
1.00342e-11
2.90104e-12
-2.55492e-11
-7.54523e-11
-2.7721e-10
-4.0239e-11
1.67773e-10
1.07608e-10
-2.23373e-11
-1.37833e-10
-1.65127e-10
-1.47409e-10
-1.13303e-10
-9.66569e-11
-7.94693e-11
-7.68369e-11
-6.65654e-11
-6.69416e-11
-5.80371e-11
-5.95398e-11
-5.0331e-11
-5.12273e-11
-4.31033e-11
-4.57828e-11
-3.61287e-11
-3.69816e-11
-2.79483e-11
-3.08722e-11
-2.19916e-11
-2.45413e-11
-1.57282e-11
-1.82909e-11
-9.71794e-12
-1.32573e-11
-4.56393e-12
-7.63556e-12
1.34231e-12
-1.31668e-12
6.88222e-12
2.45167e-12
1.07825e-11
7.21553e-12
1.52374e-11
1.15976e-11
1.91172e-11
1.47389e-11
2.06435e-11
1.54553e-11
2.07319e-11
1.97232e-11
2.82528e-11
2.51831e-11
3.12365e-11
3.00589e-11
3.45513e-11
3.34934e-11
3.65054e-11
3.65401e-11
3.26565e-11
2.6925e-11
1.17187e-11
2.42199e-12
-1.96075e-11
-7.05736e-11
-2.91806e-10
-3.54477e-11
1.73372e-10
9.29714e-11
-2.04039e-11
-1.32452e-10
-1.66672e-10
-1.4942e-10
-1.13831e-10
-9.65659e-11
-7.94532e-11
-7.70472e-11
-6.68609e-11
-6.72553e-11
-5.83175e-11
-5.9832e-11
-5.05952e-11
-5.14283e-11
-4.32116e-11
-4.59634e-11
-3.63312e-11
-3.71407e-11
-2.80315e-11
-3.09932e-11
-2.21033e-11
-2.46223e-11
-1.57741e-11
-1.83527e-11
-9.7345e-12
-1.3318e-11
-4.60086e-12
-7.67953e-12
1.3425e-12
-1.34853e-12
6.94834e-12
2.40592e-12
1.08035e-11
7.17111e-12
1.53637e-11
1.15314e-11
1.93778e-11
1.47668e-11
2.10582e-11
1.49606e-11
1.96882e-11
1.91673e-11
2.8597e-11
2.52683e-11
3.15388e-11
3.00431e-11
3.50795e-11
3.33839e-11
3.7187e-11
3.62808e-11
3.39033e-11
2.64509e-11
1.37763e-11
1.54494e-12
-1.27242e-11
-6.53544e-11
-3.07937e-10
-2.56743e-11
1.79256e-10
7.05165e-11
-1.94265e-11
-1.24093e-10
-1.67279e-10
-1.51508e-10
-1.14349e-10
-9.63493e-11
-7.93602e-11
-7.72407e-11
-6.7178e-11
-6.7597e-11
-5.86338e-11
-6.01568e-11
-5.08986e-11
-5.16611e-11
-4.33449e-11
-4.61611e-11
-3.65641e-11
-3.73245e-11
-2.81339e-11
-3.11256e-11
-2.22362e-11
-2.47176e-11
-1.58313e-11
-1.84221e-11
-9.75904e-12
-1.33834e-11
-4.64787e-12
-7.73225e-12
1.33981e-12
-1.387e-12
7.01857e-12
2.35597e-12
1.08269e-11
7.10838e-12
1.55114e-11
1.14386e-11
1.97006e-11
1.47863e-11
2.17092e-11
1.43083e-11
1.8262e-11
1.84608e-11
2.90025e-11
2.53407e-11
3.18887e-11
2.99642e-11
3.56918e-11
3.31823e-11
3.79983e-11
3.58618e-11
3.53775e-11
2.57268e-11
1.62185e-11
2.51858e-13
-5.00156e-12
-5.97368e-11
-3.2595e-10
-1.02541e-11
1.86533e-10
3.95693e-11
-2.03257e-11
-1.12543e-10
-1.66625e-10
-1.53608e-10
-1.14859e-10
-9.59974e-11
-7.91799e-11
-7.74103e-11
-6.75134e-11
-6.79635e-11
-5.89851e-11
-6.05122e-11
-5.12402e-11
-5.19258e-11
-4.3506e-11
-4.63747e-11
-3.68262e-11
-3.75329e-11
-2.82582e-11
-3.12686e-11
-2.23904e-11
-2.48277e-11
-1.59011e-11
-1.84991e-11
-9.79332e-12
-1.34532e-11
-4.70528e-12
-7.79406e-12
1.33342e-12
-1.43211e-12
7.09051e-12
2.30218e-12
1.08528e-11
7.02618e-12
1.56791e-11
1.13165e-11
2.00912e-11
1.47955e-11
2.26994e-11
1.33735e-11
1.63342e-11
1.75982e-11
2.94739e-11
2.53941e-11
3.22892e-11
2.98133e-11
3.63891e-11
3.28788e-11
3.89443e-11
3.52705e-11
3.70794e-11
2.47457e-11
1.90342e-11
-1.43764e-12
3.41864e-12
-5.36099e-11
-3.46211e-10
1.11065e-11
1.96329e-10
-1.22689e-13
-2.40481e-11
-9.77519e-11
-1.64402e-10
-1.5564e-10
-1.1537e-10
-9.55092e-11
-7.89054e-11
-7.75504e-11
-6.78644e-11
-6.83527e-11
-5.93706e-11
-6.08965e-11
-5.16189e-11
-5.2222e-11
-4.36975e-11
-4.6603e-11
-3.71162e-11
-3.77655e-11
-2.84067e-11
-3.1422e-11
-2.25658e-11
-2.49529e-11
-1.59849e-11
-1.85832e-11
-9.83891e-12
-1.35272e-11
-4.77316e-12
-7.86501e-12
1.3225e-12
-1.4835e-12
7.16173e-12
2.24503e-12
1.0881e-11
6.92467e-12
1.58639e-11
1.11644e-11
2.05528e-11
1.47886e-11
2.4208e-11
1.20391e-11
1.37409e-11
1.65795e-11
3.0011e-11
2.54205e-11
3.27412e-11
2.95852e-11
3.71692e-11
3.2469e-11
4.00235e-11
3.45066e-11
3.89968e-11
2.35203e-11
2.219e-11
-3.47011e-12
1.23506e-11
-4.6846e-11
-3.68966e-10
3.83513e-11
2.09793e-10
-4.84013e-11
-3.15559e-11
-7.98587e-11
-1.60325e-10
-1.57498e-10
-1.15893e-10
-9.48924e-11
-7.85335e-11
-7.76557e-11
-6.82285e-11
-6.87625e-11
-5.979e-11
-6.13081e-11
-5.20339e-11
-5.25491e-11
-4.39216e-11
-4.68454e-11
-3.74326e-11
-3.80217e-11
-2.85814e-11
-3.15857e-11
-2.2762e-11
-2.50932e-11
-1.60837e-11
-1.86742e-11
-9.8969e-12
-1.3605e-11
-4.85157e-12
-7.9449e-12
1.30604e-12
-1.54062e-12
7.22992e-12
2.18536e-12
1.09106e-11
6.80564e-12
1.60611e-11
1.09836e-11
2.10831e-11
1.47598e-11
2.64383e-11
1.01252e-11
1.03135e-11
1.54396e-11
3.06187e-11
2.54155e-11
3.3244e-11
2.92791e-11
3.80248e-11
3.19549e-11
4.12266e-11
3.35808e-11
4.11038e-11
2.20829e-11
2.56298e-11
-5.76096e-12
2.1603e-11
-3.93524e-11
-3.94376e-10
7.11388e-11
2.27825e-10
-1.0464e-10
-4.36595e-11
-5.9191e-11
-1.54169e-10
-1.59057e-10
-1.16439e-10
-9.4166e-11
-7.80652e-11
-7.77218e-11
-6.86032e-11
-6.91909e-11
-6.02422e-11
-6.17455e-11
-5.24838e-11
-5.29062e-11
-4.41802e-11
-4.71015e-11
-3.77736e-11
-3.83005e-11
-2.8784e-11
-3.17597e-11
-2.29781e-11
-2.52485e-11
-1.61986e-11
-1.87717e-11
-9.9684e-12
-1.36866e-11
-4.94031e-12
-8.03312e-12
1.28295e-12
-1.60267e-12
7.29237e-12
2.12437e-12
1.09398e-11
6.67298e-12
1.6263e-11
1.07808e-11
2.16642e-11
1.47224e-11
2.95214e-11
7.37818e-12
5.88684e-12
1.42674e-11
3.13168e-11
2.53869e-11
3.37988e-11
2.89008e-11
3.89446e-11
3.13463e-11
4.25355e-11
3.25164e-11
4.33607e-11
2.04847e-11
2.92778e-11
-8.20723e-12
3.09609e-11
-3.10482e-11
-4.22375e-10
1.08777e-10
2.51112e-10
-1.67683e-10
-6.09963e-11
-3.62859e-11
-1.45785e-10
-1.60175e-10
-1.17019e-10
-9.33603e-11
-7.7507e-11
-7.77451e-11
-6.89859e-11
-6.96363e-11
-6.07266e-11
-6.22071e-11
-5.29672e-11
-5.32923e-11
-4.44745e-11
-4.73711e-11
-3.81379e-11
-3.8601e-11
-2.9016e-11
-3.19444e-11
-2.32136e-11
-2.54182e-11
-1.63308e-11
-1.88756e-11
-1.00541e-11
-1.37717e-11
-5.03927e-12
-8.12888e-12
1.25187e-12
-1.66863e-12
7.34652e-12
2.06381e-12
1.09661e-11
6.53243e-12
1.64594e-11
1.0571e-11
2.2248e-11
1.49323e-11
3.41066e-11
2.29775e-12
-2.02222e-13
1.30241e-11
3.20798e-11
2.5338e-11
3.44023e-11
2.84608e-11
3.9913e-11
3.06613e-11
4.39231e-11
3.13479e-11
4.57148e-11
1.8793e-11
3.30403e-11
-1.06881e-11
4.02226e-11
-2.18826e-11
-4.52731e-10
1.50225e-10
2.79928e-10
-2.35927e-10
-8.39146e-11
-1.18363e-11
-1.35113e-10
-1.6069e-10
-1.17636e-10
-9.25158e-11
-7.68713e-11
-7.77233e-11
-6.93743e-11
-7.00976e-11
-6.12429e-11
-6.2692e-11
-5.34834e-11
-5.37061e-11
-4.48055e-11
-4.76544e-11
-3.8524e-11
-3.8922e-11
-2.92784e-11
-3.21403e-11
-2.34679e-11
-2.5602e-11
-1.64811e-11
-1.89857e-11
-1.01549e-11
-1.38601e-11
-5.14836e-12
-8.23119e-12
1.2113e-12
-1.73723e-12
7.38985e-12
2.00528e-12
1.09868e-11
6.38862e-12
1.66435e-11
1.0364e-11
2.27969e-11
1.46574e-11
4.17685e-11
-9.74039e-13
-8.57739e-12
1.14267e-11
3.27462e-11
2.52418e-11
3.50362e-11
2.79693e-11
4.09069e-11
2.99228e-11
4.53539e-11
3.01211e-11
4.81028e-11
1.70896e-11
3.68135e-11
-1.3076e-11
4.91923e-11
-1.18646e-11
-4.84967e-10
1.94201e-10
3.14297e-10
-3.07586e-10
-1.12554e-10
1.3334e-11
-1.22158e-10
-1.60407e-10
-1.18275e-10
-9.16782e-11
-7.61758e-11
-7.76545e-11
-6.97657e-11
-7.05739e-11
-6.17907e-11
-6.31994e-11
-5.40312e-11
-5.41466e-11
-4.51738e-11
-4.79516e-11
-3.89308e-11
-3.92624e-11
-2.9572e-11
-3.23481e-11
-2.37405e-11
-2.57992e-11
-1.66507e-11
-1.91017e-11
-1.02709e-11
-1.39516e-11
-5.26789e-12
-8.33888e-12
1.15954e-12
-1.80701e-12
7.4198e-12
1.95141e-12
1.0997e-11
6.25175e-12
1.67948e-11
1.02116e-11
2.31948e-11
1.43535e-11
4.69344e-11
-1.01361e-14
-1.38646e-11
9.9921e-12
3.32876e-11
2.51156e-11
3.56958e-11
2.74456e-11
4.19012e-11
2.91608e-11
4.67855e-11
2.88899e-11
5.04521e-11
1.54649e-11
4.04874e-11
-1.52422e-11
5.77316e-11
-1.10705e-12
-5.18533e-10
2.39432e-10
3.54013e-10
-3.81594e-10
-1.46914e-10
3.82495e-11
-1.0704e-10
-1.59135e-10
-1.18911e-10
-9.09013e-11
-7.54452e-11
-7.75386e-11
-7.01568e-11
-7.10637e-11
-6.23692e-11
-6.37279e-11
-5.46093e-11
-5.46122e-11
-4.55792e-11
-4.8263e-11
-3.9357e-11
-3.96208e-11
-2.98973e-11
-3.25684e-11
-2.4031e-11
-2.6009e-11
-1.68403e-11
-1.92237e-11
-1.04026e-11
-1.40457e-11
-5.39811e-12
-8.45046e-12
1.09492e-12
-1.87631e-12
7.43317e-12
1.90565e-12
1.09899e-11
6.13676e-12
1.68834e-11
1.01936e-11
2.32845e-11
1.47889e-11
4.26439e-11
2.01645e-13
-8.8864e-12
9.99571e-12
3.37544e-11
2.50067e-11
3.63842e-11
2.69166e-11
4.28682e-11
2.84112e-11
4.8171e-11
2.77156e-11
5.26853e-11
1.40152e-11
4.39508e-11
-1.70652e-11
6.57093e-11
1.02352e-11
-5.5267e-10
2.84607e-10
3.98823e-10
-4.53634e-10
-1.86881e-10
6.17618e-11
-9.00172e-11
-1.567e-10
-1.19511e-10
-9.02441e-11
-7.4712e-11
-7.73778e-11
-7.05445e-11
-7.1566e-11
-6.29779e-11
-6.42765e-11
-5.52163e-11
-5.51014e-11
-4.60213e-11
-4.85886e-11
-3.98015e-11
-3.99956e-11
-3.02541e-11
-3.28018e-11
-2.43389e-11
-2.62303e-11
-1.70506e-11
-1.93515e-11
-1.05505e-11
-1.4142e-11
-5.53935e-12
-8.56451e-12
1.01581e-12
-1.94384e-12
7.42795e-12
1.86921e-12
1.09644e-11
6.04289e-12
1.69184e-11
1.02656e-11
2.31685e-11
1.51664e-11
3.5547e-11
4.3132e-12
3.83214e-13
1.05058e-11
3.40299e-11
2.4873e-11
3.7066e-11
2.6408e-11
4.37718e-11
2.77106e-11
4.94594e-11
2.66612e-11
5.47222e-11
1.28377e-11
4.70915e-11
-1.84221e-11
7.30093e-11
2.20122e-11
-5.86531e-10
3.27776e-10
4.47966e-10
-5.22092e-10
-2.31913e-10
8.27604e-11
-7.14253e-11
-1.52934e-10
-1.20031e-10
-8.97602e-11
-7.40133e-11
-7.71774e-11
-7.09268e-11
-7.20804e-11
-6.36172e-11
-6.48454e-11
-5.58514e-11
-5.56129e-11
-4.64995e-11
-4.89289e-11
-4.02636e-11
-4.03857e-11
-3.06425e-11
-3.30488e-11
-2.46643e-11
-2.64624e-11
-1.72821e-11
-1.94849e-11
-1.07148e-11
-1.42399e-11
-5.69203e-12
-8.67933e-12
9.20669e-13
-2.00822e-12
7.40244e-12
1.84297e-12
1.09195e-11
5.96785e-12
1.69117e-11
1.03696e-11
2.29752e-11
1.51834e-11
3.09209e-11
1.03305e-11
7.09977e-12
1.06779e-11
3.41342e-11
2.47145e-11
3.77112e-11
2.59428e-11
4.4579e-11
2.70982e-11
5.05998e-11
2.57913e-11
5.64842e-11
1.20297e-11
4.98025e-11
-1.91889e-11
7.95032e-11
3.40851e-11
-6.19128e-10
3.66985e-10
5.00499e-10
-5.84346e-10
-2.81236e-10
1.00159e-10
-5.16581e-11
-1.47676e-10
-1.20402e-10
-8.95179e-11
-7.33873e-11
-7.69443e-11
-7.13009e-11
-7.26062e-11
-6.42873e-11
-6.54346e-11
-5.65143e-11
-5.61457e-11
-4.70126e-11
-4.92841e-11
-4.0743e-11
-4.07899e-11
-3.10617e-11
-3.33102e-11
-2.50074e-11
-2.67044e-11
-1.75355e-11
-1.96238e-11
-1.08955e-11
-1.43388e-11
-5.857e-12
-8.79357e-12
8.0788e-13
-2.06776e-12
7.35511e-12
1.82931e-12
1.08512e-11
5.91749e-12
1.68545e-11
1.05224e-11
2.26823e-11
1.52426e-11
2.79078e-11
1.30341e-11
1.24486e-11
1.12832e-11
3.42294e-11
2.45836e-11
3.83102e-11
2.55556e-11
4.52605e-11
2.66115e-11
5.15425e-11
2.51653e-11
5.78958e-11
1.16787e-11
5.19843e-11
-1.92456e-11
8.51075e-11
4.6297e-11
-6.49531e-10
4.0059e-10
5.5534e-10
-6.37711e-10
-3.33963e-10
1.12919e-10
-3.11857e-11
-1.40823e-10
-1.20551e-10
-8.95572e-11
-7.28777e-11
-7.66894e-11
-7.16653e-11
-7.31425e-11
-6.49881e-11
-6.6044e-11
-5.72045e-11
-5.66989e-11
-4.75594e-11
-4.96544e-11
-4.12394e-11
-4.12074e-11
-3.15111e-11
-3.35863e-11
-2.53684e-11
-2.69556e-11
-1.78109e-11
-1.97682e-11
-1.10927e-11
-1.44381e-11
-6.03485e-12
-8.90584e-12
6.7643e-13
-2.12166e-12
7.28526e-12
1.82863e-12
1.07591e-11
5.89004e-12
1.67513e-11
1.07176e-11
2.23344e-11
1.53787e-11
2.58192e-11
1.49667e-11
1.69387e-11
1.21771e-11
3.43016e-11
2.44685e-11
3.88273e-11
2.52652e-11
4.57878e-11
2.62872e-11
5.22443e-11
2.48395e-11
5.88947e-11
1.18452e-11
5.35494e-11
-1.84905e-11
8.9714e-11
5.85762e-11
-6.76699e-10
4.26683e-10
6.11457e-10
-6.79465e-10
-3.8917e-10
1.20095e-10
-1.05084e-11
-1.32348e-10
-1.20412e-10
-8.99162e-11
-7.25326e-11
-7.64291e-11
-7.20198e-11
-7.36893e-11
-6.57197e-11
-6.6674e-11
-5.79212e-11
-5.72726e-11
-4.81382e-11
-5.00395e-11
-4.17524e-11
-4.1638e-11
-3.199e-11
-3.38773e-11
-2.57475e-11
-2.72155e-11
-1.81083e-11
-1.99182e-11
-1.13063e-11
-1.45371e-11
-6.22576e-12
-9.015e-12
5.25876e-13
-2.16988e-12
7.19262e-12
1.84085e-12
1.06444e-11
5.88127e-12
1.66109e-11
1.09054e-11
2.20019e-11
1.54954e-11
2.44593e-11
1.61633e-11
2.05396e-11
1.32029e-11
3.43367e-11
2.43777e-11
3.92386e-11
2.50935e-11
4.61388e-11
2.61588e-11
5.26726e-11
2.48575e-11
5.94392e-11
1.2625e-11
5.44336e-11
-1.68107e-11
9.31022e-11
7.10566e-11
-6.99611e-10
4.43059e-10
6.67852e-10
-7.0682e-10
-4.45926e-10
1.20883e-10
9.89722e-12
-1.22295e-10
-1.19951e-10
-9.06329e-11
-7.24023e-11
-7.61846e-11
-7.23681e-11
-7.42498e-11
-6.64849e-11
-6.73269e-11
-5.8665e-11
-5.7869e-11
-4.87492e-11
-5.04398e-11
-4.22819e-11
-4.20827e-11
-3.24988e-11
-3.41839e-11
-2.61453e-11
-2.74846e-11
-1.84278e-11
-2.00748e-11
-1.15365e-11
-1.46352e-11
-6.42976e-12
-9.12037e-12
3.56276e-13
-2.21284e-12
7.07708e-12
1.86622e-12
1.05081e-11
5.88798e-12
1.64392e-11
1.10856e-11
2.17036e-11
1.55723e-11
2.3635e-11
1.68795e-11
2.33824e-11
1.43195e-11
3.4349e-11
2.4339e-11
3.95305e-11
2.50621e-11
4.62983e-11
2.62492e-11
5.28087e-11
2.52456e-11
5.95084e-11
1.40347e-11
5.46069e-11
-1.40854e-11
9.48654e-11
8.41571e-11
-7.17172e-10
4.47102e-10
7.23429e-10
-7.16882e-10
-5.03343e-10
1.14559e-10
2.96225e-11
-1.10725e-10
-1.19163e-10
-9.1743e-11
-7.25407e-11
-7.59784e-11
-7.27148e-11
-7.48274e-11
-6.72885e-11
-6.80056e-11
-5.94385e-11
-5.8491e-11
-4.93936e-11
-5.08548e-11
-4.28286e-11
-4.25423e-11
-3.30382e-11
-3.45056e-11
-2.65633e-11
-2.77631e-11
-1.87707e-11
-2.02381e-11
-1.17844e-11
-1.47309e-11
-6.64786e-12
-9.22113e-12
1.66767e-13
-2.25073e-12
6.93831e-12
1.90571e-12
1.03508e-11
5.90618e-12
1.62412e-11
1.1255e-11
2.14356e-11
1.56176e-11
2.31871e-11
1.731e-11
2.56025e-11
1.54939e-11
3.43399e-11
2.43705e-11
3.9688e-11
2.51791e-11
4.6252e-11
2.6572e-11
5.2639e-11
2.60158e-11
5.90897e-11
1.6089e-11
5.40364e-11
-1.00881e-11
9.44245e-11
9.85155e-11
-7.28032e-10
4.35872e-10
1.107e-10
1.0007e-10
-2.46456e-11
-1.34451e-10
-1.53437e-10
-1.40677e-10
-1.11606e-10
-9.66022e-11
-7.939e-11
-7.62302e-11
-6.58071e-11
-6.61076e-11
-5.73172e-11
-5.87354e-11
-4.96607e-11
-5.07427e-11
-4.28106e-11
-4.513e-11
-3.54725e-11
-3.6461e-11
-2.76065e-11
-3.03639e-11
-2.15983e-11
-2.42645e-11
-1.55309e-11
-1.80836e-11
-9.61283e-12
-1.3036e-11
-4.45824e-12
-7.58405e-12
1.33618e-12
-1.33301e-12
6.69851e-12
2.5024e-12
1.07466e-11
7.13533e-12
1.50252e-11
1.15805e-11
1.87834e-11
1.46259e-11
2.08386e-11
1.75906e-11
2.34001e-11
2.11611e-11
2.75455e-11
2.4928e-11
3.05933e-11
2.98697e-11
3.33831e-11
3.35567e-11
3.50603e-11
3.67212e-11
2.97293e-11
2.72892e-11
6.57535e-12
2.32114e-12
-4.1541e-11
-9.2042e-11
-2.20526e-10
-2.70243e-11
1.17367e-10
1.03714e-10
-2.57928e-11
-1.35976e-10
-1.543e-10
-1.40981e-10
-1.11775e-10
-9.66817e-11
-7.95148e-11
-7.6305e-11
-6.59199e-11
-6.61592e-11
-5.74135e-11
-5.87739e-11
-4.97355e-11
-5.07578e-11
-4.28791e-11
-4.51471e-11
-3.55321e-11
-3.64586e-11
-2.7662e-11
-3.03628e-11
-2.16482e-11
-2.42504e-11
-1.55761e-11
-1.80657e-11
-9.65777e-12
-1.30182e-11
-4.49955e-12
-7.55741e-12
1.30025e-12
-1.30093e-12
6.65934e-12
2.52777e-12
1.07114e-11
7.17378e-12
1.49955e-11
1.16219e-11
1.87581e-11
1.46625e-11
2.08004e-11
1.75708e-11
2.33551e-11
2.12173e-11
2.75485e-11
2.49907e-11
3.06115e-11
2.99542e-11
3.34256e-11
3.36481e-11
3.51499e-11
3.68428e-11
2.9893e-11
2.74202e-11
6.87596e-12
2.64718e-12
-4.05529e-11
-9.17675e-11
-2.25185e-10
-2.99144e-11
1.25483e-10
1.07746e-10
-2.70516e-11
-1.37854e-10
-1.55495e-10
-1.41549e-10
-1.12016e-10
-9.68399e-11
-7.96418e-11
-7.64418e-11
-6.60356e-11
-6.62755e-11
-5.75036e-11
-5.88677e-11
-4.98034e-11
-5.08176e-11
-4.29218e-11
-4.52114e-11
-3.55783e-11
-3.65017e-11
-2.76921e-11
-3.0406e-11
-2.16727e-11
-2.42734e-11
-1.55918e-11
-1.80865e-11
-9.6693e-12
-1.30391e-11
-4.50675e-12
-7.56473e-12
1.29777e-12
-1.30467e-12
6.66135e-12
2.51594e-12
1.07126e-11
7.1824e-12
1.50066e-11
1.16333e-11
1.8778e-11
1.46767e-11
2.08012e-11
1.74946e-11
2.33228e-11
2.12469e-11
2.7611e-11
2.50505e-11
3.06778e-11
3.00476e-11
3.35264e-11
3.37535e-11
3.52793e-11
3.6988e-11
3.01145e-11
2.76287e-11
7.24486e-12
3.05354e-12
-3.91598e-11
-9.01417e-11
-2.32463e-10
-3.33321e-11
1.35018e-10
1.11883e-10
-2.81077e-11
-1.39996e-10
-1.57258e-10
-1.42421e-10
-1.12353e-10
-9.70236e-11
-7.97764e-11
-7.66085e-11
-6.61748e-11
-6.64201e-11
-5.76118e-11
-5.89922e-11
-4.9889e-11
-5.08974e-11
-4.29623e-11
-4.52982e-11
-3.56381e-11
-3.65644e-11
-2.77206e-11
-3.04662e-11
-2.16986e-11
-2.43067e-11
-1.56026e-11
-1.81181e-11
-9.67249e-12
-1.3071e-11
-4.50685e-12
-7.57911e-12
1.30431e-12
-1.31583e-12
6.6809e-12
2.49469e-12
1.0724e-11
7.187e-12
1.50367e-11
1.16401e-11
1.8825e-11
1.46923e-11
2.08281e-11
1.73759e-11
2.32722e-11
2.12599e-11
2.77232e-11
2.51215e-11
3.07858e-11
3.01531e-11
3.36904e-11
3.38658e-11
3.54777e-11
3.71382e-11
3.04589e-11
2.78437e-11
7.79444e-12
3.46292e-12
-3.69816e-11
-8.75124e-11
-2.41937e-10
-3.70473e-11
1.44638e-10
1.15276e-10
-2.84302e-11
-1.41854e-10
-1.59475e-10
-1.43591e-10
-1.12774e-10
-9.72051e-11
-7.99131e-11
-7.67993e-11
-6.63487e-11
-6.65985e-11
-5.77509e-11
-5.91475e-11
-5.00048e-11
-5.09952e-11
-4.30115e-11
-4.5404e-11
-3.57228e-11
-3.66418e-11
-2.77561e-11
-3.05376e-11
-2.17368e-11
-2.43455e-11
-1.56179e-11
-1.81541e-11
-9.67589e-12
-1.31069e-11
-4.51025e-12
-7.59488e-12
1.31098e-12
-1.32703e-12
6.7103e-12
2.47146e-12
1.07358e-11
7.193e-12
1.50782e-11
1.16479e-11
1.88943e-11
1.4715e-11
2.08816e-11
1.72189e-11
2.3182e-11
2.12538e-11
2.78838e-11
2.52043e-11
3.09318e-11
3.02625e-11
3.39198e-11
3.39684e-11
3.57525e-11
3.72648e-11
3.09468e-11
2.80151e-11
8.56725e-12
3.78509e-12
-3.39262e-11
-8.40879e-11
-2.52995e-10
-4.04295e-11
1.53323e-10
1.16515e-10
-2.77618e-11
-1.42782e-10
-1.61937e-10
-1.45035e-10
-1.13254e-10
-9.73639e-11
-8.00364e-11
-7.70088e-11
-6.65588e-11
-6.68136e-11
-5.79247e-11
-5.93373e-11
-5.01557e-11
-5.1115e-11
-4.30727e-11
-4.55303e-11
-3.58358e-11
-3.67368e-11
-2.78006e-11
-3.06209e-11
-2.17902e-11
-2.43918e-11
-1.56393e-11
-1.81953e-11
-9.68099e-12
-1.31473e-11
-4.51931e-12
-7.61361e-12
1.31633e-12
-1.33912e-12
6.74877e-12
2.44652e-12
1.07461e-11
7.19819e-12
1.51304e-11
1.1655e-11
1.89874e-11
1.47445e-11
2.0969e-11
1.70205e-11
2.30389e-11
2.12202e-11
2.80954e-11
2.52946e-11
3.11161e-11
3.03627e-11
3.42175e-11
3.40434e-11
3.61109e-11
3.73385e-11
3.15938e-11
2.80956e-11
9.59899e-12
3.92405e-12
-2.99384e-11
-8.00337e-11
-2.65232e-10
-4.23641e-11
1.60682e-10
1.13982e-10
-2.61984e-11
-1.42154e-10
-1.6439e-10
-1.46715e-10
-1.13767e-10
-9.74588e-11
-8.01286e-11
-7.72284e-11
-6.68025e-11
-6.70649e-11
-5.81346e-11
-5.9563e-11
-5.03445e-11
-5.12618e-11
-4.31489e-11
-4.56776e-11
-3.5979e-11
-3.68526e-11
-2.78562e-11
-3.07166e-11
-2.18608e-11
-2.44478e-11
-1.56679e-11
-1.82432e-11
-9.68897e-12
-1.31928e-11
-4.53558e-12
-7.63711e-12
1.31978e-12
-1.35372e-12
6.79543e-12
2.42007e-12
1.07539e-11
7.19986e-12
1.51934e-11
1.16592e-11
1.91056e-11
1.47806e-11
2.10992e-11
1.67762e-11
2.28323e-11
2.11519e-11
2.83604e-11
2.53875e-11
3.13405e-11
3.04399e-11
3.45877e-11
3.40733e-11
3.65635e-11
3.73289e-11
3.24187e-11
2.80349e-11
1.09322e-11
3.78839e-12
-2.4974e-11
-7.55073e-11
-2.78553e-10
-4.15445e-11
1.66856e-10
1.06092e-10
-2.41443e-11
-1.39398e-10
-1.66542e-10
-1.48581e-10
-1.14293e-10
-9.74685e-11
-8.01725e-11
-7.74483e-11
-6.70756e-11
-6.73502e-11
-5.83811e-11
-5.98243e-11
-5.05726e-11
-5.14376e-11
-4.32435e-11
-4.58453e-11
-3.61537e-11
-3.69913e-11
-2.7926e-11
-3.0825e-11
-2.19506e-11
-2.45154e-11
-1.57053e-11
-1.82981e-11
-9.70203e-12
-1.32433e-11
-4.56082e-12
-7.66637e-12
1.32035e-12
-1.37149e-12
6.84801e-12
2.39287e-12
1.07582e-11
7.19605e-12
1.52665e-11
1.16595e-11
1.92489e-11
1.48234e-11
2.12815e-11
1.64784e-11
2.25541e-11
2.10437e-11
2.86798e-11
2.54777e-11
3.1608e-11
3.04804e-11
3.50347e-11
3.40408e-11
3.71227e-11
3.72061e-11
3.34418e-11
2.77861e-11
1.26091e-11
3.30203e-12
-1.90259e-11
-7.06122e-11
-2.93098e-10
-3.67379e-11
1.72456e-10
9.14591e-11
-2.22511e-11
-1.34036e-10
-1.68081e-10
-1.50579e-10
-1.14808e-10
-9.73695e-11
-8.01516e-11
-7.76584e-11
-6.73737e-11
-6.7666e-11
-5.86636e-11
-6.01195e-11
-5.08402e-11
-5.16437e-11
-4.33599e-11
-4.60317e-11
-3.636e-11
-3.71541e-11
-2.80131e-11
-3.09454e-11
-2.20613e-11
-2.45956e-11
-1.5753e-11
-1.83601e-11
-9.72234e-12
-1.32986e-11
-4.59665e-12
-7.70206e-12
1.31701e-12
-1.3928e-12
6.90387e-12
2.36573e-12
1.07584e-11
7.18515e-12
1.53484e-11
1.16551e-11
1.94169e-11
1.48734e-11
2.1526e-11
1.61179e-11
2.21971e-11
2.08926e-11
2.90546e-11
2.55594e-11
3.19224e-11
3.04715e-11
3.55631e-11
3.39298e-11
3.7801e-11
3.69435e-11
3.46805e-11
2.73103e-11
1.46602e-11
2.41718e-12
-1.21338e-11
-6.53811e-11
-3.09186e-10
-2.6931e-11
1.78359e-10
6.901e-11
-2.13099e-11
-1.25699e-10
-1.68686e-10
-1.52657e-10
-1.15313e-10
-9.71441e-11
-8.00522e-11
-7.785e-11
-6.76922e-11
-6.80087e-11
-5.89811e-11
-6.04463e-11
-5.11461e-11
-5.18804e-11
-4.3501e-11
-4.62353e-11
-3.65972e-11
-3.73413e-11
-2.81203e-11
-3.10774e-11
-2.21936e-11
-2.46893e-11
-1.58125e-11
-1.8429e-11
-9.75203e-12
-1.33584e-11
-4.644e-12
-7.74466e-12
1.30889e-12
-1.41785e-12
6.9602e-12
2.33915e-12
1.07542e-11
7.16577e-12
1.54381e-11
1.16456e-11
1.96077e-11
1.49312e-11
2.18442e-11
1.56849e-11
2.17571e-11
2.06974e-11
2.94847e-11
2.56258e-11
3.22875e-11
3.0402e-11
3.61763e-11
3.37265e-11
3.86086e-11
3.65203e-11
3.61458e-11
2.65825e-11
1.70975e-11
1.11609e-12
-4.40024e-12
-5.97538e-11
-3.27169e-10
-1.14639e-11
1.85678e-10
3.80747e-11
-2.22398e-11
-1.14172e-10
-1.68037e-10
-1.5475e-10
-1.15811e-10
-9.6783e-11
-7.98644e-11
-7.80162e-11
-6.80278e-11
-6.83751e-11
-5.93323e-11
-6.08024e-11
-5.14893e-11
-5.21478e-11
-4.36693e-11
-4.64544e-11
-3.68639e-11
-3.7553e-11
-2.82501e-11
-3.12204e-11
-2.23478e-11
-2.47971e-11
-1.58852e-11
-1.85045e-11
-9.7927e-12
-1.34222e-11
-4.70339e-12
-7.79463e-12
1.29514e-12
-1.44678e-12
7.01471e-12
2.31339e-12
1.07459e-11
7.13671e-12
1.55339e-11
1.16307e-11
1.98192e-11
1.49968e-11
2.22464e-11
1.51692e-11
2.12327e-11
2.04595e-11
2.99683e-11
2.56705e-11
3.27066e-11
3.02628e-11
3.68755e-11
3.34213e-11
3.95506e-11
3.59235e-11
3.78379e-11
2.55955e-11
1.99098e-11
-5.81069e-13
4.0334e-12
-5.3618e-11
-3.47419e-10
9.95052e-12
1.95538e-10
-1.59725e-12
-2.59845e-11
-9.94036e-11
-1.65822e-10
-1.56779e-10
-1.16312e-10
-9.62856e-11
-7.95818e-11
-7.81515e-11
-6.8378e-11
-6.87632e-11
-5.9717e-11
-6.11863e-11
-5.18691e-11
-5.24455e-11
-4.38672e-11
-4.66879e-11
-3.71588e-11
-3.77886e-11
-2.84046e-11
-3.13741e-11
-2.25239e-11
-2.49194e-11
-1.59722e-11
-1.85863e-11
-9.84576e-12
-1.34898e-11
-4.77489e-12
-7.85224e-12
1.27508e-12
-1.47953e-12
7.0654e-12
2.28834e-12
1.07341e-11
7.09698e-12
1.56342e-11
1.16101e-11
2.00484e-11
1.50687e-11
2.27457e-11
1.45722e-11
2.06256e-11
2.01812e-11
3.05008e-11
2.56873e-11
3.3181e-11
3.00486e-11
3.76587e-11
3.30098e-11
4.06254e-11
3.5153e-11
3.97451e-11
2.4362e-11
2.30634e-11
-2.62052e-12
1.29805e-11
-4.68442e-11
-3.70179e-10
3.72503e-11
2.09083e-10
-4.98485e-11
-3.35054e-11
-8.15297e-11
-1.61756e-10
-1.58637e-10
-1.16825e-10
-9.56599e-11
-7.92015e-11
-7.82511e-11
-6.87404e-11
-6.91711e-11
-6.01345e-11
-6.15966e-11
-5.22843e-11
-5.2773e-11
-4.40969e-11
-4.6935e-11
-3.74801e-11
-3.80475e-11
-2.85856e-11
-3.15383e-11
-2.27215e-11
-2.50563e-11
-1.60747e-11
-1.86742e-11
-9.91202e-12
-1.35613e-11
-4.85842e-12
-7.9177e-12
1.24802e-12
-1.51606e-12
7.11077e-12
2.26371e-12
1.07193e-11
7.04599e-12
1.57372e-11
1.15835e-11
2.0291e-11
1.51445e-11
2.33491e-11
1.39047e-11
1.99479e-11
1.98665e-11
3.10751e-11
2.5672e-11
3.37096e-11
2.97579e-11
3.85178e-11
3.24939e-11
4.1824e-11
3.42196e-11
4.18416e-11
2.29145e-11
2.65016e-11
-4.91725e-12
2.22494e-11
-3.93403e-11
-3.95613e-10
7.0093e-11
2.27211e-10
-1.06053e-10
-4.561e-11
-6.08746e-11
-1.55613e-10
-1.60201e-10
-1.17365e-10
-9.49255e-11
-7.87251e-11
-7.8311e-11
-6.91128e-11
-6.95971e-11
-6.05844e-11
-6.20317e-11
-5.27338e-11
-5.31295e-11
-4.43601e-11
-4.71951e-11
-3.78261e-11
-3.83288e-11
-2.8795e-11
-3.17133e-11
-2.29399e-11
-2.52079e-11
-1.61937e-11
-1.87681e-11
-9.9923e-12
-1.36365e-11
-4.9535e-12
-7.9909e-12
1.21343e-12
-1.5564e-12
7.14924e-12
2.23905e-12
1.07024e-11
6.98381e-12
1.58407e-11
1.15511e-11
2.05404e-11
1.52186e-11
2.4049e-11
1.32032e-11
1.9235e-11
1.95198e-11
3.16801e-11
2.56234e-11
3.42892e-11
2.93945e-11
3.94413e-11
3.18827e-11
4.31282e-11
3.31465e-11
4.40877e-11
2.13043e-11
3.01479e-11
-7.36856e-12
3.16243e-11
-3.10233e-11
-4.23648e-10
1.07784e-10