/*--------------------------------*- C++ -*----------------------------------*\
| =========                 |                                                 |
| \\      /  F ield         | OpenFOAM: The Open Source CFD Toolbox           |
|  \\    /   O peration     | Version:  2312                                  |
|   \\  /    A nd           | Website:  www.openfoam.com                      |
|    \\/     M anipulation  |                                                 |
\*---------------------------------------------------------------------------*/
FoamFile
{
    version     2.0;
    format      ascii;
    arch        "LSB;label=32;scalar=64";
    class       volScalarField;
    location    "920";
    object      pPrime2Mean;
}
// * * * * * * * * * * * * * * * * * * * * * * * * * * * * * * * * * * * * * //

dimensions      [0 4 -4 0 0 0 0];

internalField   nonuniform List<scalar> 
144000
(
2.8849e-18
3.37583e-18
3.16872e-18
2.64748e-18
1.88099e-18
1.3211e-18
9.75571e-19
7.20018e-19
5.35014e-19
4.40386e-19
4.12014e-19
3.72479e-19
3.18518e-19
2.54969e-19
2.13946e-19
1.79594e-19
1.65401e-19
1.41155e-19
1.31772e-19
1.16453e-19
1.05586e-19
8.67173e-20
8.82074e-20
6.60849e-20
7.02687e-20
5.48021e-20
5.58767e-20
4.4826e-20
4.47857e-20
3.47754e-20
3.70297e-20
2.67142e-20
3.08748e-20
2.20019e-20
2.3658e-20
2.30129e-20
1.29142e-20
2.56591e-20
9.21337e-21
1.65867e-20
2.12918e-20
2.43045e-21
3.26319e-20
7.96073e-21
2.37619e-20
3.59011e-20
1.40961e-20
4.91756e-20
3.82766e-20
4.10666e-20
7.39566e-20
6.49491e-20
9.48975e-20
1.3688e-19
1.70822e-19
2.54059e-19
4.08236e-19
7.34595e-19
1.93843e-18
1.8553e-18
3.02949e-18
3.45598e-18
3.25303e-18
2.71081e-18
1.90984e-18
1.33768e-18
9.86483e-19
7.2701e-19
5.38888e-19
4.42697e-19
4.13938e-19
3.74182e-19
3.19749e-19
2.55778e-19
2.14491e-19
1.80025e-19
1.65802e-19
1.41486e-19
1.31997e-19
1.16756e-19
1.05826e-19
8.68144e-20
8.84073e-20
6.6251e-20
7.03419e-20
5.49781e-20
5.59529e-20
4.4959e-20
4.48775e-20
3.48583e-20
3.71485e-20
2.67732e-20
3.09898e-20
2.21157e-20
2.36872e-20
2.33079e-20
1.28267e-20
2.60054e-20
9.36838e-21
1.65838e-20
2.19353e-20
2.25031e-21
3.3277e-20
8.40573e-21
2.38753e-20
3.71724e-20
1.43596e-20
5.03553e-20
3.98585e-20
4.21425e-20
7.65513e-20
6.76884e-20
9.8339e-20
1.42625e-19
1.78146e-19
2.64889e-19
4.26366e-19
7.62767e-19
2.02326e-18
1.90483e-18
3.13976e-18
3.5171e-18
3.28553e-18
2.72848e-18
1.91527e-18
1.34235e-18
9.91725e-19
7.31304e-19
5.41501e-19
4.44334e-19
4.15666e-19
3.75823e-19
3.20984e-19
2.56515e-19
2.15022e-19
1.80423e-19
1.66308e-19
1.41822e-19
1.32265e-19
1.1711e-19
1.06147e-19
8.6867e-20
8.87438e-20
6.63777e-20
7.05291e-20
5.51535e-20
5.61175e-20
4.51075e-20
4.50605e-20
3.49439e-20
3.73835e-20
2.68307e-20
3.12215e-20
2.22754e-20
2.37801e-20
2.37734e-20
1.27191e-20
2.66008e-20
9.60187e-21
1.66824e-20
2.29383e-20
2.04578e-21
3.43731e-20
9.08993e-21
2.42445e-20
3.91171e-20
1.49289e-20
5.22949e-20
4.234e-20
4.39884e-20
8.05698e-20
7.19149e-20
1.03517e-19
1.50777e-19
1.88073e-19
2.78026e-19
4.46166e-19
7.93197e-19
2.1114e-18
1.9534e-18
3.13305e-18
3.47073e-18
3.22535e-18
2.65976e-18
1.88001e-18
1.32346e-18
9.82916e-19
7.27269e-19
5.39133e-19
4.42858e-19
4.15214e-19
3.75874e-19
3.21052e-19
2.56465e-19
2.1498e-19
1.80402e-19
1.66519e-19
1.4191e-19
1.32299e-19
1.17319e-19
1.06362e-19
8.67988e-20
8.90098e-20
6.64522e-20
7.06678e-20
5.53161e-20
5.62708e-20
4.52563e-20
4.52396e-20
3.50328e-20
3.76391e-20
2.68871e-20
3.14902e-20
2.24573e-20
2.38818e-20
2.43265e-20
1.259e-20
2.73164e-20
9.88867e-21
1.68108e-20
2.41319e-20
1.83735e-21
3.56526e-20
9.94843e-21
2.46772e-20
4.13949e-20
1.5653e-20
5.45052e-20
4.52542e-20
4.60927e-20
8.5022e-20
7.66441e-20
1.08887e-19
1.59136e-19
1.97486e-19
2.88843e-19
4.60089e-19
8.01275e-19
2.17016e-18
1.9386e-18
3.01548e-18
3.3608e-18
3.08614e-18
2.50557e-18
1.80655e-18
1.28051e-18
9.58424e-19
7.13069e-19
5.30185e-19
4.36766e-19
4.11093e-19
3.73008e-19
3.19016e-19
2.54998e-19
2.13912e-19
1.7961e-19
1.66093e-19
1.4149e-19
1.31875e-19
1.17151e-19
1.06289e-19
8.6513e-20
8.90429e-20
6.63955e-20
7.06798e-20
5.53867e-20
5.63505e-20
4.53523e-20
4.53601e-20
3.50876e-20
3.78619e-20
2.692e-20
3.17401e-20
2.26275e-20
2.39539e-20
2.48849e-20
1.24439e-20
2.80218e-20
1.01949e-20
1.69207e-20
2.53319e-20
1.65173e-21
3.68663e-20
1.08717e-20
2.5051e-20
4.36265e-20
1.64111e-20
5.65212e-20
4.8111e-20
4.80353e-20
8.90418e-20
8.10133e-20
1.13297e-19
1.65901e-19
2.0453e-19
2.95003e-19
4.6738e-19
7.865e-19
2.21249e-18
1.88359e-18
2.86686e-18
3.30609e-18
2.9159e-18
2.30197e-18
1.70957e-18
1.22234e-18
9.21476e-19
6.9001e-19
5.1522e-19
4.26138e-19
4.03061e-19
3.66889e-19
3.14539e-19
2.51829e-19
2.11614e-19
1.77874e-19
1.64866e-19
1.40426e-19
1.30876e-19
1.16465e-19
1.058e-19
8.59375e-20
8.87471e-20
6.61289e-20
7.05123e-20
5.53066e-20
5.63145e-20
4.53576e-20
4.53826e-20
3.5081e-20
3.80094e-20
2.69055e-20
3.19265e-20
2.27576e-20
2.3967e-20
2.53846e-20
1.22812e-20
2.86459e-20
1.04838e-20
1.69947e-20
2.64071e-20
1.50152e-21
3.78785e-20
1.17474e-20
2.53234e-20
4.55236e-20
1.71136e-20
5.81319e-20
5.05378e-20
4.96532e-20
9.21577e-20
8.45843e-20
1.16459e-19
1.70683e-19
2.08962e-19
2.97425e-19
4.69703e-19
7.56631e-19
2.27143e-18
1.84529e-18
2.72559e-18
3.38355e-18
2.74364e-18
2.07784e-18
1.59621e-18
1.15328e-18
8.74814e-19
6.5983e-19
4.95268e-19
4.11684e-19
3.91557e-19
3.57741e-19
3.0772e-19
2.47008e-19
2.08113e-19
1.75219e-19
1.62834e-19
1.38705e-19
1.29303e-19
1.15232e-19
1.04867e-19
8.50475e-20
8.80829e-20
6.56058e-20
7.01304e-20
5.5052e-20
5.61218e-20
4.52554e-20
4.52817e-20
3.49973e-20
3.80547e-20
2.68339e-20
3.20207e-20
2.28329e-20
2.39067e-20
2.57895e-20
1.21027e-20
2.91406e-20
1.07291e-20
1.7037e-20
2.72965e-20
1.38495e-21
3.86595e-20
1.25004e-20
2.55105e-20
4.70077e-20
1.76951e-20
5.9338e-20
5.23953e-20
5.09417e-20
9.43718e-20
8.72378e-20
1.18494e-19
1.73589e-19
2.11004e-19
2.97199e-19
4.68014e-19
7.17327e-19
2.35913e-18
1.86851e-18
2.60621e-18
3.621e-18
2.5823e-18
1.85468e-18
1.46948e-18
1.07577e-18
8.20478e-19
6.23906e-19
4.71372e-19
3.9419e-19
3.77225e-19
3.46104e-19
2.9893e-19
2.40746e-19
2.03546e-19
1.71737e-19
1.60077e-19
1.36404e-19
1.27229e-19
1.1351e-19
1.03531e-19
8.38623e-20
8.70724e-20
6.48319e-20
6.95215e-20
5.46282e-20
5.57599e-20
4.50472e-20
4.50523e-20
3.4837e-20
3.799e-20
2.67083e-20
3.20118e-20
2.28551e-20
2.37698e-20
2.60919e-20
1.19126e-20
2.95089e-20
1.09303e-20
1.70486e-20
2.80216e-20
1.28843e-21
3.92392e-20
1.31271e-20
2.56324e-20
4.81375e-20
1.81296e-20
6.02739e-20
5.37277e-20
5.19444e-20
9.58951e-20
8.90753e-20
1.19601e-19
1.74995e-19
2.10906e-19
2.95172e-19
4.62456e-19
6.73029e-19
2.47228e-18
1.96617e-18
2.51406e-18
3.98834e-18
2.43909e-18
1.64997e-18
1.33347e-18
9.92447e-19
7.6077e-19
5.83918e-19
4.44787e-19
3.74552e-19
3.60875e-19
3.32616e-19
2.88648e-19
2.33364e-19
1.98118e-19
1.67573e-19
1.56713e-19
1.33625e-19
1.24754e-19
1.11398e-19
1.01873e-19
8.24331e-20
8.57747e-20
6.38471e-20
6.86896e-20
5.40577e-20
5.52308e-20
4.47436e-20
4.47016e-20
3.46126e-20
3.78234e-20
2.65403e-20
3.19046e-20
2.28376e-20
2.35595e-20
2.63092e-20
1.17156e-20
2.97618e-20
1.11122e-20
1.70182e-20
2.86453e-20
1.19024e-21
3.96747e-20
1.36732e-20
2.56604e-20
4.90506e-20
1.83822e-20
6.09882e-20
5.46478e-20
5.26033e-20
9.68599e-20
9.00901e-20
1.19737e-19
1.75046e-19
2.08656e-19
2.91237e-19
4.52336e-19
6.27027e-19
2.59461e-18
2.11307e-18
2.44651e-18
4.41273e-18
2.31966e-18
1.47191e-18
1.19453e-18
9.0616e-19
6.98344e-19
5.41666e-19
4.16731e-19
3.53708e-19
3.43255e-19
3.17913e-19
2.77382e-19
2.2522e-19
1.92084e-19
1.6291e-19
1.52884e-19
1.30476e-19
1.21976e-19
1.08999e-19
9.99992e-20
8.08255e-20
8.42678e-20
6.27176e-20
6.76548e-20
5.33802e-20
5.45485e-20
4.43584e-20
4.42421e-20
3.43409e-20
3.75677e-20
2.63437e-20
3.17076e-20
2.27987e-20
2.32765e-20
2.64575e-20
1.15165e-20
2.9896e-20
1.13119e-20
1.69082e-20
2.92324e-20
1.06991e-21
3.99517e-20
1.42031e-20
2.55006e-20
4.98168e-20
1.84073e-20
6.13861e-20
5.52038e-20
5.27168e-20
9.71523e-20
9.01815e-20
1.18591e-19
1.73489e-19
2.03736e-19
2.84503e-19
4.35335e-19
5.79802e-19
2.70097e-18
2.25174e-18
2.39087e-18
4.78327e-18
2.22632e-18
1.31843e-18
1.05973e-18
8.19999e-19
6.35856e-19
4.98891e-19
3.88411e-19
3.32529e-19
3.25086e-19
3.02608e-19
2.65594e-19
2.1666e-19
1.85705e-19
1.57949e-19
1.48743e-19
1.27081e-19
1.18972e-19
1.06399e-19
9.80037e-20
7.91066e-20
8.262e-20
6.15189e-20
6.64517e-20
5.26272e-20
5.37371e-20
4.39004e-20
4.36906e-20
3.40364e-20
3.72329e-20
2.61309e-20
3.14268e-20
2.27505e-20
2.2921e-20
2.65467e-20
1.1319e-20
2.98909e-20
1.15611e-20
1.66715e-20
2.98082e-20
9.15408e-22
4.00043e-20
1.4752e-20
2.50497e-20
5.03902e-20
1.81572e-20
6.12783e-20
5.53418e-20
5.20774e-20
9.65631e-20
8.91358e-20
1.15756e-19
1.69952e-19
1.95787e-19
2.74085e-19
4.10745e-19
5.31096e-19
2.75905e-18
2.32545e-18
2.33138e-18
5.01295e-18
2.15623e-18
1.18349e-18
9.34771e-19
7.36558e-19
5.75527e-19
4.57018e-19
3.60756e-19
3.11726e-19
3.06965e-19
2.87196e-19
2.53665e-19
2.07973e-19
1.79195e-19
1.52859e-19
1.44432e-19
1.23545e-19
1.15821e-19
1.03669e-19
9.59485e-20
7.73365e-20
8.08833e-20
6.03173e-20
6.51232e-20
5.1832e-20
5.28247e-20
4.33779e-20
4.30609e-20
3.37086e-20
3.68237e-20
2.59117e-20
3.10711e-20
2.26991e-20
2.24911e-20
2.65733e-20
1.11289e-20
2.97156e-20
1.18663e-20
1.62725e-20
3.03594e-20
7.28308e-22
3.97666e-20
1.53135e-20
2.42251e-20
5.06932e-20
1.76148e-20
6.05295e-20
5.50119e-20
5.05924e-20
9.49541e-20
8.68898e-20
1.11175e-19
1.64354e-19
1.84909e-19
2.59758e-19
3.79488e-19
4.81343e-19
2.74693e-18
2.29741e-18
2.25103e-18
5.04806e-18
2.10014e-18
1.05932e-18
8.23206e-19
6.57743e-19
5.19084e-19
4.17087e-19
3.34405e-19
2.91818e-19
2.89362e-19
2.72075e-19
2.41909e-19
1.99367e-19
1.72721e-19
1.47783e-19
1.40076e-19
1.19971e-19
1.12607e-19
1.00871e-19
9.38745e-20
7.55643e-20
7.90967e-20
5.91605e-20
6.37201e-20
5.10218e-20
5.18484e-20
4.2802e-20
4.23683e-20
3.33616e-20
3.63429e-20
2.56938e-20
3.06446e-20
2.26436e-20
2.19962e-20
2.65262e-20
1.09519e-20
2.93518e-20
1.2216e-20
1.57208e-20
3.08934e-20
5.22475e-22
3.92256e-20
1.5864e-20
2.30461e-20
5.06712e-20
1.68105e-20
5.91132e-20
5.42163e-20
4.82902e-20
9.2368e-20
8.35756e-20
1.05046e-19
1.56974e-19
1.71736e-19
2.42195e-19
3.43763e-19
4.31404e-19
2.65469e-18
2.16006e-18
2.13854e-18
4.87998e-18
2.04693e-18
9.40396e-19
7.26355e-19
5.84789e-19
4.67493e-19
3.79798e-19
3.09739e-19
2.73144e-19
2.72599e-19
2.57545e-19
2.30541e-19
1.91022e-19
1.66414e-19
1.42835e-19
1.35775e-19
1.16451e-19
1.09402e-19
9.80614e-20
9.18062e-20
7.38281e-20
7.72877e-20
5.80754e-20
6.22836e-20
5.02189e-20
5.08402e-20
4.21879e-20
4.16293e-20
3.30005e-20
3.57965e-20
2.5483e-20
3.01561e-20
2.25812e-20
2.14527e-20
2.64012e-20
1.07941e-20
2.88097e-20
1.25905e-20
1.5043e-20
3.14559e-20
3.2052e-22
3.84609e-20
1.63904e-20
2.15787e-20
5.0321e-20
1.58187e-20
5.71115e-20
5.30485e-20
4.53484e-20
8.89988e-20
7.94766e-20
9.7811e-20
1.48329e-19
1.57216e-19
2.22578e-19
3.06633e-19
3.8264e-19
2.48854e-18
1.93466e-18
1.98849e-18
4.5377e-18
1.98507e-18
8.24815e-19
6.43633e-19
5.18388e-19
4.21128e-19
3.45558e-19
2.86936e-19
2.55873e-19
2.56887e-19
2.43786e-19
2.19703e-19
1.83047e-19
1.60342e-19
1.38085e-19
1.31599e-19
1.13044e-19
1.06266e-19
9.52914e-20
8.97625e-20
7.21555e-20
7.5478e-20
5.70715e-20
6.08466e-20
4.94391e-20
4.98255e-20
4.15542e-20
4.08621e-20
3.26327e-20
3.51952e-20
2.52842e-20
2.96194e-20
2.25106e-20
2.08839e-20
2.6203e-20
1.06637e-20
2.81165e-20
1.29795e-20
1.42616e-20
3.2192e-20
1.51103e-22
3.76741e-20
1.69008e-20
1.99104e-20
4.96905e-20
1.47358e-20
5.46427e-20
5.16388e-20
4.19901e-20
8.50956e-20
7.49322e-20
8.99666e-20
1.3901e-19
1.42341e-19
2.02204e-19
2.70701e-19
3.36272e-19
2.2638e-18
1.65636e-18
1.80352e-18
4.07378e-18
1.90568e-18
7.1393e-19
5.73221e-19
4.58829e-19
3.7996e-19
3.14531e-19
2.6601e-19
2.4004e-19
2.42305e-19
2.30898e-19
2.09478e-19
1.75493e-19
1.54546e-19
1.33574e-19
1.27595e-19
1.09787e-19
1.03239e-19
9.26045e-20
8.77574e-20
7.05659e-20
7.36862e-20
5.61479e-20
5.9433e-20
4.8692e-20
4.88261e-20
4.09206e-20
4.00838e-20
3.22666e-20
3.45547e-20
2.50995e-20
2.90522e-20
2.24318e-20
2.03136e-20
2.59426e-20
1.05693e-20
2.731e-20
1.33739e-20
1.34026e-20
3.33463e-20
4.147e-23
3.72055e-20
1.74111e-20
1.81308e-20
4.88488e-20
1.36531e-20
5.18654e-20
5.01193e-20
3.84315e-20
8.09051e-20
7.02523e-20
8.19608e-20
1.29533e-19
1.27945e-19
1.82196e-19
2.37771e-19
2.9305e-19
2.003e-18
1.36518e-18
1.59169e-18
3.54424e-18
1.80234e-18
6.10474e-19
5.127e-19
4.06064e-19
3.43655e-19
2.86683e-19
2.46876e-19
2.25589e-19
2.28861e-19
2.18918e-19
1.99893e-19
1.6838e-19
1.49045e-19
1.29323e-19
1.23786e-19
1.067e-19
1.00346e-19
9.00323e-20
8.58022e-20
6.90714e-20
7.19266e-20
5.52986e-20
5.80571e-20
4.79829e-20
4.78573e-20
4.03022e-20
3.93095e-20
3.19105e-20
3.38919e-20
2.49302e-20
2.84713e-20
2.23482e-20
1.97572e-20
2.56399e-20
1.05021e-20
2.64493e-20
1.37206e-20
1.25636e-20
3.39439e-20
5.92633e-28
3.64516e-20
1.78266e-20
1.6333e-20
4.78557e-20
1.26431e-20
4.89134e-20
4.85948e-20
3.48499e-20
7.66314e-20
6.56754e-20
7.41334e-20
1.20315e-19
1.14559e-19
1.63301e-19
2.08796e-19
2.53402e-19
1.728e-18
1.09138e-18
1.3672e-18
3.00174e-18
1.67377e-18
5.17469e-19
4.5971e-19
3.59832e-19
3.1173e-19
2.61875e-19
2.29408e-19
2.12416e-19
2.16513e-19
2.07837e-19
1.90949e-19
1.61707e-19
1.4384e-19
1.25334e-19
1.2018e-19
1.0379e-19
9.75971e-20
8.75957e-20
8.39043e-20
6.76776e-20
7.02172e-20
5.45166e-20
5.67322e-20
4.73134e-20
4.6928e-20
3.971e-20
3.85511e-20
3.1571e-20
3.32229e-20
2.4777e-20
2.78908e-20
2.22647e-20
1.92239e-20
2.53164e-20
1.04504e-20
2.55863e-20
1.3971e-20
1.18246e-20
3.26175e-20
3.76826e-23
3.42688e-20
1.80716e-20
1.45896e-20
4.67667e-20
1.1756e-20
4.58906e-20
4.7137e-20
3.1376e-20
7.24116e-20
6.13627e-20
6.67129e-20
1.11605e-19
1.02517e-19
1.4595e-19
1.83947e-19
2.17657e-19
1.45916e-18
8.56066e-19
1.14579e-18
2.48736e-18
1.52284e-18
4.37274e-19
4.1232e-19
3.19702e-19
2.83673e-19
2.39912e-19
2.1347e-19
2.00396e-19
2.05193e-19
1.97617e-19
1.82623e-19
1.55464e-19
1.38922e-19
1.21598e-19
1.16777e-19
1.01052e-19
9.49955e-20
8.53049e-20
8.20689e-20
6.63845e-20
6.85665e-20
5.37944e-20
5.54625e-20
4.66831e-20
4.60431e-20
3.91511e-20
3.7818e-20
3.12524e-20
3.25617e-20
2.46392e-20
2.73239e-20
2.21833e-20
1.8725e-20
2.49826e-20
1.04248e-20
2.47317e-20
1.41731e-20
1.1145e-20
3.09111e-20
1.51796e-22
3.18878e-20
1.82751e-20
1.29324e-20
4.5625e-20
1.10202e-20
4.28759e-20
4.57876e-20
2.80973e-20
6.83418e-20
5.74065e-20
5.98336e-20
1.03534e-19
9.19297e-20
1.30296e-19
1.62983e-19
1.86018e-19
1.21177e-18
6.69917e-19
9.43267e-19
2.02715e-18
1.35601e-18
3.70649e-19
3.69199e-19
2.85149e-19
2.58992e-19
2.20559e-19
1.98929e-19
1.89395e-19
1.94811e-19
1.88206e-19
1.7488e-19
1.49623e-19
1.34273e-19
1.18102e-19
1.1357e-19
9.84799e-20
9.25362e-20
8.31624e-20
8.02988e-20
6.51885e-20
6.69819e-20
5.31253e-20
5.42501e-20
4.60908e-20
4.5205e-20
3.86287e-20
3.71168e-20
3.09571e-20
3.19188e-20
2.45158e-20
2.67802e-20
2.21059e-20
1.82669e-20
2.4647e-20
1.04335e-20
2.38922e-20
1.43755e-20
1.04908e-20
2.97437e-20
3.73052e-22
3.00342e-20
1.85236e-20
1.13854e-20
4.4457e-20
1.04517e-20
3.99246e-20
4.45666e-20
2.50673e-20
6.44601e-20
5.38488e-20
5.35502e-20
9.61398e-20
8.27623e-20
1.16272e-19
1.45403e-19
1.5859e-19
9.95981e-19
5.33914e-19
7.71778e-19
1.63297e-18
1.18078e-18
3.16899e-19
3.29571e-19
2.5555e-19
2.37256e-19
2.03556e-19
1.85666e-19
1.79287e-19
1.85273e-19
1.79543e-19
1.67681e-19
1.44151e-19
1.29874e-19
1.14831e-19
1.10552e-19
9.60618e-20
9.02111e-20
8.11649e-20
7.8595e-20
6.40828e-20
6.54677e-20
5.25033e-20
5.30955e-20
4.55347e-20
4.44139e-20
3.81444e-20
3.64515e-20
3.06856e-20
3.13009e-20
2.44062e-20
2.62655e-20
2.20351e-20
1.78498e-20
2.43192e-20
1.047e-20
2.3087e-20
1.45755e-20
9.88617e-21
2.88969e-20
6.7109e-22
2.8451e-20
1.88072e-20
9.97691e-21
4.32806e-20
1.00489e-20
3.70741e-20
4.3475e-20
2.23129e-20
6.07931e-20
5.06979e-20
4.78675e-20
8.94077e-20
7.48782e-20
1.0375e-19
1.30621e-19
1.35382e-19
8.15846e-19
4.423e-19
6.40803e-19
1.3069e-18
1.00557e-18
2.74063e-19
2.93112e-19
2.30278e-19
2.18099e-19
1.8865e-19
1.73578e-19
1.69958e-19
1.7649e-19
1.71565e-19
1.60984e-19
1.39019e-19
1.25705e-19
1.11767e-19
1.0771e-19
9.3786e-20
8.80114e-20
7.93058e-20
7.69571e-20
6.30604e-20
6.40263e-20
5.19228e-20
5.19979e-20
4.50123e-20
4.36691e-20
3.76976e-20
3.58248e-20
3.04375e-20
3.0712e-20
2.43094e-20
2.57838e-20
2.19716e-20
1.74742e-20
2.40039e-20
1.05312e-20
2.23246e-20
1.47675e-20
9.35303e-21
2.8208e-20
1.01313e-21
2.70092e-20
1.91109e-20
8.71682e-21
4.2109e-20
9.80262e-21
3.43488e-20
4.2504e-20
1.9845e-20
5.73445e-20
4.79334e-20
4.27588e-20
8.32897e-20
6.81189e-20
9.2525e-20
1.18127e-19
1.16244e-19
6.7164e-19
3.8571e-19
5.56267e-19
1.04326e-18
8.38948e-19
2.39498e-19
2.59818e-19
2.08705e-19
2.01217e-19
1.75594e-19
1.6258e-19
1.61315e-19
1.68376e-19
1.64214e-19
1.54749e-19
1.34196e-19
1.21747e-19
1.08893e-19
1.05034e-19
9.16412e-20
8.5928e-20
7.75761e-20
7.5384e-20
6.21134e-20
6.26578e-20
5.13789e-20
5.09556e-20
4.45207e-20
4.29691e-20
3.72868e-20
3.5238e-20
3.02118e-20
3.01549e-20
2.4224e-20
2.53375e-20
2.1915e-20
1.71406e-20
2.37025e-20
1.06174e-20
2.16052e-20
1.49547e-20
8.89483e-21
2.75976e-20
1.3897e-21
2.56679e-20
1.94359e-20
7.6028e-21
4.095e-20
9.70029e-21
3.17647e-20
4.16388e-20
1.76624e-20
5.41048e-20
4.5526e-20
3.81795e-20
7.77268e-20
6.23228e-20
8.24133e-20
1.07446e-19
1.00894e-19
5.60623e-19
3.53379e-19
5.21016e-19
8.32718e-19
6.88772e-19
2.10484e-19
2.29852e-19
1.90279e-19
1.8637e-19
1.64168e-19
1.52597e-19
1.53279e-19
1.60857e-19
1.5743e-19
1.48939e-19
1.29653e-19
1.17983e-19
1.06192e-19
1.02511e-19
8.96163e-20
8.39517e-20
7.59657e-20
7.38737e-20
6.12339e-20
6.13616e-20
5.08671e-20
4.99665e-20
4.40571e-20
4.23119e-20
3.69103e-20
3.46919e-20
3.0007e-20
2.96302e-20
2.41487e-20
2.49275e-20
2.18648e-20
1.68485e-20
2.34162e-20
1.07271e-20
2.09292e-20
1.514e-20
8.50717e-21
2.70228e-20
1.79794e-21
2.44112e-20
1.97799e-20
6.63102e-21
3.98089e-20
9.72584e-21
2.93337e-20
4.08615e-20
1.57569e-20
5.10611e-20
4.34399e-20
3.40836e-20
7.26536e-20
5.73436e-20
7.32415e-20
9.82181e-20
8.90787e-20
4.78416e-19
3.34158e-19
5.3449e-19
6.6301e-19
5.61008e-19
1.84639e-19
2.03309e-19
1.74521e-19
1.73359e-19
1.54175e-19
1.43564e-19
1.45789e-19
1.53866e-19
1.51163e-19
1.43519e-19
1.25362e-19
1.14393e-19
1.03647e-19
1.00129e-19
8.77011e-20
8.20738e-20
7.44652e-20
7.24236e-20
6.04153e-20
6.01355e-20
5.0384e-20
4.90273e-20
4.36191e-20
4.16954e-20
3.65663e-20
3.41864e-20
2.98219e-20
2.91377e-20
2.40826e-20
2.45539e-20
2.18208e-20
1.65969e-20
2.3146e-20
1.08576e-20
2.02988e-20
1.53233e-20
8.1858e-21
2.64747e-20
2.23446e-21
2.32333e-20
2.01361e-20
5.7967e-21
3.86938e-20
9.86229e-21
2.70652e-20
4.01594e-20
1.41162e-20
4.82072e-20
4.16406e-20
3.04315e-20
6.80213e-20
5.30691e-20
6.48708e-20
9.01526e-20
8.05772e-20
4.19343e-19
3.17642e-19
2.89072e-18
3.38801e-18
3.18032e-18
2.65396e-18
1.88494e-18
1.32308e-18
9.77267e-19
7.21613e-19
5.36338e-19
4.41257e-19
4.12503e-19
3.72722e-19
3.18597e-19
2.54956e-19
2.13866e-19
1.79509e-19
1.65314e-19
1.41119e-19
1.31758e-19
1.1645e-19
1.05594e-19
8.67293e-20
8.82339e-20
6.60907e-20
7.02917e-20
5.48027e-20
5.58987e-20
4.48316e-20
4.48147e-20
3.47704e-20
3.70519e-20
2.67026e-20
3.08831e-20
2.19901e-20
2.36612e-20
2.30059e-20
1.29202e-20
2.56563e-20
9.2244e-21
1.65855e-20
2.1315e-20
2.42484e-21
3.26377e-20
7.94786e-21
2.37818e-20
3.59462e-20
1.40861e-20
4.92414e-20
3.828e-20
4.11375e-20
7.39819e-20
6.50218e-20
9.48448e-20
1.36912e-19
1.70658e-19
2.53857e-19
4.07831e-19
7.33451e-19
1.94687e-18
1.86062e-18
3.03518e-18
3.46889e-18
3.26471e-18
2.71772e-18
1.91376e-18
1.33967e-18
9.88189e-19
7.28597e-19
5.40212e-19
4.43565e-19
4.14423e-19
3.74421e-19
3.19825e-19
2.55761e-19
2.14407e-19
1.79936e-19
1.65713e-19
1.41448e-19
1.31982e-19
1.16751e-19
1.05834e-19
8.68261e-20
8.84337e-20
6.62561e-20
7.03646e-20
5.49783e-20
5.5975e-20
4.49651e-20
4.49068e-20
3.48537e-20
3.71706e-20
2.6762e-20
3.09977e-20
2.21046e-20
2.36898e-20
2.33016e-20
1.28321e-20
2.6003e-20
9.37903e-21
1.65828e-20
2.19598e-20
2.24467e-21
3.32842e-20
8.39224e-21
2.38959e-20
3.72194e-20
1.43502e-20
5.04223e-20
3.98636e-20
4.22133e-20
7.65786e-20
6.77604e-20
9.82808e-20
1.42649e-19
1.77973e-19
2.64675e-19
4.25873e-19
7.61598e-19
2.03183e-18
1.91017e-18
3.14703e-18
3.5305e-18
3.29706e-18
2.73547e-18
1.91903e-18
1.34415e-18
9.93326e-19
7.32872e-19
5.42808e-19
4.45196e-19
4.16146e-19
3.76053e-19
3.21054e-19
2.56493e-19
2.14933e-19
1.80328e-19
1.66214e-19
1.41782e-19
1.3225e-19
1.17104e-19
1.06154e-19
8.68784e-20
8.87704e-20
6.63821e-20
7.05513e-20
5.51532e-20
5.61399e-20
4.51144e-20
4.50909e-20
3.49399e-20
3.74061e-20
2.68201e-20
3.12292e-20
2.22653e-20
2.37825e-20
2.37681e-20
1.27242e-20
2.65997e-20
9.61257e-21
1.66811e-20
2.2965e-20
2.03997e-21
3.43838e-20
9.07445e-21
2.42672e-20
3.91679e-20
1.49208e-20
5.23637e-20
4.23479e-20
4.40617e-20
8.06026e-20
7.19926e-20
1.03466e-19
1.50824e-19
1.87911e-19
2.77829e-19
4.45659e-19
7.92485e-19
2.11983e-18
1.95943e-18
3.1408e-18
3.48478e-18
3.23585e-18
2.66631e-18
1.88344e-18
1.32488e-18
9.84409e-19
7.28761e-19
5.4042e-19
4.437e-19
4.1568e-19
3.76091e-19
3.2111e-19
2.56435e-19
2.14883e-19
1.80299e-19
1.6642e-19
1.41866e-19
1.32282e-19
1.17311e-19
1.06368e-19
8.68099e-20
8.90362e-20
6.6456e-20
7.06893e-20
5.53152e-20
5.62927e-20
4.52644e-20
4.52706e-20
3.50299e-20
3.76619e-20
2.68773e-20
3.14971e-20
2.24483e-20
2.38831e-20
2.43226e-20
1.25941e-20
2.73153e-20
9.89941e-21
1.68094e-20
2.41646e-20
1.8317e-21
3.5667e-20
9.92777e-21
2.47039e-20
4.14504e-20
1.5647e-20
5.45796e-20
4.52678e-20
4.61709e-20
8.50677e-20
7.67365e-20
1.0885e-19
1.5921e-19
1.97374e-19
2.88735e-19
4.59715e-19
8.01302e-19
2.17939e-18
1.94523e-18
3.02144e-18
3.37354e-18
3.09488e-18
2.51117e-18
1.8094e-18
1.28186e-18
9.59694e-19
7.14458e-19
5.31414e-19
4.37584e-19
4.11536e-19
3.73214e-19
3.19058e-19
2.54954e-19
2.13807e-19
1.79496e-19
1.65985e-19
1.4144e-19
1.31855e-19
1.17141e-19
1.06292e-19
8.65241e-20
8.90689e-20
6.63991e-20
7.06998e-20
5.53853e-20
5.63705e-20
4.53621e-20
4.53915e-20
3.50867e-20
3.78842e-20
2.69119e-20
3.17454e-20
2.26204e-20
2.3954e-20
2.48826e-20
1.24461e-20
2.80224e-20
1.02055e-20
1.69185e-20
2.53697e-20
1.64691e-21
3.68857e-20
1.08412e-20
2.50832e-20
4.36883e-20
1.64083e-20
5.66006e-20
4.81308e-20
4.81234e-20
8.91045e-20
8.11256e-20
1.13293e-19
1.66022e-19
2.04485e-19
2.95026e-19
4.67222e-19
7.86612e-19
2.2226e-18
1.89007e-18
2.87344e-18
3.31582e-18
2.92297e-18
2.30657e-18
1.71174e-18
1.2234e-18
9.2258e-19
6.91301e-19
5.16438e-19
4.26951e-19
4.03485e-19
3.67073e-19
3.14568e-19
2.51774e-19
2.115e-19
1.77751e-19
1.64748e-19
1.40371e-19
1.30851e-19
1.16452e-19
1.05799e-19
8.5948e-20
8.87722e-20
6.61329e-20
7.05302e-20
5.53054e-20
5.63313e-20
4.53695e-20
4.54137e-20
3.50828e-20
3.80308e-20
2.68997e-20
3.19288e-20
2.27532e-20
2.39642e-20
2.53852e-20
1.22813e-20
2.86478e-20
1.04935e-20
1.69916e-20
2.64525e-20
1.49844e-21
3.79035e-20
1.17014e-20
2.53619e-20
4.55914e-20
1.71151e-20
5.82156e-20
5.05647e-20
4.97517e-20
9.22335e-20
8.47172e-20
1.16481e-19
1.70852e-19
2.08966e-19
2.97576e-19
4.69694e-19
7.5706e-19
2.28185e-18
1.85062e-18
2.73185e-18
3.38945e-18
2.7491e-18
2.08156e-18
1.59798e-18
1.15409e-18
8.75785e-19
6.61081e-19
4.9647e-19
4.12479e-19
3.91958e-19
3.57901e-19
3.07736e-19
2.46945e-19
2.07991e-19
1.75088e-19
1.62706e-19
1.38643e-19
1.29273e-19
1.15215e-19
1.04861e-19
8.50577e-20
8.81063e-20
6.56109e-20
7.01452e-20
5.50512e-20
5.61341e-20
4.52698e-20
4.53112e-20
3.50027e-20
3.80736e-20
2.68313e-20
3.20191e-20
2.28321e-20
2.38998e-20
2.5794e-20
1.20991e-20
2.91436e-20
1.07368e-20
1.70311e-20
2.73495e-20
1.38461e-21
3.86906e-20
1.24321e-20
2.55561e-20
4.70813e-20
1.7701e-20
5.94242e-20
5.2429e-20
5.10491e-20
9.44592e-20
8.73901e-20
1.18533e-19
1.73804e-19
2.11033e-19
2.97462e-19
4.68094e-19
7.17932e-19
2.36932e-18
1.87229e-18
2.61194e-18
3.62318e-18
2.5862e-18
1.85768e-18
1.47093e-18
1.07633e-18
8.2132e-19
6.25129e-19
4.72564e-19
3.94969e-19
3.77618e-19
3.46248e-19
2.98935e-19
2.40674e-19
2.03418e-19
1.716e-19
1.5994e-19
1.36336e-19
1.27195e-19
1.1349e-19
1.03519e-19
8.38723e-20
8.70936e-20
6.4839e-20
6.95323e-20
5.46285e-20
5.57668e-20
4.50642e-20
4.5079e-20
3.48469e-20
3.80051e-20
2.67098e-20
3.20046e-20
2.28587e-20
2.37574e-20
2.61003e-20
1.19031e-20
2.95146e-20
1.09336e-20
1.70389e-20
2.80787e-20
1.29169e-21
3.92883e-20
1.30275e-20
2.56839e-20
4.82133e-20
1.81396e-20
6.03618e-20
5.37667e-20
5.20595e-20
9.59904e-20
8.92453e-20
1.19653e-19
1.75245e-19
2.10944e-19
2.95521e-19
4.62538e-19
6.73687e-19
2.4818e-18
1.96835e-18
2.51926e-18
3.98759e-18
2.44155e-18
1.65237e-18
1.33464e-18
9.92791e-19
7.61493e-19
5.851e-19
4.45955e-19
3.75316e-19
3.61255e-19
3.32745e-19
2.88643e-19
2.33286e-19
1.97984e-19
1.6743e-19
1.56567e-19
1.33552e-19
1.24716e-19
1.11376e-19
1.01855e-19
8.24433e-20
8.57927e-20
6.3857e-20
6.86964e-20
5.40595e-20
5.52315e-20
4.47638e-20
4.47245e-20
3.46277e-20
3.7834e-20
2.65469e-20
3.18906e-20
2.2847e-20
2.35396e-20
2.63218e-20
1.16978e-20
2.97721e-20
1.11053e-20
1.70033e-20
2.86996e-20
1.19713e-21
3.97416e-20
1.35313e-20
2.57156e-20
4.91328e-20
1.83958e-20
6.10761e-20
5.46912e-20
5.2723e-20
9.69583e-20
9.02728e-20
1.19794e-19
1.75321e-19
2.08685e-19
2.91641e-19
4.52433e-19
6.27693e-19
2.60322e-18
2.11403e-18
2.45123e-18
4.41022e-18
2.32082e-18
1.47389e-18
1.19546e-18
9.06319e-19
6.98947e-19
5.42799e-19
4.17876e-19
3.54459e-19
3.43626e-19
3.18034e-19
2.7737e-19
2.25139e-19
1.91947e-19
1.62765e-19
1.52731e-19
1.30398e-19
1.21933e-19
1.08977e-19
9.99749e-20
8.08363e-20
8.42817e-20
6.27306e-20
6.76572e-20
5.33838e-20
5.45426e-20
4.4382e-20
4.42608e-20
3.43614e-20
3.75725e-20
2.63559e-20
3.16855e-20
2.28145e-20
2.3248e-20
2.64767e-20
1.14876e-20
2.99132e-20
1.12901e-20
1.68932e-20
2.92671e-20
1.07974e-21
4.0055e-20
1.40055e-20
2.55568e-20
4.99035e-20
1.84238e-20
6.14718e-20
5.52498e-20
5.28383e-20
9.72518e-20
9.03693e-20
1.18643e-19
1.73775e-19
2.03753e-19
2.84937e-19
4.35407e-19
5.80441e-19
2.70865e-18
2.25218e-18
2.39525e-18
4.78001e-18
2.22648e-18
1.32011e-18
1.06046e-18
8.20009e-19
6.36341e-19
4.9997e-19
3.89533e-19
3.33268e-19
3.25449e-19
3.02723e-19
2.65577e-19
2.16576e-19
1.85566e-19
1.57803e-19
1.48585e-19
1.27e-19
1.18924e-19
1.06377e-19
9.79738e-20
7.91185e-20
8.26295e-20
6.15349e-20
6.64495e-20
5.26332e-20
5.37245e-20
4.39272e-20
4.37038e-20
3.40631e-20
3.72313e-20
2.61496e-20
3.13964e-20
2.27736e-20
2.28814e-20
2.65749e-20
1.12765e-20
2.99159e-20
1.15127e-20
1.66519e-20
2.97952e-20
9.26673e-22
4.01428e-20
1.44857e-20
2.51029e-20
5.04806e-20
1.81756e-20
6.13596e-20
5.53886e-20
5.21969e-20
9.66603e-20
8.9323e-20
1.15804e-19
1.70235e-19
1.95787e-19
2.74502e-19
4.10797e-19
5.31666e-19
2.76573e-18
2.32598e-18
2.33562e-18
5.00979e-18
2.15561e-18
1.18494e-18
9.35359e-19
7.36425e-19
5.75895e-19
4.58038e-19
3.61853e-19
3.12452e-19
3.07321e-19
2.87306e-19
2.53647e-19
2.07887e-19
1.79056e-19
1.52712e-19
1.4427e-19
1.23462e-19
1.15769e-19
1.03646e-19
9.59131e-20
7.73495e-20
8.08889e-20
6.03368e-20
6.51166e-20
5.18402e-20
5.28061e-20
4.34078e-20
4.30681e-20
3.3741e-20
3.68154e-20
2.5937e-20
3.10315e-20
2.27297e-20
2.24406e-20
2.66107e-20
1.10695e-20
2.97532e-20
1.17811e-20
1.62495e-20
3.02566e-20
7.40011e-22
3.99285e-20
1.49669e-20
2.42749e-20
5.07848e-20
1.76342e-20
6.06048e-20
5.50581e-20
5.07063e-20
9.50461e-20
8.70689e-20
1.11215e-19
1.64618e-19
1.84896e-19
2.60125e-19
3.79523e-19
4.8183e-19
2.75268e-18
2.29845e-18
2.25525e-18
5.04551e-18
2.099e-18
1.0606e-18
8.23676e-19
6.57525e-19
5.1934e-19
4.18042e-19
3.35473e-19
2.92528e-19
2.89711e-19
2.72183e-19
2.41888e-19
1.99284e-19
1.72584e-19
1.47637e-19
1.39912e-19
1.19888e-19
1.1255e-19
1.00848e-19
9.38343e-20
7.55785e-20
7.90985e-20
5.91835e-20
6.37094e-20
5.10322e-20
5.18236e-20
4.28346e-20
4.23697e-20
3.33993e-20
3.63283e-20
2.57254e-20
3.05959e-20
2.26818e-20
2.19339e-20
2.65729e-20
1.08743e-20
2.94049e-20
1.20866e-20
1.56857e-20
3.06062e-20
5.36034e-22
3.93706e-20
1.54305e-20
2.30873e-20
5.07606e-20
1.68307e-20
5.91814e-20
5.42606e-20
4.83953e-20
9.24527e-20
8.37416e-20
1.05079e-19
1.57208e-19
1.71714e-19
2.42487e-19
3.43788e-19
4.31801e-19
2.6596e-18
2.16167e-18
2.14283e-18
4.87824e-18
2.04555e-18
9.41504e-19
7.26732e-19
5.84512e-19
4.6764e-19
3.80683e-19
3.10774e-19
2.73837e-19
2.72936e-19
2.57649e-19
2.30517e-19
1.90942e-19
1.66276e-19
1.42689e-19
1.3561e-19
1.16367e-19
1.09342e-19
9.80395e-20
9.17618e-20
7.38432e-20
7.72859e-20
5.81013e-20
6.22692e-20
5.02312e-20
5.08098e-20
4.22228e-20
4.1625e-20
3.30429e-20
3.5776e-20
2.55207e-20
3.00997e-20
2.26263e-20
2.13805e-20
2.64565e-20
1.07e-20
2.88778e-20
1.24132e-20
1.499e-20
3.08143e-20
3.39472e-22
3.84935e-20
1.5864e-20
2.16065e-20
5.04077e-20
1.58392e-20
5.7171e-20
5.309e-20
4.54429e-20
8.90759e-20
7.96255e-20
9.78382e-20
1.48523e-19
1.57189e-19
2.22775e-19
3.0665e-19
3.82943e-19
2.49271e-18
1.93679e-18
1.99286e-18
4.53668e-18
1.98366e-18
8.25738e-19
6.43937e-19
5.18076e-19
4.2118e-19
3.46369e-19
2.87933e-19
2.56546e-19
2.57215e-19
2.43886e-19
2.19677e-19
1.82968e-19
1.60205e-19
1.37941e-19
1.31434e-19
1.12961e-19
1.06202e-19
9.52704e-20
8.97145e-20
7.21715e-20
7.54731e-20
5.70999e-20
6.08291e-20
4.9453e-20
4.97906e-20
4.15908e-20
4.0853e-20
3.2679e-20
3.51699e-20
2.5327e-20
2.95568e-20
2.25613e-20
2.08039e-20
2.62648e-20
1.05545e-20
2.82013e-20
1.27448e-20
1.42067e-20
3.08714e-20
1.76143e-22
3.73478e-20
1.62685e-20
1.99282e-20
4.97722e-20
1.47554e-20
5.46941e-20
5.1677e-20
4.20732e-20
8.5165e-20
7.50614e-20
8.99904e-20
1.3916e-19
1.42317e-19
2.023e-19
2.70713e-19
3.36481e-19
2.26729e-18
1.6589e-18
1.80791e-18
4.07332e-18
1.90439e-18
7.14649e-19
5.73466e-19
4.58507e-19
3.79933e-19
3.15263e-19
2.66965e-19
2.40693e-19
2.42624e-19
2.30994e-19
2.09449e-19
1.75414e-19
1.54411e-19
1.33432e-19
1.27431e-19
1.09704e-19
1.03173e-19
9.25845e-20
8.77068e-20
7.05825e-20
7.36786e-20
5.61781e-20
5.9413e-20
4.87072e-20
4.87874e-20
4.09581e-20
4.00705e-20
3.23159e-20
3.45256e-20
2.51463e-20
2.89851e-20
2.24871e-20
2.02268e-20
2.60115e-20
1.04431e-20
2.7417e-20
1.30699e-20
1.33841e-20
3.0781e-20
6.76169e-23
3.60151e-20
1.66525e-20
1.81494e-20
4.89198e-20
1.36711e-20