/*--------------------------------*- C++ -*----------------------------------*\
| =========                 |                                                 |
| \\      /  F ield         | OpenFOAM: The Open Source CFD Toolbox           |
|  \\    /   O peration     | Version:  2312                                  |
|   \\  /    A nd           | Website:  www.openfoam.com                      |
|    \\/     M anipulation  |                                                 |
\*---------------------------------------------------------------------------*/
FoamFile
{
    version     2.0;
    format      ascii;
    arch        "LSB;label=32;scalar=64";
    class       volScalarField;
    location    "200";
    object      nut;
}
// * * * * * * * * * * * * * * * * * * * * * * * * * * * * * * * * * * * * * //

dimensions      [0 2 -1 0 0 0 0];

internalField   nonuniform List<scalar> 
144000
(
7.60572e-25
5.31436e-25
4.13534e-27
8.21459e-27
1.58389e-26
4.64607e-31
1.70145e-27
3.86786e-28
8.78733e-28
5.1708e-28
1.12739e-27
9.39208e-28
1.71168e-27
1.83082e-27
2.18042e-27
1.43003e-27
1.36005e-27
1.19156e-27
1.441e-27
1.80005e-27
1.95579e-27
2.08301e-27
2.40477e-27
3.0523e-27
2.79554e-27
1.84104e-27
1.24096e-27
1.02287e-27
1.44413e-27
2.33124e-27
3.32677e-27
3.90923e-27
3.13526e-27
2.08432e-27
1.1425e-27
1.2572e-27
1.17982e-27
1.46555e-27
1.64121e-27
2.48454e-27
3.02196e-27
3.06541e-27
2.1747e-27
1.64943e-27
1.55261e-27
1.10503e-27
5.30526e-28
3.24139e-28
2.39935e-28
2.25412e-28
5.08607e-29
2.51814e-30
8.96296e-29
1.42361e-27
5.86293e-27
3.24357e-27
4.87217e-25
1.36843e-23
1.61653e-23
4.89626e-25
2.61555e-23
7.27352e-25
7.08439e-25
1.82071e-25
2.64712e-26
1.69127e-29
2.77797e-27
1.43267e-27
1.20861e-27
2.15915e-27
1.59695e-27
2.89698e-27
2.75483e-27
4.73579e-27
3.89846e-27
3.5558e-27
2.69334e-27
3.12561e-27
3.05286e-27
3.87994e-27
4.02324e-27
4.68077e-27
4.88018e-27
6.59075e-27
5.51275e-27
4.48022e-27
2.67354e-27
2.83517e-27
2.96927e-27
5.1141e-27
6.47003e-27
7.66573e-27
6.49757e-27
4.52544e-27
2.91312e-27
2.64536e-27
2.82999e-27
2.87149e-27
3.52001e-27
4.73252e-27
5.80898e-27
5.65781e-27
4.2763e-27
3.15704e-27
2.89446e-27
2.2319e-27
1.02007e-27
5.5618e-28
3.98294e-28
2.8177e-28
5.87365e-29
3.98904e-31
2.9599e-28
4.93247e-27
1.41746e-26
1.36943e-26
8.11277e-25
4.3424e-23
9.21744e-23
1.42756e-24
5.09449e-23
1.70284e-23
2.85381e-24
1.0076e-24
6.22151e-26
4.32781e-30
2.95643e-27
2.68795e-27
1.58981e-27
3.08778e-27
2.5294e-27
3.93324e-27
4.26501e-27
6.14859e-27
5.8613e-27
5.03513e-27
4.07623e-27
4.26569e-27
4.5522e-27
5.53746e-27
5.86996e-27
6.60594e-27
7.04888e-27
9.41062e-27
7.97544e-27
6.57407e-27
3.92988e-27
4.07895e-27
4.31398e-27
7.29538e-27
9.16314e-27
1.12435e-26
9.23849e-27
6.69962e-27
4.13976e-27
3.96444e-27
3.95744e-27
4.32574e-27
4.90597e-27
6.87531e-27
8.18889e-27
8.26878e-27
6.04077e-27
4.76747e-27
4.14591e-27
3.23517e-27
1.48323e-27
8.42166e-28
5.64646e-28
4.23273e-28
7.76337e-29
2.64793e-30
4.19248e-28
5.46997e-27
1.72229e-26
1.65138e-26
2.20423e-24
7.21991e-23
1.04832e-22
2.52872e-23
1.22141e-22
1.10681e-22
6.56666e-24
6.1203e-24
7.42733e-26
3.63662e-30
3.18512e-27
2.56756e-27
1.6304e-27
3.03131e-27
2.78465e-27
4.02965e-27
4.74925e-27
6.45342e-27
6.41726e-27
5.19259e-27
4.20254e-27
4.3426e-27
4.74351e-27
5.82092e-27
6.1531e-27
7.01872e-27
7.44696e-27
9.99166e-27
8.4176e-27
6.63341e-27
3.88481e-27
3.94458e-27
4.47903e-27
7.65152e-27
1.00103e-26
1.2219e-26
9.59977e-27
7.04978e-27
3.89256e-27
4.04151e-27
3.80437e-27
4.61826e-27
4.96163e-27
7.66327e-27
8.80901e-27
9.13838e-27
6.45952e-27
5.07103e-27
4.3909e-27
3.43955e-27
1.56288e-27
8.85951e-28
6.65924e-28
5.36434e-28
1.39934e-28
1.70698e-29
2.97531e-28
4.40683e-27
1.21604e-26
1.26511e-26
3.2528e-24
1.21709e-22
1.41027e-22
1.56386e-22
1.66934e-22
3.92643e-22
6.81965e-24
1.97117e-23
1.70056e-25
2.53326e-29
3.48571e-27
2.62001e-27
1.55626e-27
3.28539e-27
2.79149e-27
4.50125e-27
5.10412e-27
7.40048e-27
6.81735e-27
5.71146e-27
4.29717e-27
4.73481e-27
4.92191e-27
6.27636e-27
6.56418e-27
7.63857e-27
7.98097e-27
1.07897e-26
8.91674e-27
6.78128e-27
3.85237e-27
3.93115e-27
4.69974e-27
8.29931e-27
1.11371e-26
1.34648e-26
1.01881e-26
7.39722e-27
3.71457e-27
4.08038e-27
3.73715e-27
4.91921e-27
5.20688e-27
8.67126e-27
9.6048e-27
1.02467e-26
6.96231e-27
5.53242e-27
4.72242e-27
3.78764e-27
1.64359e-27
1.02207e-27
8.29787e-28
7.90106e-28
2.73046e-28
9.97994e-29
2.43347e-28
3.31726e-27
7.30883e-27
8.52105e-27
5.1542e-24
1.99316e-22
1.75405e-22
5.21459e-22
1.69296e-22
9.41097e-22
4.31148e-24
4.41196e-23
4.37988e-25
7.73377e-29
4.46752e-27
2.65702e-27
1.58251e-27
3.66303e-27
2.88961e-27
5.19684e-27
5.64408e-27
8.60953e-27
7.39615e-27
6.47061e-27
4.55531e-27
5.26405e-27
5.28897e-27
7.06643e-27
7.25682e-27
8.60519e-27
8.83343e-27
1.20405e-26
9.71597e-27
7.18008e-27
3.93276e-27
4.06325e-27
5.14625e-27
9.3675e-27
1.28717e-26
1.53762e-26
1.12264e-26
7.93023e-27
3.67248e-27
4.21433e-27
3.82686e-27
5.42029e-27
5.71962e-27
1.01561e-26
1.0879e-26
1.19044e-26
7.79818e-27
6.34484e-27
5.31846e-27
4.39081e-27
1.83897e-27
1.31601e-27
1.14318e-27
1.33656e-27
6.22058e-28
4.81501e-28
3.89511e-28
2.8416e-27
3.99437e-27
4.97761e-27
7.34685e-24
2.97188e-22
2.31777e-22
1.15671e-21
1.72361e-22
1.77046e-21
1.86395e-24
7.89499e-23
1.08837e-24
1.16726e-28
7.00759e-27
2.43145e-27
1.7252e-27
4.00841e-27
3.14611e-27
5.91864e-27
6.47739e-27
9.96291e-27
8.18929e-27
7.33642e-27
4.96071e-27
5.83162e-27
5.81975e-27
8.09573e-27
8.17871e-27
9.826e-27
9.90648e-27
1.35966e-26
1.06981e-26
7.71325e-27
4.05925e-27
4.2361e-27
5.76038e-27
1.07499e-26
1.51653e-26
1.78468e-26
1.25789e-26
8.54401e-27
3.66843e-27
4.35583e-27
3.99018e-27
6.0566e-27
6.4437e-27
1.2041e-26
1.25797e-26
1.40831e-26
8.98769e-27
7.50298e-27
6.20827e-27
5.28108e-27
2.20699e-27
1.85722e-27
1.7772e-27
2.5469e-27
1.66046e-27
1.99523e-27
1.43077e-27
4.18351e-27
7.76765e-27
2.03435e-26
8.75598e-24
4.13465e-22
3.91625e-22
1.98506e-21
1.82491e-22
2.83942e-21
9.75497e-25
1.20989e-22
2.52505e-24
9.33181e-29
1.161e-26
2.05581e-27
1.88115e-27
4.4391e-27
3.48537e-27
6.72376e-27
7.57187e-27
1.14867e-26
9.20653e-27
8.35407e-27
5.48419e-27
6.51157e-27
6.47013e-27
9.30219e-27
9.31822e-27
1.12684e-26
1.11588e-26
1.53869e-26
1.18201e-26
8.30496e-27
4.18017e-27
4.44266e-27
6.54301e-27
1.244e-26
1.80113e-26
2.08005e-26
1.41494e-26
9.19131e-27
3.66873e-27
4.46301e-27
4.20225e-27
6.78302e-27
7.35569e-27
1.43374e-26
1.47794e-26
1.68184e-26
1.06162e-26
9.05722e-27
7.48411e-27
6.60452e-27
2.87397e-27
2.87228e-27
3.10066e-27
5.30624e-27
4.65345e-27
7.35734e-27
6.63529e-27
1.44196e-26
4.92145e-26
1.5034e-25
9.81115e-24
5.60038e-22
7.24382e-22
2.88132e-21
2.48129e-22
4.0376e-21
2.08936e-24
1.63408e-22
5.25451e-24
6.00384e-28
2.03185e-26
1.49019e-27
2.05412e-27
5.05687e-27
3.85322e-27
7.72018e-27
8.89783e-27
1.32555e-26
1.04064e-26
9.56234e-27
6.17032e-27
7.31023e-27
7.26372e-27
1.07354e-26
1.07345e-26
1.29578e-26
1.25795e-26
1.74414e-26
1.30747e-26
8.9723e-27
4.32359e-27
4.68784e-27
7.50399e-27
1.45284e-26
2.14519e-26
2.43235e-26
1.59966e-26
9.88195e-27
3.66369e-27
4.55171e-27
4.47478e-27
7.61816e-27
8.56073e-27
1.70979e-26
1.75919e-26
2.03003e-26
1.28848e-26
1.11992e-26
9.42668e-27
8.62238e-27
4.07758e-27
4.7951e-27
5.91849e-27
1.13558e-26
1.22437e-26
2.32664e-26
2.70605e-26
6.04505e-26
2.39581e-25
6.95256e-25
9.81533e-24
7.44361e-22
1.40978e-21
3.56326e-21
3.81534e-22
5.40728e-21
7.10008e-24
2.04414e-22
9.89946e-24
6.48576e-27
3.45682e-26
8.89296e-28
2.25865e-27
5.96019e-27
4.20965e-27
8.99283e-27
1.04153e-26
1.53661e-26
1.18308e-26
1.10189e-26
7.01559e-27
8.28509e-27
8.24508e-27
1.24739e-26
1.24073e-26
1.49655e-26
1.42101e-26
1.98032e-26
1.44581e-26
9.74509e-27
4.47131e-27
4.99383e-27
8.69618e-27
1.70859e-26
2.55723e-26
2.85181e-26
1.80649e-26
1.06542e-26
3.66167e-27
4.65221e-27
4.8319e-27
8.60051e-27
1.00977e-26
2.04627e-26
2.12726e-26
2.47693e-26
1.60986e-26
1.42172e-26
1.23422e-26
1.17519e-26
6.25385e-27
8.43353e-27
1.18099e-26
2.39469e-26
3.01966e-26
6.15186e-26
8.98484e-26
2.08323e-25
8.22947e-25
2.21531e-24
8.9202e-24
9.72716e-22
2.54146e-21
3.77753e-21
7.77043e-22
6.719e-21
1.80937e-23
2.43096e-22
1.66235e-23
3.88398e-26
5.71023e-26
3.96486e-28
2.63443e-27
7.12201e-27
4.55446e-27
1.05403e-26
1.22155e-26
1.78568e-26
1.35399e-26
1.28179e-26
8.06917e-27
9.48875e-27
9.42168e-27
1.46003e-26
1.43968e-26
1.73547e-26
1.60475e-26
2.25537e-26
1.59429e-26
1.06324e-26
4.66582e-27
5.38419e-27
1.00961e-26
2.0227e-26
3.04085e-26
3.35396e-26
2.04247e-26
1.15491e-26
3.66552e-27
4.80566e-27
5.26833e-27
9.75902e-27
1.20643e-26
2.45853e-26
2.60378e-26
3.06397e-26
2.06388e-26
1.85376e-26
1.67645e-26
1.65657e-26
1.00867e-26
1.5067e-26
2.31763e-26
4.86442e-26
6.97446e-26
1.44506e-25
2.43129e-25
5.72669e-25
2.14272e-24
5.32243e-24
7.47371e-24
1.32256e-21
4.72555e-21
3.59765e-21
1.53951e-21
8.0321e-21
4.16784e-23
2.99757e-22
2.51506e-23
1.67108e-25
8.57079e-26
2.79704e-28
3.26636e-27
8.63046e-27
4.81527e-27
1.24771e-26
1.43607e-26
2.08843e-26
1.56273e-26
1.50559e-26
9.3244e-27
1.1002e-26
1.08004e-26
1.71934e-26
1.66988e-26
2.02569e-26
1.81411e-26
2.57976e-26
1.75446e-26
1.16831e-26
4.88e-27
5.89249e-27
1.16924e-26
2.40258e-26
3.60669e-26
3.95426e-26
2.30647e-26
1.26426e-26
3.69902e-27
5.02423e-27
5.7605e-27
1.11037e-26
1.44491e-26
2.98012e-26
3.22875e-26
3.84053e-26
2.7012e-26
2.46995e-26
2.32853e-26
2.38691e-26
1.65659e-26
2.64333e-26
4.31314e-26
9.37756e-26
1.48819e-25
3.15595e-25
5.50957e-25
1.29327e-24
4.51687e-24
1.01744e-23
6.45107e-24
1.89973e-21
8.27562e-21
3.33802e-21
3.01591e-21
9.82346e-21
6.547e-23
3.80789e-22
3.46121e-23
5.78811e-25
1.12109e-25
8.96951e-28
4.30788e-27
1.05495e-26
4.96023e-27
1.49011e-26
1.70542e-26
2.45674e-26
1.81259e-26
1.78433e-26
1.08625e-26
1.28802e-26
1.23772e-26
2.0357e-26
1.94434e-26
2.38099e-26
2.05279e-26
2.97029e-26
1.92573e-26
1.29597e-26
5.14119e-27
6.50104e-27
1.34088e-26
2.86438e-26
4.26287e-26
4.67871e-26
2.61891e-26
1.40035e-26
3.7368e-27
5.30168e-27
6.24597e-27
1.26588e-26
1.7463e-26
3.65128e-26
4.03062e-26
4.88257e-26
3.58068e-26
3.34265e-26
3.28266e-26
3.4631e-26
2.69938e-26
4.52503e-26
7.76319e-26
1.69819e-25
2.87916e-25
6.0592e-25
1.08911e-24
2.49454e-24
8.12073e-24
1.65605e-23
6.01143e-24
2.78588e-21
1.34168e-20
2.79512e-21
5.7528e-21
1.30554e-20
7.8513e-23
5.29169e-22
4.31792e-23
1.58507e-24
1.30198e-25
3.87697e-27
6.10029e-27
1.29037e-26
5.0319e-27
1.78953e-26
2.05673e-26
2.89894e-26
2.12225e-26
2.12377e-26
1.26849e-26
1.52198e-26
1.42003e-26
2.41942e-26
2.26773e-26
2.82374e-26
2.33962e-26
3.43914e-26
2.1125e-26
1.44784e-26
5.37428e-27
7.21022e-27
1.52854e-26
3.42586e-26
5.06624e-26
5.55937e-26
2.97383e-26
1.57742e-26
3.77065e-27
5.58901e-27
6.68961e-27
1.44879e-26
2.11779e-26
4.53163e-26
5.05976e-26
6.26335e-26
4.78592e-26
4.55775e-26
4.62215e-26
5.02256e-26
4.36705e-26
7.4849e-26
1.33992e-25
2.87129e-25
5.04718e-25
1.01391e-24
1.92246e-24
4.19317e-24
1.27655e-23
2.34739e-23
6.90065e-24
4.08853e-21
2.03333e-20
2.39331e-21
9.73184e-21
1.81536e-20
7.73512e-23
7.81826e-22
4.80769e-23
3.65456e-24
1.30963e-25
1.30158e-26
9.52309e-27
1.54801e-26
5.13553e-27
2.14772e-26
2.53731e-26
3.41458e-26
2.50128e-26
2.53077e-26
1.49233e-26
1.80762e-26
1.63207e-26
2.88349e-26
2.66801e-26
3.3748e-26
2.69659e-26
4.00199e-26
2.30843e-26
1.62215e-26
5.58823e-27
8.00242e-27
1.73489e-26
4.12643e-26
6.07104e-26
6.64108e-26
3.38684e-26
1.80723e-26
3.76007e-27
5.86701e-27
7.03683e-27
1.66807e-26
2.58193e-26
5.68576e-26
6.34678e-26
8.08726e-26
6.39926e-26
6.22566e-26
6.46056e-26
7.20579e-26
6.7814e-26
1.18846e-25
2.17889e-25
4.56089e-25
8.16445e-25
1.60593e-24
3.00707e-24
6.20698e-24
1.76186e-23
2.91499e-23
1.07115e-23
5.96023e-21
2.92082e-20
2.42113e-21
1.50937e-20
2.66067e-20
6.36196e-23
1.20676e-21
4.91488e-23
7.52215e-24
1.06592e-25
3.40367e-26
1.60643e-26
1.82804e-26
5.26442e-27
2.59981e-26
3.17145e-26
4.02703e-26
2.95537e-26
3.01854e-26
1.75601e-26
2.16462e-26
1.88068e-26
3.44978e-26
3.1613e-26
4.07676e-26
3.15542e-26
4.66216e-26
2.5073e-26
1.81994e-26
5.73579e-27
8.91164e-27
1.98465e-26
4.99583e-26
7.2883e-26
7.97454e-26
3.84981e-26
2.11215e-26
3.69797e-27
6.10375e-27
7.26974e-27
1.93369e-26
3.1447e-26
7.20763e-26
7.97487e-26
1.04338e-25
8.52822e-26
8.44191e-26
8.86146e-26
1.01193e-25
9.96244e-26
1.80411e-25
3.34328e-25
6.82844e-25
1.22853e-24
2.36956e-24
4.20075e-24
8.20928e-24
2.16307e-23
3.2526e-23
1.93541e-23
8.63402e-21
4.04958e-20
3.30092e-21
2.23461e-20
3.85754e-20
4.69732e-23
1.91506e-21
4.44584e-23
1.36282e-23
6.6247e-26
7.22279e-26
2.78806e-26
2.14871e-26
5.38432e-27
3.18572e-26
4.00176e-26
4.75223e-26
3.46703e-26
3.60329e-26
2.08015e-26
2.61195e-26
2.18845e-26
4.14415e-26
3.7999e-26
4.96825e-26
3.73179e-26
5.42039e-26
2.6875e-26
2.04304e-26
5.87754e-27
9.91649e-27
2.30215e-26
6.09174e-26
8.76695e-26
9.61129e-26
4.39326e-26
2.5153e-26
3.55901e-27
6.30733e-27
7.31659e-27
2.2544e-26
3.84185e-26
9.2034e-26
9.95461e-26
1.34279e-25
1.12249e-25
1.13143e-25
1.19106e-25
1.38426e-25
1.42073e-25
2.60595e-25
4.82233e-25
9.61244e-25
1.70233e-24
3.17312e-24
5.30976e-24
9.95898e-24
2.46411e-23
3.32923e-23
3.4555e-23
1.21577e-20
5.21925e-20
5.45351e-21
3.27402e-20
5.45245e-20
2.26726e-23
2.90189e-21
3.45919e-23
2.22033e-23
2.5348e-26
1.30049e-25
4.87205e-26
2.51707e-26
5.50919e-27
3.97013e-26
5.06836e-26
5.60094e-26
4.0422e-26
4.29321e-26
2.46795e-26
3.18711e-26
2.59223e-26
5.00248e-26
4.61102e-26
6.11913e-26
4.4572e-26
6.24664e-26
2.83166e-26
2.29464e-26
5.96017e-27
1.10634e-26
2.73264e-26
7.45571e-26
1.06296e-25
1.16132e-25
5.00338e-26
3.06591e-26
3.37945e-27
6.42608e-27
7.16561e-27
2.63689e-26
4.68029e-26
1.1796e-25
1.23158e-25
1.71044e-25
1.45754e-25
1.49078e-25
1.55583e-25
1.83341e-25
1.95139e-25
3.55797e-25
6.51505e-25
1.25642e-24
2.16884e-24
3.86599e-24
6.18328e-24
1.09742e-23
2.57439e-23
2.97249e-23
6.17087e-23
1.64855e-20
6.42691e-20
1.00952e-20
4.35996e-20
7.67239e-20
7.33307e-24
4.22045e-21
2.14773e-23
3.3122e-23
3.47936e-27
2.1122e-25
9.01969e-26
2.73215e-26
6.07498e-27
4.92875e-26
6.50589e-26
6.52e-26
4.68498e-26
5.08428e-26
2.9595e-26
3.90811e-26
3.10323e-26
6.05769e-26
5.66852e-26
7.60395e-26
5.35868e-26
7.10905e-26
2.90652e-26
2.58103e-26
6.06119e-27
1.23567e-26
3.31588e-26
9.16936e-26
1.29204e-25
1.4065e-25
5.7194e-26
3.81714e-26
3.1722e-27
6.44139e-27
6.74537e-27
3.08424e-26
5.69209e-26
1.51225e-25
1.5006e-25
2.15174e-25
1.85714e-25
1.9242e-25
1.96541e-25
2.33296e-25
2.52197e-25
4.60224e-25
8.21755e-25
1.5244e-24
2.5123e-24
4.3334e-24
6.63052e-24
1.06818e-23
2.36403e-23
2.27953e-23
1.11363e-22
2.16409e-20
7.46112e-20
1.94443e-20
5.68901e-20
1.07753e-19
8.20636e-24
5.90849e-21
9.81396e-24
4.46821e-23
1.99028e-27
3.0514e-25
1.61921e-25
2.91866e-26
7.00245e-27
6.20589e-26
8.35599e-26
7.53364e-26
5.40466e-26
5.98637e-26
3.56271e-26
4.84592e-26
3.76938e-26
7.36614e-26
7.0266e-26
9.55266e-26
6.47605e-26
7.96359e-26
2.90032e-26
2.90983e-26
6.10181e-27
1.3833e-26
4.14088e-26
1.12856e-25
1.57577e-25
1.70613e-25
6.54407e-26
4.86699e-26
2.99338e-27
6.28595e-27
6.07738e-27
3.59335e-26
6.86434e-26
1.93236e-25
1.80305e-25
2.6556e-25
2.32357e-25
2.41639e-25
2.38626e-25
2.84377e-25
3.10408e-25
5.60366e-25
9.72524e-25
1.72597e-24
2.73436e-24
4.47475e-24
6.43784e-24
9.22833e-24
1.932e-23
1.5552e-23
1.74721e-22
2.72802e-20
8.43161e-20
3.59718e-20
6.7947e-20
1.48173e-19
3.02269e-23
7.88436e-21
4.77954e-24
5.69741e-23
4.12385e-26
3.92873e-25
2.77324e-25
3.12963e-26
8.36489e-27
7.97321e-26
1.06716e-25
8.67589e-26
6.13677e-26
7.00957e-26
4.32647e-26
6.07097e-26
4.65046e-26
8.99991e-26
8.82189e-26
1.2111e-25
7.81542e-26
8.79345e-26
2.78321e-26
3.28424e-26
6.1082e-27
1.5417e-26
5.29697e-26
1.3899e-25
1.92201e-25
2.07132e-25
7.57036e-26
6.33492e-26
2.85026e-27
5.95321e-27
5.1361e-27
4.14651e-26
8.2245e-26
2.45695e-25
2.1185e-25
3.21313e-25
2.83063e-25
2.95077e-25
2.78719e-25
3.30117e-25
3.59566e-25
6.40751e-25
1.07468e-24
1.82047e-24
2.79613e-24
4.15897e-24
5.49236e-24
6.96256e-24
1.37228e-23
8.73954e-24
2.58108e-22
3.3121e-20
8.90485e-20
6.29619e-20
7.78756e-20
1.99699e-19
1.1573e-22
9.97531e-21
5.99394e-24
6.66658e-23
2.21137e-25
4.80863e-25
4.73514e-25
3.26732e-26
1.09697e-26
1.03113e-25
1.36128e-25
9.9112e-26
6.85366e-26
8.13617e-26
5.27113e-26
7.71372e-26
5.81282e-26
1.10625e-25
1.11808e-25
1.55369e-25
9.39577e-26
9.52435e-26
2.51385e-26
3.7216e-26
6.02572e-27
1.71244e-26
6.92032e-26
1.70861e-25
2.34664e-25
2.51779e-25
8.86762e-26
8.42534e-26
2.79614e-27
5.37961e-27
4.05014e-27
4.70603e-26
9.77141e-26
3.10312e-25
2.43057e-25
3.78152e-25
3.35004e-25
3.48742e-25
3.12078e-25
3.6245e-25
3.90921e-25
6.87331e-25
1.10687e-24
1.75254e-24
2.56817e-24
3.40178e-24
4.07732e-24
4.38502e-24
8.06767e-24
3.68928e-24
3.476e-22
3.88214e-20
9.03517e-20
1.04245e-19
8.35001e-20
2.66339e-19
3.38593e-22
1.19637e-20
1.96182e-23
7.43353e-23
7.41998e-25
5.4823e-25
7.75664e-25
3.55978e-26
1.55785e-26
1.33034e-25
1.75449e-25
1.10211e-25
7.56892e-26
9.21139e-26
6.52976e-26
9.8677e-26
7.36308e-26
1.35714e-25
1.43775e-25
2.00661e-25
1.12491e-25
1.00213e-25
2.07205e-26
4.21922e-26
5.85094e-27
1.88527e-26
9.22221e-26
2.09302e-25
2.86155e-25
3.06327e-25
1.05489e-25
1.14176e-25
2.84639e-27
4.59145e-27
3.0263e-27
5.23591e-26
1.15012e-25
3.88729e-25
2.69999e-25
4.30179e-25
3.81503e-25
3.97735e-25
3.29776e-25
3.74254e-25
3.94675e-25
6.9082e-25
1.04571e-24
1.52285e-24
2.06138e-24
2.40775e-24
2.49999e-24
2.13056e-24
3.64146e-24
1.12125e-24
4.44723e-22
4.41206e-20
8.51295e-20
1.64603e-19
9.35136e-20
3.47395e-19
9.57416e-22
1.34568e-20
6.02156e-23
8.03551e-23
1.91159e-24
6.14052e-25
1.28577e-24
3.91378e-26
2.51307e-26
1.67327e-25
2.31975e-25
1.16181e-25
8.5481e-26
9.97252e-26
8.28809e-26
1.2627e-25
9.54484e-26
1.64386e-25
1.87688e-25
2.6022e-25
1.35183e-25
1.01591e-25
1.53475e-26
4.78823e-26
5.54824e-27
2.06734e-26
1.25889e-25
2.53901e-25
3.49365e-25
3.73294e-25
1.26639e-25
1.58246e-25
3.0989e-27
3.78446e-27
2.5025e-27
5.72737e-26
1.32405e-25
4.83138e-25
2.89678e-25
4.71492e-25
4.17566e-25
4.37575e-25
3.17889e-25
3.6368e-25
3.63165e-25
6.42416e-25
8.85816e-25
1.21023e-24
1.43558e-24
1.40624e-24
1.17453e-24
6.75418e-25
1.06007e-24
4.67009e-25
5.10284e-22
4.87209e-20
8.00774e-20
2.49442e-19
8.61582e-20
4.47216e-19
1.85813e-21
1.5459e-20
1.57153e-22
8.37423e-23
4.3587e-24
6.66556e-25
2.16885e-24
4.9904e-26
4.32207e-26
2.23268e-25
3.11388e-25
1.24255e-25
9.77656e-26
1.09069e-25
1.10597e-25
1.68278e-25
1.26682e-25
2.06579e-25
2.55786e-25
3.4981e-25
1.65457e-25
1.04518e-25
1.002e-26
5.61943e-26
5.64082e-27
2.3263e-26
1.75876e-25
3.10334e-25
4.32777e-25
4.67345e-25
1.61988e-25
2.2602e-25
3.79592e-27
3.52376e-27
3.24645e-27
6.15878e-26
1.5548e-25
5.99178e-25
3.10199e-25
5.00382e-25
4.52809e-25
4.67306e-25
2.96288e-25
3.30063e-25
3.15409e-25
5.44838e-25
6.95861e-25
8.72006e-25
8.73628e-25
6.21107e-25
4.02507e-25
9.81449e-26
2.67203e-25
1.29313e-24
5.72059e-22
5.24829e-20
6.65205e-20
3.61952e-19
8.23525e-25
5.29514e-25
4.65403e-27
8.3394e-27
1.46106e-26
4.8117e-31
1.60064e-27
4.23337e-28
8.37732e-28
5.42634e-28
1.10636e-27
9.5071e-28
1.70222e-27
1.8468e-27
2.19193e-27
1.42281e-27
1.37001e-27
1.17664e-27
1.45749e-27
1.78132e-27
1.97022e-27
2.06533e-27
2.42201e-27
3.0314e-27
2.82722e-27
1.82153e-27
1.25171e-27
1.01696e-27
1.44838e-27
2.33441e-27
3.33616e-27
3.91471e-27
3.13158e-27
2.09177e-27
1.1419e-27
1.26318e-27
1.18557e-27
1.46823e-27
1.64244e-27
2.49391e-27
3.02891e-27
3.07587e-27
2.19521e-27
1.65068e-27
1.56213e-27
1.10238e-27
5.39887e-28
3.22607e-28
2.46763e-28
2.23838e-28
5.48624e-29
2.48091e-30
8.44433e-29
1.41569e-27
5.92604e-27
3.24354e-27
4.80379e-25
1.38442e-23
1.65818e-23
4.73839e-25
2.69186e-23
7.30515e-25
7.24602e-25
1.82741e-25
2.47114e-26
2.08699e-29
2.63472e-27
1.55402e-27
1.14815e-27
2.25721e-27
1.55037e-27
2.95543e-27
2.7156e-27
4.80634e-27
3.86762e-27
3.58957e-27
2.6842e-27
3.12997e-27
3.04649e-27
3.89153e-27
4.01946e-27
4.68683e-27
4.88358e-27
6.58512e-27
5.55775e-27
4.45427e-27
2.70057e-27
2.82667e-27
2.98291e-27
5.12273e-27
6.5041e-27
7.67031e-27
6.51694e-27
4.53565e-27
2.92601e-27
2.65281e-27
2.85341e-27
2.87442e-27
3.53928e-27
4.74866e-27
5.83379e-27
5.67718e-27
4.32252e-27
3.15679e-27
2.92677e-27
2.22566e-27
1.03916e-27
5.53329e-28
4.09642e-28
2.78598e-28
6.27668e-29
4.13518e-31
2.84341e-28
4.9435e-27
1.42298e-26
1.3845e-26
7.9898e-25
4.38513e-23
9.38434e-23
1.43651e-24
5.17616e-23
1.71063e-23
2.87276e-24
1.00915e-24
5.91098e-26
7.58896e-30
2.80121e-27
2.90437e-27
1.48789e-27
3.23439e-27
2.45275e-27
4.01393e-27
4.20651e-27
6.2176e-27
5.82491e-27
5.08781e-27
4.06575e-27
4.27955e-27
4.53488e-27
5.57461e-27
5.84912e-27
6.65096e-27
7.02133e-27
9.4455e-27
8.01817e-27
6.55867e-27
3.96618e-27
4.083e-27
4.32493e-27
7.32708e-27
9.20514e-27
1.12603e-26
9.27715e-27
6.7147e-27
4.16453e-27
3.97342e-27
3.99734e-27
4.32613e-27
4.94592e-27
6.89795e-27
8.22228e-27
8.30369e-27
6.10203e-27
4.76628e-27
4.20168e-27
3.21531e-27
1.51563e-27
8.32357e-28
5.82556e-28
4.14158e-28
8.2973e-29
2.62557e-30
4.03867e-28
5.54678e-27
1.72811e-26
1.66198e-26
2.18498e-24
7.28496e-23
1.06507e-22
2.54285e-23
1.23486e-22
1.1115e-22
6.59777e-24
6.12435e-24
7.13905e-26
3.8411e-30
3.10087e-27
2.72899e-27
1.52924e-27
3.17845e-27
2.69636e-27
4.11261e-27
4.6886e-27
6.51491e-27
6.39394e-27
5.24679e-27
4.20542e-27
4.3486e-27
4.73766e-27
5.87261e-27
6.13274e-27
7.08505e-27
7.39596e-27
1.00745e-26
8.44311e-27
6.65187e-27
3.91668e-27
3.96192e-27
4.47918e-27
7.71412e-27
1.00411e-26
1.22712e-26
9.63765e-27
7.0748e-27
3.91408e-27
4.05636e-27
3.8469e-27
4.62359e-27
5.01085e-27
7.68309e-27
8.84139e-27
9.18674e-27
6.51811e-27
5.08569e-27
4.44413e-27
3.41433e-27
1.59521e-27
8.74612e-28
6.85497e-28
5.22899e-28
1.4765e-28
1.67743e-29
2.87092e-28
4.46745e-27
1.2181e-26
1.271e-26
3.23669e-24
1.2257e-22
1.43081e-22
1.57129e-22
1.68694e-22
3.94479e-22
6.85435e-24
1.97347e-23
1.66726e-25
2.14694e-29
3.47599e-27
2.72045e-27
1.48784e-27
3.42185e-27
2.70951e-27
4.58638e-27
5.04879e-27
7.47124e-27
6.80134e-27
5.76313e-27
4.31272e-27
4.72536e-27
4.94299e-27
6.32968e-27
6.55828e-27
7.70274e-27
7.92981e-27
1.09098e-26
8.93529e-27
6.8276e-27
3.88163e-27
3.95203e-27
4.69696e-27
8.38911e-27
1.11558e-26
1.35527e-26
1.02145e-26
7.43325e-27
3.73055e-27
4.10548e-27
3.77727e-27
4.93262e-27
5.25865e-27
8.6847e-27
9.63855e-27
1.03115e-26
7.0142e-27
5.56473e-27
4.76043e-27
3.7636e-27
1.67171e-27
1.01194e-27
8.4933e-28
7.72217e-28
2.85582e-28
9.89274e-29
2.35912e-28
3.32271e-27
7.31207e-27
8.52681e-27
5.14285e-24
2.00666e-22
1.78151e-22
5.2412e-22
1.71184e-22
9.45501e-22
4.3304e-24
4.41694e-23
4.33585e-25
6.90167e-29
4.53331e-27
2.69757e-27
1.55058e-27
3.77452e-27
2.82647e-27
5.27333e-27
5.604e-27
8.68162e-27
7.40069e-27
6.53578e-27
4.57743e-27
5.24001e-27
5.3448e-27
7.10446e-27
7.28025e-27
8.64868e-27
8.80863e-27
1.21784e-26
9.7453e-27
7.24295e-27
3.96332e-27
4.08114e-27
5.14974e-27
9.47812e-27
1.28837e-26
1.54976e-26
1.12397e-26
7.9781e-27
3.68475e-27
4.25155e-27
3.86309e-27
5.44537e-27
5.77026e-27
1.0167e-26
1.09196e-26
1.19904e-26
7.84575e-27
6.39742e-27
5.33911e-27
4.37482e-27
1.86375e-27
1.31103e-27
1.16154e-27
1.31684e-27
6.46377e-28
4.83058e-28
3.88458e-28
2.85904e-27
3.97935e-27
4.94634e-27
7.34849e-24
2.99142e-22
2.35523e-22
1.16256e-21
1.75262e-22
1.77969e-21
1.86184e-24
7.90923e-23
1.08051e-24
1.09193e-28
7.17902e-27
2.42002e-27
1.72651e-27
4.09449e-27
3.09981e-27
5.98622e-27
6.45095e-27
1.00415e-26
8.21674e-27
7.42786e-27
4.97737e-27
5.80109e-27
5.90462e-27
8.10822e-27
8.23964e-27
9.83855e-27
9.92685e-27
1.37363e-26
1.07504e-26
7.77959e-27
4.09563e-27
4.24268e-27
5.78303e-27
1.08661e-26
1.51831e-26
1.79858e-26
1.25837e-26
8.5996e-27
3.68125e-27
4.40292e-27
4.02321e-27
6.09379e-27
6.49311e-27
1.20509e-26
1.26369e-26
1.41907e-26
9.03484e-27
7.57546e-27
6.21177e-27
5.27771e-27
2.23206e-27
1.8613e-27
1.79636e-27
2.53484e-27
1.72376e-27
2.0103e-27
1.45525e-27
4.23592e-27
7.71295e-27
2.03696e-26
8.76723e-24
4.16487e-22
3.98475e-22
1.99644e-21
1.84657e-22
2.85488e-21
9.50792e-25
1.21269e-22
2.50825e-24
9.37965e-29
1.18935e-26
2.00584e-27
1.9184e-27
4.49926e-27
3.45449e-27
6.78458e-27
7.55713e-27
1.15766e-26
9.24712e-27
8.46547e-27
5.49383e-27
6.48567e-27
6.58039e-27
9.30087e-27
9.41219e-27
1.1253e-26
1.12306e-26
1.55174e-26
1.19019e-26
8.35947e-27
4.22486e-27
4.43569e-27
6.59337e-27
1.25473e-26
1.80501e-26
2.09427e-26
1.41626e-26
9.24935e-27
3.68759e-27
4.51529e-27
4.2356e-27
6.8326e-27
7.40723e-27
1.43497e-26
1.48612e-26
1.69445e-26
1.06686e-26
9.15095e-27
7.47771e-27
6.61942e-27
2.903e-27
2.8916e-27
3.12018e-27
5.31463e-27
4.77798e-27
7.43319e-27
6.73197e-27
1.45677e-26
4.8974e-26
1.51052e-25
9.85875e-24
5.64243e-22
7.32407e-22
2.89899e-21
2.50977e-22
4.05881e-21
2.02457e-24
1.63767e-22
5.2164e-24
6.12352e-28
2.08037e-26
1.41521e-27
2.13562e-27
5.0803e-27
3.84166e-27
7.77303e-27
8.89479e-27
1.33613e-26
1.04552e-26
9.69326e-27
6.16622e-27
7.30216e-27
7.39274e-27
1.07359e-26
1.08503e-26
1.29224e-26
1.27008e-26
1.75599e-26
1.31853e-26
9.02075e-27
4.37569e-27
4.66711e-27
7.58915e-27
1.46147e-26
2.15277e-26
2.44527e-26
1.60311e-26
9.93794e-27
3.69426e-27
4.60417e-27
4.51301e-27
7.6771e-27
8.61806e-27
1.71117e-26
1.77087e-26
2.04381e-26
1.29506e-26
1.1312e-26
9.41503e-27
8.65964e-27
4.11673e-27
4.83315e-27
5.93309e-27
1.13832e-26
1.23668e-26
2.34123e-26
2.73547e-26
6.08449e-26
2.38913e-25
6.99315e-25
9.87854e-24
7.49717e-22
1.42221e-21
3.58439e-21
3.87005e-22
5.43909e-21
6.91528e-24
2.04876e-22
9.82142e-24
6.41706e-27
3.54869e-26
8.08049e-28
2.39695e-27
5.92373e-27
4.22996e-27
9.0253e-27
1.04335e-26
1.54822e-26
1.1892e-26
1.11705e-26
6.99386e-27
8.3039e-27
8.38436e-27
1.24855e-26
1.25409e-26
1.4918e-26
1.43774e-26
1.99131e-26
1.45952e-26
9.81263e-27
4.52756e-27
4.96247e-27
8.82047e-27
1.71435e-26
2.5699e-26
2.86284e-26
1.81307e-26
1.07066e-26
3.70592e-27
4.7005e-27
4.87965e-27
8.66565e-27
1.01654e-26
2.04753e-26
2.14367e-26
2.49096e-26
1.61903e-26
1.43516e-26
1.23297e-26
1.18155e-26
6.30955e-27
8.49349e-27
1.18251e-26
2.40533e-26
3.03577e-26
6.16024e-26
9.06536e-26
2.09299e-25
8.22138e-25
2.22901e-24
8.99369e-24
9.79485e-22
2.56323e-21
3.80196e-21
7.8976e-22
6.76101e-21
1.76303e-23
2.43509e-22
1.64851e-23
3.79875e-26
5.88614e-26
3.34824e-28
2.84853e-27
6.99413e-27
4.62403e-27
1.05259e-26
1.22769e-26
1.79631e-26
1.36265e-26
1.29812e-26
8.03359e-27
9.53644e-27
9.56833e-27
1.46286e-26
1.45441e-26
1.73022e-26
1.62563e-26
2.26606e-26
1.60977e-26
1.07051e-26
4.72283e-27
5.34854e-27
1.02575e-26
2.02539e-26
3.05933e-26
3.36309e-26
2.05294e-26
1.15972e-26
3.72272e-27
4.84736e-27
5.32886e-27
9.82669e-27
1.21478e-26
2.45929e-26
2.62612e-26
3.07786e-26
2.0772e-26
1.8698e-26
1.67594e-26
1.66653e-26
1.01816e-26
1.51906e-26
2.32653e-26
4.89067e-26
7.03384e-26
1.45143e-25
2.44596e-25
5.75215e-25
2.14308e-24
5.35751e-24
7.53539e-24
1.33051e-21
4.76647e-21
3.62413e-21
1.55367e-21
8.08268e-21
4.11744e-23
3.00318e-22
2.49626e-23
1.6411e-25
8.83273e-26
2.45811e-28
3.57337e-27
8.3868e-27
4.94188e-27
1.23916e-26
1.4486e-26
2.09636e-26
1.57483e-26
1.52244e-26
9.28224e-27
1.108e-26
1.09536e-26
1.7248e-26
1.68504e-26
2.02068e-26
1.83817e-26
2.59025e-26
1.77079e-26
1.17551e-26
4.93416e-27
5.85966e-27
1.18807e-26
2.40299e-26
3.63076e-26
3.96215e-26
2.32138e-26
1.26858e-26
3.76796e-27
5.05768e-27
5.83678e-27
1.11715e-26
1.45561e-26
2.98021e-26
3.25885e-26
3.85398e-26
2.72104e-26
2.48956e-26
2.33098e-26
2.40267e-26
1.67345e-26
2.6665e-26
4.33879e-26
9.41645e-26
1.49932e-25
3.17696e-25
5.53865e-25
1.29801e-24
4.52129e-24
1.02345e-23
6.51895e-24
1.9095e-21
8.32237e-21
3.3671e-21
3.03894e-21
9.88404e-21
6.48813e-23
3.80989e-22
3.43665e-23
5.70448e-25
1.15424e-25
9.05271e-28
4.7325e-27
1.01585e-26
5.15099e-27
1.47046e-26
1.72837e-26
2.4582e-26
1.8309e-26
1.7999e-26
1.08297e-26
1.29785e-26
1.25455e-26
2.04333e-26
1.9594e-26
2.37608e-26
2.07949e-26
2.98056e-26
1.9429e-26
1.30478e-26
5.18824e-27
6.47753e-27
1.3611e-26
2.86413e-26
4.28513e-26
4.68779e-26
2.63798e-26
1.40449e-26
3.81436e-27
5.32774e-27
6.34032e-27
1.2724e-26
1.76002e-26
3.65129e-26
4.07067e-26
4.89579e-26
3.61041e-26
3.36687e-26
3.29058e-26
3.48574e-26
2.72369e-26
4.55268e-26
7.79565e-26
1.70705e-25
2.89866e-25
6.10312e-25
1.09377e-24
2.50291e-24
8.13331e-24
1.66533e-23
6.07995e-24
2.79872e-21
1.34808e-20
2.81879e-21
5.80203e-21
1.31506e-20
7.75991e-23
5.288e-22
4.29039e-23
1.56415e-24
1.34356e-25
4.03675e-27
6.69181e-27
1.2338e-26
5.28698e-27
1.75478e-26
2.09476e-26
2.88937e-26
2.15066e-26
2.13571e-26
1.26779e-26
1.53221e-26
1.43981e-26
2.42706e-26
2.28299e-26
2.81805e-26
2.36955e-26
3.44928e-26
2.13118e-26
1.45824e-26
5.41307e-27
7.19875e-27
1.54963e-26
3.42666e-26
5.09075e-26
5.57216e-26
2.99534e-26
1.58217e-26
3.85437e-27
5.60962e-27
6.8035e-27
1.45516e-26
2.1358e-26
4.5322e-26
5.1133e-26
6.27544e-26
4.83084e-26
4.58661e-26
4.63739e-26
5.05187e-26
4.39825e-26
7.52328e-26
1.34389e-25
2.88787e-25
5.08903e-25
1.02033e-24
1.92843e-24
4.20852e-24
1.27942e-23
2.36073e-23
6.96181e-24
4.10468e-21
2.04397e-20
2.41927e-21
9.81905e-21
1.82841e-20
7.63957e-23
7.80708e-22
4.77839e-23
3.61416e-24
1.35743e-25
1.35978e-26
1.04215e-26
1.469e-26
5.46154e-27
2.09297e-26
2.59655e-26
3.38867e-26
2.54425e-26
2.53595e-26
1.49676e-26
1.81576e-26
1.65641e-26
2.88763e-26
2.6853e-26
3.36565e-26
2.73108e-26
4.01226e-26
2.32938e-26
1.63413e-26
5.6175e-27
8.00049e-27
1.75655e-26
4.13121e-26
6.11447e-26
6.65927e-26
3.40982e-26
1.81371e-26
3.84622e-27
5.88814e-27
7.16947e-27
1.67501e-26
2.60617e-26
5.68742e-26
6.41667e-26
8.09979e-26
6.46551e-26
6.2606e-26
6.48934e-26
7.24262e-26
6.83595e-26
1.19541e-25
2.1876e-25
4.58155e-25
8.21641e-25
1.61189e-24
3.01994e-24
6.22884e-24
1.76648e-23
2.93217e-23
1.07466e-23
5.98118e-21
2.93668e-20
2.45075e-21
1.52225e-20
2.67881e-20
6.30916e-23
1.20568e-21
4.88981e-23
7.45112e-24
1.11032e-25
3.53511e-26
1.73902e-26
1.72835e-26
5.64699e-27
2.52247e-26
3.25689e-26
3.98163e-26
3.01626e-26
3.01387e-26
1.76708e-26
2.16737e-26
1.90727e-26
3.44794e-26
3.18261e-26
4.0617e-26
3.19835e-26
4.67064e-26
2.53187e-26
1.83294e-26
5.7555e-27
8.91616e-27
2.00775e-26
5.00506e-26
7.33519e-26
8.00313e-26
3.87302e-26
2.12159e-26
3.7838e-27
6.13176e-27
7.41814e-27
1.94193e-26
3.17586e-26
7.21091e-26
8.06567e-26
1.04491e-25
8.62543e-26
8.48329e-26
8.91087e-26