/*--------------------------------*- C++ -*----------------------------------*\
| =========                 |                                                 |
| \\      /  F ield         | OpenFOAM: The Open Source CFD Toolbox           |
|  \\    /   O peration     | Version:  2312                                  |
|   \\  /    A nd           | Website:  www.openfoam.com                      |
|    \\/     M anipulation  |                                                 |
\*---------------------------------------------------------------------------*/
FoamFile
{
    version     2.0;
    format      ascii;
    arch        "LSB;label=32;scalar=64";
    class       volScalarField;
    location    "200";
    object      p;
}
// * * * * * * * * * * * * * * * * * * * * * * * * * * * * * * * * * * * * * //

dimensions      [0 2 -2 0 0 0 0];

internalField   nonuniform List<scalar> 
144000
(
2.67014e-09
1.77925e-09
2.9418e-10
-3.83631e-10
-1.49417e-11
5.06488e-10
9.58412e-10
1.22006e-09
1.41927e-09
1.47476e-09
1.57285e-09
1.55931e-09
1.62788e-09
1.58251e-09
1.6486e-09
1.61312e-09
1.63756e-09
1.58554e-09
1.62432e-09
1.55293e-09
1.58487e-09
1.51925e-09
1.56617e-09
1.49741e-09
1.56047e-09
1.53805e-09
1.57779e-09
1.55709e-09
1.62064e-09
1.55421e-09
1.62414e-09
1.53431e-09
1.54896e-09
1.47039e-09
1.44572e-09
1.35513e-09
1.35556e-09
1.26544e-09
1.28166e-09
1.19067e-09
1.25049e-09
1.18495e-09
1.23749e-09
1.20545e-09
1.2556e-09
1.21851e-09
1.25429e-09
1.23954e-09
1.27975e-09
1.2483e-09
1.28715e-09
1.27781e-09
1.26704e-09
1.28834e-09
1.20474e-09
1.28198e-09
1.16354e-09
1.13811e-09
-1.07784e-09
6.79386e-10
2.74324e-09
1.81742e-09
2.74709e-10
-3.97984e-10
-2.11011e-11
5.06804e-10
9.57874e-10
1.22021e-09
1.41866e-09
1.47405e-09
1.57215e-09
1.55871e-09
1.62739e-09
1.58209e-09
1.64796e-09
1.61337e-09
1.63697e-09
1.58541e-09
1.62421e-09
1.55295e-09
1.58454e-09
1.51922e-09
1.56598e-09
1.49743e-09
1.55975e-09
1.53862e-09
1.57711e-09
1.5571e-09
1.6208e-09
1.55396e-09
1.6243e-09
1.53487e-09
1.54838e-09
1.47134e-09
1.44537e-09
1.3555e-09
1.35553e-09
1.26565e-09
1.28171e-09
1.19054e-09
1.25037e-09
1.18535e-09
1.23699e-09
1.20596e-09
1.25524e-09
1.21901e-09
1.2539e-09
1.23995e-09
1.2799e-09
1.24847e-09
1.28736e-09
1.27837e-09
1.26721e-09
1.28857e-09
1.20536e-09
1.28126e-09
1.17203e-09
1.163e-09
-1.12516e-09
6.26283e-10
2.83458e-09
1.83681e-09
2.51134e-10
-4.07704e-10
-2.64854e-11
5.07447e-10
9.57493e-10
1.22054e-09
1.41842e-09
1.47296e-09
1.57154e-09
1.55755e-09
1.6271e-09
1.58087e-09
1.64738e-09
1.61347e-09
1.63652e-09
1.5849e-09
1.62441e-09
1.55255e-09
1.58443e-09
1.51877e-09
1.56608e-09
1.497e-09
1.55905e-09
1.5392e-09
1.57648e-09
1.55677e-09
1.62158e-09
1.55311e-09
1.62508e-09
1.53528e-09
1.54789e-09
1.47243e-09
1.44509e-09
1.35558e-09
1.35583e-09
1.26544e-09
1.28223e-09
1.18977e-09
1.25069e-09
1.18543e-09
1.23665e-09
1.2063e-09
1.25525e-09
1.21941e-09
1.25371e-09
1.24014e-09
1.28066e-09
1.24818e-09
1.28812e-09
1.27859e-09
1.26791e-09
1.28868e-09
1.20656e-09
1.27737e-09
1.17936e-09
1.2111e-09
-1.19691e-09
5.75975e-10
2.93218e-09
1.81159e-09
2.27387e-10
-4.02777e-10
-3.04412e-11
5.08364e-10
9.57253e-10
1.22145e-09
1.41857e-09
1.47179e-09
1.57079e-09
1.556e-09
1.62671e-09
1.57957e-09
1.64657e-09
1.61356e-09
1.63597e-09
1.5842e-09
1.62455e-09
1.55194e-09
1.5843e-09
1.51818e-09
1.56617e-09
1.49646e-09
1.55818e-09
1.54001e-09
1.57573e-09
1.55639e-09
1.62263e-09
1.55193e-09
1.6261e-09
1.53573e-09
1.54723e-09
1.47377e-09
1.44458e-09
1.3556e-09
1.3562e-09
1.26505e-09
1.28298e-09
1.1887e-09
1.25118e-09
1.18539e-09
1.23636e-09
1.20668e-09
1.25552e-09
1.2198e-09
1.25364e-09
1.24015e-09
1.28196e-09
1.24736e-09
1.28955e-09
1.27814e-09
1.26988e-09
1.28719e-09
1.20971e-09
1.26779e-09
1.19331e-09
1.26917e-09
-1.28752e-09
5.53872e-10
3.02522e-09
1.70365e-09
2.04432e-10
-3.65563e-10
-2.7347e-11
5.09496e-10
9.56897e-10
1.22298e-09
1.41913e-09
1.47058e-09
1.56966e-09
1.55396e-09
1.62593e-09
1.57791e-09
1.64531e-09
1.6135e-09
1.6352e-09
1.5833e-09
1.62445e-09
1.55114e-09
1.58407e-09
1.51752e-09
1.5661e-09
1.49593e-09
1.55711e-09
1.54101e-09
1.57485e-09
1.55595e-09
1.62374e-09
1.55048e-09
1.62708e-09
1.53626e-09
1.54633e-09
1.47531e-09
1.44382e-09
1.35563e-09
1.35661e-09
1.26461e-09
1.28392e-09
1.18756e-09
1.25175e-09
1.18536e-09
1.23611e-09
1.20718e-09
1.25599e-09
1.22018e-09
1.25368e-09
1.23988e-09
1.28376e-09
1.24592e-09
1.29172e-09
1.27667e-09
1.27343e-09
1.28383e-09
1.21599e-09
1.25117e-09
1.21724e-09
1.32478e-09
-1.39533e-09
5.96586e-10
3.11717e-09
1.47779e-09
1.74521e-10
-2.81777e-10
-1.0013e-11
5.10901e-10
9.56055e-10
1.22509e-09
1.42018e-09
1.46937e-09
1.56804e-09
1.55133e-09
1.6246e-09
1.57583e-09
1.6435e-09
1.61311e-09
1.63414e-09
1.58214e-09
1.62399e-09
1.55014e-09
1.58371e-09
1.51683e-09
1.56581e-09
1.49548e-09
1.55585e-09
1.54209e-09
1.57386e-09
1.55538e-09
1.62475e-09
1.54876e-09
1.62784e-09
1.5368e-09
1.54516e-09
1.47696e-09
1.44282e-09
1.3557e-09
1.35708e-09
1.26421e-09
1.28505e-09
1.18651e-09
1.25239e-09
1.18536e-09
1.23595e-09
1.20777e-09
1.25667e-09
1.2205e-09
1.25386e-09
1.23922e-09
1.28604e-09
1.24373e-09
1.29477e-09
1.27381e-09
1.27901e-09
1.27722e-09
1.2266e-09
1.2265e-09
1.25305e-09
1.37065e-09
-1.52589e-09
7.35105e-10
3.22381e-09
1.11478e-09
1.22951e-10
-1.4312e-10
2.88236e-11
5.12774e-10
9.54161e-10
1.22771e-09
1.42182e-09
1.46824e-09
1.56591e-09
1.5481e-09
1.62262e-09
1.57333e-09
1.64108e-09
1.61223e-09
1.63274e-09
1.58068e-09
1.6231e-09
1.5489e-09
1.58318e-09
1.51614e-09
1.56528e-09
1.49512e-09
1.55445e-09
1.54316e-09
1.57277e-09
1.55465e-09
1.62554e-09
1.54677e-09
1.62821e-09
1.53728e-09
1.54369e-09
1.4786e-09
1.44162e-09
1.35585e-09
1.35762e-09
1.2639e-09
1.28639e-09
1.1857e-09
1.2531e-09
1.18545e-09
1.23596e-09
1.20844e-09
1.25754e-09
1.2207e-09
1.25427e-09
1.23806e-09
1.28881e-09
1.24065e-09
1.29883e-09
1.26922e-09
1.287e-09
1.26712e-09
1.24227e-09
1.19369e-09
1.30071e-09
1.40527e-09
-1.68791e-09
9.82414e-10
3.36159e-09
6.13175e-10
3.45992e-11
5.22135e-11
9.52034e-11
5.1553e-10
9.5045e-10
1.23062e-09
1.4241e-09
1.46726e-09
1.56324e-09
1.54425e-09
1.61992e-09
1.57041e-09
1.63805e-09
1.61078e-09
1.63097e-09
1.57891e-09
1.62171e-09
1.54742e-09
1.58244e-09
1.51545e-09
1.56445e-09
1.49488e-09
1.55292e-09
1.54411e-09
1.57159e-09
1.55374e-09
1.62597e-09
1.54454e-09
1.62808e-09
1.53764e-09
1.54192e-09
1.48014e-09
1.44024e-09
1.35607e-09
1.35823e-09
1.26375e-09
1.28792e-09
1.18525e-09
1.2539e-09
1.18562e-09
1.23621e-09
1.20916e-09
1.25864e-09
1.22073e-09
1.25498e-09
1.2363e-09
1.29206e-09
1.23662e-09
1.304e-09
1.26271e-09
1.29751e-09
1.25346e-09
1.26299e-09
1.15399e-09
1.35737e-09
1.43119e-09
-1.88507e-09
1.33421e-09
3.54394e-09
-1.26153e-11
-1.03927e-10
2.99329e-10
1.93235e-10
5.20086e-10
9.4417e-10
1.23348e-09
1.42697e-09
1.46648e-09
1.56002e-09
1.53983e-09
1.61646e-09
1.56707e-09
1.63441e-09
1.6087e-09
1.6288e-09
1.57685e-09
1.61979e-09
1.5457e-09
1.58146e-09
1.51479e-09
1.5633e-09
1.49476e-09
1.55129e-09
1.54489e-09
1.57031e-09
1.55263e-09
1.62596e-09
1.5421e-09
1.62736e-09
1.53783e-09
1.53983e-09
1.48152e-09
1.43867e-09
1.35638e-09
1.35888e-09
1.26379e-09
1.28962e-09
1.18522e-09
1.25481e-09
1.18589e-09
1.23677e-09
1.20991e-09
1.25995e-09
1.22054e-09
1.25604e-09
1.23392e-09
1.29576e-09
1.23161e-09
1.31026e-09
1.25428e-09
1.31039e-09
1.23666e-09
1.28792e-09
1.10984e-09
1.41877e-09
1.45274e-09
-2.11517e-09
1.77228e-09
3.77728e-09
-7.31517e-10
-2.9935e-10
5.86861e-10
3.24231e-10
5.27749e-10
9.34724e-10
1.23579e-09
1.43031e-09
1.46594e-09
1.55626e-09
1.53485e-09
1.61224e-09
1.56333e-09
1.63019e-09
1.60597e-09
1.62621e-09
1.57451e-09
1.61734e-09
1.54378e-09
1.58022e-09
1.51414e-09
1.56182e-09
1.49476e-09
1.54959e-09
1.54544e-09
1.56895e-09
1.55136e-09
1.62542e-09
1.53951e-09
1.62602e-09
1.5378e-09
1.53746e-09
1.48264e-09
1.43699e-09
1.35679e-09
1.35954e-09
1.26404e-09
1.29147e-09
1.18565e-09
1.25584e-09
1.18626e-09
1.23769e-09
1.21069e-09
1.26147e-09
1.22012e-09
1.25749e-09
1.23096e-09
1.2998e-09
1.22573e-09
1.31745e-09
1.24421e-09
1.32508e-09
1.21771e-09
1.31545e-09
1.06469e-09
1.4792e-09
1.47496e-09
-2.37035e-09
2.28071e-09
4.06157e-09
-1.49909e-09
-5.51204e-10
8.98771e-10
4.87306e-10
5.40099e-10
9.21807e-10
1.23698e-09
1.43391e-09
1.46565e-09
1.55196e-09
1.52933e-09
1.60729e-09
1.55919e-09
1.62543e-09
1.6026e-09
1.62319e-09
1.57192e-09
1.61434e-09
1.54168e-09
1.5787e-09
1.51348e-09
1.56002e-09
1.49486e-09
1.54782e-09
1.54569e-09
1.56747e-09
1.54997e-09
1.62432e-09
1.53681e-09
1.62407e-09
1.53752e-09
1.53483e-09
1.48346e-09
1.43518e-09
1.35732e-09
1.36016e-09
1.26452e-09
1.29345e-09
1.18655e-09
1.25701e-09
1.18672e-09
1.23898e-09
1.2115e-09
1.26316e-09
1.2195e-09
1.25929e-09
1.22753e-09
1.30404e-09
1.21917e-09
1.32524e-09
1.23299e-09
1.34067e-09
1.19805e-09
1.34334e-09
1.02252e-09
1.53252e-09
1.50317e-09
-2.64002e-09
2.79441e-09
4.38459e-09
-2.27112e-09
-8.52519e-10
1.21576e-09
6.78356e-10
5.58707e-10
9.05472e-10
1.2364e-09
1.43745e-09
1.46558e-09
1.54717e-09
1.52329e-09
1.60163e-09
1.55468e-09
1.62012e-09
1.59862e-09
1.61975e-09
1.56909e-09
1.61081e-09
1.53942e-09
1.57692e-09
1.51278e-09
1.55792e-09
1.49505e-09
1.54599e-09
1.54563e-09
1.56586e-09
1.54849e-09
1.62264e-09
1.534e-09
1.62153e-09
1.53697e-09
1.53198e-09
1.48394e-09
1.43327e-09
1.35801e-09
1.3607e-09
1.26519e-09
1.29555e-09
1.18791e-09
1.25829e-09
1.18728e-09
1.24064e-09
1.21236e-09
1.26495e-09
1.21875e-09
1.26138e-09
1.22379e-09
1.30828e-09
1.21226e-09
1.33316e-09
1.22155e-09
1.35604e-09
1.1793e-09
1.3692e-09
9.8711e-10
1.57376e-09
1.53957e-09
-2.90504e-09
3.28802e-09
4.72648e-09
-2.99169e-09
-1.19213e-09
1.5168e-09
8.90058e-10
5.85072e-10
8.86282e-10
1.23347e-09
1.44055e-09
1.46566e-09
1.54195e-09
1.51676e-09
1.5953e-09
1.54986e-09
1.61427e-09
1.59408e-09
1.61589e-09
1.56606e-09
1.60677e-09
1.53702e-09
1.5749e-09
1.51201e-09
1.55551e-09
1.49534e-09
1.54408e-09
1.54527e-09
1.5641e-09
1.54696e-09
1.6204e-09
1.53113e-09
1.61846e-09
1.53615e-09
1.52896e-09
1.48408e-09
1.43125e-09
1.35887e-09
1.36112e-09
1.26605e-09
1.29775e-09
1.18972e-09
1.25966e-09
1.18796e-09
1.24261e-09
1.21333e-09
1.26674e-09
1.21795e-09
1.26364e-09
1.21993e-09
1.31223e-09
1.20545e-09
1.34062e-09
1.2107e-09
1.37007e-09
1.16307e-09
1.39086e-09
9.61338e-10
1.60038e-09
1.58318e-09
-3.14286e-09
3.72565e-09
5.06213e-09
-3.62096e-09
-1.55274e-09
1.78352e-09
1.11353e-09
6.20496e-10
8.65362e-10
1.22775e-09
1.44275e-09
1.46579e-09
1.53638e-09
1.50978e-09
1.58835e-09
1.54477e-09
1.6079e-09
1.58902e-09
1.61166e-09
1.56282e-09
1.60226e-09
1.53448e-09
1.57268e-09
1.51112e-09
1.55281e-09
1.49574e-09
1.54205e-09
1.54461e-09
1.56218e-09
1.54539e-09
1.61764e-09
1.52819e-09
1.6149e-09
1.53508e-09
1.52579e-09
1.48387e-09
1.42914e-09
1.35993e-09
1.36142e-09
1.26703e-09
1.30005e-09
1.19196e-09
1.26105e-09
1.18878e-09
1.24484e-09
1.21445e-09
1.26843e-09
1.21721e-09
1.26597e-09
1.21618e-09
1.3156e-09
1.19923e-09
1.34701e-09
1.20122e-09
1.38172e-09
1.15074e-09
1.40661e-09
9.4705e-10
1.61159e-09
1.63148e-09
-3.33342e-09
4.08031e-09
5.3637e-09
-4.12974e-09
-1.91163e-09
2.00197e-09
1.33873e-09
6.65656e-10
8.44178e-10
1.21894e-09
1.4436e-09
1.46584e-09
1.53055e-09
1.50242e-09
1.5808e-09
1.5395e-09
1.60102e-09
1.58349e-09
1.6071e-09
1.5594e-09
1.59733e-09
1.5318e-09
1.57031e-09
1.51008e-09
1.54982e-09
1.49628e-09
1.53988e-09
1.54368e-09
1.56013e-09
1.54377e-09
1.61442e-09
1.52521e-09
1.61085e-09
1.53379e-09
1.5225e-09
1.48334e-09
1.42695e-09
1.3612e-09
1.36157e-09
1.26811e-09
1.30239e-09
1.19465e-09
1.26238e-09
1.1898e-09
1.24723e-09
1.21579e-09
1.26992e-09
1.21664e-09
1.26821e-09
1.21278e-09
1.3181e-09
1.19403e-09
1.35187e-09
1.19396e-09
1.39002e-09
1.14327e-09
1.41542e-09
9.44973e-10
1.60783e-09
1.68145e-09
-3.46073e-09
4.33427e-09
5.6074e-09
-4.49609e-09
-2.24477e-09
2.1632e-09
1.55532e-09
7.20454e-10
8.24381e-10
1.20696e-09
1.44263e-09
1.46561e-09
1.52453e-09
1.49478e-09
1.57267e-09
1.5341e-09
1.59366e-09
1.57755e-09
1.60226e-09
1.55578e-09
1.59202e-09
1.529e-09
1.56781e-09
1.50889e-09
1.5465e-09
1.49699e-09
1.53754e-09
1.54247e-09
1.55796e-09
1.5421e-09
1.61081e-09
1.52222e-09
1.60647e-09
1.53232e-09
1.51911e-09
1.4825e-09
1.42468e-09
1.36267e-09
1.36159e-09
1.26926e-09
1.30476e-09
1.19779e-09
1.2636e-09
1.19104e-09
1.24973e-09
1.2174e-09
1.27111e-09
1.21634e-09
1.27051e-09
1.20995e-09
1.31947e-09
1.19027e-09
1.35476e-09
1.18939e-09
1.39447e-09
1.14115e-09
1.41699e-09
9.54756e-10
1.59072e-09
1.72958e-09
-3.51066e-09
4.4775e-09
5.76139e-09
-4.70764e-09
-2.53179e-09
2.26233e-09
1.75424e-09
7.84234e-10
8.07743e-10
1.19196e-09
1.43941e-09
1.46492e-09
1.51838e-09
1.48695e-09
1.56401e-09
1.52863e-09
1.58584e-09
1.57123e-09
1.59722e-09
1.55199e-09
1.5864e-09
1.52608e-09
1.56521e-09
1.50755e-09
1.54285e-09
1.4979e-09
1.53501e-09
1.54098e-09
1.55573e-09
1.54037e-09
1.60686e-09
1.51926e-09
1.60175e-09
1.53071e-09
1.51566e-09
1.48138e-09
1.42237e-09
1.36432e-09
1.36147e-09
1.27045e-09
1.3071e-09
1.20136e-09
1.26461e-09
1.19255e-09
1.25224e-09
1.21932e-09
1.27193e-09
1.21639e-09
1.2722e-09
1.20793e-09
1.31949e-09
1.18823e-09
1.35535e-09
1.18779e-09
1.39494e-09
1.14433e-09
1.41163e-09
9.75198e-10
1.56054e-09
1.77106e-09
-3.47682e-09
4.50802e-09
5.81561e-09
-4.76348e-09
-2.74932e-09
2.29774e-09
1.92596e-09
8.55739e-10
7.95847e-10
1.17433e-09
1.4336e-09
1.46356e-09
1.51211e-09
1.47904e-09
1.55487e-09
1.52313e-09
1.57761e-09
1.56456e-09
1.59202e-09
1.54801e-09
1.58051e-09
1.52305e-09
1.56252e-09
1.50607e-09
1.53885e-09
1.499e-09
1.53231e-09
1.53919e-09
1.55347e-09
1.53857e-09
1.60261e-09
1.51636e-09
1.59671e-09
1.529e-09
1.51217e-09
1.47998e-09
1.42005e-09
1.36615e-09
1.36121e-09
1.27168e-09
1.30936e-09
1.20539e-09
1.26535e-09
1.19435e-09
1.25472e-09
1.22157e-09
1.27231e-09
1.21686e-09
1.27345e-09
1.20688e-09
1.31801e-09
1.18811e-09
1.35353e-09
1.18922e-09
1.39151e-09
1.15253e-09
1.39969e-09
1.0049e-09
1.52621e-09
1.80123e-09
-3.35967e-09
4.43266e-09
5.76395e-09
-4.67398e-09
-2.88937e-09
2.27209e-09
2.06407e-09
9.32961e-10
7.89892e-10
1.1546e-09
1.42497e-09
1.46134e-09
1.50576e-09
1.47114e-09
1.5453e-09
1.51765e-09
1.56903e-09
1.55758e-09
1.58672e-09
1.54386e-09
1.57438e-09
1.51994e-09
1.55976e-09
1.50447e-09
1.5345e-09
1.5003e-09
1.52944e-09
1.53709e-09
1.55122e-09
1.53671e-09
1.5981e-09
1.51356e-09
1.59141e-09
1.52722e-09
1.50868e-09
1.47831e-09
1.41773e-09
1.36813e-09
1.36078e-09
1.27295e-09
1.3115e-09
1.20987e-09
1.26578e-09
1.19646e-09
1.25711e-09
1.22417e-09
1.27221e-09
1.21782e-09
1.27419e-09
1.20688e-09
1.31501e-09
1.18992e-09
1.34938e-09
1.19353e-09
1.38435e-09
1.16515e-09
1.38335e-09
1.04167e-09
1.4882e-09
1.81794e-09
-3.16424e-09
4.2653e-09
5.60631e-09
-4.45851e-09
-2.94641e-09
2.19481e-09
2.166e-09
1.01311e-09
7.90649e-10
1.13351e-09
1.41339e-09
1.45805e-09
1.49929e-09
1.46335e-09
1.53536e-09
1.51219e-09
1.56014e-09
1.55032e-09
1.58138e-09
1.53956e-09
1.56806e-09
1.51676e-09
1.55692e-09
1.50276e-09
1.52982e-09
1.50177e-09
1.52643e-09
1.53468e-09
1.54899e-09
1.53481e-09
1.59336e-09
1.51088e-09
1.5859e-09
1.52539e-09
1.50522e-09
1.4764e-09
1.41545e-09
1.37027e-09
1.36019e-09
1.27426e-09
1.31349e-09
1.21477e-09
1.26585e-09
1.19887e-09
1.25938e-09
1.22712e-09
1.27161e-09
1.21929e-09
1.27438e-09
1.20795e-09
1.31055e-09
1.19356e-09
1.34311e-09
1.20047e-09
1.37443e-09
1.18118e-09
1.36386e-09
1.0829e-09
1.44965e-09
1.82022e-09
-2.89961e-09
4.023e-09
5.34593e-09
-4.1395e-09
-2.91752e-09
2.07852e-09
2.23038e-09
1.09292e-09
7.9831e-10
1.1118e-09
1.39889e-09
1.45352e-09
1.49267e-09
1.45571e-09
1.52513e-09
1.50676e-09
1.55098e-09
1.54281e-09
1.57604e-09
1.53512e-09
1.56156e-09
1.51356e-09
1.55401e-09
1.50094e-09
1.52483e-09
1.5034e-09
1.52329e-09
1.53196e-09
1.54682e-09
1.53288e-09
1.5884e-09
1.50835e-09
1.58022e-09
1.52352e-09
1.50182e-09
1.47425e-09
1.41321e-09
1.37256e-09
1.35941e-09
1.27563e-09
1.31529e-09
1.22006e-09
1.26555e-09
1.20157e-09
1.26153e-09
1.23039e-09
1.27053e-09
1.22129e-09
1.27406e-09
1.21003e-09
1.30475e-09
1.19884e-09
1.33438e-09
1.20961e-09
1.3624e-09
1.1995e-09
1.34275e-09
1.12632e-09
1.4127e-09
1.80809e-09
-2.57576e-09
3.72294e-09
4.9922e-09
-3.74076e-09
-2.80558e-09
1.93411e-09
2.25791e-09
1.16954e-09
8.12677e-10
1.09022e-09
1.38163e-09
1.44762e-09
1.48585e-09
1.44827e-09
1.51468e-09
1.50137e-09
1.54161e-09
1.53509e-09
1.57072e-09
1.53056e-09
1.55491e-09
1.51034e-09
1.55104e-09
1.49901e-09
1.51956e-09
1.50514e-09
1.52005e-09
1.52895e-09
1.5447e-09
1.53093e-09
1.58325e-09
1.50596e-09
1.57443e-09
1.52161e-09
1.49852e-09
1.47188e-09
1.41102e-09
1.37498e-09
1.35842e-09
1.27704e-09
1.31691e-09
1.22572e-09
1.26487e-09
1.20454e-09
1.26356e-09
1.23395e-09
1.26899e-09
1.22378e-09
1.27328e-09
1.21301e-09
1.29782e-09
1.20554e-09
1.32495e-09
1.22033e-09
1.34908e-09
1.21901e-09
1.32148e-09
1.17003e-09
1.3788e-09
1.78251e-09
-2.20467e-09
3.3826e-09
4.5573e-09
-3.28512e-09
-2.61767e-09
1.77296e-09
2.25167e-09
1.2407e-09
8.33184e-10
1.06943e-09
1.36185e-09
1.44026e-09
1.47877e-09
1.44103e-09
1.50409e-09
1.49603e-09
1.53205e-09
1.52717e-09
1.56546e-09
1.52591e-09
1.54812e-09
1.50712e-09
1.54802e-09
1.49697e-09
1.51406e-09
1.50697e-09
1.51672e-09
1.52564e-09
1.54263e-09
1.529e-09
1.57794e-09
1.50371e-09
1.56858e-09
1.51966e-09
1.49533e-09
1.46932e-09
1.4089e-09
1.37754e-09
1.35722e-09
1.27851e-09
1.31833e-09
1.2317e-09
1.26382e-09
1.20774e-09
1.26549e-09
1.23774e-09
1.26704e-09
1.22672e-09
1.27214e-09
1.21675e-09
1.29001e-09
1.21336e-09
1.31462e-09
1.23202e-09
1.33528e-09
1.23868e-09
1.30138e-09
1.21249e-09
1.34859e-09
1.74468e-09
-1.79825e-09
3.01951e-09
4.05589e-09
-2.80284e-09
-2.36413e-09
1.60663e-09
2.21703e-09
1.30482e-09
8.58972e-10
1.04993e-09
1.33986e-09
1.43141e-09
1.47137e-09
1.43401e-09
1.49341e-09
1.49072e-09
1.52235e-09
1.51907e-09
1.56025e-09
1.52118e-09
1.54122e-09
1.50391e-09
1.54497e-09
1.49481e-09
1.50837e-09
1.50887e-09
1.51331e-09
1.52207e-09
1.54062e-09
1.5271e-09
1.57248e-09
1.50161e-09
1.56271e-09
1.51767e-09
1.49227e-09
1.46658e-09
1.40686e-09
1.38022e-09
1.35579e-09
1.28003e-09
1.31958e-09
1.23793e-09
1.26243e-09
1.21114e-09
1.26734e-09
1.2417e-09
1.26474e-09
1.23003e-09
1.27077e-09
1.22107e-09
1.28164e-09
1.22198e-09
1.30389e-09
1.24411e-09
1.32176e-09
1.25768e-09
1.28348e-09
1.25269e-09
1.32233e-09
1.69564e-09
-1.36893e-09
2.65223e-09
3.50454e-09
-2.31849e-09
-2.05712e-09
1.44535e-09
2.16007e-09
1.36093e-09
8.89139e-10
1.03215e-09
1.31598e-09
1.42101e-09
1.46358e-09
1.42717e-09
1.48269e-09
1.48542e-09
1.5125e-09
1.51082e-09
1.55511e-09
1.51639e-09
1.53421e-09
1.50072e-09
1.54187e-09
1.49251e-09
1.50253e-09
1.51081e-09
1.50983e-09
1.51826e-09
1.53866e-09
1.52523e-09
1.5669e-09
1.49963e-09
1.55687e-09
1.51563e-09
1.48933e-09
1.46369e-09
1.4049e-09
1.38303e-09
1.35413e-09
1.28158e-09
1.32067e-09
1.24437e-09
1.26072e-09
1.21468e-09
1.26917e-09
1.24574e-09
1.26217e-09
1.23363e-09
1.26929e-09
1.22577e-09
1.27296e-09
1.23104e-09
1.2932e-09
1.25608e-09
1.30914e-09
1.27533e-09
1.26856e-09
1.28994e-09
1.29988e-09
1.6365e-09
-9.28671e-10
2.29773e-09
2.68122e-09
1.78098e-09
2.92286e-10
-3.83684e-10
-1.41973e-11
5.09461e-10
9.62553e-10
1.22398e-09
1.42206e-09
1.47604e-09
1.57299e-09
1.55874e-09
1.62693e-09
1.58126e-09
1.64723e-09
1.61167e-09
1.63637e-09
1.58471e-09
1.62373e-09
1.55248e-09
1.5846e-09
1.51914e-09
1.5661e-09
1.49735e-09
1.56039e-09
1.53791e-09
1.57772e-09
1.55713e-09
1.62066e-09
1.55419e-09
1.62407e-09
1.53416e-09
1.54872e-09
1.47004e-09
1.44536e-09
1.35479e-09
1.35528e-09
1.26513e-09
1.28141e-09
1.19047e-09
1.25033e-09
1.18477e-09
1.23727e-09
1.20499e-09
1.25501e-09
1.21772e-09
1.25339e-09
1.23848e-09
1.27871e-09
1.24719e-09
1.28609e-09
1.2766e-09
1.26624e-09
1.28777e-09
1.20476e-09
1.28294e-09
1.16581e-09
1.13758e-09
-1.08707e-09
6.80285e-10
2.75454e-09
1.81934e-09
2.72732e-10
-3.98013e-10
-2.0337e-11
5.09796e-10
9.62055e-10
1.22415e-09
1.42146e-09
1.47533e-09
1.57228e-09
1.55813e-09
1.62642e-09
1.58082e-09
1.64657e-09
1.6119e-09
1.63577e-09
1.58457e-09
1.62362e-09
1.55249e-09
1.58426e-09
1.51911e-09
1.56591e-09
1.49736e-09
1.55967e-09
1.53848e-09
1.57705e-09
1.55714e-09
1.62083e-09
1.55395e-09
1.62424e-09
1.53472e-09
1.54814e-09
1.471e-09
1.44501e-09
1.35516e-09
1.35525e-09
1.26534e-09
1.28147e-09
1.19035e-09
1.25022e-09
1.18517e-09
1.23676e-09
1.20548e-09
1.25463e-09
1.21822e-09
1.25298e-09
1.23889e-09
1.27886e-09
1.24735e-09
1.28629e-09
1.27715e-09
1.2664e-09
1.28799e-09
1.20539e-09
1.28225e-09
1.17436e-09
1.16257e-09
-1.13454e-09
6.26993e-10
2.84608e-09
1.83906e-09
2.4908e-10
-4.07688e-10
-2.56613e-11
5.10441e-10
9.61719e-10
1.22451e-09
1.42124e-09
1.47423e-09
1.57165e-09
1.55695e-09
1.62611e-09
1.57958e-09
1.64597e-09
1.61197e-09
1.63529e-09
1.58404e-09
1.6238e-09
1.55207e-09
1.58415e-09
1.51867e-09
1.56602e-09
1.49692e-09
1.55897e-09
1.53905e-09
1.57642e-09
1.55683e-09
1.62162e-09
1.55311e-09
1.62503e-09
1.53513e-09
1.54766e-09
1.47209e-09
1.44473e-09
1.35524e-09
1.35554e-09
1.26512e-09
1.28199e-09
1.18958e-09
1.25054e-09
1.18524e-09
1.23642e-09
1.20581e-09
1.25464e-09
1.21861e-09
1.25279e-09
1.23907e-09
1.2796e-09
1.24704e-09
1.28703e-09
1.27736e-09
1.2671e-09
1.28811e-09
1.20658e-09
1.27836e-09
1.18176e-09
1.21093e-09
-1.20643e-09
5.76214e-10
2.94367e-09
1.81421e-09
2.25285e-10
-4.02705e-10
-2.9525e-11
5.11357e-10
9.61534e-10
1.22547e-09
1.42143e-09
1.47307e-09
1.57089e-09
1.55537e-09
1.62569e-09
1.57825e-09
1.64513e-09
1.61202e-09
1.63471e-09
1.58332e-09
1.62394e-09
1.55144e-09
1.58401e-09
1.51807e-09
1.56611e-09
1.49637e-09
1.5581e-09
1.53985e-09
1.57568e-09
1.55646e-09
1.62269e-09
1.55193e-09
1.62606e-09
1.53558e-09
1.54701e-09
1.47343e-09
1.44422e-09
1.35525e-09
1.35592e-09
1.26472e-09
1.28274e-09
1.18851e-09
1.25104e-09
1.1852e-09
1.23613e-09
1.20619e-09
1.2549e-09
1.21899e-09
1.25271e-09
1.23905e-09
1.2809e-09
1.24621e-09
1.28846e-09
1.27689e-09
1.26906e-09
1.2866e-09
1.20971e-09
1.26878e-09
1.1958e-09
1.26935e-09
-1.29703e-09
5.53506e-10
3.03648e-09
1.7066e-09
2.02305e-10
-3.65454e-10
-2.62979e-11
5.12501e-10
9.61247e-10
1.22707e-09
1.42205e-09
1.47188e-09
1.56975e-09
1.5533e-09
1.62489e-09
1.57656e-09
1.64385e-09
1.61191e-09
1.63389e-09
1.58239e-09
1.62382e-09
1.55062e-09
1.58377e-09
1.51741e-09
1.56604e-09
1.49585e-09
1.55702e-09
1.54083e-09
1.57479e-09
1.55603e-09
1.62382e-09
1.5505e-09
1.62706e-09
1.53612e-09
1.54611e-09
1.47498e-09
1.44347e-09
1.35528e-09
1.35633e-09
1.26428e-09
1.28368e-09
1.18737e-09
1.25162e-09
1.18517e-09
1.23589e-09
1.20667e-09
1.25536e-09
1.21937e-09
1.25275e-09
1.23877e-09
1.28268e-09
1.24476e-09
1.29063e-09
1.27538e-09
1.27259e-09
1.28328e-09
1.21597e-09
1.25214e-09
1.2198e-09
1.32537e-09
-1.40467e-09
5.95635e-10
3.1279e-09
1.48096e-09
1.72411e-10
-2.81661e-10
-8.81804e-12
5.13938e-10
9.60487e-10
1.22927e-09
1.42318e-09
1.4707e-09
1.56813e-09
1.55065e-09
1.62354e-09
1.57445e-09
1.64201e-09
1.61147e-09
1.63278e-09
1.58119e-09
1.62334e-09
1.54959e-09
1.58339e-09
1.51672e-09
1.56577e-09
1.49539e-09
1.55576e-09
1.5419e-09
1.57379e-09
1.55547e-09
1.62486e-09
1.54879e-09
1.62783e-09
1.53666e-09
1.54494e-09
1.47663e-09
1.44248e-09
1.35536e-09
1.3568e-09
1.26386e-09
1.28481e-09
1.18633e-09
1.25228e-09
1.18519e-09
1.23574e-09
1.20726e-09
1.25603e-09
1.21968e-09
1.25293e-09
1.23809e-09
1.28495e-09
1.24255e-09
1.29367e-09
1.2725e-09
1.27815e-09
1.27666e-09
1.22656e-09
1.22743e-09
1.25565e-09
1.37166e-09
-1.53484e-09
7.33669e-10
3.23375e-09
1.11807e-09
1.2093e-10
-1.43047e-10
3.0142e-11
5.15857e-10
9.58678e-10
1.232e-09
1.42492e-09
1.46963e-09
1.56601e-09
1.5474e-09
1.62154e-09
1.57193e-09
1.63957e-09
1.61055e-09
1.63133e-09
1.57968e-09
1.62242e-09
1.54832e-09
1.58283e-09
1.51602e-09
1.56525e-09
1.49503e-09
1.55436e-09
1.54294e-09
1.57268e-09
1.55474e-09
1.62567e-09
1.54682e-09
1.62822e-09
1.53715e-09
1.54348e-09
1.47828e-09
1.44129e-09
1.35551e-09
1.35735e-09
1.26355e-09
1.28613e-09
1.18553e-09
1.253e-09
1.18529e-09
1.23577e-09
1.20794e-09
1.2569e-09
1.21988e-09
1.25334e-09
1.23692e-09
1.28771e-09
1.23947e-09
1.29773e-09
1.26789e-09
1.2861e-09
1.26655e-09
1.24221e-09
1.19456e-09
1.30329e-09
1.40669e-09
-1.69627e-09
9.80603e-10
3.3705e-09
6.16495e-10
3.27857e-11
5.21967e-11
9.65886e-11
5.18666e-10
9.5505e-10
1.23503e-09
1.4273e-09
1.46872e-09
1.56336e-09
1.54356e-09
1.61883e-09
1.56899e-09
1.63652e-09
1.60906e-09
1.6295e-09
1.57787e-09
1.62101e-09
1.54681e-09
1.58206e-09
1.51533e-09
1.56443e-09
1.49479e-09
1.55283e-09
1.54388e-09
1.57148e-09
1.55383e-09
1.62612e-09
1.54461e-09
1.62811e-09
1.53752e-09
1.54172e-09
1.47983e-09
1.43991e-09
1.35573e-09
1.35796e-09
1.26339e-09
1.28765e-09
1.18508e-09
1.25382e-09
1.18548e-09
1.23605e-09
1.20867e-09
1.25799e-09
1.2199e-09
1.25405e-09
1.23515e-09
1.29095e-09
1.23542e-09
1.30289e-09
1.26135e-09
1.29658e-09
1.25287e-09
1.26292e-09
1.15478e-09
1.35987e-09
1.43299e-09
-1.89264e-09
1.33216e-09
3.55179e-09
-9.41762e-12
-1.05527e-10
2.99184e-10
1.9463e-10
5.23276e-10
9.48852e-10
1.238e-09
1.43028e-09
1.46802e-09
1.56019e-09
1.53914e-09
1.61537e-09
1.56565e-09
1.63287e-09
1.60696e-09
1.62729e-09
1.57576e-09
1.61907e-09
1.54507e-09
1.58105e-09
1.51465e-09
1.56329e-09
1.49468e-09
1.5512e-09
1.54464e-09
1.57018e-09
1.55272e-09
1.62613e-09
1.5422e-09
1.62742e-09
1.53772e-09
1.53964e-09
1.4812e-09
1.43836e-09
1.35605e-09
1.35862e-09
1.26342e-09
1.28934e-09
1.18504e-09
1.25475e-09
1.18578e-09
1.23663e-09
1.20944e-09
1.2593e-09
1.21971e-09
1.25513e-09
1.23277e-09
1.29464e-09
1.23041e-09
1.30915e-09
1.25289e-09
1.30942e-09
1.23605e-09
1.28786e-09
1.11055e-09
1.42116e-09
1.45484e-09
-2.12193e-09
1.77025e-09
3.7842e-09
-7.28636e-10
-3.0076e-10
5.86576e-10
3.25571e-10
5.30983e-10
9.39482e-10
1.24042e-09
1.43374e-09
1.46758e-09
1.55647e-09
1.53418e-09
1.61117e-09
1.56191e-09
1.62866e-09
1.60422e-09
1.62466e-09
1.57338e-09
1.61659e-09
1.54312e-09
1.57977e-09
1.51398e-09
1.56183e-09
1.49468e-09
1.5495e-09
1.5452e-09
1.56879e-09
1.55144e-09
1.62561e-09
1.53963e-09
1.6261e-09
1.5377e-09
1.53727e-09
1.48233e-09
1.43668e-09
1.35646e-09
1.35929e-09
1.26368e-09
1.29118e-09
1.18547e-09
1.2558e-09
1.18617e-09
1.23758e-09
1.21023e-09
1.26083e-09
1.21929e-09
1.25659e-09
1.22981e-09
1.29869e-09
1.22453e-09
1.31634e-09
1.2428e-09
1.32408e-09
1.21708e-09
1.3154e-09
1.06532e-09
1.48145e-09
1.47727e-09
-2.37639e-09
2.27889e-09
4.0677e-09
-1.49663e-09
-5.52415e-10
8.98356e-10
4.88523e-10
5.43343e-10
9.2663e-10
1.24171e-09
1.43745e-09
1.46738e-09
1.55223e-09
1.52868e-09
1.60623e-09
1.55778e-09
1.6239e-09
1.60084e-09
1.62161e-09
1.57075e-09
1.61356e-09
1.54099e-09
1.57823e-09
1.5133e-09
1.56003e-09
1.49479e-09
1.54773e-09
1.54543e-09
1.56729e-09
1.55003e-09
1.62453e-09
1.53694e-09
1.62417e-09
1.53743e-09
1.53465e-09
1.48316e-09
1.43488e-09
1.357e-09
1.35992e-09
1.26415e-09
1.29315e-09
1.18637e-09
1.25698e-09
1.18665e-09
1.2389e-09
1.21106e-09
1.26253e-09
1.21868e-09
1.25841e-09
1.22638e-09
1.30294e-09
1.21797e-09
1.32413e-09
1.23159e-09
1.33963e-09
1.19739e-09
1.34331e-09
1.02308e-09
1.53465e-09
1.50559e-09
-2.64545e-09
2.79302e-09
4.39001e-09
-2.26924e-09
-8.53474e-10
1.21526e-09
6.79387e-10
5.61915e-10
9.10336e-10
1.24122e-09
1.44109e-09
1.4674e-09
1.5475e-09
1.52267e-09
1.6006e-09
1.5533e-09
1.6186e-09
1.59687e-09
1.61814e-09
1.5679e-09
1.61001e-09
1.53871e-09
1.57642e-09
1.51259e-09
1.55793e-09
1.49499e-09
1.5459e-09
1.54536e-09
1.56565e-09
1.54854e-09
1.62285e-09
1.53416e-09
1.62165e-09
1.5369e-09
1.53182e-09
1.48365e-09
1.43297e-09
1.35769e-09
1.36047e-09
1.26483e-09
1.29524e-09
1.18772e-09
1.25828e-09
1.18724e-09
1.24058e-09
1.21195e-09
1.26433e-09
1.21793e-09
1.26051e-09
1.22265e-09
1.30718e-09
1.21106e-09
1.33207e-09
1.22014e-09
1.35497e-09
1.1786e-09
1.36919e-09
9.8761e-10
1.57573e-09
1.54206e-09
-2.90991e-09
3.28712e-09
4.73143e-09
-2.99021e-09
-1.19289e-09
1.51623e-09
8.90865e-10
5.88202e-10
8.91165e-10
1.23835e-09
1.44426e-09
1.46756e-09
1.54233e-09
1.51617e-09
1.5943e-09
1.5485e-09
1.61278e-09
1.59233e-09
1.61427e-09
1.56484e-09
1.60596e-09
1.53629e-09
1.57437e-09
1.51179e-09
1.55552e-09
1.49529e-09
1.54399e-09
1.54499e-09
1.56387e-09
1.547e-09
1.62061e-09
1.5313e-09
1.6186e-09
1.53609e-09
1.5288e-09
1.48379e-09
1.43096e-09
1.35856e-09
1.3609e-09
1.26569e-09
1.29744e-09
1.18953e-09
1.25965e-09
1.18793e-09
1.24259e-09
1.21294e-09
1.26614e-09
1.21715e-09
1.26279e-09
1.2188e-09
1.31115e-09
1.20425e-09
1.33953e-09
1.20929e-09
1.36898e-09
1.16233e-09
1.39088e-09
9.61788e-10
1.60222e-09
1.58569e-09
-3.14733e-09
3.72529e-09
5.06692e-09
-3.62002e-09
-1.55342e-09
1.78291e-09
1.11411e-09
6.23514e-10
8.70239e-10
1.23268e-09
1.44653e-09
1.46776e-09
1.53681e-09
1.50922e-09
1.58737e-09
1.54344e-09
1.60643e-09
1.58729e-09
1.61004e-09
1.56159e-09
1.60144e-09
1.53374e-09
1.57213e-09
1.51088e-09
1.55282e-09
1.4957e-09
1.54197e-09
1.54433e-09
1.56194e-09
1.5454e-09
1.61786e-09
1.52837e-09
1.61507e-09
1.53504e-09
1.52564e-09
1.48359e-09
1.42886e-09
1.35963e-09
1.3612e-09
1.26668e-09
1.29973e-09
1.19177e-09
1.26105e-09
1.18878e-09
1.24485e-09
1.2141e-09
1.26785e-09
1.21643e-09
1.26514e-09
1.21507e-09
1.31453e-09
1.19802e-09
1.34594e-09
1.19972e-09
1.3806e-09
1.14997e-09
1.40665e-09
9.47462e-10
1.61331e-09
1.63396e-09
-3.33768e-09
4.08055e-09
5.36849e-09
-4.1293e-09
-1.91224e-09
2.0014e-09
1.3391e-09
6.68527e-10
8.49019e-10
1.2239e-09
1.44743e-09
1.46785e-09
1.53103e-09
1.5019e-09
1.57984e-09
1.5382e-09
1.59958e-09
1.58179e-09
1.60548e-09
1.55815e-09
1.59649e-09
1.53106e-09
1.56974e-09
1.50983e-09
1.54982e-09
1.49624e-09
1.5398e-09
1.54339e-09
1.55986e-09
1.54376e-09
1.61463e-09
1.5254e-09
1.611e-09
1.53376e-09
1.52236e-09
1.48306e-09
1.42667e-09
1.3609e-09
1.36136e-09
1.26776e-09
1.30207e-09
1.19445e-09
1.2624e-09
1.18981e-09
1.24727e-09
1.21547e-09
1.26936e-09
1.21588e-09
1.26741e-09
1.21168e-09
1.31705e-09
1.19284e-09
1.3508e-09
1.19246e-09
1.3889e-09
1.14247e-09
1.41547e-09
9.4536e-10
1.60945e-09
1.68387e-09
-3.4649e-09
4.33505e-09
5.61217e-09
-4.49606e-09
-2.24527e-09
2.16275e-09
1.55553e-09
7.23142e-10
8.29154e-10
1.21192e-09
1.44648e-09
1.46767e-09
1.52505e-09
1.49428e-09
1.57174e-09
1.53283e-09
1.59224e-09
1.57587e-09
1.60066e-09
1.55454e-09
1.59119e-09
1.52826e-09
1.56723e-09
1.50862e-09
1.54651e-09
1.49696e-09
1.53746e-09
1.54217e-09
1.55768e-09
1.54207e-09
1.61102e-09
1.52242e-09
1.60664e-09
1.53231e-09
1.51899e-09
1.48223e-09
1.42441e-09
1.36237e-09
1.36138e-09