/*--------------------------------*- C++ -*----------------------------------*\
| =========                 |                                                 |
| \\      /  F ield         | OpenFOAM: The Open Source CFD Toolbox           |
|  \\    /   O peration     | Version:  2312                                  |
|   \\  /    A nd           | Website:  www.openfoam.com                      |
|    \\/     M anipulation  |                                                 |
\*---------------------------------------------------------------------------*/
FoamFile
{
    version     2.0;
    format      ascii;
    arch        "LSB;label=32;scalar=64";
    class       volScalarField;
    location    "640";
    object      pMean;
}
// * * * * * * * * * * * * * * * * * * * * * * * * * * * * * * * * * * * * * //

dimensions      [0 2 -2 0 0 0 0];

internalField   nonuniform List<scalar> 
144000
(
8.25395e-10
3.99082e-10
-4.46521e-10
-8.2107e-10
-6.87206e-10
-4.65182e-10
-2.58875e-10
-1.47517e-10
-5.17783e-11
-2.60472e-11
1.69504e-11
1.28458e-11
4.11758e-11
2.70955e-11
5.21235e-11
3.53577e-11
5.62388e-11
3.27192e-11
5.55267e-11
3.45947e-11
5.78098e-11
3.26082e-11
5.66406e-11
3.20065e-11
5.75846e-11
3.22539e-11
5.79463e-11
2.9543e-11
5.65389e-11
2.86793e-11
5.77056e-11
2.96787e-11
5.77356e-11
2.49549e-11
5.42868e-11
2.30966e-11
5.36849e-11
2.18889e-11
5.19126e-11
1.76845e-11
4.73348e-11
1.53482e-11
4.59708e-11
1.11942e-11
4.06584e-11
5.67601e-12
3.47245e-11
6.29757e-12
3.26662e-11
9.58133e-12
3.12958e-11
2.10137e-11
2.59309e-11
2.72879e-11
-3.35947e-12
3.46933e-11
-1.82973e-11
3.80221e-11
-1.1562e-09
-2.70902e-10
8.59307e-10
4.1961e-10
-4.55102e-10
-8.27992e-10
-6.89437e-10
-4.65334e-10
-2.59093e-10
-1.47766e-10
-5.22539e-11
-2.64535e-11
1.64679e-11
1.25418e-11
4.07998e-11
2.68849e-11
5.18326e-11
3.5248e-11
5.59986e-11
3.26136e-11
5.53067e-11
3.45642e-11
5.76243e-11
3.25821e-11
5.64632e-11
3.20278e-11
5.74284e-11
3.22981e-11
5.77942e-11
2.95876e-11
5.6386e-11
2.8752e-11
5.75666e-11
2.97785e-11
5.7593e-11
2.50382e-11
5.41339e-11
2.32212e-11
5.35446e-11
2.20281e-11
5.17704e-11
1.78116e-11
4.71124e-11
1.53913e-11
4.57215e-11
1.13881e-11
4.05113e-11
5.9105e-12
3.4569e-11
6.60643e-12
3.25398e-11
9.91267e-12
3.12105e-11
2.14148e-11
2.59372e-11
2.7628e-11
-3.29993e-12
3.45816e-11
-1.44573e-11
5.00379e-11
-1.17711e-09
-2.98355e-10
9.04979e-10
4.25593e-10
-4.68658e-10
-8.30635e-10
-6.90075e-10
-4.64942e-10
-2.58847e-10
-1.47901e-10
-5.25413e-11
-2.70442e-11
1.59496e-11
1.19781e-11
4.04199e-11
2.6422e-11
5.15474e-11
3.49281e-11
5.58484e-11
3.2301e-11
5.51401e-11
3.43349e-11
5.75518e-11
3.23642e-11
5.639e-11
3.18645e-11
5.74049e-11
3.21609e-11
5.77946e-11
2.94438e-11
5.63771e-11
2.86381e-11
5.75848e-11
2.96983e-11
5.7646e-11
2.4927e-11
5.4149e-11
2.31557e-11
5.35992e-11
2.1978e-11
5.18393e-11
1.77613e-11
4.70561e-11
1.51651e-11
4.5604e-11
1.13371e-11
4.0619e-11
5.98115e-12
3.46358e-11
6.75235e-12
3.26738e-11
1.0074e-11
3.13484e-11
2.16232e-11
2.62449e-11
2.77642e-11
-2.75317e-12
3.28218e-11
-1.0498e-11
7.0478e-11
-1.21325e-09
-3.17579e-10
9.53094e-10
4.00663e-10
-4.83363e-10
-8.23846e-10
-6.88681e-10
-4.6405e-10
-2.58015e-10
-1.4752e-10
-5.24895e-11
-2.75819e-11
1.53447e-11
1.12649e-11
3.99254e-11
2.58287e-11
5.11474e-11
3.45124e-11
5.56621e-11
3.18951e-11
5.48807e-11
3.40262e-11
5.74548e-11
3.20814e-11
5.62659e-11
3.16476e-11
5.73576e-11
3.1989e-11
5.77977e-11
2.92617e-11
5.63477e-11
2.84888e-11
5.75959e-11
2.95991e-11
5.77326e-11
2.47905e-11
5.4152e-11
2.30643e-11
5.36728e-11
2.19157e-11
5.19491e-11
1.77238e-11
4.69896e-11
1.48654e-11
4.54033e-11
1.11671e-11
4.08002e-11
6.05502e-12
3.47499e-11
6.86764e-12
3.29377e-11
1.01458e-11
3.1672e-11
2.16052e-11
2.70752e-11
2.72392e-11
-1.02147e-12
2.80175e-11
-1.78837e-12
8.99832e-11
-1.25987e-09
-3.1161e-10
9.95748e-10
3.29483e-10
-4.96699e-10
-7.99212e-10
-6.83482e-10
-4.63076e-10
-2.56888e-10
-1.46566e-10
-5.20474e-11
-2.80183e-11
1.46215e-11
1.04143e-11
3.92701e-11
2.51048e-11
5.05833e-11
3.4009e-11
5.53927e-11
3.14124e-11
5.44817e-11
3.36498e-11
5.72884e-11
3.17587e-11
5.60401e-11
3.13976e-11
5.72421e-11
3.18078e-11
5.77553e-11
2.90742e-11
5.62455e-11
2.83314e-11
5.75503e-11
2.9519e-11
5.78046e-11
2.46702e-11
5.4088e-11
2.29818e-11
5.37167e-11
2.18795e-11
5.20555e-11
1.77583e-11
4.68695e-11
1.45935e-11
4.50175e-11
1.08726e-11
4.09856e-11
6.19009e-12
3.48559e-11
6.95616e-12
3.32955e-11
1.00965e-11
3.22099e-11
2.12334e-11
2.858e-11
2.57205e-11
2.39545e-12
1.96665e-11
1.31055e-11
1.03817e-10
-1.31417e-09
-2.6674e-10
1.03356e-09
2.03046e-10
-5.10402e-10
-7.52404e-10
-6.72432e-10
-4.62515e-10
-2.55871e-10
-1.45158e-10
-5.12743e-11
-2.838e-11
1.37453e-11
9.4022e-12
3.84334e-11
2.42388e-11
4.98439e-11
3.34029e-11
5.50281e-11
3.08623e-11
5.39402e-11
3.32039e-11
5.70426e-11
3.14026e-11
5.57089e-11
3.11124e-11
5.70518e-11
3.16201e-11
5.76594e-11
2.88878e-11
5.60619e-11
2.81692e-11
5.74413e-11
2.94588e-11
5.78482e-11
2.4575e-11
5.3948e-11
2.29057e-11
5.37208e-11
2.1873e-11
5.21513e-11
1.7889e-11
4.66997e-11
1.43711e-11
4.43813e-11
1.04044e-11
4.11462e-11
6.38793e-12
3.49564e-11
6.98822e-12
3.37646e-11
9.8623e-12
3.30266e-11
2.03523e-11
3.0939e-11
2.29076e-11
7.94745e-12
7.49188e-12
3.45021e-11
1.10614e-10
-1.3777e-09
-1.75745e-10
1.07172e-09
1.92261e-11
-5.29348e-10
-6.81805e-10
-6.53455e-10
-4.62491e-10
-2.55362e-10
-1.43431e-10
-5.02199e-11
-2.87163e-11
1.26717e-11
8.1912e-12
3.73854e-11
2.32186e-11
4.89183e-11
3.26815e-11
5.45561e-11
3.02507e-11
5.32606e-11
3.26884e-11
5.67138e-11
3.1024e-11
5.52744e-11
3.07957e-11
5.67867e-11
3.14318e-11
5.75042e-11
2.87123e-11
5.57976e-11
2.80079e-11
5.72664e-11
2.9422e-11
5.78564e-11
2.45149e-11
5.37336e-11
2.28376e-11
5.3683e-11
2.18977e-11
5.22403e-11
1.8125e-11
4.65344e-11
1.42128e-11
4.34009e-11
9.70487e-12
4.12872e-11
6.64414e-12
3.5066e-11
6.91566e-12
3.43691e-11
9.37028e-12
3.42003e-11
1.88376e-11
3.42744e-11
1.86127e-11
1.57625e-11
-8.12438e-12
6.13337e-11
1.11381e-10
-1.45158e-09
-3.83582e-11
1.11546e-09
-2.15495e-10
-5.58313e-10
-5.88935e-10
-6.24918e-10
-4.62866e-10
-2.55689e-10
-1.4152e-10
-4.8927e-11
-2.90576e-11
1.13719e-11
6.74747e-12
3.609e-11
2.20269e-11
4.7787e-11
3.18286e-11
5.39507e-11
2.95769e-11
5.24428e-11
3.21015e-11
5.62893e-11
3.06281e-11
5.47379e-11
3.04523e-11
5.64436e-11
3.12483e-11
5.72851e-11
2.85567e-11
5.54541e-11
2.78545e-11
5.70247e-11
2.94144e-11
5.78199e-11
2.44982e-11
5.34481e-11
2.27773e-11
5.36051e-11
2.19492e-11
5.23362e-11
1.84662e-11
4.64697e-11
1.40902e-11
4.19425e-11
8.71239e-12
4.14183e-11
6.94245e-12
3.52112e-11
6.69617e-12
3.51373e-11
8.56387e-12
3.57813e-11
1.66221e-11
3.85899e-11
1.29318e-11
2.55605e-11
-2.60851e-11
9.10863e-11
1.08889e-10
-1.53476e-09
1.36537e-10
1.16944e-09
-4.882e-10
-6.01445e-10
-4.78206e-10
-5.85826e-10
-4.63184e-10
-2.57133e-10
-1.39593e-10
-4.7449e-11
-2.94197e-11
9.81541e-12
5.05849e-12
3.45304e-11
2.06504e-11
4.64379e-11
3.08291e-11
5.31855e-11
2.88358e-11
5.14829e-11
3.14399e-11
5.57525e-11
3.02139e-11
5.40963e-11
3.00837e-11
5.60168e-11
3.10703e-11
5.69946e-11
2.84263e-11
5.50317e-11
2.77146e-11
5.67168e-11
2.94383e-11
5.77319e-11
2.4529e-11
5.31004e-11
2.27238e-11
5.34917e-11
2.20152e-11
5.24633e-11
1.88982e-11
4.66592e-11
1.39575e-11
3.982e-11
7.37558e-12
4.15668e-11
7.26516e-12
3.54188e-11
6.30053e-12
3.60822e-11
7.4301e-12
3.77714e-11
1.37417e-11
4.37431e-11
6.17711e-12
3.66792e-11
-4.48676e-11
1.20805e-10
1.06431e-10
-1.62458e-09
3.34316e-10
1.2353e-09
-7.82929e-10
-6.61133e-10
-3.55876e-10
-5.36066e-10
-4.62823e-10
-2.59862e-10
-1.37837e-10
-4.58336e-11
-2.98033e-11
8.01381e-12
3.13001e-12
3.27028e-11
1.90904e-11
4.48692e-11
2.96821e-11
5.22435e-11
2.80216e-11
5.03829e-11
3.07015e-11
5.50904e-11
2.97781e-11
5.33496e-11
2.96884e-11
5.55003e-11
3.08992e-11
5.66243e-11
2.8318e-11
5.45318e-11
2.75883e-11
5.63423e-11
2.94937e-11
5.75846e-11
2.46074e-11
5.26973e-11
2.2674e-11
5.33477e-11
2.20844e-11
5.26435e-11
1.94031e-11
4.72972e-11
1.3723e-11
3.68045e-11
5.65721e-12
4.1765e-11
7.59287e-12
3.5711e-11
5.72073e-12
3.71967e-11
5.99088e-12
4.01149e-11
1.034e-11
4.94568e-11
-1.12625e-12
4.8238e-11
-6.28053e-11
1.4774e-10
1.06581e-10
-1.71618e-09
5.4013e-10
1.31172e-09
-1.08135e-09
-7.37799e-10
-2.29208e-10
-4.76397e-10
-4.61042e-10
-2.63911e-10
-1.36455e-10
-4.41672e-11
-3.02018e-11
5.98455e-12
9.7734e-13
3.06141e-11
1.73555e-11
4.30886e-11
2.83886e-11
5.11173e-11
2.71346e-11
4.91456e-11
2.9888e-11
5.42957e-11
2.93164e-11
5.24982e-11
2.92659e-11
5.48898e-11
3.07301e-11
5.6169e-11
2.82302e-11
5.3958e-11
2.74775e-11
5.58999e-11
2.9578e-11
5.73732e-11
2.47279e-11
5.22476e-11
2.26279e-11
5.3174e-11
2.21393e-11
5.29092e-11
1.9962e-11
4.86304e-11
1.31763e-11
3.26169e-11
3.54445e-12
4.20408e-11
7.91417e-12
3.60858e-11
4.97471e-12
3.8439e-11
4.30983e-12
4.26911e-11
6.63009e-12
5.53674e-11
-8.38644e-12
5.9309e-11
-7.84203e-11
1.69829e-10
1.10891e-10
-1.80348e-09
7.39288e-10
1.39489e-09
-1.36798e-09
-8.29432e-10
-1.05041e-10
-4.08332e-10
-4.57087e-10
-2.69175e-10
-1.35657e-10
-4.2542e-11
-3.06111e-11
3.75431e-12
-1.37787e-12
2.8276e-11
1.54579e-11
4.11033e-11
2.69568e-11
4.9804e-11
2.61756e-11
4.77777e-11
2.90044e-11
5.33633e-11
2.88249e-11
5.1545e-11
2.88157e-11
5.41823e-11
3.0561e-11
5.56254e-11
2.81591e-11
5.33131e-11
2.73809e-11
5.53895e-11
2.96867e-11
5.70969e-11
2.48856e-11
5.17546e-11
2.25848e-11
5.29715e-11
2.21625e-11
5.32879e-11
2.05375e-11
5.10845e-11
1.21193e-11
2.68544e-11
1.06706e-12
4.24106e-11
8.21219e-12
3.65202e-11
4.10541e-12
3.97608e-11
2.4827e-12
4.53403e-11
2.87264e-12
6.10877e-11
-1.49996e-11
6.90748e-11
-9.05784e-11
1.85833e-10
1.19887e-10
-1.88065e-09
9.19575e-10
1.47992e-09
-1.62961e-09
-9.32448e-10
1.04671e-11
-3.33922e-10
-4.50237e-10
-2.75379e-10
-1.35627e-10
-4.10823e-11
-3.10309e-11
1.35661e-12
-3.90835e-12
2.5707e-11
1.34099e-11
3.89279e-11
2.53942e-11
4.83071e-11
2.51476e-11
4.62898e-11
2.8057e-11
5.22932e-11
2.83012e-11
5.04951e-11
2.834e-11
5.33793e-11
3.03881e-11
5.49956e-11
2.81005e-11
5.26006e-11
2.72967e-11
5.4811e-11
2.98158e-11
5.67519e-11
2.50764e-11
5.12222e-11
2.25469e-11
5.27352e-11
2.21489e-11
5.3777e-11
2.11263e-11
5.51354e-11
1.03253e-11
1.91107e-11
-1.65382e-12
4.28939e-11
8.4894e-12
3.69846e-11
3.1656e-12
4.10588e-11
6.4277e-13
4.78868e-11
-6.62071e-13
6.62417e-11
-2.04708e-11
7.69209e-11
-9.86015e-11
1.95366e-10
1.32958e-10
-1.9428e-09
1.07238e-09
1.56145e-09
-1.85688e-09
-1.04238e-09
1.12506e-10
-2.55594e-10
-4.39908e-10
-2.82134e-10
-1.36507e-10
-3.99151e-11
-3.14682e-11
-1.17251e-12
-6.58218e-12
2.29278e-11
1.12319e-11
3.65806e-11
2.37162e-11
4.66344e-11
2.40558e-11
4.46939e-11
2.70526e-11
5.10884e-11
2.77443e-11
4.93557e-11
2.78421e-11
5.24829e-11
3.02086e-11
5.42812e-11
2.80503e-11
5.1825e-11
2.72245e-11
5.41667e-11
2.99617e-11
5.63347e-11
2.52975e-11
5.06486e-11
2.25278e-11
5.24436e-11
2.21267e-11
5.42933e-11
2.18165e-11
6.10969e-11
7.11345e-12
9.06668e-12
-4.37868e-12
4.35397e-11
8.78896e-12
3.74612e-11
2.23068e-12
4.22548e-11
-1.07428e-12
5.01589e-11
-3.71813e-12
7.05189e-11
-2.44367e-11
8.24783e-11
-1.02256e-10
1.98778e-10
1.48806e-10
-1.98639e-09
1.19292e-09
1.63396e-09
-2.04352e-09
-1.15405e-09
1.97646e-10
-1.75981e-10
-4.2574e-10
-2.88988e-10
-1.38393e-10
-3.91811e-11
-3.19422e-11
-3.79717e-12
-9.36826e-12
1.99598e-11
8.93881e-12
3.40777e-11
2.19359e-11
4.47957e-11
2.29041e-11
4.30007e-11
2.5999e-11
4.97557e-11
2.71528e-11
4.81342e-11
2.73244e-11
5.14972e-11
3.00203e-11
5.34856e-11
2.80058e-11
5.09917e-11
2.71645e-11
5.34588e-11
3.01222e-11
5.58441e-11
2.5549e-11
5.00302e-11
2.25419e-11
5.20788e-11
2.21265e-11
5.47507e-11
2.25525e-11
7.01539e-11
8.3331e-13
-4.36489e-12
-7.15706e-12
4.42418e-11
9.11543e-12
3.79153e-11
1.38396e-12
4.32632e-11
-2.54327e-12
5.20022e-11
-6.09584e-12
7.36955e-11
-2.66799e-11
8.5613e-11
-1.01683e-10
1.96824e-10
1.65928e-10
-2.00903e-09
1.279e-09
1.69246e-09
-2.18629e-09
-1.26222e-09
2.6385e-10
-9.77394e-11
-4.07623e-10
-2.95456e-10
-1.4133e-10
-3.90273e-11
-3.24856e-11
-6.48635e-12
-1.2237e-11
1.68243e-11
6.54299e-12
3.1435e-11
2.00658e-11
4.28044e-11
2.16965e-11
4.1221e-11
2.49036e-11
4.83035e-11
2.65266e-11
4.68378e-11
2.67894e-11
5.04275e-11
2.98209e-11
5.26134e-11
2.79653e-11
5.01064e-11
2.71166e-11
5.26906e-11
3.02941e-11
5.52819e-11
2.5827e-11
4.9371e-11
2.25878e-11
5.16491e-11
2.2138e-11
5.51568e-11
2.27164e-11
8.49916e-11
-2.27049e-12
-2.21285e-11
-1.02955e-11
4.45083e-11
9.38084e-12
3.82466e-11
6.7805e-13
4.39885e-11
-3.66139e-12
5.32903e-11
-7.64883e-12
7.56378e-11
-2.71186e-11
8.64002e-11
-9.72917e-11
1.90596e-10
1.82813e-10
-2.00953e-09
1.33084e-09
1.73265e-09
-2.28414e-09
-1.36189e-09
3.10271e-10
-2.33164e-11
-3.85673e-10
-3.01053e-10
-1.45303e-10
-3.95929e-11
-3.31413e-11
-9.21242e-12
-1.51595e-11
1.35411e-11
4.05599e-12
2.86677e-11
1.81189e-11
4.06746e-11
2.04375e-11
3.93652e-11
2.37729e-11
4.67421e-11
2.58657e-11
4.5473e-11
2.62393e-11
4.92794e-11
2.96088e-11
5.16713e-11
2.79272e-11
4.91742e-11
2.70806e-11
5.18646e-11
3.04767e-11
5.4649e-11
2.61359e-11
4.86583e-11
2.2698e-11
5.10915e-11
2.2324e-11
5.51366e-11
2.27891e-11
9.42496e-11
-2.57663e-14
-3.32648e-11
-1.23724e-11
4.43552e-11
9.6583e-12
3.84548e-11
1.95036e-13
4.43677e-11
-4.34116e-12
5.39348e-11
-8.28915e-12
7.62997e-11
-2.57858e-11
8.50889e-11
-8.96599e-11
1.81316e-10
1.9806e-10
-1.98769e-09
1.35015e-09
1.75149e-09
-2.3385e-09
-1.44886e-09
3.37125e-10
4.51344e-11
-3.60205e-10
-3.05319e-10
-1.50241e-10
-4.09974e-11
-3.39584e-11
-1.19508e-11
-1.81076e-11
1.01312e-11
1.48849e-12
2.57914e-11
1.61061e-11
3.842e-11
1.91316e-11
3.74435e-11
2.26134e-11
4.50814e-11
2.51704e-11
4.40483e-11
2.56766e-11
4.8061e-11
2.93826e-11
5.06648e-11
2.78899e-11
4.82001e-11
2.70579e-11
5.09834e-11
3.06711e-11
5.39418e-11
2.64853e-11
4.78721e-11
2.29206e-11
5.03109e-11
2.29005e-11
5.41916e-11
2.40152e-11
8.35389e-11
4.8986e-13
-2.25338e-11
-1.12078e-11
4.40592e-11
1.01079e-11
3.85794e-11
2.72825e-14
4.43679e-11
-4.51465e-12
5.38961e-11
-7.98153e-12
7.57192e-11
-2.28198e-11
8.20356e-11
-7.94645e-11
1.70076e-10
2.10496e-10
-1.9444e-09
1.34009e-09
1.7467e-09
-2.35208e-09
-1.5195e-09
3.45488e-10
1.05819e-10
-3.3174e-10
-3.07871e-10
-1.5602e-10
-4.33387e-11
-3.49924e-11
-1.46839e-11
-2.10554e-11
6.615e-12
-1.14823e-12
2.28195e-11
1.40371e-11
3.60544e-11
1.77829e-11
3.54653e-11
2.14305e-11
4.33318e-11
2.44418e-11
4.25698e-11
2.5103e-11
4.67786e-11
2.91411e-11
4.96002e-11
2.78525e-11
4.71892e-11
2.7048e-11
5.0052e-11
3.08743e-11
5.31671e-11
2.68655e-11
4.7028e-11
2.32252e-11
4.93807e-11
2.36962e-11
5.27376e-11
2.52224e-11
6.7027e-11
5.66288e-12
-3.79055e-12
-8.58088e-12
4.32605e-11
1.05978e-11
3.85012e-11
1.77079e-13
4.39458e-11
-4.16231e-12
5.31616e-11
-6.75468e-12
7.40009e-11
-1.84353e-11
7.76253e-11
-6.74043e-11
1.57869e-10
2.19351e-10
-1.88096e-09
1.3042e-09
1.71713e-09
-2.32822e-09
-1.5711e-09
3.37023e-10
1.57388e-10
-3.00942e-10
-3.08435e-10
-1.62492e-10
-4.66916e-11
-3.6307e-11
-1.74053e-11
-2.39828e-11
3.01006e-12
-3.84807e-12
1.97626e-11
1.19199e-11
3.35917e-11
1.63947e-11
3.34382e-11
2.02283e-11
4.15035e-11
2.36802e-11
4.10432e-11
2.45199e-11
4.54387e-11
2.88836e-11
4.84836e-11
2.78142e-11
4.61463e-11
2.70506e-11
4.90751e-11
3.10841e-11
5.23316e-11
2.72696e-11
4.61411e-11
2.35815e-11
4.83729e-11
2.45223e-11
5.12134e-11
2.57687e-11
5.61821e-11
1.35041e-11
9.36253e-12
-6.01044e-12
4.19577e-11
1.10908e-11
3.81695e-11
6.5538e-13
4.30899e-11
-3.28474e-12
5.17655e-11
-4.67317e-12
7.12963e-11
-1.28848e-11
7.22734e-11
-5.4125e-11
1.45521e-10
2.24277e-10
-1.79921e-09
1.24602e-09
1.66228e-09
-2.27062e-09
-1.60168e-09
3.13876e-10
1.98918e-10
-2.68588e-10
-3.06857e-10
-1.69487e-10
-5.10984e-11
-3.79664e-11
-2.01178e-11
-2.6874e-11
-6.67818e-13
-6.60556e-12
1.66292e-11
9.76049e-12
3.10451e-11
1.49706e-11
3.13682e-11
1.90098e-11
3.96066e-11
2.28859e-11
3.94731e-11
2.39274e-11
4.40474e-11
2.86098e-11
4.73215e-11
2.77742e-11
4.50749e-11
2.70651e-11
4.80559e-11
3.13006e-11
5.14394e-11
2.77009e-11
4.52061e-11
2.40013e-11
4.72692e-11
2.54011e-11
4.95761e-11
2.62303e-11
4.91484e-11
1.75094e-11
1.89917e-11
-2.88628e-12
4.06429e-11
1.17201e-11
3.76094e-11
1.48843e-12
4.18288e-11
-1.90208e-12
4.97683e-11
-1.8355e-12
6.7785e-11
-6.43098e-12
6.63567e-11
-4.01933e-11
1.33527e-10
2.25335e-10
-1.701e-09
1.16864e-09
1.58267e-09
-2.18362e-09
-1.61041e-09
2.78451e-10
2.30043e-10
-2.35468e-10
-3.03097e-10
-1.7682e-10
-5.65614e-11
-4.00262e-11
-2.28286e-11
-2.97161e-11
-4.40246e-12
-9.41444e-12
1.34278e-11
7.56343e-12
2.84265e-11
1.35142e-11
2.92618e-11
1.77765e-11
3.76501e-11
2.20604e-11
3.78641e-11
2.33256e-11
4.26108e-11
2.8319e-11
4.612e-11
2.7732e-11
4.39791e-11
2.709e-11
4.69996e-11
3.1521e-11
5.04981e-11
2.81534e-11
4.42323e-11
2.4469e-11
4.60923e-11
2.62941e-11
4.79007e-11
2.67436e-11
4.42123e-11
1.98893e-11
2.61781e-11
6.88724e-13
3.93997e-11
1.24911e-11
3.68079e-11
2.6576e-12
4.01961e-11
-5.94498e-14
4.7252e-11
1.6358e-12
6.36671e-11
6.66886e-13
6.02192e-11
-2.60559e-11
1.22123e-10
2.22818e-10
-1.58833e-09
1.07513e-09
1.47953e-09
-2.07186e-09
-1.5975e-09
2.33363e-10
2.50958e-10
-2.02343e-10
-2.97237e-10
-1.84313e-10
-6.30464e-11
-4.25314e-11
-2.55489e-11
-3.25012e-11
-8.17886e-12
-1.22689e-11
1.01674e-11
5.33063e-12
2.57469e-11
1.20295e-11
2.71251e-11
1.65279e-11
3.56421e-11
2.12051e-11
3.62211e-11
2.27133e-11
4.1135e-11
2.80098e-11
4.48846e-11
2.7687e-11
4.28639e-11
2.71235e-11
4.59127e-11
3.174e-11
4.95163e-11
2.86196e-11
4.32342e-11
2.49589e-11
4.48833e-11
2.71338e-11
4.63152e-11
2.72132e-11
4.07327e-11
2.13147e-11
3.13867e-11
4.46882e-12
3.82138e-11
1.33938e-11
3.57607e-11
4.1279e-12
3.82392e-11
2.18021e-12
4.43279e-11
5.60065e-12
5.91482e-11
8.15614e-12
5.41577e-11
-1.20417e-11
1.11255e-10
2.17159e-10
-1.4631e-09
9.68516e-10
1.35512e-09
-1.94044e-09
-1.56442e-09
1.8124e-10
2.6244e-10
-1.69859e-10
-2.89454e-10
-1.91834e-10
-7.05147e-11
-4.55251e-11
-2.82997e-11
-3.52318e-11
-1.199e-11
-1.51686e-11
6.85269e-12
3.05829e-12
2.30124e-11
1.05192e-11
2.49633e-11
1.52611e-11
3.35874e-11
2.03211e-11
3.45476e-11
2.20878e-11
3.96249e-11
2.76798e-11
4.36196e-11
2.76386e-11
4.17341e-11
2.71628e-11
4.48016e-11
3.19525e-11
4.85011e-11
2.90945e-11
4.22233e-11
2.54544e-11
4.36645e-11
2.79018e-11
4.48487e-11
2.76108e-11
3.8304e-11
2.22586e-11
3.50009e-11
8.27159e-12
3.70809e-11
1.44343e-11
3.44919e-11
5.85784e-12
3.60248e-11
4.74629e-12
4.11213e-11
9.91582e-12
5.44382e-11
1.58168e-11
4.84114e-11
1.70755e-12
1.00644e-10
2.0888e-10
-1.3272e-09
8.51875e-10
1.21262e-09
-1.7935e-09
-1.51348e-09
1.24293e-10
2.65585e-10
-1.3851e-10
-2.79957e-10
-1.99273e-10
-7.89313e-11
-4.90496e-11
-3.11067e-11
-3.79126e-11
-1.58349e-11
-1.81148e-11
3.48307e-12
7.41132e-13
2.02245e-11
8.98762e-12
2.27794e-11
1.39741e-11
3.14877e-11
1.94114e-11
3.28448e-11
2.14471e-11
3.80818e-11
2.73278e-11
4.23271e-11
2.7588e-11
4.0592e-11
2.72062e-11
4.36697e-11
3.21542e-11
4.74575e-11
2.95767e-11
4.12071e-11
2.59443e-11
4.24442e-11
2.85985e-11
4.34918e-11
2.79549e-11
3.66104e-11
2.29862e-11
3.73342e-11
1.19823e-11
3.59983e-11
1.56175e-11
3.30365e-11
7.7976e-12
3.36192e-11
7.5584e-12
3.77541e-11
1.44388e-11
4.97151e-11
2.34776e-11
4.31233e-11
1.52312e-11
8.97687e-11
1.98479e-10
-1.18238e-09
7.27557e-10
8.27394e-10
4.0017e-10
-4.46103e-10
-8.20883e-10
-6.87006e-10
-4.64031e-10
-2.57259e-10
-1.46002e-10
-5.07577e-11
-2.56784e-11
1.68247e-11
1.23945e-11
4.05358e-11
2.633e-11
5.13179e-11
3.45311e-11
5.55551e-11
3.22076e-11
5.51564e-11
3.4293e-11
5.76245e-11
3.24938e-11
5.6582e-11
3.19323e-11
5.75424e-11
3.21532e-11
5.79316e-11
2.95234e-11
5.65733e-11
2.86266e-11
5.77199e-11
2.95517e-11
5.77069e-11
2.47458e-11
5.4266e-11
2.28771e-11
5.37826e-11
2.17005e-11
5.22259e-11
1.77553e-11
4.81865e-11
1.62711e-11
4.63855e-11
1.16904e-11
4.08266e-11
5.59213e-12
3.44841e-11
6.08573e-12
3.23872e-11
9.37214e-12
3.09921e-11
2.07844e-11
2.57181e-11
2.73618e-11
-3.3223e-12
3.52908e-11
-1.76903e-11
3.72753e-11
-1.15886e-09
-2.72095e-10
8.61355e-10
4.20851e-10
-4.54728e-10
-8.27822e-10
-6.89214e-10
-4.64169e-10
-2.57459e-10
-1.46242e-10
-5.12306e-11
-2.60876e-11
1.63372e-11
1.20835e-11
4.01527e-11
2.61109e-11
5.10187e-11
3.4411e-11
5.53096e-11
3.20976e-11
5.49333e-11
3.42578e-11
5.74385e-11
3.24673e-11
5.64038e-11
3.19516e-11
5.73849e-11
3.21954e-11
5.7782e-11
2.95721e-11
5.6423e-11
2.87022e-11
5.75817e-11
2.96533e-11
5.75642e-11
2.48333e-11
5.41106e-11
2.30066e-11
5.36381e-11
2.1848e-11
5.20798e-11
1.79025e-11
4.80021e-11
1.6383e-11
4.61972e-11
1.19041e-11
4.06807e-11
5.82657e-12
3.43288e-11
6.39273e-12
3.22601e-11
9.70251e-12
3.09042e-11
2.11828e-11
2.57265e-11
2.77026e-11
-3.25621e-12
3.51904e-11
-1.38313e-11
4.93352e-11
-1.1798e-09
-2.99677e-10
9.07144e-10
4.2718e-10
-4.68345e-10
-8.30533e-10
-6.89835e-10
-4.63762e-10
-2.57186e-10
-1.46365e-10
-5.15088e-11
-2.66798e-11
1.58125e-11
1.15101e-11
3.97638e-11
2.56372e-11
5.07231e-11
3.40764e-11
5.51497e-11
3.17778e-11
5.4763e-11
3.4022e-11
5.73649e-11
3.22498e-11
5.63311e-11
3.17858e-11
5.7361e-11
3.20551e-11
5.77855e-11
2.94338e-11
5.64199e-11
2.85918e-11
5.76029e-11
2.95745e-11
5.76186e-11
2.47264e-11
5.41253e-11
2.29448e-11
5.36895e-11
2.18041e-11
5.21474e-11
1.7861e-11
4.80008e-11
1.6244e-11
4.6185e-11
1.19126e-11
4.07943e-11
5.8949e-12
3.4394e-11
6.53703e-12
3.23916e-11
9.86342e-12
3.10409e-11
2.1387e-11
2.60358e-11
2.7839e-11
-2.71036e-12
3.34235e-11
-9.8395e-12
6.9978e-11
-1.21599e-09
-3.19338e-10
9.55327e-10
4.02751e-10
-4.83096e-10
-8.23846e-10
-6.88431e-10
-4.6285e-10
-2.56324e-10
-1.45959e-10
-5.14419e-11
-2.72153e-11
1.52019e-11
1.07868e-11
3.92591e-11
2.50317e-11
5.0311e-11
3.36428e-11
5.49487e-11
3.13617e-11
5.44984e-11
3.37049e-11
5.72648e-11
3.19676e-11
5.62087e-11
3.15665e-11
5.73131e-11
3.18789e-11
5.77898e-11
2.92583e-11
5.6398e-11
2.84477e-11
5.76183e-11
2.94779e-11
5.77059e-11
2.45961e-11
5.41265e-11
2.28595e-11
5.37573e-11
2.17488e-11
5.22523e-11
1.78149e-11
4.80074e-11
1.60344e-11
4.61409e-11
1.18739e-11
4.09963e-11
5.96238e-12
3.45101e-11
6.65136e-12
3.26546e-11
9.93268e-12
3.13651e-11
2.13575e-11
2.68724e-11
2.73096e-11
-9.77304e-13
2.86048e-11
-1.10954e-12
8.97784e-11
-1.26263e-09
-3.13958e-10
9.97821e-10
3.32043e-10
-4.96442e-10
-7.99312e-10
-6.83206e-10
-4.6187e-10
-2.55152e-10
-1.44966e-10
-5.09713e-11
-2.7643e-11
1.44763e-11
9.92781e-12
3.85942e-11
2.42954e-11
4.97348e-11
3.31196e-11
5.46596e-11
3.08656e-11
5.40925e-11
3.33185e-11
5.70926e-11
3.16457e-11
5.59854e-11
3.13148e-11
5.7196e-11
3.16926e-11
5.77453e-11
2.90787e-11
5.63041e-11
2.82991e-11
5.75763e-11
2.9404e-11
5.7775e-11
2.44869e-11
5.40562e-11
2.27896e-11
5.37873e-11
2.17253e-11
5.2343e-11
1.78179e-11
4.79812e-11
1.5814e-11
4.59662e-11
1.18167e-11
4.12274e-11
6.08757e-12
3.46198e-11
6.74026e-12
3.3016e-11
9.88114e-12
3.19067e-11
2.09783e-11
2.83808e-11
2.57817e-11
2.43412e-12
2.02379e-11
1.38002e-11
1.03884e-10
-1.31685e-09
-2.69678e-10
1.03544e-09
2.05957e-10
-5.10127e-10
-7.52598e-10
-6.72123e-10
-4.61288e-10
-2.54088e-10
-1.43511e-10
-5.01656e-11
-2.7991e-11
1.36007e-11
8.90944e-12
3.77501e-11
2.34196e-11
4.89845e-11
3.24948e-11
5.42727e-11
3.03003e-11
5.35428e-11
3.28623e-11
5.68382e-11
3.12904e-11
5.56573e-11
3.10294e-11
5.70033e-11
3.15e-11
5.76431e-11
2.89011e-11
5.6128e-11
2.81496e-11
5.74685e-11
2.93553e-11
5.78102e-11
2.44096e-11
5.39017e-11
2.27371e-11
5.37659e-11
2.17412e-11
5.24067e-11
1.78897e-11
4.79206e-11
1.55878e-11
4.56113e-11
1.17252e-11
4.14699e-11
6.27143e-12
3.47282e-11
6.7774e-12
3.34922e-11
9.6448e-12
3.27319e-11
2.00862e-11
3.07398e-11
2.29593e-11
7.97828e-12
8.03629e-12
3.51964e-11
1.1095e-10
-1.3802e-09
-1.79103e-10
1.07326e-09
2.23258e-11
-5.29022e-10
-6.82082e-10
-6.53125e-10
-4.61236e-10
-2.5353e-10
-1.41735e-10
-4.90707e-11
-2.83028e-11
1.2534e-11
7.69709e-12
3.6698e-11
2.23926e-11
4.80505e-11
3.17573e-11
5.37773e-11
2.96723e-11
5.28533e-11
3.23366e-11
5.64982e-11
3.09122e-11
5.5226e-11
3.07148e-11
5.67345e-11
3.13082e-11
5.7477e-11
2.87351e-11
5.58684e-11
2.80058e-11
5.72907e-11
2.93367e-11
5.78032e-11
2.43764e-11
5.3662e-11
2.27078e-11
5.36853e-11
2.18049e-11
5.24378e-11
1.80416e-11
4.78431e-11
1.53533e-11
4.50347e-11
1.15839e-11
4.17289e-11
6.50887e-12
3.48521e-11
6.71757e-12
3.41083e-11
9.15354e-12
3.39177e-11
1.85615e-11
3.40747e-11
1.86581e-11
1.57873e-11
-7.61452e-12
6.20254e-11
1.11945e-10
-1.45385e-09
-4.19636e-11
1.11662e-09
-2.12371e-10
-5.57902e-10
-5.89276e-10
-6.24589e-10
-4.61583e-10
-2.5381e-10
-1.39774e-10
-4.77345e-11
-2.86126e-11
1.12444e-11
6.25512e-12
3.54021e-11
2.1198e-11
4.69135e-11
3.08922e-11
5.31494e-11
2.89821e-11
5.20245e-11
3.17398e-11
5.60602e-11
3.05162e-11
5.46917e-11
3.03759e-11
5.63861e-11
3.11232e-11
5.72426e-11
2.85896e-11
5.55254e-11
2.78752e-11
5.70412e-11
2.93549e-11
5.77422e-11
2.43974e-11
5.33372e-11
2.27036e-11
5.35428e-11
2.19189e-11
5.24368e-11
1.82799e-11
4.77822e-11
1.50955e-11
4.42121e-11
1.13741e-11
4.20089e-11
6.7815e-12
3.50173e-11
6.51982e-12
3.48941e-11
8.35009e-12
3.55125e-11
1.63383e-11
3.83888e-11
1.29686e-11
2.55885e-11
-2.56153e-11
9.17783e-11
1.09632e-10
-1.53678e-09
1.32859e-10
1.17026e-09
-4.85234e-10
-6.00967e-10
-4.78585e-10
-5.85506e-10
-4.61876e-10
-2.55211e-10
-1.37795e-10
-4.62078e-11
-2.89388e-11
9.70331e-12
4.57232e-12
3.38457e-11
1.98231e-11
4.55615e-11
2.98852e-11
5.23637e-11
2.82255e-11
5.10529e-11
3.10695e-11
5.5508e-11
3.01015e-11
5.40511e-11
3.00144e-11
5.59527e-11
3.09462e-11
5.69326e-11
2.84704e-11
5.50987e-11
2.77632e-11
5.67197e-11
2.94124e-11
5.76201e-11
2.44777e-11
5.29345e-11
2.2727e-11
5.33377e-11
2.20833e-11
5.24114e-11
1.86017e-11
4.77763e-11
1.47961e-11
4.31201e-11
1.10954e-11
4.23227e-11
7.06454e-12
3.52511e-11
6.15509e-12
3.58628e-11
7.22273e-12
3.75189e-11
1.3453e-11
4.35411e-11
6.20283e-12
3.67159e-11
-4.44436e-11
1.215e-10
1.07282e-10
-1.62639e-09
3.30783e-10
1.2359e-09
-7.80295e-10
-6.60639e-10
-3.56276e-10
-5.35767e-10
-4.61497e-10
-2.57899e-10
-1.35988e-10
-4.4544e-11
-2.92847e-11
7.92048e-12
2.65387e-12
3.20246e-11
1.82689e-11
4.39939e-11
2.87356e-11
5.14042e-11
2.73979e-11
4.99407e-11
3.03239e-11
5.48292e-11
2.96648e-11
5.33034e-11
2.96285e-11
5.5428e-11
3.0779e-11
5.65395e-11
2.83744e-11
5.45898e-11
2.76694e-11
5.63257e-11
2.95085e-11
5.74302e-11
2.46169e-11
5.24609e-11
2.27775e-11
5.30713e-11
2.2295e-11
5.23588e-11
1.9005e-11
4.78684e-11
1.44267e-11
4.17442e-11
1.07426e-11
4.26798e-11
7.33577e-12
3.55752e-11
5.61456e-12
3.70072e-11
5.79373e-12
3.98827e-11
1.00493e-11
4.92556e-11
-1.11329e-12
4.82926e-11
-6.24276e-11
1.48447e-10
1.07476e-10
-1.71788e-09
5.3696e-10
1.31225e-09
-1.07913e-09
-7.37348e-10
-2.29615e-10
-4.7613e-10
-4.59711e-10
-2.61917e-10
-1.34559e-10
-4.2832e-11
-2.96453e-11
5.91216e-12
5.14385e-13
2.99452e-11
1.65441e-11
4.22174e-11
2.7444e-11
5.02643e-11
2.65006e-11
4.86915e-11
2.95051e-11
5.40172e-11
2.92023e-11
5.24486e-11
2.92173e-11
5.48077e-11
3.06166e-11
5.6059e-11
2.82997e-11
5.40013e-11
2.75943e-11
5.58587e-11
2.96398e-11
5.71681e-11
2.48086e-11
5.19253e-11
2.28541e-11
5.27453e-11
2.25476e-11
5.22836e-11
1.9481e-11
4.80969e-11
1.39575e-11
4.00909e-11
1.0316e-11
4.30819e-11
7.58309e-12
3.59873e-11
4.91419e-12
3.82846e-11
4.12667e-12
4.24813e-11
6.33905e-12
5.51699e-11
-8.38719e-12
5.93898e-11
-7.80842e-11
1.70554e-10
1.11788e-10
-1.80515e-09
7.36597e-10
1.39546e-09
-1.36621e-09
-8.29054e-10
-1.0544e-10
-4.08109e-10
-4.55766e-10
-2.6716e-10
-1.33722e-10
-4.11677e-11
-3.00184e-11
3.70374e-12
-1.82562e-12
2.76191e-11
1.466e-11
4.02391e-11
2.60182e-11
4.8941e-11
2.55344e-11
4.73125e-11
2.86181e-11
5.30675e-11
2.871e-11
5.149e-11
2.878e-11
5.40894e-11
3.04564e-11
5.54891e-11
2.82422e-11
5.33376e-11
2.75353e-11
5.53196e-11
2.98e-11
5.6835e-11
2.50454e-11
5.13341e-11
2.29512e-11
5.23592e-11
2.28316e-11
5.21856e-11
2.001e-11
4.84984e-11
1.33856e-11
3.81725e-11
9.83469e-12
4.35219e-11
7.79987e-12
3.64696e-11
4.09704e-12
3.96445e-11
2.31651e-12
4.51543e-11
2.58231e-12
6.08958e-11
-1.50141e-11
6.91861e-11
-9.02749e-11
1.86573e-10
1.20765e-10
-1.88235e-09
9.17396e-10
1.48065e-09
-1.62827e-09
-9.32183e-10
1.00903e-11
-3.33747e-10
-4.48943e-10
-2.73353e-10
-1.33662e-10
-3.96755e-11
-3.0405e-11
1.32777e-12
-4.33934e-12
2.50631e-11
1.26287e-11
3.80734e-11
2.44653e-11
4.7438e-11
2.45027e-11
4.58144e-11
2.76694e-11
5.19808e-11
2.81858e-11
5.04329e-11
2.83178e-11
5.32747e-11
3.0294e-11
5.48323e-11
2.81971e-11
5.26033e-11
2.7489e-11
5.47105e-11
2.99825e-11
5.64304e-11
2.53192e-11
5.06959e-11
2.30657e-11
5.19155e-11
2.31394e-11
5.20574e-11
2.05721e-11
4.90844e-11
1.27285e-11
3.60276e-11
9.32413e-12
4.39749e-11
7.99117e-12
3.69928e-11
3.21479e-12
4.09848e-11
4.95075e-13
4.77259e-11
-9.4977e-13
6.60564e-11
-2.04982e-11
7.70641e-11
-9.8321e-11
1.96122e-10
1.33802e-10
-1.94461e-09
1.07072e-09
1.56245e-09
-1.85599e-09
-1.04227e-09
1.1216e-10
-2.55461e-10
-4.38652e-10
-2.8011e-10
-1.34522e-10
-3.84835e-11
-3.08134e-11
-1.18129e-12
-6.99642e-12
2.22971e-11
1.0469e-11
3.57369e-11
2.27998e-11
4.57624e-11
2.34101e-11
4.42099e-11
2.66658e-11
5.07604e-11
2.76287e-11
4.9285e-11
2.78333e-11
5.23664e-11
3.01258e-11
5.40919e-11
2.81597e-11
5.18045e-11
2.74532e-11
5.40358e-11
3.01809e-11
5.59558e-11
2.56208e-11
5.00189e-11
2.31967e-11
5.14153e-11
2.34658e-11
5.18864e-11
2.11452e-11
4.98281e-11
1.20522e-11
3.37467e-11
8.81787e-12
4.44042e-11
8.17433e-12
3.75189e-11
2.33299e-12
4.22206e-11
-1.20401e-12
5.00228e-11
-4.00179e-12
7.03419e-11
-2.4476e-11
8.26531e-11
-1.01988e-10
1.99554e-10
1.49601e-10
-1.98837e-09
1.19177e-09
1.63529e-09
-2.043e-09
-1.15411e-09
1.97343e-10
-1.75883e-10
-4.24533e-10
-2.86981e-10
-1.36398e-10
-3.77336e-11
-3.12639e-11
-3.7879e-12
-9.76627e-12
1.93424e-11
8.19422e-12
3.32462e-11
2.10341e-11
4.39238e-11
2.22603e-11
4.25099e-11
2.56148e-11
4.94138e-11
2.70373e-11
4.80541e-11
2.73281e-11
5.13692e-11
2.99487e-11
5.32722e-11
2.81263e-11
5.09483e-11
2.74261e-11
5.33004e-11
3.03894e-11
5.54144e-11
2.59438e-11
4.93094e-11
2.33438e-11
5.08599e-11
2.38068e-11
5.16542e-11
2.17003e-11
5.06232e-11
1.14816e-11
3.15151e-11
8.35679e-12
4.4759e-11
8.3706e-12
3.80024e-11
1.52894e-12
4.32632e-11
-2.65755e-12
5.18882e-11
-6.3753e-12
7.35263e-11
-2.67297e-11
8.58152e-11
-1.01417e-10
1.9762e-10
1.66675e-10
-2.01121e-09
1.27831e-09
1.69411e-09
-2.18608e-09
-1.26241e-09
2.63606e-10
-9.7668e-11