/*--------------------------------*- C++ -*----------------------------------*\
| =========                 |                                                 |
| \\      /  F ield         | OpenFOAM: The Open Source CFD Toolbox           |
|  \\    /   O peration     | Version:  2312                                  |
|   \\  /    A nd           | Website:  www.openfoam.com                      |
|    \\/     M anipulation  |                                                 |
\*---------------------------------------------------------------------------*/
FoamFile
{
    version     2.0;
    format      ascii;
    arch        "LSB;label=32;scalar=64";
    class       volScalarField;
    location    "400";
    object      p;
}
// * * * * * * * * * * * * * * * * * * * * * * * * * * * * * * * * * * * * * //

dimensions      [0 2 -2 0 0 0 0];

internalField   nonuniform List<scalar> 
144000
(
1.23096e-09
1.08568e-09
4.73156e-10
6.50806e-11
1.09559e-10
2.72227e-10
4.50722e-10
5.46294e-10
6.31454e-10
6.52437e-10
6.92698e-10
6.89655e-10
7.17026e-10
7.05848e-10
7.30944e-10
7.18592e-10
7.39013e-10
7.19924e-10
7.43239e-10
7.28654e-10
7.50691e-10
7.31371e-10
7.54146e-10
7.36243e-10
7.59957e-10
7.42334e-10
7.65774e-10
7.45894e-10
7.70288e-10
7.52059e-10
7.77332e-10
7.59424e-10
7.81415e-10
7.58065e-10
7.80145e-10
7.58656e-10
7.79594e-10
7.58481e-10
7.77111e-10
7.5388e-10
7.72676e-10
7.53051e-10
7.71013e-10
7.53063e-10
7.63726e-10
7.42834e-10
7.53578e-10
7.43079e-10
7.50845e-10
7.46558e-10
7.48998e-10
7.5593e-10
7.39246e-10
7.46081e-10
6.94382e-10
7.17859e-10
6.31377e-10
5.11613e-10
-2.16525e-10
4.76255e-10
1.26022e-09
1.10101e-09
4.66037e-10
5.86969e-11
1.06837e-10
2.71807e-10
4.50545e-10
5.46249e-10
6.31157e-10
6.52236e-10
6.92341e-10
6.89498e-10
7.16724e-10
7.05742e-10
7.3071e-10
7.1856e-10
7.38814e-10
7.19876e-10
7.43045e-10
7.28681e-10
7.5052e-10
7.31382e-10
7.53986e-10
7.36294e-10
7.59813e-10
7.42396e-10
7.65626e-10
7.45949e-10
7.70141e-10
7.52145e-10
7.77204e-10
7.59538e-10
7.81287e-10
7.58152e-10
7.80019e-10
7.58793e-10
7.79479e-10
7.5863e-10
7.77007e-10
7.54012e-10
7.7258e-10
7.53217e-10
7.70953e-10
7.53263e-10
7.63669e-10
7.42995e-10
7.53553e-10
7.43296e-10
7.50886e-10
7.46776e-10
7.49151e-10
7.56203e-10
7.39598e-10
7.46271e-10
6.94974e-10
7.18298e-10
6.35795e-10
5.1765e-10
-2.36691e-10
4.59845e-10
1.297e-09
1.11477e-09
4.57315e-10
5.16828e-11
1.03291e-10
2.71055e-10
4.50461e-10
5.46136e-10
6.31e-10
6.51899e-10
6.92008e-10
6.89163e-10
7.16464e-10
7.05452e-10
7.30513e-10
7.18377e-10
7.3873e-10
7.19668e-10
7.42907e-10
7.28562e-10
7.50455e-10
7.31241e-10
7.53916e-10
7.36205e-10
7.59775e-10
7.42318e-10
7.65604e-10
7.45863e-10
7.70106e-10
7.52099e-10
7.77194e-10
7.59528e-10
7.81314e-10
7.58105e-10
7.80019e-10
7.58815e-10
7.79497e-10
7.58668e-10
7.77058e-10
7.54026e-10
7.72618e-10
7.53278e-10
7.7103e-10
7.53392e-10
7.63804e-10
7.43096e-10
7.53663e-10
7.43472e-10
7.51099e-10
7.46965e-10
7.49411e-10
7.56458e-10
7.40132e-10
7.46548e-10
6.95718e-10
7.18105e-10
6.40887e-10
5.3171e-10
-2.67121e-10
4.41153e-10
1.33865e-09
1.12237e-09
4.48345e-10
4.57065e-11
9.86377e-11
2.69968e-10
4.50486e-10
5.46179e-10
6.31004e-10
6.51563e-10
6.91622e-10
6.88734e-10
7.16152e-10
7.05078e-10
7.30256e-10
7.18136e-10
7.38672e-10
7.19396e-10
7.42722e-10
7.2839e-10
7.50404e-10
7.31048e-10
7.53833e-10
7.36071e-10
7.59751e-10
7.42204e-10
7.65614e-10
7.45737e-10
7.70081e-10
7.52017e-10
7.77208e-10
7.59497e-10
7.81406e-10
7.58024e-10
7.8004e-10
7.58809e-10
7.7956e-10
7.58687e-10
7.77179e-10
7.54004e-10
7.72707e-10
7.53301e-10
7.71187e-10
7.53513e-10
7.64094e-10
7.4317e-10
7.53879e-10
7.43602e-10
7.51504e-10
7.47066e-10
7.49892e-10
7.56568e-10
7.41103e-10
7.46523e-10
6.97019e-10
7.16703e-10
6.48766e-10
5.51497e-10
-3.05724e-10
4.24463e-10
1.37955e-09
1.11509e-09
4.40579e-10
4.50764e-11
9.4209e-11
2.68658e-10
4.50646e-10
5.46474e-10
6.31195e-10
6.51249e-10
6.91117e-10
6.88185e-10
7.15718e-10
7.04595e-10
7.29878e-10
7.17836e-10
7.3859e-10
7.19067e-10
7.42438e-10
7.28172e-10
7.50329e-10
7.30824e-10
7.53692e-10
7.35909e-10
7.59704e-10
7.42079e-10
7.65624e-10
7.45599e-10
7.70026e-10
7.5192e-10
7.77208e-10
7.59469e-10
7.8153e-10
7.57937e-10
7.80038e-10
7.58796e-10
7.79636e-10
7.58707e-10
7.77343e-10
7.53966e-10
7.72818e-10
7.53297e-10
7.71402e-10
7.53634e-10
7.64531e-10
7.43213e-10
7.54193e-10
7.43645e-10
7.5212e-10
7.47007e-10
7.50637e-10
7.56395e-10
7.42639e-10
7.45943e-10
6.99175e-10
7.13628e-10
6.60021e-10
5.74465e-10
-3.50278e-10
4.17558e-10
1.41748e-09
1.082e-09
4.33305e-10
5.4249e-11
9.19859e-11
2.67291e-10
4.50951e-10
5.47096e-10
6.31626e-10
6.50979e-10
6.90475e-10
6.87489e-10
7.1513e-10
7.03981e-10
7.2935e-10
7.17438e-10
7.38457e-10
7.18674e-10
7.42038e-10
7.27891e-10
7.50214e-10
7.30567e-10
7.53481e-10
7.3571e-10
7.59624e-10
7.4194e-10
7.65622e-10
7.4545e-10
7.6993e-10
7.51801e-10
7.77185e-10
7.59439e-10
7.81673e-10
7.57846e-10
7.80005e-10
7.58767e-10
7.79719e-10
7.58725e-10
7.77542e-10
7.53911e-10
7.72947e-10
7.53254e-10
7.71678e-10
7.53739e-10
7.6512e-10
7.43205e-10
7.54621e-10
7.43545e-10
7.52975e-10
7.46709e-10
7.51717e-10
7.55796e-10
7.44858e-10
7.44564e-10
7.02484e-10
7.08458e-10
6.75015e-10
5.9852e-10
-4.00452e-10
4.29851e-10
1.45428e-09
1.01325e-09
4.23415e-10
7.70104e-11
9.41255e-11
2.66072e-10
4.51364e-10
5.48105e-10
6.32359e-10
6.50787e-10
6.89703e-10
6.86639e-10
7.14373e-10
7.03225e-10
7.28658e-10
7.16925e-10
7.38251e-10
7.18212e-10
7.41513e-10
7.27532e-10
7.50044e-10
7.30274e-10
7.5319e-10
7.35465e-10
7.59503e-10
7.41782e-10
7.65599e-10
7.45287e-10
7.69785e-10
7.51654e-10
7.77132e-10
7.59399e-10
7.81826e-10
7.57753e-10
7.79934e-10
7.58711e-10
7.79805e-10
7.58731e-10
7.77772e-10
7.53833e-10
7.73095e-10
7.53158e-10
7.7202e-10
7.53804e-10
7.65865e-10
7.43122e-10
7.55183e-10
7.43246e-10
7.54098e-10
7.46096e-10
7.53203e-10
7.54633e-10
7.47886e-10
7.42156e-10
7.07231e-10
7.00895e-10
6.9392e-10
6.22374e-10
-4.57844e-10
4.69336e-10
1.49455e-09
9.01553e-10
4.06321e-10
1.16202e-10
1.02885e-10
2.65242e-10
4.51781e-10
5.49532e-10
6.33439e-10
6.50708e-10
6.88812e-10
6.85638e-10
7.13441e-10
7.02327e-10
7.27797e-10
7.16287e-10
7.37951e-10
7.17684e-10
7.4086e-10
7.27085e-10
7.49801e-10
7.29945e-10
7.52813e-10
7.35168e-10
7.59333e-10
7.41602e-10
7.65542e-10
7.45113e-10
7.69584e-10
7.51474e-10
7.77043e-10
7.59344e-10
7.81972e-10
7.57657e-10
7.7982e-10
7.58621e-10
7.79888e-10
7.58718e-10
7.78026e-10
7.53727e-10
7.73265e-10
7.52998e-10
7.72431e-10
7.53808e-10
7.66769e-10
7.42942e-10
7.55909e-10
7.42694e-10
7.55519e-10
7.45094e-10
7.55164e-10
7.52784e-10
7.51828e-10
7.38557e-10
7.13615e-10
6.90862e-10
7.16488e-10
6.45634e-10
-5.2476e-10
5.41115e-10
1.54483e-09
7.42916e-10
3.76397e-10
1.73368e-10
1.20525e-10
2.65116e-10
4.52046e-10
5.51367e-10
6.34896e-10
6.50771e-10
6.87813e-10
6.84493e-10
7.1233e-10
7.01292e-10
7.26766e-10
7.15518e-10
7.37537e-10
7.17093e-10
7.4008e-10
7.26548e-10
7.49472e-10
7.29582e-10
7.52347e-10
7.34817e-10
7.59105e-10
7.41402e-10
7.65442e-10
7.44927e-10
7.69324e-10
7.51261e-10
7.7691e-10
7.59271e-10
7.82099e-10
7.5756e-10
7.79664e-10
7.58491e-10
7.79962e-10
7.58682e-10
7.78297e-10
7.53589e-10
7.73461e-10
7.52763e-10
7.72918e-10
7.53731e-10
7.6783e-10
7.42639e-10
7.56823e-10
7.41846e-10
7.57262e-10
7.43645e-10
7.57648e-10
7.5016e-10
7.56733e-10
7.3371e-10
7.21676e-10
6.78556e-10
7.42098e-10
6.68578e-10
-6.0369e-10
6.47112e-10
1.61105e-09
5.37124e-10
3.28379e-10
2.48665e-10
1.48979e-10
2.66061e-10
4.5197e-10
5.53552e-10
6.36736e-10
6.50994e-10
6.86716e-10
6.83212e-10
7.11042e-10
7.00126e-10
7.25571e-10
7.14618e-10
7.36995e-10
7.16443e-10
7.39178e-10
7.25922e-10
7.49044e-10
7.29186e-10
7.51794e-10
7.34411e-10
7.58813e-10
7.41181e-10
7.65287e-10
7.44731e-10
7.69004e-10
7.51014e-10
7.76729e-10
7.59178e-10
7.82192e-10
7.57461e-10
7.79465e-10
7.58316e-10
7.80025e-10
7.58617e-10
7.7858e-10
7.53413e-10
7.73688e-10
7.52445e-10
7.73483e-10
7.53556e-10
7.69045e-10
7.42193e-10
7.57946e-10
7.40676e-10
7.59332e-10
7.41721e-10
7.60673e-10
7.46751e-10
7.62569e-10
7.27682e-10
7.31278e-10
6.64453e-10
7.69638e-10
6.92021e-10
-6.95769e-10
7.85899e-10
1.69782e-09
2.87885e-10
2.57917e-10
3.4069e-10
1.89691e-10
2.68412e-10
4.51329e-10
5.55969e-10
6.38942e-10
6.51383e-10
6.85528e-10
6.81803e-10
7.09576e-10
6.98834e-10
7.24216e-10
7.13589e-10
7.36313e-10
7.15736e-10
7.38161e-10
7.25207e-10
7.48508e-10
7.28758e-10
7.51155e-10
7.33953e-10
7.58453e-10
7.4094e-10
7.65073e-10
7.44524e-10
7.68625e-10
7.50734e-10
7.76499e-10
7.59062e-10
7.82245e-10
7.57357e-10
7.79227e-10
7.58093e-10
7.80071e-10
7.58516e-10
7.78871e-10
7.53193e-10
7.73951e-10
7.52038e-10
7.74127e-10
7.53272e-10
7.70406e-10
7.41594e-10
7.59282e-10
7.3918e-10
7.61714e-10
7.39324e-10
7.64212e-10
7.42612e-10
7.69214e-10
7.20675e-10
7.42101e-10
6.49268e-10
7.97774e-10
7.16994e-10
-8.00626e-10
9.52619e-10
1.80709e-09
2.4075e-12
1.62401e-10
4.46598e-10
2.43429e-10
2.72974e-10
4.49908e-10
5.58433e-10
6.41462e-10
6.51936e-10
6.84255e-10
6.8027e-10
7.07934e-10
6.97418e-10
7.22705e-10
7.12434e-10
7.35482e-10
7.14972e-10
7.37038e-10
7.24409e-10
7.47857e-10
7.28298e-10
7.50433e-10
7.33444e-10
7.58021e-10
7.40678e-10
7.64794e-10
7.44306e-10
7.68188e-10
7.50423e-10
7.76216e-10
7.58924e-10
7.82248e-10
7.57246e-10
7.78956e-10
7.57819e-10
7.80099e-10
7.58376e-10
7.79165e-10
7.52927e-10
7.7425e-10
7.51545e-10
7.74842e-10
7.52877e-10
7.71894e-10
7.40847e-10
7.60817e-10
7.37379e-10
7.64361e-10
7.36509e-10
7.68183e-10
7.37867e-10
7.76459e-10
7.1301e-10
7.5369e-10
6.3385e-10
8.2506e-10
7.44286e-10
-9.15842e-10
1.14017e-09
1.9397e-09
-3.09455e-10
4.06678e-11
5.62309e-10
3.10301e-10
2.80319e-10
4.47617e-10
5.60735e-10
6.44219e-10
6.52645e-10
6.82906e-10
6.7862e-10
7.06116e-10
6.95882e-10
7.21041e-10
7.11155e-10
7.34494e-10
7.14152e-10
7.35815e-10
7.2353e-10
7.47087e-10
7.27804e-10
7.49634e-10
7.32887e-10
7.57515e-10
7.40397e-10
7.64448e-10
7.44076e-10
7.67698e-10
7.50081e-10
7.7588e-10
7.58762e-10
7.82198e-10
7.57125e-10
7.78656e-10
7.57498e-10
7.80104e-10
7.58196e-10
7.79456e-10
7.52616e-10
7.74582e-10
7.5097e-10
7.75617e-10
7.52379e-10
7.73481e-10
7.39971e-10
7.62522e-10
7.35316e-10
7.67202e-10
7.33367e-10
7.72453e-10
7.32707e-10
7.84025e-10
7.05095e-10
7.65495e-10
6.19109e-10
8.5029e-10
7.74363e-10
-1.03867e-09
1.34305e-09
2.09413e-09
-6.3629e-10
-1.06244e-10
6.82968e-10
3.89638e-10
2.91138e-10
4.44488e-10
5.62651e-10
6.47106e-10
6.53496e-10
6.81494e-10
6.76864e-10
7.04128e-10
6.94229e-10
7.19234e-10
7.09759e-10
7.33346e-10
7.13273e-10
7.345e-10
7.22577e-10
7.46196e-10
7.27272e-10
7.48761e-10
7.32284e-10
7.56932e-10
7.40094e-10
7.64034e-10
7.43832e-10
7.67156e-10
7.49713e-10
7.75491e-10
7.58576e-10
7.82091e-10
7.56994e-10
7.78329e-10
7.57134e-10
7.8008e-10
7.57978e-10
7.79736e-10
7.52268e-10
7.74939e-10
7.5033e-10
7.7643e-10
7.51798e-10
7.75127e-10
7.39e-10
7.64358e-10
7.33067e-10
7.70139e-10
7.30025e-10
7.76852e-10
7.27376e-10
7.91578e-10
6.97397e-10
7.76907e-10
6.05956e-10
8.72321e-10
8.0739e-10
-1.16548e-09
1.54694e-09
2.26629e-09
-9.65162e-10
-2.75564e-10
8.02955e-10
4.79773e-10
3.06039e-10
4.40663e-10
5.63935e-10
6.49973e-10
6.54461e-10
6.80032e-10
6.75012e-10
7.01977e-10
6.92464e-10
7.17287e-10
7.08253e-10
7.3204e-10
7.12334e-10
7.33101e-10
7.21554e-10
7.45182e-10
7.267e-10
7.47819e-10
7.31641e-10
7.56272e-10
7.39769e-10
7.63551e-10
7.43575e-10
7.66567e-10
7.49321e-10
7.75048e-10
7.58368e-10
7.81924e-10
7.56852e-10
7.77976e-10
7.56733e-10
7.80023e-10
7.57725e-10
7.79994e-10
7.51892e-10
7.75308e-10
7.49645e-10
7.77254e-10
7.5116e-10
7.76789e-10
7.37972e-10
7.66235e-10
7.30733e-10
7.73055e-10
7.26639e-10
7.81179e-10
7.22152e-10
7.9876e-10
6.90386e-10
7.87349e-10
5.95159e-10
8.90398e-10
8.42985e-10
-1.29109e-09
1.74488e-09
2.44907e-09
-1.28016e-09
-4.62493e-10
9.16484e-10
5.78127e-10
3.25499e-10
4.36399e-10
5.64343e-10
6.52634e-10
6.55499e-10
6.78534e-10
6.73075e-10
6.99666e-10
6.90589e-10
7.15208e-10
7.06643e-10
7.30575e-10
7.11335e-10
7.31624e-10
7.20469e-10
7.4405e-10
7.26087e-10
7.46811e-10
7.3096e-10
7.55534e-10
7.39421e-10
7.62999e-10
7.43305e-10
7.65933e-10
7.48911e-10
7.74549e-10
7.58139e-10
7.81693e-10
7.567e-10
7.77597e-10
7.56306e-10
7.79923e-10
7.57447e-10
7.80217e-10
7.51504e-10
7.7567e-10
7.48941e-10
7.78055e-10
7.50502e-10
7.78414e-10
7.36943e-10
7.68082e-10
7.28427e-10
7.75809e-10
7.23383e-10
7.85218e-10
7.17326e-10
8.05219e-10
6.84501e-10
7.96328e-10
5.87288e-10
9.04123e-10
8.80189e-10
-1.40889e-09
1.92777e-09
2.63424e-09
-1.5704e-09
-6.60585e-10
1.01818e-09
6.81624e-10
3.49936e-10
4.32136e-10
5.63686e-10
6.54881e-10
6.56558e-10
6.77018e-10
6.71067e-10
6.97204e-10
6.88608e-10
7.13001e-10
7.04935e-10
7.28957e-10
7.10275e-10
7.30074e-10
7.19326e-10
7.42801e-10
7.25429e-10
7.45738e-10
7.30247e-10
7.5472e-10
7.39051e-10
7.6238e-10
7.43021e-10
7.65256e-10
7.48487e-10
7.73995e-10
7.57893e-10
7.81397e-10
7.56541e-10
7.77188e-10
7.55864e-10
7.79772e-10
7.57154e-10
7.8039e-10
7.51124e-10
7.76003e-10
7.4825e-10
7.78798e-10
7.49866e-10
7.7994e-10
7.35984e-10
7.69815e-10
7.26271e-10
7.78255e-10
7.20429e-10
7.88756e-10
7.13179e-10
8.10633e-10
6.80119e-10
8.03461e-10
5.82701e-10
9.13543e-10
9.17757e-10
-1.51309e-09
2.0879e-09
2.81239e-09
-1.82508e-09
-8.61856e-10
1.10346e-09
7.86771e-10
3.79557e-10
4.28414e-10
5.61832e-10
6.56494e-10
6.57573e-10
6.75501e-10
6.69005e-10
6.94598e-10
6.86524e-10
7.10675e-10
7.03139e-10
7.27192e-10
7.09153e-10
7.28458e-10
7.18132e-10
7.41441e-10
7.24726e-10
7.44602e-10
7.29507e-10
7.5383e-10
7.38658e-10
7.61694e-10
7.42726e-10
7.64535e-10
7.48054e-10
7.73383e-10
7.57631e-10
7.81032e-10
7.5638e-10
7.76745e-10
7.5542e-10
7.79559e-10
7.56858e-10
7.80496e-10
7.50773e-10
7.76283e-10
7.47604e-10
7.79443e-10
7.49297e-10
7.81301e-10
7.35169e-10
7.71346e-10
7.24384e-10
7.80261e-10
7.17918e-10
7.91589e-10
7.09956e-10
8.14737e-10
6.77525e-10
8.085e-10
5.81544e-10
9.18958e-10
9.54249e-10
-1.59833e-09
2.21931e-09
2.9737e-09
-2.03467e-09
-1.05757e-09
1.16855e-09
8.8976e-10
4.14283e-10
4.2579e-10
5.58698e-10
6.57243e-10
6.58464e-10
6.73998e-10
6.66911e-10
6.91859e-10
6.84343e-10
7.08234e-10
7.01261e-10
7.25288e-10
7.07973e-10
7.2678e-10
7.16893e-10
7.39976e-10
7.23978e-10
7.43406e-10
7.28744e-10
7.52865e-10
7.38243e-10
7.60942e-10
7.42422e-10
7.63772e-10
7.47619e-10
7.72713e-10
7.5736e-10
7.80597e-10
7.56223e-10
7.76261e-10
7.54988e-10
7.79275e-10
7.56574e-10
7.80519e-10
7.50473e-10
7.76485e-10
7.47037e-10
7.79947e-10
7.48841e-10
7.82444e-10
7.34563e-10
7.72589e-10
7.2287e-10
7.8172e-10
7.16062e-10
7.93542e-10
7.07841e-10
8.17334e-10
6.76892e-10
8.11326e-10
5.83803e-10
9.20815e-10
9.88318e-10
-1.65975e-09
2.31707e-09
3.10874e-09
-2.19165e-09
-1.23891e-09
1.2108e-09
9.86777e-10
4.53725e-10
4.24792e-10
5.54268e-10
6.56906e-10
6.59131e-10
6.72513e-10
6.64799e-10
6.88996e-10
6.82066e-10
7.05685e-10
6.99309e-10
7.23253e-10
7.06734e-10
7.25045e-10
7.15613e-10
7.38412e-10
7.23184e-10
7.4215e-10
7.27962e-10
7.51828e-10
7.37806e-10
7.60126e-10
7.4211e-10
7.62967e-10
7.47189e-10
7.71983e-10
7.57083e-10
7.8009e-10
7.56077e-10
7.75729e-10
7.54582e-10
7.78909e-10
7.56316e-10
7.80441e-10
7.50246e-10
7.76583e-10
7.46582e-10
7.80274e-10
7.48543e-10
7.83317e-10
7.34229e-10
7.73469e-10
7.21823e-10
7.82542e-10
7.14953e-10
7.94492e-10
7.0701e-10
8.18306e-10
6.78318e-10
8.11924e-10
5.8931e-10
9.19477e-10
1.01886e-09
-1.69321e-09
2.37737e-09
3.20977e-09
-2.29046e-09
-1.39791e-09
1.22868e-09
1.07434e-09
4.97233e-10
4.25907e-10
5.48617e-10
6.55298e-10
6.59471e-10
6.71045e-10
6.62687e-10
6.86017e-10
6.79697e-10
7.03031e-10
6.97287e-10
7.21097e-10
7.05439e-10
7.23254e-10
7.14296e-10
7.36757e-10
7.22347e-10
7.40832e-10
7.27164e-10
7.5072e-10
7.37349e-10
7.59248e-10
7.41793e-10
7.62119e-10
7.46768e-10
7.71192e-10
7.56806e-10
7.79509e-10
7.55947e-10
7.75141e-10
7.54215e-10
7.78451e-10
7.56099e-10
7.80247e-10
7.50113e-10
7.76552e-10
7.46268e-10
7.80394e-10
7.48444e-10
7.83877e-10
7.34217e-10
7.73922e-10
7.21317e-10
7.82651e-10
7.14664e-10
7.94368e-10
7.07514e-10
8.17622e-10
6.81804e-10
8.10359e-10
5.97909e-10
9.15778e-10
1.04513e-09
-1.69568e-09
2.39743e-09
3.26961e-09
-2.32796e-09
-1.52809e-09
1.22184e-09
1.14961e-09
5.43916e-10
4.29503e-10
5.41891e-10
6.52285e-10
6.59381e-10
6.69586e-10
6.60592e-10
6.82936e-10
6.7724e-10
7.00275e-10
6.95203e-10
7.18829e-10
7.04093e-10
7.21412e-10
7.12946e-10
7.35017e-10
7.21469e-10
7.39454e-10
7.26355e-10
7.49545e-10
7.36873e-10
7.58309e-10
7.41475e-10
7.61228e-10
7.46361e-10
7.7034e-10
7.56533e-10
7.78854e-10
7.55843e-10
7.7449e-10
7.53898e-10
7.77893e-10
7.55935e-10
7.79926e-10
7.50094e-10
7.76376e-10
7.46121e-10
7.8028e-10
7.48571e-10
7.84096e-10
7.34565e-10
7.73908e-10
7.214e-10
7.82012e-10
7.15237e-10
7.93161e-10
7.09358e-10
8.15328e-10
6.87265e-10
8.06804e-10
6.09336e-10
9.09894e-10
1.06651e-09
-1.66509e-09
2.37581e-09
3.28415e-09
-2.30337e-09
-1.62415e-09
1.19106e-09
1.21067e-09
5.92692e-10
4.3576e-10
5.34265e-10
6.47777e-10
6.5876e-10
6.68123e-10
6.58525e-10
6.79763e-10
6.74701e-10
6.97425e-10
6.93057e-10
7.1646e-10
7.02699e-10
7.19522e-10
7.11564e-10
7.332e-10
7.20552e-10
7.38014e-10
7.25534e-10
7.48305e-10
7.36378e-10
7.57312e-10
7.41159e-10
7.60293e-10
7.45973e-10
7.69428e-10
7.56267e-10
7.78123e-10
7.55771e-10
7.7377e-10
7.5364e-10
7.77232e-10
7.55834e-10
7.79469e-10
7.50203e-10
7.76041e-10
7.46157e-10
7.7992e-10
7.48943e-10
7.83958e-10
7.35294e-10
7.73416e-10
7.22089e-10
7.80635e-10
7.16668e-10
7.90919e-10
7.12476e-10
8.11549e-10
6.94525e-10
8.0158e-10
6.2331e-10
9.01782e-10
1.08317e-09
-1.60053e-09
2.31223e-09
3.25172e-09
-2.21811e-09
-1.68405e-09
1.1381e-09
1.25671e-09
6.42508e-10
4.44702e-10
5.259e-10
6.4171e-10
6.5751e-10
6.6663e-10
6.56489e-10
6.76506e-10
6.72079e-10
6.94483e-10
6.90847e-10
7.13996e-10
7.01263e-10
7.17589e-10
7.10147e-10
7.31309e-10
7.196e-10
7.36515e-10
7.24702e-10
7.47003e-10
7.35863e-10
7.56258e-10
7.40849e-10
7.59317e-10
7.45606e-10
7.68459e-10
7.56008e-10
7.77315e-10
7.5574e-10
7.72978e-10
7.53447e-10
7.76466e-10
7.55803e-10
7.78872e-10
7.50451e-10
7.75544e-10
7.46386e-10
7.79311e-10
7.49562e-10
7.83464e-10
7.36412e-10
7.72457e-10
7.2337e-10
7.78569e-10
7.18914e-10
7.8775e-10
7.16753e-10
8.06468e-10
7.03346e-10
7.94993e-10
6.39745e-10
8.90939e-10
1.09575e-09
-1.50177e-09
2.20721e-09
3.1726e-09
-2.07463e-09
-1.70763e-09
1.065e-09
1.28764e-09
6.92473e-10
4.56299e-10
5.16963e-10
6.34033e-10
6.55529e-10
6.65077e-10
6.54486e-10
6.73164e-10
6.69373e-10
6.91445e-10
6.88569e-10
7.11437e-10
6.99789e-10
7.15614e-10
7.08696e-10
7.29344e-10
7.18619e-10
7.34953e-10
7.23858e-10
7.45639e-10
7.35329e-10
7.55145e-10
7.40548e-10
7.58297e-10
7.45263e-10
7.67432e-10
7.55758e-10
7.7643e-10
7.5576e-10
7.72111e-10
7.53321e-10
7.7559e-10
7.55844e-10
7.78129e-10
7.50845e-10
7.74881e-10
7.46809e-10
7.78455e-10
7.50423e-10
7.82621e-10
7.3791e-10
7.71058e-10
7.25199e-10
7.75878e-10
7.21896e-10
7.83781e-10
7.22036e-10
8.00384e-10
7.1349e-10
7.87202e-10
6.58852e-10
8.76301e-10
1.10482e-09
-1.36876e-09
2.06148e-09
1.23376e-09
1.08488e-09
4.71583e-10
6.40337e-11
1.08686e-10
2.72252e-10
4.51185e-10
5.46772e-10
6.31622e-10
6.52169e-10
6.92158e-10
6.8896e-10
7.16264e-10
7.05045e-10
7.30158e-10
7.17826e-10
7.38426e-10
7.19537e-10
7.4297e-10
7.28456e-10
7.50582e-10
7.31344e-10
7.54123e-10
7.36223e-10
7.59919e-10
7.42268e-10
7.65737e-10
7.45896e-10
7.70256e-10
7.52007e-10
7.77246e-10
7.59299e-10
7.81241e-10
7.57849e-10
7.79931e-10
7.58486e-10
7.79458e-10
7.5836e-10
7.77054e-10
7.53876e-10
7.72713e-10
7.53117e-10
7.71097e-10
7.53114e-10
7.63819e-10
7.42964e-10
7.53774e-10
7.4334e-10
7.51256e-10
7.47095e-10
7.49713e-10
7.56775e-10
7.40516e-10
7.47667e-10
6.96383e-10
7.2028e-10
6.33729e-10
5.12098e-10
-2.20505e-10
4.75421e-10
1.26307e-09
1.10025e-09
4.64438e-10
5.7669e-11
1.05982e-10
2.71842e-10
4.51024e-10
5.46734e-10
6.31326e-10
6.51962e-10
6.91794e-10
6.88795e-10
7.15953e-10
7.04929e-10
7.29914e-10
7.17781e-10
7.3822e-10
7.19483e-10
7.42773e-10
7.28477e-10
7.50411e-10
7.31353e-10
7.53963e-10
7.36271e-10
7.59774e-10
7.42327e-10
7.65593e-10
7.45955e-10
7.70112e-10
7.52095e-10
7.7712e-10
7.59413e-10
7.81114e-10
7.57936e-10
7.79806e-10
7.58623e-10
7.79343e-10
7.58507e-10
7.76953e-10
7.54011e-10
7.72618e-10
7.53283e-10
7.71037e-10
7.53311e-10
7.63762e-10
7.43125e-10
7.53747e-10
7.43555e-10
7.51297e-10
7.47313e-10
7.49865e-10
7.57049e-10
7.40873e-10
7.47863e-10
6.96984e-10
7.20729e-10
6.38168e-10
5.18149e-10
-2.407e-10
4.58975e-10
1.29982e-09
1.11405e-09
4.55684e-10
5.06965e-11
1.02465e-10
2.711e-10
4.50956e-10
5.46626e-10
6.3117e-10
6.51617e-10
6.9145e-10
6.88447e-10
7.15681e-10
7.04625e-10
7.29703e-10
7.17581e-10
7.38125e-10
7.19267e-10
7.4263e-10
7.28351e-10
7.50344e-10
7.31213e-10
7.53892e-10
7.36178e-10
7.59735e-10
7.42245e-10
7.65574e-10
7.45875e-10
7.70083e-10
7.52052e-10
7.77113e-10
7.59402e-10
7.81144e-10
7.57891e-10
7.79807e-10
7.58643e-10
7.79362e-10
7.58543e-10
7.77006e-10
7.54028e-10
7.7266e-10
7.53345e-10
7.71114e-10
7.53436e-10
7.63895e-10
7.43224e-10
7.53856e-10
7.43727e-10
7.51509e-10
7.47501e-10
7.50126e-10
7.573e-10
7.41412e-10
7.48145e-10
6.97728e-10
7.20538e-10
6.43278e-10
5.32287e-10
-2.71116e-10
4.40174e-10
1.34139e-09
1.1217e-09
4.46663e-10
4.47756e-11
9.78763e-11
2.70029e-10
4.51004e-10
5.4668e-10
6.31179e-10
6.51275e-10
6.91052e-10
6.88002e-10
7.15354e-10
7.04234e-10
7.2943e-10
7.17318e-10
7.3805e-10
7.18983e-10
7.42438e-10
7.28168e-10
7.50291e-10
7.3102e-10
7.5381e-10
7.3604e-10
7.5971e-10
7.42126e-10
7.65588e-10
7.45757e-10
7.70068e-10
7.51974e-10
7.77133e-10
7.59372e-10
7.8124e-10
7.57812e-10
7.79829e-10
7.58637e-10
7.79426e-10
7.58558e-10
7.77129e-10
7.54009e-10
7.72754e-10
7.53369e-10
7.71272e-10
7.53553e-10
7.64181e-10
7.43295e-10
7.5407e-10
7.43851e-10
7.51911e-10
7.476e-10
7.50607e-10
7.57405e-10
7.42383e-10
7.48125e-10
6.99022e-10
7.19134e-10
6.51185e-10
5.52189e-10
-3.09643e-10
4.23344e-10
1.38214e-09
1.11444e-09
4.38826e-10
4.41957e-11
9.3539e-11
2.68746e-10
4.51196e-10
5.46996e-10
6.31381e-10
6.50957e-10
6.90536e-10
6.87439e-10
7.14906e-10
7.03734e-10
7.29036e-10
7.16992e-10
7.37946e-10
7.18638e-10
7.42146e-10
7.27938e-10
7.5021e-10
7.30797e-10
7.53673e-10
7.35874e-10
7.59662e-10
7.41994e-10
7.65599e-10
7.45627e-10
7.70025e-10
7.51882e-10
7.7714e-10
7.59346e-10
7.81367e-10
7.57729e-10
7.79832e-10
7.58623e-10
7.79503e-10
7.58574e-10
7.77292e-10
7.53976e-10
7.72871e-10
7.53368e-10
7.7149e-10
7.5367e-10
7.64613e-10
7.43335e-10
7.54382e-10
7.43887e-10
7.52522e-10
7.47536e-10
7.5135e-10
7.57224e-10
7.43912e-10
7.47549e-10
7.01165e-10
7.16052e-10
6.62472e-10
5.75294e-10
-3.54057e-10
4.16298e-10
1.41987e-09
1.08136e-09
4.31461e-10
5.33965e-11
9.14191e-11
2.67418e-10
4.51539e-10
5.47646e-10
6.31831e-10
6.50688e-10
6.89885e-10
6.8673e-10
7.14306e-10
7.03103e-10
7.28492e-10
7.16569e-10
7.37787e-10
7.18225e-10
7.41736e-10
7.27643e-10
7.50087e-10
7.30539e-10
7.53465e-10
7.35672e-10
7.5958e-10
7.41847e-10
7.65595e-10
7.45485e-10
7.69941e-10
7.51771e-10
7.77125e-10
7.59319e-10
7.81515e-10
7.57641e-10
7.79802e-10
7.58593e-10
7.79588e-10
7.58587e-10
7.7749e-10
7.53924e-10
7.73008e-10
7.53329e-10
7.7177e-10
7.53772e-10
7.65196e-10
7.43322e-10
7.54807e-10
7.43779e-10
7.53369e-10
7.47231e-10
7.52426e-10
7.56614e-10
7.4612e-10
7.46172e-10
7.04461e-10
7.10868e-10
6.77496e-10
5.99494e-10
-4.04039e-10
4.28475e-10
1.45647e-09
1.01261e-09
4.21465e-10
7.61491e-11
9.36566e-11
2.66248e-10
4.51995e-10
5.48692e-10
6.32591e-10
6.50504e-10
6.89109e-10
6.85869e-10
7.13539e-10
7.02333e-10
7.27786e-10
7.16032e-10
7.37552e-10
7.17742e-10
7.412e-10
7.27268e-10
7.49905e-10
7.30244e-10
7.5318e-10
7.35424e-10
7.59458e-10
7.41679e-10
7.65566e-10
7.45329e-10
7.6981e-10
7.51632e-10
7.77081e-10
7.59282e-10
7.81672e-10
7.57551e-10
7.79736e-10
7.58538e-10
7.79676e-10
7.58588e-10
7.77717e-10
7.53849e-10
7.73164e-10
7.53238e-10
7.72117e-10
7.53834e-10
7.65934e-10
7.43233e-10
7.55366e-10
7.43471e-10
7.54482e-10
7.46609e-10
7.53905e-10
7.55436e-10
7.49129e-10
7.43763e-10
7.09196e-10
7.03287e-10
6.96427e-10
6.2349e-10
-4.61213e-10
4.67891e-10
1.49655e-09
9.0089e-10
4.0426e-10
1.15293e-10
1.02495e-10
2.65471e-10
4.52456e-10
5.50161e-10
6.33706e-10
6.50441e-10
6.88217e-10
6.84861e-10
7.126e-10
7.01425e-10
7.26914e-10
7.15374e-10
7.37223e-10
7.1719e-10
7.40534e-10
7.26806e-10
7.49649e-10
7.29911e-10
7.52809e-10
7.35126e-10
7.59286e-10
7.4149e-10
7.65502e-10
7.45157e-10
7.69624e-10
7.51463e-10
7.77002e-10
7.59232e-10
7.81823e-10
7.57459e-10
7.79628e-10
7.58449e-10
7.79761e-10
7.58571e-10
7.77966e-10
7.53746e-10
7.73342e-10
7.53085e-10
7.72535e-10
7.53838e-10
7.66831e-10
7.43045e-10
7.56088e-10
7.42909e-10
7.55892e-10
7.45594e-10
7.55855e-10
7.5357e-10
7.53046e-10
7.40157e-10
7.15571e-10
6.93231e-10
7.19013e-10
6.46876e-10
-5.279e-10
5.39666e-10
1.54669e-09
7.42204e-10
3.74208e-10
1.72374e-10
1.20189e-10
2.65406e-10
4.52766e-10
5.52041e-10
6.35203e-10
6.50526e-10
6.87223e-10
6.83713e-10
7.11488e-10
7.00383e-10
7.25876e-10
7.14589e-10
7.36783e-10
7.16575e-10
7.3974e-10
7.26253e-10
7.49305e-10
7.29542e-10
7.5235e-10
7.34775e-10
7.59057e-10
7.41281e-10
7.6539e-10
7.44972e-10
7.69377e-10
7.5126e-10
7.76879e-10
7.59164e-10
7.81954e-10
7.57366e-10
7.79476e-10
7.58322e-10
7.79839e-10
7.58531e-10
7.78231e-10
7.53608e-10
7.73546e-10
7.52858e-10
7.7303e-10
7.53761e-10
7.67887e-10
7.42734e-10
7.56998e-10
7.42052e-10
7.57623e-10
7.44131e-10
7.58326e-10
7.50924e-10
7.57921e-10
7.35297e-10
7.23629e-10
6.80901e-10
7.44641e-10
6.69916e-10
-6.06638e-10
6.4575e-10
1.61286e-09
5.36341e-10
3.26055e-10
2.47561e-10
1.48654e-10
2.6642e-10
4.52738e-10
5.54274e-10
6.37088e-10
6.50777e-10
6.86137e-10
6.82435e-10
7.10202e-10
6.99216e-10
7.24678e-10
7.13677e-10
7.36217e-10
7.15902e-10
7.38825e-10
7.2561e-10
7.4886e-10
7.29139e-10
7.51801e-10
7.34372e-10
7.58765e-10
7.41052e-10
7.65224e-10
7.44774e-10
7.69068e-10
7.51025e-10
7.7671e-10
7.59077e-10
7.82053e-10
7.57269e-10
7.79282e-10
7.58149e-10
7.79905e-10
7.58463e-10
7.78508e-10
7.5343e-10
7.7378e-10
7.52548e-10
7.73604e-10
7.53588e-10
7.69097e-10
7.42281e-10
7.58116e-10
7.40872e-10
7.59681e-10
7.42191e-10
7.61336e-10
7.4749e-10
7.63725e-10
7.29249e-10
7.33231e-10
6.66774e-10
7.722e-10
6.93431e-10
-6.98582e-10
7.84702e-10
1.69966e-09
2.87041e-10
2.55477e-10
3.39461e-10
1.89326e-10
2.68658e-10
4.52149e-10
5.56739e-10
6.39339e-10
6.51199e-10
6.84965e-10
6.81032e-10
7.08743e-10
6.97927e-10
7.23323e-10
7.12641e-10
7.35515e-10
7.15173e-10
7.37795e-10
7.24881e-10
7.48307e-10
7.28702e-10
7.51166e-10
7.33916e-10
7.58404e-10
7.40804e-10
7.64996e-10
7.44563e-10
7.68697e-10
7.50755e-10
7.7649e-10
7.58968e-10
7.8211e-10
7.57169e-10
7.79049e-10
7.57929e-10
7.79956e-10
7.58361e-10
7.78792e-10
7.53207e-10
7.74048e-10
7.52149e-10
7.74257e-10
7.53308e-10
7.70454e-10
7.41674e-10
7.59446e-10
7.39366e-10
7.6205e-10
7.39777e-10
7.64858e-10
7.43323e-10
7.70335e-10
7.22215e-10
7.44057e-10
6.51566e-10
8.00352e-10
7.18469e-10
-8.03354e-10
9.51587e-10
1.80894e-09
1.52159e-12
1.59899e-10
4.45248e-10
2.42993e-10
2.73243e-10
4.50765e-10
5.59245e-10
6.41902e-10
6.51787e-10
6.83711e-10
6.79509e-10
7.0711e-10
6.96518e-10
7.21816e-10
7.11483e-10
7.34668e-10
7.14391e-10
7.36659e-10
7.24068e-10
7.47638e-10
7.28231e-10
7.50447e-10
7.3341e-10
7.57971e-10
7.40537e-10
7.64704e-10
7.44338e-10
7.68267e-10
7.50454e-10
7.76218e-10
7.58837e-10
7.82118e-10
7.57061e-10
7.78782e-10
7.57659e-10
7.79988e-10
7.5822e-10
7.79079e-10
7.52937e-10
7.74352e-10
7.51663e-10
7.74982e-10
7.52917e-10
7.71939e-10
7.4092e-10
7.60976e-10
7.37555e-10
7.64685e-10
7.36943e-10
7.68811e-10
7.38548e-10
7.77544e-10
7.14516e-10
7.5565e-10
6.36128e-10
8.27644e-10
7.45821e-10
-9.18475e-10
1.13925e-09
1.9416e-09
-3.10389e-10
3.81311e-11
5.6085e-10
3.09779e-10
2.80575e-10
4.48492e-10
5.61583e-10
6.44698e-10
6.5253e-10
6.82383e-10
6.77872e-10
7.05305e-10
6.94993e-10
7.2016e-10
7.10207e-10
7.33669e-10
7.13554e-10
7.35424e-10
7.23178e-10
7.46852e-10
7.27725e-10
7.49648e-10
7.32855e-10
7.57464e-10
7.4025e-10
7.64345e-10
7.44099e-10
7.67781e-10
7.50121e-10
7.75893e-10
7.58683e-10
7.82074e-10
7.56944e-10
7.78485e-10
7.57341e-10
7.79996e-10
7.58041e-10
7.79364e-10
7.52622e-10
7.74688e-10
7.51095e-10
7.75767e-10
7.52425e-10
7.73525e-10
7.40037e-10
7.62675e-10
7.35481e-10
7.67513e-10
7.3378e-10
7.73062e-10
7.33356e-10
7.85073e-10
7.06563e-10
7.67455e-10
6.21369e-10
8.52887e-10
7.75941e-10
-1.04125e-09
1.34248e-09
2.09618e-09
-6.37285e-10
-1.0879e-10
6.81428e-10
3.89018e-10
2.91356e-10
4.45369e-10
5.63527e-10
6.47619e-10
6.53413e-10
6.80992e-10
6.76129e-10
7.03332e-10
6.93354e-10
7.18362e-10
7.08817e-10
7.32515e-10
7.12663e-10
7.341e-10
7.22214e-10
7.45945e-10
7.27181e-10
7.48774e-10
7.32255e-10
7.5688e-10
7.39942e-10
7.63919e-10
7.43846e-10
7.67242e-10
7.49761e-10
7.75514e-10
7.58505e-10
7.81972e-10
7.56816e-10
7.7816e-10
7.56979e-10
7.79977e-10
7.57823e-10
7.79639e-10
7.52268e-10
7.75047e-10
7.50461e-10
7.7659e-10
7.51849e-10
7.75171e-10
7.39059e-10
7.64506e-10
7.33221e-10
7.70438e-10
7.30416e-10
7.77442e-10
7.27991e-10
7.92588e-10
6.98823e-10
7.78866e-10
6.08199e-10
8.74931e-10
8.09018e-10
-1.16809e-09
1.54649e-09
2.26852e-09
-9.66132e-10
-2.78065e-10
8.01371e-10
4.79046e-10
3.06197e-10
4.41535e-10
5.6483e-10
6.50513e-10
6.54407e-10
6.7955e-10
6.74291e-10
7.01195e-10
6.91604e-10
7.16428e-10
7.07318e-10
7.31205e-10
7.11715e-10
7.32693e-10
7.21183e-10
7.44917e-10
7.26597e-10
7.47829e-10
7.31613e-10
7.56219e-10
7.39614e-10
7.63425e-10
7.43579e-10
7.66654e-10
7.49376e-10
7.75081e-10
7.58305e-10
7.8181e-10
7.56678e-10
7.7781e-10
7.5658e-10
7.79923e-10
7.57573e-10
7.79893e-10
7.51887e-10
7.75417e-10
7.49779e-10
7.77423e-10
7.51217e-10
7.76833e-10
7.38026e-10
7.66377e-10
7.30875e-10
7.73342e-10
7.27007e-10
7.81747e-10
7.22733e-10
7.99731e-10
6.91767e-10
7.89301e-10
5.97388e-10
8.93016e-10
8.44677e-10
-1.29378e-09
1.74454e-09
2.45141e-09
-1.28108e-09
-4.64861e-10
9.14905e-10
5.77289e-10
3.25577e-10
4.37248e-10
5.65247e-10
6.53193e-10
6.55469e-10
6.78071e-10
6.72366e-10
6.98898e-10
6.89745e-10
7.14361e-10
7.05718e-10
7.2974e-10
7.10709e-10
7.31209e-10
7.20092e-10
7.43772e-10
7.25971e-10
7.46817e-10
7.30934e-10
7.55481e-10
7.39263e-10
7.62862e-10
7.43297e-10
7.66018e-10
7.48971e-10
7.74591e-10
7.58085e-10
7.81585e-10
7.5653e-10
7.77433e-10
7.56154e-10
7.79826e-10
7.57296e-10
7.80112e-10