/*--------------------------------*- C++ -*----------------------------------*\
| =========                 |                                                 |
| \\      /  F ield         | OpenFOAM: The Open Source CFD Toolbox           |
|  \\    /   O peration     | Version:  2312                                  |
|   \\  /    A nd           | Website:  www.openfoam.com                      |
|    \\/     M anipulation  |                                                 |
\*---------------------------------------------------------------------------*/
FoamFile
{
    version     2.0;
    format      ascii;
    arch        "LSB;label=32;scalar=64";
    class       volScalarField;
    location    "400";
    object      pPrime2Mean;
}
// * * * * * * * * * * * * * * * * * * * * * * * * * * * * * * * * * * * * * //

dimensions      [0 4 -4 0 0 0 0];

internalField   nonuniform List<scalar> 
144000
(
1.1598e-17
1.01179e-17
1.36357e-17
1.52524e-17
1.12764e-17
7.43859e-18
5.85975e-18
5.15972e-18
4.73022e-18
4.39825e-18
4.15525e-18
3.78069e-18
3.50348e-18
3.23045e-18
3.06246e-18
2.88567e-18
2.82257e-18
2.65248e-18
2.59041e-18
2.47348e-18
2.4196e-18
2.28858e-18
2.26321e-18
2.15455e-18
2.16064e-18
2.04765e-18
2.06906e-18
1.96981e-18
1.95998e-18
1.89707e-18
1.87973e-18
1.82598e-18
1.82259e-18
1.74064e-18
1.77256e-18
1.68538e-18
1.69572e-18
1.66564e-18
1.62147e-18
1.60919e-18
1.6182e-18
1.51659e-18
1.61636e-18
1.51084e-18
1.51396e-18
1.56617e-18
1.43274e-18
1.49739e-18
1.59353e-18
1.28918e-18
1.72832e-18
1.48756e-18
1.3921e-18
2.12591e-18
1.46313e-18
1.86466e-18
3.6757e-18
2.15216e-18
5.26718e-18
1.21552e-17
1.21992e-17
1.02992e-17
1.39733e-17
1.55089e-17
1.13876e-17
7.49e-18
5.89088e-18
5.18088e-18
4.74325e-18
4.40783e-18
4.16289e-18
3.78609e-18
3.50669e-18
3.23327e-18
3.06428e-18
2.88722e-18
2.82438e-18
2.65387e-18
2.59127e-18
2.4748e-18
2.42041e-18
2.28945e-18
2.26362e-18
2.15538e-18
2.16128e-18
2.04816e-18
2.0696e-18
1.97069e-18
1.95996e-18
1.89807e-18
1.87985e-18
1.82662e-18
1.82328e-18
1.74068e-18
1.77339e-18
1.68604e-18
1.69555e-18
1.66734e-18
1.62129e-18
1.6099e-18
1.61996e-18
1.51614e-18
1.61826e-18
1.51277e-18
1.51341e-18
1.57063e-18
1.43364e-18
1.49864e-18
1.60209e-18
1.28802e-18
1.7374e-18
1.50034e-18
1.39291e-18
2.15388e-18
1.48743e-18
1.87995e-18
3.76482e-18
2.24344e-18
5.48898e-18
1.22781e-17
1.26206e-17
1.04472e-17
1.40111e-17
1.56182e-17
1.13668e-17
7.46534e-18
5.88596e-18
5.18478e-18
4.74816e-18
4.41348e-18
4.16885e-18
3.79035e-18
3.50946e-18
3.23555e-18
3.06601e-18
2.88837e-18
2.82695e-18
2.65519e-18
2.59243e-18
2.47627e-18
2.4217e-18
2.29018e-18
2.26444e-18
2.156e-18
2.16259e-18
2.04837e-18
2.0708e-18
1.97158e-18
1.96019e-18
1.89924e-18
1.88022e-18
1.82727e-18
1.82462e-18
1.74044e-18
1.77497e-18
1.68676e-18
1.6956e-18
1.66975e-18
1.62136e-18
1.61076e-18
1.62311e-18
1.5151e-18
1.62177e-18
1.51541e-18
1.51324e-18
1.57739e-18
1.43547e-18
1.50067e-18
1.61497e-18
1.28739e-18
1.7494e-18
1.52036e-18
1.39403e-18
2.18781e-18
1.52495e-18
1.88349e-18
3.84289e-18
2.35045e-18
5.65189e-18
1.24484e-17
1.25425e-17
1.01672e-17
1.35469e-17
1.53296e-17
1.11191e-17
7.30876e-18
5.80923e-18
5.14811e-18
4.73037e-18
4.40455e-18
4.16469e-18
3.7877e-18
3.50758e-18
3.23457e-18
3.06528e-18
2.88774e-18
2.82856e-18
2.65561e-18
2.59286e-18
2.47732e-18
2.42263e-18
2.29062e-18
2.26498e-18
2.15639e-18
2.16388e-18
2.04841e-18
2.07213e-18
1.97247e-18
1.96026e-18
1.90061e-18
1.88052e-18
1.82799e-18
1.82629e-18
1.74007e-18
1.77685e-18
1.68762e-18
1.6956e-18
1.67274e-18
1.62153e-18
1.61171e-18
1.62718e-18
1.51367e-18
1.62625e-18
1.51866e-18
1.5132e-18
1.58549e-18
1.438e-18
1.50281e-18
1.62981e-18
1.28809e-18
1.75928e-18
1.5461e-18
1.39121e-18
2.21436e-18
1.5718e-18
1.84808e-18
3.88875e-18
2.4157e-18
5.52243e-18
1.23337e-17
1.19726e-17
9.40844e-18
1.26345e-17
1.46063e-17
1.06479e-17
7.02666e-18
5.66238e-18
5.06965e-18
4.6849e-18
4.37498e-18
4.14494e-18
3.77407e-18
3.49793e-18
3.22789e-18
3.0602e-18
2.88391e-18
2.82771e-18
2.65402e-18
2.59159e-18
2.47718e-18
2.4225e-18
2.29039e-18
2.26471e-18
2.15624e-18
2.16471e-18
2.0481e-18
2.07322e-18
1.9732e-18
1.95998e-18
1.90196e-18
1.88059e-18
1.82864e-18
1.82807e-18
1.73958e-18
1.77871e-18
1.68859e-18
1.69543e-18
1.67607e-18
1.62177e-18
1.6126e-18
1.63168e-18
1.51207e-18
1.63103e-18
1.52233e-18
1.51316e-18
1.59396e-18
1.44101e-18
1.50439e-18
1.64488e-18
1.28967e-18
1.76498e-18
1.57414e-18
1.38383e-18
2.22859e-18
1.62248e-18
1.77367e-18
3.91293e-18
2.4269e-18
5.15161e-18
1.19346e-17
1.11763e-17
8.50764e-18
1.15244e-17
1.36794e-17
1.00785e-17
6.68219e-18
5.47157e-18
4.96245e-18
4.6176e-18
4.32718e-18
4.10963e-18
3.74901e-18
3.4796e-18
3.21459e-18
3.05002e-18
2.87612e-18
2.82351e-18
2.64977e-18
2.58803e-18
2.47521e-18
2.42076e-18
2.28916e-18
2.2633e-18
2.1552e-18
2.16478e-18
2.04721e-18
2.0738e-18
1.97352e-18
1.95923e-18
1.90306e-18
1.88032e-18
1.82908e-18
1.82976e-18
1.73897e-18
1.78028e-18
1.6896e-18
1.69499e-18
1.67948e-18
1.62206e-18
1.61329e-18
1.63622e-18
1.51035e-18
1.63562e-18
1.52619e-18
1.51287e-18
1.60219e-18
1.44403e-18
1.50509e-18
1.65887e-18
1.29126e-18
1.76697e-18
1.60026e-18
1.3743e-18
2.23027e-18
1.67192e-18
1.67894e-18
3.92398e-18
2.4019e-18
4.74051e-18
1.15122e-17
1.03881e-17
7.82105e-18
1.04469e-17
1.27293e-17
9.49141e-18
6.3187e-18
5.26094e-18
4.83781e-18
4.53504e-18
4.26543e-18
4.06218e-18
3.71409e-18
3.45349e-18
3.19513e-18
3.03494e-18
2.86443e-18
2.81574e-18
2.64265e-18
2.582e-18
2.47113e-18
2.41711e-18
2.28669e-18
2.26051e-18
2.15309e-18
2.16385e-18
2.04563e-18
2.07361e-18
1.97328e-18
1.95789e-18
1.90374e-18
1.8796e-18
1.82917e-18
1.83114e-18
1.73822e-18
1.78134e-18
1.69055e-18
1.69421e-18
1.68271e-18
1.62231e-18
1.61367e-18
1.64047e-18
1.50862e-18
1.63962e-18
1.52999e-18
1.51226e-18
1.6096e-18
1.44675e-18
1.50487e-18
1.671e-18
1.29245e-18
1.76632e-18
1.62187e-18
1.36545e-18
2.22107e-18
1.7163e-18
1.58169e-18
3.91979e-18
2.34706e-18
4.42485e-18
1.12604e-17
9.69403e-18
7.5264e-18
9.48303e-18
1.18453e-17
8.92122e-18
5.95773e-18
5.04027e-18
4.70197e-18
4.44211e-18
4.19437e-18
4.00584e-18
3.67186e-18
3.42121e-18
3.17048e-18
3.01551e-18
2.8492e-18
2.80466e-18
2.63296e-18
2.57367e-18
2.46498e-18
2.41154e-18
2.28294e-18
2.25632e-18
2.14984e-18
2.16186e-18
2.04334e-18
2.07252e-18
1.97241e-18
1.95587e-18
1.90388e-18
1.87835e-18
1.82887e-18
1.83206e-18
1.73731e-18
1.78178e-18
1.69133e-18
1.6931e-18
1.68556e-18
1.62247e-18
1.61368e-18
1.64416e-18
1.50693e-18
1.64281e-18
1.53349e-18
1.51139e-18
1.61588e-18
1.44904e-18
1.5039e-18
1.68088e-18
1.29316e-18
1.76404e-18
1.63795e-18
1.35871e-18
2.20343e-18
1.7545e-18
1.48913e-18
3.89799e-18
2.26992e-18
4.23643e-18
1.1244e-17
9.13449e-18
7.67283e-18
8.64596e-18
1.10656e-17
8.37758e-18
5.60644e-18
4.81496e-18
4.5586e-18
4.34198e-18
4.1166e-18
3.94318e-18
3.62431e-18
3.38432e-18
3.14176e-18
2.99239e-18
2.8309e-18
2.79063e-18
2.62105e-18
2.56337e-18
2.45701e-18
2.40424e-18
2.278e-18
2.25085e-18
2.1455e-18
2.15879e-18
2.04042e-18
2.07047e-18
1.97094e-18
1.95321e-18
1.90346e-18
1.87656e-18
1.82815e-18
1.83242e-18
1.73629e-18
1.78156e-18
1.69189e-18
1.69168e-18
1.6879e-18
1.62251e-18
1.61335e-18
1.64713e-18
1.50537e-18
1.64516e-18
1.53653e-18
1.51042e-18
1.62095e-18
1.45089e-18
1.50249e-18
1.6886e-18
1.29348e-18
1.76098e-18
1.64883e-18
1.3545e-18
2.1803e-18
1.78651e-18
1.40523e-18
3.86156e-18
2.18473e-18
4.17088e-18
1.14339e-17
8.7354e-18
8.19587e-18
7.9322e-18
1.03948e-17
7.86911e-18
5.26915e-18
4.58899e-18
4.41054e-18
4.23709e-18
4.03426e-18
3.876e-18
3.57312e-18
3.34418e-18
3.10993e-18
2.96633e-18
2.81008e-18
2.77403e-18
2.60736e-18
2.55148e-18
2.44753e-18
2.39551e-18
2.27203e-18
2.2443e-18
2.1402e-18
2.15471e-18
2.03703e-18
2.06749e-18
1.96895e-18
1.95e-18
1.90249e-18
1.87429e-18
1.82707e-18
1.83221e-18
1.73518e-18
1.78071e-18
1.69218e-18
1.69003e-18
1.68971e-18
1.62245e-18
1.61277e-18
1.64938e-18
1.50401e-18
1.64678e-18
1.53912e-18
1.50945e-18
1.62496e-18
1.45239e-18
1.50082e-18
1.69455e-18
1.2935e-18
1.75759e-18
1.65554e-18
1.35243e-18
2.15372e-18
1.81246e-18
1.33292e-18
3.80949e-18
2.10597e-18
4.2024e-18
1.17274e-17
8.50059e-18
8.92432e-18
7.33804e-18
9.82449e-18
7.4021e-18
4.94977e-18
4.36624e-18
4.26027e-18
4.12957e-18
3.94902e-18
3.80564e-18
3.51933e-18
3.30187e-18
3.07604e-18
2.93817e-18
2.78731e-18
2.75527e-18
2.59218e-18
2.53832e-18
2.43687e-18
2.3857e-18
2.26524e-18
2.23687e-18
2.13413e-18
2.14969e-18
2.03332e-18
2.06368e-18
1.96654e-18
1.94635e-18
1.90105e-18
1.87161e-18
1.82568e-18
1.83144e-18
1.73403e-18
1.77933e-18
1.69225e-18
1.68821e-18
1.69103e-18
1.62232e-18
1.61199e-18
1.65098e-18
1.5029e-18
1.64777e-18
1.54134e-18
1.50851e-18
1.62812e-18
1.45372e-18
1.49883e-18
1.69919e-18
1.29335e-18
1.75361e-18
1.65926e-18
1.35158e-18
2.12462e-18
1.83234e-18
1.27145e-18
3.73828e-18
2.04084e-18
4.28605e-18
1.19809e-17
8.39545e-18
9.60094e-18
6.85419e-18
9.31838e-18
6.982e-18
4.65186e-18
4.15044e-18
4.11015e-18
4.02147e-18
3.86236e-18
3.73309e-18
3.46376e-18
3.25827e-18
3.04099e-18
2.90873e-18
2.76321e-18
2.73475e-18
2.57581e-18
2.52413e-18
2.42531e-18
2.37511e-18
2.25787e-18
2.22881e-18
2.12751e-18
2.14381e-18
2.0294e-18
2.05912e-18
1.9638e-18
1.94242e-18
1.89923e-18
1.86861e-18
1.82404e-18
1.83019e-18
1.73286e-18
1.7775e-18
1.69212e-18
1.68631e-18
1.69189e-18
1.62216e-18
1.61104e-18
1.65202e-18
1.50206e-18
1.64812e-18
1.54334e-18
1.50749e-18
1.63044e-18
1.45503e-18
1.49623e-18
1.70263e-18
1.29313e-18
1.74823e-18
1.6609e-18
1.35072e-18
2.0929e-18
1.84557e-18
1.2192e-18
3.64361e-18
1.99253e-18
4.35784e-18
1.20399e-17
8.36178e-18
1.00009e-17
6.46072e-18
8.83621e-18
6.61052e-18
4.37815e-18
3.94484e-18
3.96222e-18
3.91445e-18
3.77572e-18
3.65935e-18
3.4071e-18
3.21402e-18
3.00547e-18
2.87872e-18
2.73843e-18
2.71295e-18
2.55859e-18
2.50914e-18
2.41301e-18
2.364e-18
2.25012e-18
2.22033e-18
2.12059e-18
2.13719e-18
2.02538e-18
2.05395e-18
1.96077e-18
1.93831e-18
1.89713e-18
1.8654e-18
1.82223e-18
1.82851e-18
1.73172e-18
1.77527e-18
1.69184e-18
1.68433e-18
1.69232e-18
1.622e-18
1.6099e-18
1.65252e-18
1.50151e-18
1.64773e-18
1.54517e-18
1.50628e-18
1.63178e-18
1.4564e-18
1.49276e-18
1.70463e-18
1.29301e-18
1.74043e-18
1.66076e-18
1.34881e-18
2.05823e-18
1.85102e-18
1.17509e-18
3.52344e-18
1.9601e-18
4.3589e-18
1.17942e-17
8.3213e-18
9.98904e-18
6.12464e-18
8.34323e-18
6.28361e-18
4.13061e-18
3.75219e-18
3.8183e-18
3.80988e-18
3.69049e-18
3.58543e-18
3.35001e-18
3.16961e-18
2.96999e-18
2.84872e-18
2.71355e-18
2.69038e-18
2.54081e-18
2.4936e-18
2.40014e-18
2.35255e-18
2.24217e-18
2.2116e-18
2.11358e-18
2.13e-18
2.02136e-18
2.04825e-18
1.9575e-18
1.93411e-18
1.89482e-18
1.86204e-18
1.8203e-18
1.82648e-18
1.73062e-18
1.77268e-18
1.69142e-18
1.68231e-18
1.69231e-18
1.62186e-18
1.60854e-18
1.65244e-18
1.50128e-18
1.64647e-18
1.54681e-18
1.5048e-18
1.63195e-18
1.45779e-18
1.48825e-18
1.70479e-18
1.29313e-18
1.72951e-18
1.65888e-18
1.34523e-18
2.02054e-18
1.84799e-18
1.13876e-18
3.38051e-18
1.94011e-18
4.25662e-18
1.12135e-17
8.21002e-18
9.53317e-18
5.80908e-18
7.81993e-18
5.99466e-18
3.91046e-18
3.57453e-18
3.67977e-18
3.7088e-18
3.60777e-18
3.51234e-18
3.29315e-18
3.12545e-18
2.9349e-18
2.81914e-18
2.68904e-18
2.66745e-18
2.52277e-18
2.47771e-18
2.38684e-18
2.34087e-18
2.23415e-18
2.20277e-18
2.10665e-18
2.12238e-18
2.01739e-18
2.04216e-18
1.954e-18
1.92991e-18
1.89233e-18
1.85858e-18
1.81831e-18
1.82416e-18
1.72958e-18
1.76976e-18
1.69087e-18
1.68025e-18
1.69183e-18
1.62174e-18
1.60701e-18
1.65173e-18
1.50138e-18
1.64428e-18
1.54817e-18
1.50307e-18
1.63082e-18
1.45908e-18
1.48282e-18
1.70279e-18
1.29367e-18
1.71535e-18
1.65535e-18
1.33981e-18
1.98044e-18
1.83652e-18
1.11045e-18
3.21987e-18
1.92848e-18
4.04498e-18
1.03394e-17
7.98907e-18
8.69761e-18
5.48503e-18
7.26369e-18
5.7339e-18
3.71827e-18
3.41323e-18
3.54767e-18
3.61168e-18
3.52836e-18
3.44095e-18
3.23711e-18
3.08184e-18
2.90042e-18
2.7902e-18
2.66522e-18
2.64453e-18
2.50479e-18
2.46171e-18
2.37328e-18
2.32904e-18
2.22615e-18
2.19391e-18
2.09993e-18
2.1145e-18
2.01355e-18
2.0358e-18
1.95028e-18
1.92574e-18
1.8897e-18
1.85506e-18
1.81633e-18
1.82159e-18
1.72862e-18
1.76656e-18
1.69017e-18
1.67818e-18
1.6909e-18
1.6216e-18
1.60535e-18
1.65035e-18
1.50182e-18
1.6412e-18
1.5492e-18
1.50113e-18
1.62844e-18
1.46015e-18
1.47678e-18
1.69854e-18
1.29477e-18
1.69825e-18
1.65036e-18
1.33277e-18
1.93914e-18
1.81748e-18
1.09063e-18
3.04841e-18
1.92055e-18
3.74315e-18
9.26118e-18
7.64094e-18
7.60709e-18
5.13179e-18
6.68576e-18
5.49115e-18
3.55353e-18
3.2688e-18
3.4227e-18
3.51867e-18
3.45267e-18
3.37193e-18
3.1824e-18
3.03908e-18
2.86668e-18
2.76206e-18
2.64227e-18
2.6219e-18
2.48711e-18
2.44582e-18
2.35961e-18
2.31713e-18
2.21825e-18
2.18509e-18
2.09348e-18
2.10649e-18
2.00987e-18
2.02929e-18
1.9464e-18
1.92166e-18
1.88697e-18
1.85148e-18
1.81442e-18
1.81882e-18
1.72777e-18
1.76317e-18
1.68933e-18
1.67613e-18
1.68956e-18
1.62139e-18
1.60368e-18
1.64834e-18
1.50261e-18
1.6374e-18
1.54986e-18
1.49908e-18
1.62504e-18
1.46088e-18
1.47051e-18
1.69221e-18
1.29656e-18
1.67894e-18
1.6443e-18
1.32456e-18
1.89811e-18
1.79234e-18
1.0797e-18
2.87327e-18
1.91236e-18
3.3838e-18
8.093e-18
7.17776e-18
6.40774e-18
4.74311e-18
6.10469e-18
5.25786e-18
3.41471e-18
3.14119e-18
3.30533e-18
3.42968e-18
3.38082e-18
3.30575e-18
3.12947e-18
2.99741e-18
2.83382e-18
2.73476e-18
2.62028e-18
2.59973e-18
2.46988e-18
2.43023e-18
2.34599e-18
2.30521e-18
2.21049e-18
2.17633e-18
2.08734e-18
2.09846e-18
2.00639e-18
2.02274e-18
1.94238e-18
1.9177e-18
1.88415e-18
1.84785e-18
1.81261e-18
1.8159e-18
1.72705e-18
1.75967e-18
1.68836e-18
1.67413e-18
1.68791e-18
1.62107e-18
1.60208e-18
1.64575e-18
1.50373e-18
1.63305e-18
1.55018e-18
1.497e-18
1.6209e-18
1.4612e-18
1.4644e-18
1.68411e-18
1.29909e-18
1.65823e-18
1.63759e-18
1.31571e-18
1.85866e-18
1.76284e-18
1.07738e-18
2.70086e-18
1.90121e-18
3.0064e-18
6.9336e-18
6.62751e-18
5.238e-18
4.32432e-18
5.53962e-18
5.02771e-18
3.29949e-18
3.02986e-18
3.19584e-18
3.34452e-18
3.31271e-18
3.24267e-18
3.07863e-18
2.957e-18
2.80188e-18
2.7083e-18
2.59927e-18
2.57817e-18
2.45321e-18
2.41506e-18
2.33257e-18
2.29336e-18
2.20292e-18
2.16766e-18
2.0815e-18
2.09048e-18
2.00311e-18
2.01627e-18
1.93829e-18
1.91391e-18
1.88131e-18
1.84419e-18
1.81094e-18
1.81286e-18
1.72645e-18
1.75614e-18
1.6873e-18
1.67219e-18
1.68605e-18
1.62063e-18
1.60064e-18
1.6427e-18
1.50515e-18
1.62838e-18
1.55022e-18
1.49494e-18
1.61636e-18
1.46109e-18
1.45877e-18
1.67465e-18
1.30239e-18
1.6369e-18
1.63063e-18
1.30676e-18
1.82183e-18
1.73073e-18
1.08281e-18
2.53606e-18
1.88537e-18
2.64749e-18
5.85971e-18
6.02853e-18
4.19483e-18
3.89085e-18
5.00639e-18
4.79688e-18
3.2048e-18
2.93398e-18
3.09431e-18
3.26294e-18
3.24805e-18
3.18274e-18
3.03007e-18
2.91798e-18
2.77092e-18
2.68267e-18
2.5792e-18
2.55724e-18
2.43714e-18
2.40039e-18
2.31944e-18
2.28163e-18
2.19558e-18
2.15911e-18
2.07595e-18
2.08262e-18
2.00002e-18
2.00992e-18
1.93419e-18
1.91029e-18
1.87848e-18
1.84049e-18
1.80942e-18
1.80976e-18
1.72599e-18
1.75266e-18
1.68619e-18
1.67034e-18
1.68409e-18
1.62006e-18
1.5994e-18
1.6393e-18
1.50685e-18
1.62355e-18
1.55006e-18
1.49297e-18
1.61171e-18
1.46057e-18
1.45382e-18
1.66426e-18
1.30637e-18
1.61567e-18
1.62373e-18
1.29816e-18
1.78824e-18
1.69749e-18
1.09466e-18
2.38229e-18
1.86391e-18
2.3339e-18
4.91645e-18
5.41506e-18
3.33087e-18
3.46175e-18
4.5175e-18
4.56413e-18
3.12719e-18
2.85239e-18
3.00068e-18
3.18475e-18
3.18647e-18
3.12589e-18
2.98387e-18
2.8804e-18
2.74094e-18
2.65782e-18
2.56003e-18
2.53699e-18
2.42169e-18
2.38626e-18
2.30668e-18
2.27007e-18
2.18848e-18
2.15069e-18
2.07066e-18
2.07493e-18
1.9971e-18
2.00376e-18
1.93011e-18
1.90688e-18
1.87571e-18
1.83678e-18
1.80806e-18
1.80664e-18
1.72565e-18
1.74928e-18
1.68506e-18
1.66856e-18
1.68211e-18
1.61936e-18
1.59839e-18
1.63567e-18
1.50879e-18
1.61871e-18
1.5498e-18
1.49111e-18
1.60718e-18
1.45969e-18
1.44967e-18
1.65334e-18
1.31094e-18
1.5951e-18
1.61708e-18
1.29028e-18
1.7581e-18
1.66432e-18
1.11137e-18
2.24149e-18
1.83697e-18
2.07892e-18
4.12059e-18
4.81758e-18
2.66155e-18
3.05854e-18
4.07646e-18
4.3304e-18
3.06317e-18
2.78381e-18
2.91479e-18
3.10978e-18
3.12759e-18
3.07194e-18
2.94001e-18
2.8443e-18
2.71192e-18
2.63373e-18
2.54167e-18
2.51739e-18
2.40686e-18
2.37268e-18
2.29435e-18
2.25872e-18
2.18165e-18
2.14244e-18
2.06559e-18
2.06744e-18
1.99435e-18
1.99781e-18
1.9261e-18
1.90367e-18
1.87302e-18
1.83308e-18
1.80685e-18
1.80354e-18
1.72543e-18
1.74603e-18
1.68395e-18
1.66689e-18
1.68021e-18
1.61856e-18
1.59763e-18
1.63191e-18
1.51093e-18
1.61396e-18
1.54948e-18
1.48939e-18
1.60294e-18
1.45851e-18
1.44635e-18
1.64224e-18
1.31594e-18
1.57561e-18
1.61078e-18
1.28339e-18
1.73136e-18
1.63214e-18
1.13136e-18
2.11458e-18
1.80521e-18
1.88636e-18
3.46713e-18
4.25895e-18
2.17688e-18
2.70152e-18
3.68428e-18
4.09839e-18
3.00957e-18
2.72692e-18
2.83641e-18
3.038e-18
3.07111e-18
3.02067e-18
2.89846e-18
2.80966e-18
2.68385e-18
2.61037e-18
2.52407e-18
2.49845e-18
2.39262e-18
2.35964e-18
2.28245e-18
2.24761e-18
2.1751e-18
2.13436e-18
2.06071e-18
2.06016e-18
1.99172e-18
1.99208e-18
1.92218e-18
1.90067e-18
1.87045e-18
1.8294e-18
1.80578e-18
1.80048e-18
1.72532e-18
1.74292e-18
1.68289e-18
1.66531e-18
1.67841e-18
1.61769e-18
1.59711e-18
1.62809e-18
1.51324e-18
1.60937e-18
1.54914e-18
1.48783e-18
1.59909e-18
1.45709e-18
1.44384e-18
1.63123e-18
1.32124e-18
1.5575e-18
1.60483e-18
1.27768e-18
1.70778e-18
1.60164e-18
1.15326e-18
2.00168e-18
1.76934e-18
1.75212e-18
2.94053e-18
3.75608e-18
1.8482e-18
2.40818e-18
3.33892e-18
3.87171e-18
2.964e-18
2.68057e-18
2.76532e-18
2.96946e-18
3.01675e-18
2.97185e-18
2.85909e-18
2.77644e-18
2.65668e-18
2.5877e-18
2.50713e-18
2.48011e-18
2.37896e-18
2.34713e-18
2.27098e-18
2.23675e-18
2.16881e-18
2.12648e-18
2.056e-18
2.05311e-18
1.98922e-18
1.98657e-18
1.91839e-18
1.89789e-18
1.86801e-18
1.82576e-18
1.80483e-18
1.79749e-18
1.72532e-18
1.73996e-18
1.68187e-18
1.66383e-18
1.67676e-18
1.61675e-18
1.59682e-18
1.6243e-18
1.51569e-18
1.60501e-18
1.5488e-18
1.48645e-18
1.59567e-18
1.45552e-18
1.44208e-18
1.62053e-18
1.32669e-18
1.54099e-18
1.59914e-18
1.27326e-18
1.68707e-18
1.57325e-18
1.17592e-18
1.90246e-18
1.72976e-18
1.66788e-18
2.5186e-18
3.3208e-18
1.63809e-18
2.19093e-18
3.03705e-18
3.65358e-18
2.92451e-18
2.64366e-18
2.70126e-18
2.9042e-18
2.96431e-18
2.92523e-18
2.8218e-18
2.74459e-18
2.63036e-18
2.56567e-18
2.49077e-18
2.46235e-18
2.36585e-18
2.33511e-18
2.25993e-18
2.22615e-18
2.16279e-18
2.11879e-18
2.05143e-18
2.04629e-18
1.98681e-18
1.98127e-18
1.91474e-18
1.89532e-18
1.8657e-18
1.82217e-18
1.804e-18
1.79457e-18
1.72543e-18
1.73716e-18
1.68091e-18
1.66246e-18
1.67526e-18
1.61577e-18
1.59674e-18
1.62058e-18
1.51824e-18
1.60092e-18
1.54847e-18
1.48529e-18
1.59271e-18
1.45386e-18
1.44101e-18
1.61032e-18
1.33214e-18
1.52622e-18
1.59367e-18
1.27019e-18
1.66892e-18
1.54731e-18
1.19849e-18
1.81631e-18
1.68688e-18
1.62278e-18
2.17854e-18
1.16534e-17
1.01446e-17
1.36574e-17
1.52803e-17
1.12979e-17
7.44827e-18
5.86509e-18
5.16429e-18
4.73447e-18
4.40125e-18
4.15715e-18
3.78195e-18
3.5042e-18
3.23065e-18
3.06231e-18
2.88531e-18
2.82243e-18
2.65277e-18
2.5909e-18
2.47401e-18
2.42015e-18
2.28917e-18
2.26378e-18
2.15492e-18
2.16101e-18
2.04779e-18
2.06928e-18
1.96999e-18
1.96015e-18
1.89706e-18
1.87971e-18
1.82578e-18
1.82237e-18
1.74024e-18
1.77219e-18
1.685e-18
1.69545e-18
1.66533e-18
1.62124e-18
1.60896e-18
1.61811e-18
1.51633e-18
1.61644e-18
1.5105e-18
1.51382e-18
1.56592e-18
1.43241e-18
1.49707e-18
1.5939e-18
1.28834e-18
1.7296e-18
1.48762e-18
1.39239e-18
2.12879e-18
1.46636e-18
1.86414e-18
3.69223e-18
2.15662e-18
5.26925e-18
1.2213e-17
1.22583e-17
1.03259e-17
1.39931e-17
1.55381e-17
1.14086e-17
7.49944e-18
5.89604e-18
5.18544e-18
4.74744e-18
4.41075e-18
4.16472e-18
3.7873e-18
3.50736e-18
3.23343e-18
3.06409e-18
2.88682e-18
2.82422e-18
2.65414e-18
2.59175e-18
2.47532e-18
2.42096e-18
2.29004e-18
2.26419e-18
2.15574e-18
2.16165e-18
2.04829e-18
2.06983e-18
1.97088e-18
1.96014e-18
1.89807e-18
1.87984e-18
1.82642e-18
1.82307e-18
1.74028e-18
1.77302e-18
1.68567e-18
1.69529e-18
1.66702e-18
1.62107e-18
1.60967e-18
1.61988e-18
1.51587e-18
1.61834e-18
1.51242e-18
1.51327e-18
1.57038e-18
1.4333e-18
1.49831e-18
1.60248e-18
1.28715e-18
1.73869e-18
1.50045e-18
1.39315e-18
2.15681e-18
1.49077e-18
1.87934e-18
3.78167e-18
2.24882e-18
5.49156e-18
1.2336e-17
1.2677e-17
1.0484e-17
1.40302e-17
1.56494e-17
1.13871e-17
7.47394e-18
5.89095e-18
5.189e-18
4.75234e-18
4.41637e-18
4.17062e-18
3.79147e-18
3.51005e-18
3.23564e-18
3.06576e-18
2.88789e-18
2.82674e-18
2.65544e-18
2.5929e-18
2.47676e-18
2.42224e-18
2.29077e-18
2.26501e-18
2.15635e-18
2.16296e-18
2.04849e-18
2.07103e-18
1.97178e-18
1.96039e-18
1.89925e-18
1.88022e-18
1.82708e-18
1.82441e-18
1.74005e-18
1.7746e-18
1.68639e-18
1.69534e-18
1.66943e-18
1.62114e-18
1.61053e-18
1.62304e-18
1.51483e-18
1.62187e-18
1.51505e-18
1.51309e-18
1.57715e-18
1.43513e-18
1.50033e-18
1.61538e-18
1.28648e-18
1.75071e-18
1.52051e-18
1.3942e-18
2.19087e-18
1.52841e-18
1.88276e-18
3.86032e-18
2.35678e-18
5.65369e-18
1.25148e-17
1.25942e-17
1.02127e-17
1.35662e-17
1.53612e-17
1.11383e-17
7.31601e-18
5.81407e-18
5.15265e-18
4.73461e-18
4.40744e-18
4.16637e-18
3.78871e-18
3.50807e-18
3.23455e-18
3.06493e-18
2.88715e-18
2.82827e-18
2.65581e-18
2.59331e-18
2.47778e-18
2.42315e-18
2.2912e-18
2.26556e-18
2.15672e-18
2.16425e-18
2.04851e-18
2.07236e-18
1.97269e-18
1.96047e-18
1.90063e-18
1.88054e-18
1.8278e-18
1.82608e-18
1.73968e-18
1.77649e-18
1.68724e-18
1.69534e-18
1.67242e-18
1.6213e-18
1.61149e-18
1.62711e-18
1.5134e-18
1.62636e-18
1.5183e-18
1.51305e-18
1.58526e-18
1.43764e-18
1.50246e-18
1.63022e-18
1.28719e-18
1.76058e-18
1.5463e-18
1.39134e-18
2.21744e-18
1.57528e-18
1.84712e-18
3.90592e-18
2.42255e-18
5.52626e-18
1.24056e-17
1.20228e-17
9.45873e-18
1.2647e-17
1.46337e-17
1.06653e-17
7.03276e-18
5.66645e-18
5.07432e-18
4.68937e-18
4.37786e-18
4.14651e-18
3.77491e-18
3.49829e-18
3.22774e-18
3.05974e-18
2.88319e-18
2.8273e-18
2.65415e-18
2.592e-18
2.47759e-18
2.42299e-18
2.29097e-18
2.26529e-18
2.15657e-18
2.16508e-18
2.04817e-18
2.07344e-18
1.97343e-18
1.96022e-18
1.90199e-18
1.88062e-18
1.82845e-18
1.82787e-18
1.73919e-18
1.77836e-18
1.68821e-18
1.69517e-18
1.67575e-18
1.62155e-18
1.61239e-18
1.63163e-18
1.51179e-18
1.63116e-18
1.52197e-18
1.51301e-18
1.59373e-18
1.44065e-18
1.50403e-18
1.64528e-18
1.28881e-18
1.76622e-18
1.57437e-18
1.38402e-18
2.2315e-18
1.62606e-18
1.77217e-18
3.92908e-18
2.43431e-18
5.15809e-18
1.20054e-17
1.12246e-17
8.55096e-18
1.15377e-17
1.37022e-17
1.00927e-17
6.68647e-18
5.47526e-18
4.96736e-18
4.62231e-18
4.33017e-18
4.11114e-18
3.74964e-18
3.47981e-18
3.21431e-18
3.04944e-18
2.87526e-18
2.82297e-18
2.64981e-18
2.5884e-18
2.47557e-18
2.42121e-18
2.28971e-18
2.26388e-18
2.15552e-18
2.16513e-18
2.04727e-18
2.074e-18
1.97375e-18
1.95949e-18
1.90311e-18
1.88037e-18
1.82889e-18
1.82956e-18
1.73859e-18
1.77993e-18
1.68922e-18
1.69474e-18
1.67915e-18
1.62183e-18
1.61308e-18
1.6362e-18
1.51009e-18
1.63577e-18
1.52583e-18
1.51271e-18
1.60196e-18
1.44369e-18
1.50471e-18
1.65925e-18
1.29044e-18
1.76815e-18
1.60052e-18
1.37454e-18
2.233e-18
1.6756e-18
1.67826e-18
3.93887e-18
2.41e-18
4.75033e-18
1.15773e-17
1.0435e-17
7.85759e-18
1.04574e-17
1.27461e-17
9.50273e-18
6.32192e-18
5.26447e-18
4.84298e-18
4.54009e-18
4.26856e-18
4.06351e-18
3.71458e-18
3.45354e-18
3.19471e-18
3.03425e-18
2.86343e-18
2.81506e-18
2.64259e-18
2.58231e-18
2.47143e-18
2.41751e-18
2.28721e-18
2.26109e-18
2.1534e-18
2.16419e-18
2.04566e-18
2.07379e-18
1.97352e-18
1.95817e-18
1.90381e-18
1.87966e-18
1.829e-18
1.83094e-18
1.73784e-18
1.78101e-18
1.69018e-18
1.69397e-18
1.68238e-18
1.62207e-18
1.61345e-18
1.64047e-18
1.50837e-18
1.63978e-18
1.52965e-18
1.51208e-18
1.60937e-18
1.44642e-18
1.5045e-18
1.67135e-18
1.29169e-18
1.7674e-18
1.62212e-18
1.36571e-18
2.22357e-18
1.71997e-18
1.58129e-18
3.93343e-18
2.35529e-18
4.43816e-18
1.13184e-17
9.73869e-18
7.55709e-18
9.49089e-18
1.18579e-17
8.93051e-18
5.96015e-18
5.04356e-18
4.70736e-18
4.4474e-18
4.19751e-18
4.00709e-18
3.6722e-18
3.4211e-18
3.16995e-18
3.01473e-18
2.84807e-18
2.80385e-18
2.63279e-18
2.57392e-18
2.46521e-18
2.41188e-18
2.28343e-18
2.25691e-18
2.15014e-18
2.16219e-18
2.04334e-18
2.07266e-18
1.97264e-18
1.95617e-18
1.90397e-18
1.87842e-18
1.8287e-18
1.83186e-18
1.73694e-18
1.78146e-18
1.69096e-18
1.69286e-18
1.68522e-18
1.62222e-18
1.61347e-18
1.64417e-18
1.5067e-18
1.64298e-18
1.53316e-18
1.51121e-18
1.61566e-18
1.44871e-18
1.50354e-18
1.6812e-18
1.29245e-18
1.76502e-18
1.63822e-18
1.35899e-18
2.20574e-18
1.75807e-18
1.48904e-18
3.9101e-18
2.27792e-18
4.25258e-18
1.12957e-17
9.17685e-18
7.69984e-18
8.65215e-18
1.10752e-17
8.38525e-18
5.60828e-18
4.81814e-18
4.56418e-18
4.34744e-18
4.11979e-18
3.94442e-18
3.62457e-18
3.38411e-18
3.14113e-18
2.99152e-18
2.82967e-18
2.78969e-18
2.6208e-18
2.56356e-18
2.45716e-18
2.40452e-18
2.27846e-18
2.25144e-18
2.1458e-18
2.15911e-18
2.04039e-18
2.07057e-18
1.97117e-18
1.95353e-18
1.90357e-18
1.87665e-18
1.82799e-18
1.83223e-18
1.73591e-18
1.78124e-18
1.69152e-18
1.69145e-18
1.68756e-18
1.62225e-18
1.61315e-18
1.64715e-18
1.50516e-18
1.64534e-18
1.53622e-18
1.51023e-18
1.62073e-18
1.45056e-18
1.50213e-18
1.68887e-18
1.29282e-18
1.76187e-18
1.6491e-18
1.35474e-18
2.18244e-18
1.78994e-18
1.40549e-18
3.87252e-18
2.19222e-18
4.18913e-18
1.14802e-17
8.7756e-18
8.22129e-18
7.93737e-18
1.04021e-17
7.87527e-18
5.27054e-18
4.59204e-18
4.41622e-18
4.24269e-18
4.03753e-18
3.87724e-18
3.5733e-18
3.34389e-18
3.10923e-18
2.9654e-18
2.80876e-18
2.77299e-18
2.607e-18
2.55161e-18
2.44762e-18
2.39572e-18
2.27246e-18
2.24488e-18
2.1405e-18
2.15502e-18
2.03698e-18
2.06756e-18
1.96916e-18
1.95033e-18
1.90262e-18
1.8744e-18
1.82692e-18
1.83202e-18
1.73481e-18
1.7804e-18
1.69183e-18
1.6898e-18
1.68937e-18
1.62218e-18
1.61256e-18
1.64941e-18
1.50383e-18
1.64698e-18
1.53883e-18
1.50926e-18
1.62475e-18
1.45207e-18
1.50046e-18
1.69478e-18
1.29289e-18
1.75838e-18
1.65579e-18
1.35265e-18
2.1557e-18
1.81567e-18
1.3333e-18
3.8193e-18
2.11281e-18
4.22187e-18
1.17699e-17
8.53887e-18
8.94918e-18
7.34265e-18
9.82969e-18
7.40685e-18
4.95075e-18
4.36913e-18
4.26594e-18
4.13529e-18
3.95238e-18
3.80688e-18
3.51943e-18
3.30152e-18
3.07528e-18
2.93719e-18
2.78593e-18
2.75414e-18
2.59173e-18
2.53839e-18
2.43692e-18
2.38586e-18
2.26563e-18
2.23744e-18
2.13443e-18
2.14998e-18
2.03324e-18
2.0637e-18
1.96674e-18
1.94669e-18
1.9012e-18
1.87174e-18
1.82554e-18
1.83126e-18
1.73367e-18
1.77902e-18
1.6919e-18
1.68799e-18
1.69069e-18
1.62204e-18
1.61178e-18
1.65103e-18
1.50274e-18
1.64799e-18
1.54108e-18
1.50831e-18
1.62791e-18
1.4534e-18
1.49847e-18
1.69937e-18
1.29277e-18
1.75431e-18
1.6595e-18
1.35175e-18
2.12647e-18
1.8353e-18
1.27192e-18
3.74708e-18
2.04708e-18
4.30582e-18
1.20201e-17
8.43173e-18
9.62607e-18
6.8587e-18
9.32198e-18
6.98548e-18
4.65249e-18
4.15315e-18
4.11582e-18
4.02727e-18
3.86579e-18
3.73434e-18
3.4638e-18
3.25787e-18
3.04019e-18
2.90772e-18
2.76179e-18
2.73355e-18
2.57528e-18
2.52414e-18
2.4253e-18
2.37521e-18
2.25822e-18
2.22937e-18
2.12781e-18
2.14408e-18
2.0293e-18
2.05911e-18
1.96397e-18
1.94276e-18
1.8994e-18
1.86876e-18
1.82392e-18
1.83e-18
1.73251e-18
1.7772e-18
1.69178e-18
1.68609e-18
1.69155e-18
1.62186e-18
1.61083e-18
1.65208e-18
1.50192e-18
1.64834e-18
1.54311e-18
1.50729e-18
1.63024e-18
1.4547e-18
1.49588e-18
1.70278e-18
1.29259e-18
1.74884e-18
1.66113e-18
1.35083e-18
2.0946e-18
1.84828e-18
1.21974e-18
3.65137e-18
1.99825e-18
4.37691e-18
1.20763e-17
8.39581e-18
1.00264e-17
6.46548e-18
8.83847e-18
6.61281e-18
4.37847e-18
3.94738e-18
3.96782e-18
3.92029e-18
3.77919e-18
3.66059e-18
3.4071e-18
3.21358e-18
3.00465e-18
2.87768e-18
2.73698e-18
2.71169e-18
2.558e-18
2.50911e-18
2.41296e-18
2.36405e-18
2.25044e-18
2.22087e-18
2.12089e-18
2.13746e-18
2.02527e-18
2.0539e-18
1.96093e-18
1.93865e-18
1.89731e-18
1.86556e-18
1.82212e-18
1.82833e-18
1.73138e-18
1.77498e-18
1.69151e-18
1.68411e-18
1.69198e-18
1.6217e-18
1.60968e-18
1.65258e-18
1.5014e-18
1.64796e-18
1.54496e-18
1.50607e-18
1.63159e-18
1.45607e-18
1.49241e-18
1.70473e-18
1.2925e-18
1.74093e-18
1.66097e-18
1.34886e-18
2.05978e-18
1.85346e-18
1.17564e-18
3.53032e-18
1.96537e-18
4.37634e-18
1.18278e-17
8.35294e-18
1.00142e-17
6.12985e-18
8.34433e-18
6.28486e-18
4.13065e-18
3.75455e-18
3.82381e-18
3.81572e-18
3.69398e-18
3.58667e-18
3.34998e-18
3.16914e-18
2.96916e-18
2.84768e-18
2.71208e-18
2.68907e-18
2.54016e-18
2.49351e-18
2.40005e-18
2.35256e-18
2.24245e-18
2.21214e-18
2.11388e-18
2.13025e-18
2.02123e-18
2.04818e-18
1.95764e-18
1.93444e-18
1.89501e-18
1.86221e-18
1.8202e-18
1.82631e-18
1.73028e-18
1.77239e-18
1.6911e-18
1.68209e-18
1.69198e-18
1.62156e-18
1.60833e-18
1.6525e-18
1.50119e-18
1.6467e-18
1.54663e-18
1.50459e-18
1.63176e-18
1.45746e-18
1.48789e-18
1.70485e-18
1.29265e-18
1.72992e-18
1.65907e-18
1.34522e-18
2.02194e-18
1.85019e-18
1.13931e-18
3.38656e-18
1.94492e-18
4.27206e-18
1.12441e-17
8.23898e-18
9.55702e-18
5.81487e-18
7.81998e-18
5.99492e-18
3.91027e-18
3.57673e-18
3.68515e-18
3.71458e-18
3.61126e-18
3.51357e-18
3.29308e-18
3.12494e-18
2.93406e-18
2.81809e-18
2.68756e-18
2.66611e-18
2.52208e-18
2.47758e-18
2.38672e-18
2.34084e-18
2.2344e-18
2.20328e-18
2.10695e-18
2.12263e-18
2.01726e-18
2.04206e-18
1.95411e-18
1.93023e-18
1.89254e-18
1.85876e-18
1.81823e-18
1.82399e-18
1.72924e-18
1.76947e-18
1.69055e-18
1.68003e-18
1.6915e-18
1.62143e-18
1.60679e-18
1.65179e-18
1.50131e-18
1.64451e-18
1.54803e-18
1.50285e-18
1.63063e-18
1.45875e-18
1.48246e-18
1.7028e-18
1.2932e-18
1.71566e-18
1.6555e-18
1.33973e-18
1.9817e-18
1.8385e-18
1.11096e-18
3.22521e-18
1.93283e-18
4.05809e-18
1.03665e-17
8.01501e-18
8.71934e-18
5.49127e-18
7.26282e-18
5.73328e-18
3.71789e-18
3.41527e-18
3.55288e-18
3.61737e-18
3.53181e-18
3.44216e-18
3.237e-18
3.08131e-18
2.89956e-18
2.78916e-18
2.66374e-18
2.64316e-18
2.50406e-18
2.46154e-18
2.37312e-18
2.32898e-18
2.22638e-18
2.19441e-18
2.10022e-18
2.11474e-18
2.0134e-18
2.03567e-18
1.95038e-18
1.92605e-18
1.88992e-18
1.85525e-18
1.81626e-18
1.82143e-18
1.7283e-18
1.76627e-18
1.68986e-18
1.67796e-18
1.69057e-18
1.62129e-18
1.60513e-18
1.65041e-18
1.50177e-18
1.64144e-18
1.54908e-18
1.50091e-18
1.62826e-18
1.45982e-18
1.47641e-18