/*--------------------------------*- C++ -*----------------------------------*\
| =========                 |                                                 |
| \\      /  F ield         | OpenFOAM: The Open Source CFD Toolbox           |
|  \\    /   O peration     | Version:  2312                                  |
|   \\  /    A nd           | Website:  www.openfoam.com                      |
|    \\/     M anipulation  |                                                 |
\*---------------------------------------------------------------------------*/
FoamFile
{
    version     2.0;
    format      ascii;
    arch        "LSB;label=32;scalar=64";
    class       volScalarField;
    location    "880";
    object      pMean;
}
// * * * * * * * * * * * * * * * * * * * * * * * * * * * * * * * * * * * * * //

dimensions      [0 2 -2 0 0 0 0];

internalField   nonuniform List<scalar> 
144000
(
6.4167e-10
3.26495e-10
-3.35615e-10
-6.47002e-10
-5.53616e-10
-3.85024e-10
-2.23006e-10
-1.35733e-10
-5.94818e-11
-3.94688e-11
-4.44712e-12
-7.6147e-12
1.60069e-11
5.08644e-12
2.63166e-11
1.34853e-11
3.12523e-11
1.30092e-11
3.26961e-11
1.67794e-11
3.6525e-11
1.69311e-11
3.72661e-11
1.81453e-11
3.95969e-11
1.99835e-11
4.14096e-11
1.9267e-11
4.16958e-11
2.00694e-11
4.40688e-11
2.2443e-11
4.54254e-11
1.98506e-11
4.383e-11
1.96514e-11
4.44151e-11
1.98575e-11
4.39307e-11
1.74122e-11
4.08589e-11
1.62946e-11
4.04085e-11
1.39012e-11
3.72798e-11
1.06094e-11
3.34494e-11
1.22573e-11
3.24873e-11
1.55855e-11
3.18039e-11
2.49411e-11
2.62963e-11
2.69521e-11
-1.91992e-12
2.54701e-11
-2.66506e-11
-2.01948e-12
-9.20826e-10
-2.08829e-10
6.68792e-10
3.42743e-10
-3.42323e-10
-6.52597e-10
-5.55534e-10
-3.85226e-10
-2.23214e-10
-1.35936e-10
-5.98674e-11
-3.97879e-11
-4.83569e-12
-7.85216e-12
1.57015e-11
4.92162e-12
2.60802e-11
1.3402e-11
3.10546e-11
1.29276e-11
3.25157e-11
1.6759e-11
3.63709e-11
1.69129e-11
3.71198e-11
1.81662e-11
3.94676e-11
2.00224e-11
4.12829e-11
1.93054e-11
4.15696e-11
2.01313e-11
4.39547e-11
2.25265e-11
4.53077e-11
1.99194e-11
4.37062e-11
1.97545e-11
4.43027e-11
1.99713e-11
4.38185e-11
1.75133e-11
4.06785e-11
1.63058e-11
4.02e-11
1.40579e-11
3.71716e-11
1.07998e-11
3.33396e-11
1.25086e-11
3.24065e-11
1.58544e-11
3.17681e-11
2.52695e-11
2.63511e-11
2.72373e-11
-1.78262e-12
2.54915e-11
-2.34847e-11
6.90927e-12
-9.37753e-10
-2.29918e-10
7.05016e-10
3.48499e-10
-3.5271e-10
-6.55201e-10
-5.56408e-10
-3.85113e-10
-2.23103e-10
-1.36078e-10
-6.0113e-11
-4.02607e-11
-5.24964e-12
-8.29944e-12
1.53967e-11
4.55462e-12
2.58515e-11
1.31507e-11
3.09325e-11
1.26792e-11
3.23797e-11
1.65785e-11
3.63086e-11
1.67398e-11
3.70582e-11
1.80397e-11
3.94454e-11
1.99157e-11
4.12789e-11
1.91928e-11
4.15597e-11
2.0045e-11
4.39665e-11
2.24665e-11
4.53466e-11
1.98336e-11
4.3717e-11
1.97083e-11
4.4346e-11
1.99366e-11
4.3875e-11
1.74775e-11
4.06294e-11
1.60965e-11
4.00844e-11
1.40204e-11
3.72685e-11
1.08691e-11
3.34075e-11
1.26427e-11
3.25345e-11
1.60026e-11
3.19077e-11
2.54644e-11
2.66441e-11
2.73971e-11
-1.27001e-12
2.43254e-11
-2.0102e-11
2.24992e-11
-9.66689e-10
-2.45213e-10
7.43513e-10
3.31716e-10
-3.63876e-10
-6.51018e-10
-5.55995e-10
-3.8473e-10
-2.22589e-10
-1.35848e-10
-6.01098e-11
-4.07029e-11
-5.73334e-12
-8.86478e-12
1.50033e-11
4.08308e-12
2.55338e-11
1.28236e-11
3.07858e-11
1.23559e-11
3.2172e-11
1.6334e-11
3.62297e-11
1.65138e-11
3.69593e-11
1.78704e-11
3.94077e-11
1.97802e-11
4.12801e-11
1.90483e-11
4.1537e-11
1.99299e-11
4.39761e-11
2.23897e-11
4.54164e-11
1.97256e-11
4.37224e-11
1.9641e-11
4.44099e-11
1.98904e-11
4.39711e-11
1.74519e-11
4.05792e-11
1.58162e-11
3.98911e-11
1.38806e-11
3.74344e-11
1.09435e-11
3.35233e-11
1.27565e-11
3.27781e-11
1.60853e-11
3.22055e-11
2.54922e-11
2.73589e-11
2.70709e-11
1.63841e-13
2.09238e-11
-1.29887e-11
3.78105e-11
-1.00403e-09
-2.42255e-10
7.78033e-10
2.80859e-10
-3.73801e-10
-6.33703e-10
-5.52953e-10
-3.84378e-10
-2.21881e-10
-1.35194e-10
-5.9819e-11
-4.10774e-11
-6.31459e-12
-9.54128e-12
1.44829e-11
3.50631e-12
2.50866e-11
1.2427e-11
3.05765e-11
1.19708e-11
3.18545e-11
1.60355e-11
3.60984e-11
1.6255e-11
3.67818e-11
1.7675e-11
3.93188e-11
1.96365e-11
4.12484e-11
1.88983e-11
4.14598e-11
1.98079e-11
4.39444e-11
2.23265e-11
4.54791e-11
1.96281e-11
4.36793e-11
1.95792e-11
4.44569e-11
1.98618e-11
4.40741e-11
1.74814e-11
4.04983e-11
1.5545e-11
3.95353e-11
1.36295e-11
3.7618e-11
1.10656e-11
3.36456e-11
1.28494e-11
3.31122e-11
1.60734e-11
3.26854e-11
2.52499e-11
2.86145e-11
2.59979e-11
2.89976e-12
1.48862e-11
-1.06699e-12
4.93016e-11
-1.0475e-09
-2.10776e-10
8.08674e-10
1.88785e-10
-3.83676e-10
-5.99843e-10
-5.45702e-10
-3.84406e-10
-2.21264e-10
-1.34194e-10
-5.92785e-11
-4.14021e-11
-7.01941e-12
-1.03479e-11
1.38185e-11
2.81447e-12
2.44997e-11
1.19482e-11
3.02943e-11
1.15303e-11
3.14238e-11
1.56807e-11
3.59066e-11
1.59682e-11
3.65221e-11
1.74513e-11
3.91734e-11
1.94864e-11
4.11774e-11
1.87474e-11
4.13211e-11
1.96807e-11
4.38661e-11
2.22769e-11
4.55248e-11
1.95474e-11
4.3581e-11
1.95197e-11
4.44803e-11
1.98517e-11
4.41809e-11
1.75833e-11
4.03944e-11
1.52987e-11
3.89602e-11
1.32245e-11
3.77991e-11
1.12349e-11
3.37765e-11
1.28952e-11
3.35508e-11
1.59142e-11
3.33977e-11
2.46135e-11
3.05483e-11
2.39418e-11
7.27994e-12
5.9755e-12
1.59144e-11
5.58955e-11
-1.0981e-09
-1.4504e-10
8.3911e-10
5.32958e-11
-3.97117e-10
-5.4801e-10
-5.32624e-10
-3.8489e-10
-2.2102e-10
-1.32936e-10
-5.85182e-11
-4.17099e-11
-7.87963e-12
-1.13121e-11
1.29876e-11
1.99798e-12
2.37639e-11
1.13761e-11
2.99288e-11
1.10382e-11
3.08822e-11
1.52682e-11
3.56506e-11
1.56608e-11
3.61811e-11
1.72009e-11
3.89708e-11
1.93335e-11
4.10625e-11
1.86024e-11
4.11208e-11
1.95516e-11
4.37393e-11
2.22427e-11
4.55481e-11
1.94906e-11
4.34287e-11
1.94624e-11
4.44792e-11
1.98597e-11
4.4296e-11
1.77635e-11
4.03151e-11
1.50863e-11
3.80849e-11
1.26165e-11
3.79824e-11
1.14467e-11
3.39275e-11
1.28536e-11
3.41134e-11
1.55482e-11
3.44039e-11
2.34814e-11
3.3257e-11
2.07473e-11
1.34146e-11
-5.56382e-12
3.71941e-11
5.82538e-11
-1.15664e-09
-4.43256e-11
8.73247e-10
-1.21506e-10
-4.17788e-10
-4.79087e-10
-5.12408e-10
-3.85711e-10
-2.21382e-10
-1.3151e-10
-5.75636e-11
-4.20197e-11
-8.91494e-12
-1.24577e-11
1.19635e-11
1.04436e-12
2.28646e-11
1.06981e-11
2.94598e-11
1.04943e-11
3.02294e-11
1.47959e-11
3.53203e-11
1.53368e-11
3.57589e-11
1.69266e-11
3.87083e-11
1.91815e-11
4.08996e-11
1.84702e-11
4.08598e-11
1.94256e-11
4.35629e-11
2.22279e-11
4.55415e-11
1.94638e-11
4.32247e-11
1.94057e-11
4.44552e-11
1.98812e-11
4.44314e-11
1.8021e-11
4.03426e-11
1.48785e-11
3.67945e-11
1.17545e-11
3.81766e-11
1.16874e-11
3.41191e-11
1.26889e-11
3.48224e-11
1.49278e-11
3.57457e-11
2.1794e-11
3.67513e-11
1.64673e-11
2.11163e-11
-1.89592e-11
6.0943e-11
5.83477e-11
-1.22241e-09
8.53826e-11
9.1477e-10
-3.26741e-10
-4.48994e-10
-3.96103e-10
-4.84198e-10
-3.86518e-10
-2.22552e-10
-1.30029e-10
-5.64484e-11
-4.23399e-11
-1.01461e-11
-1.37929e-11
1.07342e-11
-5.55373e-14
2.17928e-11
9.90247e-12
2.88668e-11
9.89526e-12
2.94623e-11
1.4261e-11
3.49022e-11
1.49955e-11
3.52528e-11
1.66292e-11
3.8381e-11
1.90309e-11
4.06822e-11
1.83546e-11
4.05377e-11
1.93063e-11
4.33372e-11
2.22339e-11
4.54993e-11
1.94702e-11
4.29756e-11
1.93483e-11
4.44118e-11
1.99059e-11
4.46069e-11
1.83438e-11
4.06061e-11
1.46304e-11
3.49303e-11
1.05956e-11
3.84032e-11
1.19419e-11
3.43723e-11
1.23751e-11
3.5689e-11
1.40379e-11
3.74291e-11
1.9568e-11
4.09343e-11
1.13158e-11
2.99142e-11
-3.31161e-11
8.49923e-11
5.85598e-11
-1.29364e-09
2.33815e-10
9.65256e-10
-5.51167e-10
-4.92805e-10
-3.0348e-10
-4.4778e-10
-3.86837e-10
-2.24652e-10
-1.28626e-10
-5.52032e-11
-4.26682e-11
-1.15633e-11
-1.53124e-11
9.29708e-12
-1.30012e-12
2.05476e-11
8.98869e-12
2.8136e-11
9.23747e-12
2.85828e-11
1.36618e-11
3.43859e-11
1.46347e-11
3.46627e-11
1.63073e-11
3.79841e-11
1.88828e-11
4.04037e-11
1.82534e-11
4.01554e-11
1.91938e-11
4.30615e-11
2.22606e-11
4.54149e-11
1.95099e-11
4.26866e-11
1.92872e-11
4.43525e-11
1.99243e-11
4.48408e-11
1.87178e-11
4.12701e-11
1.42574e-11
3.2297e-11
9.10966e-12
3.86881e-11
1.21944e-11
3.4705e-11
1.19026e-11
3.67095e-11
1.28897e-11
3.94169e-11
1.69002e-11
4.56078e-11
5.66787e-12
3.91706e-11
-4.6822e-11
1.07297e-10
6.07862e-11
-1.36693e-09
3.90382e-10
1.02418e-09
-7.81632e-10
-5.49896e-10
-2.06444e-10
-4.03578e-10
-3.86103e-10
-2.27715e-10
-1.27448e-10
-5.38882e-11
-4.29976e-11
-1.3153e-11
-1.7004e-11
7.65742e-12
-2.68237e-12
1.91348e-11
7.95731e-12
2.72611e-11
8.52151e-12
2.75933e-11
1.29997e-11
3.37652e-11
1.42516e-11
3.39889e-11
1.59605e-11
3.75138e-11
1.87335e-11
4.00594e-11
1.81657e-11
3.97154e-11
1.90894e-11
4.27346e-11
2.23061e-11
4.52838e-11
1.95789e-11
4.2364e-11
1.92221e-11
4.42773e-11
1.99229e-11
4.51581e-11
1.91289e-11
4.25466e-11
1.35677e-11
2.8654e-11
7.28608e-12
3.9053e-11
1.24343e-11
3.51167e-11
1.12818e-11
3.78535e-11
1.15264e-11
4.16231e-11
1.39433e-11
5.05063e-11
-4.55865e-14
4.82041e-11
-5.89861e-11
1.26294e-10
6.62035e-11
-1.43799e-09
5.4444e-10
1.08919e-09
-1.00688e-09
-6.19158e-10
-1.09978e-10
-3.52575e-10
-3.83736e-10
-2.31671e-10
-1.2665e-10
-5.25694e-11
-4.33238e-11
-1.4895e-11
-1.88514e-11
5.82381e-12
-4.19299e-12
1.756e-11
6.81445e-12
2.6239e-11
7.74827e-12
2.64992e-11
1.22783e-11
3.30354e-11
1.38432e-11
3.32334e-11
1.55883e-11
3.69677e-11
1.85816e-11
3.96465e-11
1.80887e-11
3.92198e-11
1.8992e-11
4.23561e-11
2.23672e-11
4.51047e-11
1.9674e-11
4.20105e-11
1.91524e-11
4.41861e-11
1.98885e-11
4.55806e-11
1.9547e-11
4.48035e-11
1.23758e-11
2.36539e-11
5.146e-12
3.95094e-11
1.26465e-11
3.55908e-11
1.05426e-11
3.90851e-11
1.00168e-11
4.393e-11
1.08881e-11
5.53419e-11
-5.37708e-12
5.64042e-11
-6.87545e-11
1.41004e-10
7.52475e-11
-1.50265e-09
6.87001e-10
1.15713e-09
-1.21711e-09
-6.9833e-10
-1.86571e-11
-2.96164e-10
-3.79168e-10
-2.36325e-10
-1.26371e-10
-5.13375e-11
-4.36452e-11
-1.67642e-11
-2.08342e-11
3.80988e-12
-5.82238e-12
1.58341e-11
5.56581e-12
2.50716e-11
6.92001e-12
2.53086e-11
1.15027e-11
3.21961e-11
1.3408e-11
3.24005e-11
1.51923e-11
3.63463e-11
1.84247e-11
3.9166e-11
1.80194e-11
3.86711e-11
1.89007e-11
4.19256e-11
2.24412e-11
4.48741e-11
1.97921e-11
4.16284e-11
1.90805e-11
4.40738e-11
1.98174e-11
4.61066e-11
1.99675e-11
4.84555e-11
1.04761e-11
1.69426e-11
2.78704e-12
4.00721e-11
1.28309e-11
3.61052e-11
9.72368e-12
4.03256e-11
8.46e-12
4.62054e-11
7.9373e-12
5.98294e-11
-9.95047e-12
6.32993e-11
-7.55935e-11
1.51069e-10
8.75102e-11
-1.55738e-09
8.11582e-10
1.22438e-09
-1.40517e-09
-7.84419e-10
6.38523e-11
-2.36039e-10
-3.71926e-10
-2.41401e-10
-1.26725e-10
-5.02872e-11
-4.3966e-11
-1.87336e-11
-2.29286e-11
1.63072e-12
-7.55545e-12
1.39709e-11
4.22297e-12
2.37638e-11
6.04059e-12
2.4031e-11
1.0678e-11
3.12486e-11
1.29451e-11
3.14953e-11
1.47751e-11
3.56508e-11
1.82606e-11
3.8619e-11
1.79549e-11
3.80726e-11
1.88153e-11
4.14445e-11
2.25257e-11
4.45884e-11
1.99318e-11
4.1216e-11
1.90177e-11
4.39222e-11
1.97328e-11
4.66677e-11
2.04728e-11
5.37684e-11
7.35319e-12
8.2455e-12
4.14923e-13
4.07834e-11
1.30223e-11
3.66465e-11
8.88311e-12
4.15138e-11
6.95982e-12
4.83162e-11
5.28777e-12
6.37262e-11
-1.34786e-11
6.85894e-11
-7.92865e-11
1.5666e-10
1.02074e-10
-1.59952e-09
9.14339e-10
1.28706e-09
-1.56593e-09
-8.73828e-10
1.34811e-10
-1.74084e-10
-3.61692e-10
-2.46574e-10
-1.27796e-10
-4.95255e-11
-4.42996e-11
-2.07763e-11
-2.51113e-11
-6.97718e-13
-9.38071e-12
1.19826e-11
2.79571e-12
2.23223e-11
5.11294e-12
2.26747e-11
9.81033e-12
3.01976e-11
1.24533e-11
3.05237e-11
1.43386e-11
3.4884e-11
1.80878e-11
3.80075e-11
1.78933e-11
3.74285e-11
1.87361e-11
4.09139e-11
2.26194e-11
4.42459e-11
2.00937e-11
4.07699e-11
1.89764e-11
4.37145e-11
1.96619e-11
4.71844e-11
2.10654e-11
6.17967e-11
1.19855e-12
-3.41804e-12
-2.0155e-12
4.15574e-11
1.3226e-11
3.71878e-11
8.08629e-12
4.25808e-11
5.61503e-12
5.01388e-11
3.09987e-12
6.68478e-11
-1.57748e-11
7.21393e-11
-7.98855e-11
1.5825e-10
1.17859e-10
-1.62718e-09
9.93217e-10
1.34152e-09
-1.69636e-09
-9.62772e-10
1.92437e-10
-1.12237e-10
-3.48325e-10
-2.5149e-10
-1.29634e-10
-4.91662e-11
-4.46698e-11
-2.28688e-11
-2.73606e-11
-3.16002e-12
-1.1289e-11
9.88103e-12
1.29364e-12
2.07567e-11
4.13974e-12
2.12478e-11
8.90541e-12
2.90488e-11
1.19323e-11
2.9491e-11
1.38848e-11
3.40493e-11
1.79047e-11
3.73347e-11
1.78333e-11
3.67428e-11
1.86636e-11
4.03356e-11
2.27203e-11
4.38473e-11
2.02754e-11
4.02922e-11
1.89569e-11
4.34555e-11
1.95988e-11
4.76541e-11
2.11022e-11
7.49585e-11
-2.00595e-12
-1.89357e-11
-4.82385e-12
4.19792e-11
1.33685e-11
3.76485e-11
7.3752e-12
4.34478e-11
4.51032e-12
5.15671e-11
1.49897e-12
6.90718e-11
-1.67467e-11
7.39634e-11
-7.76369e-11
1.56563e-10
1.33751e-10
-1.63926e-09
1.04783e-09
1.38455e-09
-1.79502e-09
-1.04761e-09
2.35754e-10
-5.2325e-11
-3.31841e-10
-2.55787e-10
-1.32247e-10
-4.93192e-11
-4.51078e-11
-2.49902e-11
-2.96551e-11
-5.74161e-12
-1.32717e-11
7.67762e-12
-2.73468e-13
1.90771e-11
3.12415e-12
1.97584e-11
7.96857e-12
2.78097e-11
1.13818e-11
2.84022e-11
1.34156e-11
3.31505e-11
1.77101e-11
3.66054e-11
1.77739e-11
3.60193e-11
1.85982e-11
3.9711e-11
2.28285e-11
4.33922e-11
2.0481e-11
3.97719e-11
1.89866e-11
4.30922e-11
1.96795e-11
4.77635e-11
2.10381e-11
8.32944e-11
-2.20411e-14
-2.86714e-11
-6.81435e-12
4.205e-11
1.3509e-11
3.80263e-11
6.81857e-12
4.40585e-11
3.72146e-12
5.25197e-11
5.70548e-13
7.03368e-11
-1.63831e-11
7.42022e-11
-7.29121e-11
1.52444e-10
1.4868e-10
-1.63535e-09
1.07891e-09
1.41379e-09
-1.8619e-09
-1.12518e-09
2.64516e-10
3.9916e-12
-3.12404e-10
-2.59119e-10
-1.35605e-10
-5.00827e-11
-4.56502e-11
-2.71212e-11
-3.19736e-11
-8.42707e-12
-1.53206e-11
5.38419e-12
-1.89713e-12
1.72935e-11
2.06937e-12
1.82145e-11
7.00494e-12
2.64872e-11
1.0802e-11
2.72637e-11
1.29333e-11
3.21933e-11
1.7503e-11
3.58234e-11
1.77141e-11
3.52613e-11
1.85412e-11
3.90414e-11
2.29453e-11
4.2877e-11
2.07187e-11
3.91921e-11
1.91058e-11
4.25451e-11
2.00895e-11
4.70958e-11
2.20657e-11
7.41495e-11
3.39816e-13
-1.92813e-11
-5.96698e-12
4.19871e-11
1.37834e-11
3.83507e-11
6.49614e-12
4.4378e-11
3.31203e-12
5.29502e-11
3.63765e-13
7.06415e-11
-1.47491e-11
7.30752e-11
-6.61597e-11
1.46648e-10
1.61729e-10
-1.61577e-09
1.08811e-09
1.42726e-09
-1.89803e-09
-1.1926e-09
2.79088e-10
5.52693e-11
-2.90335e-10
-2.61189e-10
-1.39638e-10
-5.15413e-11
-4.6339e-11
-2.92479e-11
-3.42968e-11
-1.12012e-11
-1.74272e-11
3.01109e-12
-3.56969e-12
1.54163e-11
9.7826e-13
1.66231e-11
6.01898e-12
2.50891e-11
1.01934e-11
2.60799e-11
1.24393e-11
3.11822e-11
1.72827e-11
3.49933e-11
1.76534e-11
3.44726e-11
1.8493e-11
3.83299e-11
2.30689e-11
4.2306e-11
2.09819e-11
3.85639e-11
1.92918e-11
4.18714e-11
2.06874e-11
4.59908e-11
2.30537e-11
5.98902e-11
5.27362e-12
-2.70942e-12
-3.89563e-12
4.1488e-11
1.40787e-11
3.85216e-11
6.41596e-12
4.4362e-11
3.3104e-12
5.28303e-11
8.8128e-13
7.00333e-11
-1.19663e-11
7.08244e-11
-5.78465e-11
1.39867e-10
1.7227e-10
-1.58112e-09
1.0773e-09
1.42364e-09
-1.90491e-09
-1.24755e-09
2.80279e-10
1.00354e-10
-2.66068e-10
-2.61775e-10
-1.44263e-10
-5.37655e-11
-4.72235e-11
-3.13647e-11
-3.66097e-11
-1.40514e-11
-1.95872e-11
5.66198e-13
-5.28489e-12
1.34558e-11
-1.46757e-13
1.499e-11
5.01415e-12
2.3623e-11
9.556e-12
2.48552e-11
1.1935e-11
3.01217e-11
1.70486e-11
3.41194e-11
1.75915e-11
3.36566e-11
1.84537e-11
3.75795e-11
2.31983e-11
4.16835e-11
2.12658e-11
3.78979e-11
1.95212e-11
4.11277e-11
2.13158e-11
4.48114e-11
2.34341e-11
5.05443e-11
1.27411e-11
8.9669e-12
-1.96773e-12
4.05609e-11
1.43673e-11
3.84895e-11
6.59681e-12
4.39906e-11
3.73091e-12
5.21668e-11
2.09911e-12
6.85957e-11
-8.1861e-12
6.7717e-11
-4.84044e-11
1.32672e-10
1.79981e-10
-1.53232e-09
1.04845e-09
1.40207e-09
-1.8843e-09
-1.28818e-09
2.69257e-10
1.38377e-10
-2.40128e-10
-2.60734e-10
-1.49372e-10
-5.68033e-11
-4.83546e-11
-3.34729e-11
-3.89004e-11
-1.69661e-11
-2.17965e-11
-1.94418e-12
-7.038e-12
1.14221e-11
-1.30312e-12
1.33198e-11
3.99301e-12
2.20964e-11
8.89e-12
2.35926e-11
1.1421e-11
2.90161e-11
1.68007e-11
3.32064e-11
1.7528e-11
3.28153e-11
1.84237e-11
3.6792e-11
2.33341e-11
4.10118e-11
2.15738e-11
3.7189e-11
1.98059e-11
4.02967e-11
2.19981e-11
4.3519e-11
2.37656e-11
4.44899e-11
1.6459e-11
1.7628e-11
4.91905e-13
3.96222e-11
1.47716e-11
3.82694e-11
7.06981e-12
4.32739e-11
4.57245e-12
5.09868e-11
3.96586e-12
6.64351e-11
-3.57113e-12
6.39967e-11
-3.82117e-11
1.25409e-10
1.84843e-10
-1.47031e-09
1.00318e-09
1.36242e-09
-1.8384e-09
-1.31345e-09
2.47422e-10
1.68859e-10
-2.1307e-10
-2.58005e-10
-1.54844e-10
-6.0674e-11
-4.9778e-11
-3.55771e-11
-4.11591e-11
-1.99334e-11
-2.40507e-11
-4.51352e-12
-8.82538e-12
9.32455e-12
-2.48835e-12
1.16171e-11
2.95697e-12
2.05163e-11
8.19629e-12
2.22957e-11
1.08974e-11
2.78699e-11
1.65385e-11
3.22588e-11
1.74629e-11
3.19517e-11
1.84022e-11
3.59709e-11
2.34746e-11
4.02964e-11
2.19017e-11
3.64436e-11
2.01336e-11
3.93965e-11
2.27008e-11
4.21814e-11
2.41621e-11
4.02461e-11
1.87399e-11
2.42408e-11
3.37698e-12
3.87266e-11
1.52891e-11
3.78389e-11
7.8282e-12
4.22268e-11
5.81301e-12
4.9336e-11
6.41054e-12
6.36782e-11
1.71255e-12
5.98897e-11
-2.7568e-11
1.18228e-10
1.8704e-10
-1.39618e-09
9.43046e-10
1.30511e-09
-1.76972e-09
-1.32307e-09
2.16383e-10
1.91732e-10
-1.85454e-10
-2.53621e-10
-1.60561e-10
-6.53702e-11
-5.15329e-11
-3.76856e-11
-4.33796e-11
-2.29423e-11
-2.63454e-11
-7.13504e-12
-1.06456e-11
7.17159e-12
-3.69927e-12
9.88684e-12
1.90586e-12
1.88888e-11
7.47596e-12
2.09677e-11
1.03636e-11
2.66877e-11
1.62609e-11
3.12806e-11
1.73958e-11
3.10693e-11
1.83884e-11
3.51206e-11
2.36162e-11
3.95435e-11
2.22441e-11
3.56728e-11
2.04841e-11
3.84605e-11
2.33652e-11
4.09126e-11
2.45234e-11
3.72828e-11
2.01174e-11
2.91372e-11
6.45819e-12
3.78562e-11
1.5915e-11
3.71874e-11
8.8527e-12
4.0877e-11
7.4198e-12
4.72855e-11
9.34414e-12
6.04627e-11
7.49862e-12
5.55986e-11
-1.66805e-11
1.11008e-10
1.86922e-10
-1.31091e-09
8.69568e-10
1.23134e-09
-1.6811e-09
-1.3177e-09
1.77835e-10
2.07369e-10
-1.57789e-10
-2.47698e-10
-1.66436e-10
-7.08813e-11
-5.36591e-11
-3.98147e-11
-4.55646e-11
-2.59883e-11
-2.86812e-11
-9.80541e-12
-1.25021e-11
4.96774e-12
-4.93387e-12
8.13267e-12
8.37124e-13
1.72174e-11
6.7297e-12
1.96112e-11
9.81762e-12
2.54728e-11
1.5966e-11
3.02749e-11
1.73268e-11
3.01717e-11
1.83805e-11
3.4246e-11
2.37547e-11
3.8758e-11
2.25976e-11
3.48852e-11
2.08443e-11
3.7507e-11
2.39758e-11
3.97393e-11
2.48232e-11
3.52481e-11
2.10087e-11
3.26321e-11
9.58844e-12
3.70122e-11
1.66634e-11
3.63286e-11
1.01208e-11
3.9269e-11
9.34673e-12
4.49221e-11
1.26683e-11
5.6938e-11
1.36316e-11
5.12938e-11
-5.61869e-12
1.03431e-10
1.84979e-10
-1.21552e-09
7.84185e-10
1.14298e-09
-1.57472e-09
-1.29866e-09
1.33213e-10
2.16416e-10
-1.3048e-10
-2.40376e-10
-1.72399e-10
-7.72002e-11
-5.61961e-11
-4.19849e-11
-4.77181e-11
-2.90721e-11
-3.10598e-11
-1.25258e-11
-1.43997e-11
2.71392e-12
-6.18886e-12
6.35658e-12
-2.50784e-13
1.55033e-11
5.95996e-12
1.82266e-11
9.25784e-12
2.42262e-11
1.56528e-11
2.92428e-11
1.72572e-11
2.926e-11
1.83776e-11
3.33492e-11
2.38874e-11
3.79434e-11
2.29615e-11
3.40862e-11
2.12053e-11
3.6543e-11
2.45321e-11
3.86536e-11
2.50778e-11
3.3863e-11
2.16612e-11
3.49929e-11
1.26748e-11
3.61953e-11
1.75448e-11
3.5284e-11
1.15978e-11
3.74477e-11
1.15378e-11
4.23332e-11
1.62799e-11
5.32348e-11
1.99873e-11
4.70734e-11
5.71815e-12
9.4932e-11
1.81804e-10
-1.11084e-09
6.87739e-10
6.43043e-10
3.26913e-10
-3.35731e-10
-6.47265e-10
-5.53856e-10
-3.84488e-10
-2.22072e-10
-1.34824e-10
-5.89112e-11
-3.93581e-11
-4.67908e-12
-8.06293e-12
1.54347e-11
4.43853e-12
2.56506e-11
1.28164e-11
3.07086e-11
1.26145e-11
3.24131e-11
1.65535e-11
3.63898e-11
1.68534e-11
3.72275e-11
1.80949e-11
3.95684e-11
1.99053e-11
4.13979e-11
1.92475e-11
4.17138e-11
2.00139e-11
4.40686e-11
2.23252e-11
4.53926e-11
1.9665e-11
4.38122e-11
1.9463e-11
4.45138e-11
1.96989e-11
4.42358e-11
1.74667e-11
4.16552e-11
1.70877e-11
4.0829e-11
1.44079e-11
3.75093e-11
1.06417e-11
3.33805e-11
1.2229e-11
3.24331e-11
1.56037e-11
3.17778e-11
2.49874e-11
2.64022e-11
2.72913e-11
-1.56949e-12
2.62404e-11
-2.59652e-11
-2.56882e-12
-9.23274e-10
-2.10014e-10
6.702e-10
3.43271e-10
-3.42475e-10
-6.52871e-10
-5.55756e-10
-3.84679e-10
-2.22267e-10
-1.3502e-10
-5.92953e-11
-3.96801e-11
-5.07202e-12
-8.30638e-12
1.51233e-11
4.26657e-12
2.54072e-11
1.27242e-11
3.05066e-11
1.25291e-11
3.22302e-11
1.65291e-11
3.62354e-11
1.6835e-11
3.70805e-11
1.81141e-11
3.94382e-11
1.99425e-11
4.12735e-11
1.92893e-11
4.15898e-11
2.00782e-11
4.39553e-11
2.24102e-11
4.5275e-11
1.97374e-11
4.36864e-11
1.95703e-11
4.43979e-11
1.98202e-11
4.412e-11
1.75863e-11
4.15079e-11
1.71663e-11
4.0677e-11
1.45813e-11
3.7402e-11
1.08321e-11
3.32712e-11
1.24791e-11
3.23522e-11
1.58724e-11
3.17406e-11
2.53144e-11
2.64593e-11
2.75778e-11
-1.42658e-12
2.62709e-11
-2.27844e-11
6.39181e-12
-9.40214e-10
-2.31198e-10
7.06506e-10
3.49281e-10
-3.5291e-10
-6.55522e-10
-5.56617e-10
-3.84555e-10
-2.22135e-10
-1.35154e-10
-5.95349e-11
-4.01552e-11
-5.49184e-12
-8.7621e-12
1.48108e-11
3.89027e-12
2.51695e-11
1.24604e-11
3.03766e-11
1.22746e-11
3.2091e-11
1.6343e-11
3.61725e-11
1.66622e-11
3.70195e-11
1.79853e-11
3.94157e-11
1.98332e-11
4.12725e-11
1.91814e-11
4.1585e-11
1.99947e-11
4.39698e-11
2.23513e-11
4.53155e-11
1.96552e-11
4.3697e-11
1.95274e-11
4.44385e-11
1.97913e-11
4.41753e-11
1.75599e-11
4.15067e-11
1.70433e-11
4.06589e-11
1.45956e-11
3.75037e-11
1.08995e-11
3.33382e-11
1.2612e-11
3.24786e-11
1.60205e-11
3.18796e-11
2.55063e-11
2.6754e-11
2.77386e-11
-9.14873e-13
2.50997e-11
-1.9378e-11
2.21332e-11
-9.69193e-10
-2.46818e-10
7.45044e-10
3.32862e-10
-3.64117e-10
-6.5141e-10
-5.56191e-10
-3.84155e-10
-2.21599e-10
-1.34905e-10
-5.95215e-11
-4.05973e-11
-5.98124e-12
-9.33646e-12
1.44085e-11
3.40804e-12
2.48415e-11
1.21181e-11
3.02178e-11
1.19428e-11
3.1879e-11
1.60914e-11
3.60913e-11
1.64367e-11
3.69218e-11
1.78138e-11
3.93775e-11
1.96941e-11
4.12753e-11
1.90427e-11
4.15687e-11
1.9884e-11
4.39831e-11
2.22767e-11
4.5386e-11
1.95526e-11
4.37009e-11
1.94654e-11
4.44974e-11
1.97521e-11
4.42665e-11
1.75298e-11
4.15192e-11
1.68557e-11
4.06134e-11
1.45695e-11
3.76861e-11
1.09685e-11
3.34558e-11
1.2725e-11
3.27217e-11
1.61015e-11
3.21781e-11
2.55259e-11
2.74737e-11
2.74101e-11
5.18817e-13
2.16873e-11
-1.22494e-11
3.76662e-11
-1.00653e-09
-2.44297e-10
7.79437e-10
2.82347e-10
-3.74059e-10
-6.34164e-10
-5.53124e-10
-3.83794e-10
-2.20855e-10
-1.34223e-10
-5.92104e-11
-4.09669e-11
-6.56576e-12
-1.00207e-11
1.38794e-11
2.82036e-12
2.43837e-11
1.17046e-11
2.99923e-11
1.15466e-11
3.15558e-11
1.57846e-11
3.59556e-11
1.61788e-11
3.67464e-11
1.76168e-11
3.92873e-11
1.95462e-11
4.12424e-11
1.88995e-11
4.14987e-11
1.97691e-11
4.39545e-11
2.22186e-11
4.54467e-11
1.94645e-11
4.36526e-11
1.94145e-11
4.45323e-11
1.9736e-11
4.43546e-11
1.75372e-11
4.15157e-11
1.66489e-11
4.04625e-11
1.4523e-11
3.79053e-11
1.10817e-11
3.35813e-11
1.28183e-11
3.30583e-11
1.6088e-11
3.26609e-11
2.52782e-11
2.87315e-11
2.63313e-11
3.2488e-12
1.56374e-11
-3.15114e-13
4.93637e-11
-1.04993e-09
-2.13255e-10
8.09922e-10
1.90527e-10
-3.83933e-10
-6.00369e-10
-5.45842e-10
-3.83803e-10
-2.202e-10
-1.33186e-10
-5.86461e-11
-4.12828e-11
-7.27183e-12
-1.08335e-11
1.3208e-11
2.11953e-12
2.3787e-11
1.12096e-11
2.96914e-11
1.10933e-11
3.11182e-11
1.54211e-11
3.57569e-11
1.58927e-11
3.64893e-11
1.73926e-11
3.91399e-11
1.9392e-11
4.1167e-11
1.87563e-11
4.13666e-11
1.96523e-11
4.38774e-11
2.21785e-11
4.54858e-11
1.9399e-11
4.35422e-11
1.93754e-11
4.45332e-11
1.97481e-11
4.44305e-11
1.75962e-11
4.1497e-11
1.64258e-11
4.01665e-11
1.44417e-11
3.81491e-11
1.12383e-11
3.37186e-11
1.28679e-11
3.35019e-11
1.59269e-11
3.33793e-11
2.46335e-11
3.06643e-11
2.4269e-11
7.62082e-12
6.70565e-12
1.66675e-11
5.61632e-11
-1.10039e-09
-1.47831e-10
8.40098e-10
5.51733e-11
-3.97352e-10
-5.48598e-10
-5.32741e-10
-3.84261e-10
-2.19917e-10
-1.31891e-10
-5.78556e-11
-4.15736e-11
-8.12843e-12
-1.18001e-11
1.23727e-11
1.29634e-12
2.30433e-11
1.06232e-11
2.93063e-11
1.05875e-11
3.05684e-11
1.49998e-11
3.54921e-11
1.55859e-11
3.6151e-11
1.71434e-11
3.89344e-11
1.92361e-11
4.10439e-11
1.86198e-11
4.11708e-11
1.95376e-11
4.37485e-11
2.21594e-11
4.54969e-11
1.93649e-11
4.33686e-11
1.93514e-11
4.44943e-11
1.97934e-11
4.44906e-11
1.77151e-11
4.14788e-11
1.61833e-11
3.96919e-11
1.43116e-11
3.8422e-11
1.14325e-11
3.38809e-11
1.2836e-11
3.40724e-11
1.55609e-11
3.43937e-11
2.34935e-11
3.33711e-11
2.10702e-11
1.37485e-11
-4.86083e-12
3.79475e-11
5.86968e-11
-1.15872e-09
-4.72983e-11
8.73944e-10
-1.19614e-10
-4.17976e-10
-4.79724e-10
-5.12519e-10
-3.85056e-10
-2.20241e-10
-1.30426e-10
-5.6868e-11
-4.18607e-11
-9.15736e-12
-1.29455e-11
1.13472e-11
3.3918e-13
2.21383e-11
9.93402e-12
2.8818e-11
1.00296e-11
2.99064e-11
1.4519e-11
3.51509e-11
1.5262e-11
3.57308e-11
1.68724e-11
3.86675e-11
1.90827e-11
4.08691e-11
1.84966e-11
4.0911e-11
1.94303e-11
4.3566e-11
2.21658e-11
4.54705e-11
1.937e-11
4.31316e-11
1.93432e-11
4.44135e-11
1.98737e-11
4.45352e-11
1.78982e-11
4.14885e-11
1.59085e-11
3.90185e-11
1.41173e-11
3.87276e-11
1.16491e-11
3.40884e-11
1.26879e-11
3.47936e-11
1.49419e-11
3.57446e-11
2.17994e-11
3.6862e-11
1.67837e-11
2.14499e-11
-1.8288e-11
6.16994e-11
5.89299e-11
-1.2243e-09
8.23612e-11
9.15218e-10
-3.24968e-10
-4.49149e-10
-3.96773e-10
-4.8431e-10
-3.85839e-10
-2.21373e-10
-1.28904e-10
-5.57153e-11
-4.21544e-11
-1.0378e-11
-1.4277e-11
1.01194e-11
-7.60805e-13
2.10632e-11
9.13102e-12
2.82071e-11
9.41723e-12
2.91295e-11
1.39766e-11
3.47203e-11
1.49205e-11
3.52259e-11
1.65804e-11
3.83348e-11
1.89327e-11
4.06363e-11
1.83908e-11
4.05863e-11
1.93341e-11
4.33294e-11
2.21996e-11
4.54003e-11
1.94181e-11
4.28362e-11
1.93519e-11
4.42898e-11
1.99884e-11
4.45696e-11
1.81432e-11
4.15574e-11
1.55854e-11
3.81268e-11
1.38569e-11
3.90755e-11
1.18678e-11
3.43626e-11
1.23978e-11
3.56768e-11
1.40556e-11
3.74385e-11
1.95686e-11
4.10415e-11
1.16235e-11
3.02519e-11
-3.2481e-11
8.57548e-11
5.92263e-11
-1.29536e-09
2.30911e-10
9.65543e-10
-5.4964e-10
-4.92965e-10
-3.04173e-10
-4.47903e-10
-3.8614e-10
-2.23439e-10
-1.2746e-10
-5.44323e-11
-4.24542e-11
-1.17819e-11
-1.57895e-11
8.68657e-12
-2.00184e-12
1.98177e-11
8.21379e-12
2.74607e-11
8.74758e-12
2.82398e-11
1.3371e-11
3.41903e-11
1.45592e-11
3.46353e-11
1.62659e-11
3.79312e-11
1.87875e-11
4.03394e-11
1.83003e-11
4.01975e-11
1.92485e-11
4.30381e-11
2.226e-11
4.52808e-11
1.95091e-11
4.24876e-11
1.9377e-11
4.41238e-11
2.01353e-11
4.45915e-11
1.84487e-11
4.17208e-11
1.51909e-11
3.70046e-11
1.35262e-11
3.94726e-11
1.207e-11
3.47209e-11
1.19557e-11
3.67183e-11
1.29136e-11
3.94397e-11
1.68975e-11
4.57124e-11
5.96484e-12
3.95195e-11
-4.62237e-11
1.08071e-10
6.14897e-11
-1.36855e-09
3.87759e-10
1.02442e-09
-7.80411e-10
-5.50102e-10
-2.0715e-10
-4.03723e-10
-3.85398e-10
-2.26474e-10
-1.26244e-10
-5.30811e-11
-4.27544e-11
-1.33562e-11
-1.74715e-11
7.05363e-12
-3.37712e-12
1.84072e-11
7.18264e-12
2.65731e-11
8.02196e-12
2.72401e-11
1.27039e-11
3.35552e-11
1.41754e-11
3.39591e-11
1.5928e-11
3.74529e-11
1.86434e-11
3.99748e-11
1.82239e-11
3.97464e-11
1.91738e-11
4.26912e-11
2.23446e-11
4.51077e-11
1.96385e-11
4.20925e-11
1.94171e-11
4.39161e-11
2.03094e-11
4.46033e-11
1.88078e-11
4.20104e-11
1.47004e-11
3.56555e-11
1.31254e-11
3.99198e-11
1.2245e-11
3.5163e-11
1.13703e-11
3.78873e-11
1.1559e-11
4.16603e-11
1.3938e-11
5.061e-11
2.39124e-13
4.85706e-11
-5.84214e-11
1.27086e-10
6.69132e-11
-1.43958e-09
5.42187e-10
1.08948e-09
-1.00598e-09
-6.19431e-10
-1.10687e-10
-3.52754e-10
-3.83036e-10
-2.3041e-10
-1.25413e-10
-5.17305e-11
-4.30522e-11
-1.50818e-11
-1.93075e-11
5.22906e-12
-4.87778e-12
1.68371e-11
6.04347e-12
2.55414e-11
7.24142e-12
2.61362e-11
1.1979e-11
3.28109e-11
1.37664e-11
3.31996e-11
1.5566e-11
3.68979e-11
1.84986e-11
3.95404e-11
1.81586e-11
3.92361e-11
1.9108e-11
4.22894e-11
2.24488e-11
4.48811e-11
1.98006e-11
4.16555e-11
1.94681e-11
4.36657e-11
2.05036e-11
4.46042e-11
1.92054e-11
4.24573e-11
1.41125e-11
3.40881e-11
1.26688e-11
4.04103e-11
1.23859e-11
3.5676e-11
1.06717e-11
3.91462e-11
1.00601e-11
4.39826e-11
1.08806e-11
5.54458e-11
-5.10542e-12
5.67918e-11
-6.82165e-11
1.41811e-10
7.59472e-11
-1.50426e-09
6.85141e-10
1.15756e-09
-1.21653e-09
-6.98695e-10
-1.93585e-11
-2.9638e-10
-3.78487e-10
-2.35053e-10
-1.25109e-10
-5.04716e-11
-4.33471e-11
-1.69343e-11
-2.12774e-11
3.22514e-12
-6.49461e-12
1.51181e-11
4.80163e-12
2.43673e-11
6.40865e-12
2.49365e-11
1.12015e-11
3.19574e-11
1.33306e-11
3.2361e-11
1.5181e-11
3.62669e-11
1.83502e-11
3.90377e-11
1.8101e-11
3.86702e-11
1.90486e-11
4.18337e-11
2.25678e-11
4.46004e-11
1.99896e-11
4.11833e-11
1.95276e-11
4.3374e-11
2.07125e-11
4.45871e-11
1.96257e-11
4.30727e-11
1.34435e-11
3.23339e-11
1.21763e-11
4.09241e-11
1.24957e-11
3.62383e-11
9.89775e-12
4.04171e-11
8.5148e-12
4.62739e-11
7.92851e-12
5.99341e-11
-9.69203e-12
6.37092e-11
-7.50751e-11
1.51893e-10
8.81891e-11
-1.55907e-09
8.10122e-10
1.22503e-09
-1.40491e-09
-7.84902e-10
6.31666e-11
-2.3629e-10
-3.71273e-10
-2.40128e-10
-1.25445e-10
-4.94e-11
-4.36444e-11
-1.8888e-11
-2.33587e-11
1.05646e-12
-8.21358e-12
1.32628e-11
3.46788e-12
2.30556e-11
5.52704e-12
2.36509e-11
1.03766e-11
3.09965e-11
1.28672e-11
3.14491e-11
1.47746e-11
3.55615e-11
1.81954e-11
3.8469e-11
1.80476e-11
3.80531e-11
1.89942e-11
4.13272e-11
2.26969e-11
4.42659e-11
2.01987e-11
4.06821e-11
1.9595e-11
4.30408e-11
2.09323e-11
4.4541e-11
2.00513e-11
4.3834e-11
1.27523e-11
3.04693e-11
1.16746e-11
4.14307e-11
1.2587e-11
3.68205e-11
9.09867e-12
4.16336e-11
7.02567e-12
4.84004e-11
5.27832e-12
6.38327e-11
-1.32334e-11
6.90213e-11
-7.87803e-11
1.57503e-10
1.02722e-10
-1.60134e-09
9.13276e-10
1.28798e-09
-1.56594e-09
-8.74429e-10
1.34152e-10
-1.74366e-10
-3.61077e-10
-2.4531e-10
-1.26506e-10
-4.86236e-11
-4.39582e-11
-2.09163e-11
-2.55286e-11
-1.26139e-12
-1.00245e-11
1.12837e-11
2.05162e-12
2.16128e-11
4.59939e-12
2.22879e-11
9.51006e-12
2.99332e-11
1.23751e-11
3.04699e-11
1.43485e-11
3.47851e-11
1.80318e-11
3.78371e-11
1.79957e-11
3.73903e-11
1.89435e-11
4.07733e-11
2.28318e-11
4.38797e-11
2.0423e-11
4.01564e-11
1.96706e-11
4.26662e-11
2.11606e-11
4.44496e-11
2.0458e-11
4.46515e-11
1.21492e-11
2.86508e-11
1.11969e-11
4.18874e-11
1.26766e-11
3.73861e-11
8.33491e-12
4.27247e-11
5.68971e-12
5.02366e-11
3.08946e-12
6.69556e-11
-1.55422e-11
7.25899e-11
-7.93833e-11
1.59112e-10
1.18477e-10