/*--------------------------------*- C++ -*----------------------------------*\
| =========                 |                                                 |
| \\      /  F ield         | OpenFOAM: The Open Source CFD Toolbox           |
|  \\    /   O peration     | Version:  2312                                  |
|   \\  /    A nd           | Website:  www.openfoam.com                      |
|    \\/     M anipulation  |                                                 |
\*---------------------------------------------------------------------------*/
FoamFile
{
    version     2.0;
    format      ascii;
    arch        "LSB;label=32;scalar=64";
    class       volScalarField;
    location    "880";
    object      pPrime2Mean;
}
// * * * * * * * * * * * * * * * * * * * * * * * * * * * * * * * * * * * * * //

dimensions      [0 4 -4 0 0 0 0];

internalField   nonuniform List<scalar> 
144000
(
3.00399e-18
3.52714e-18
3.30855e-18
2.75655e-18
1.95964e-18
1.37859e-18
1.01938e-18
7.5268e-19
5.59316e-19
4.60346e-19
4.30581e-19
3.89263e-19
3.32767e-19
2.66384e-19
2.23424e-19
1.87581e-19
1.72685e-19
1.47426e-19
1.37562e-19
1.21625e-19
1.10209e-19
9.05629e-20
9.20685e-20
6.90116e-20
7.33327e-20
5.7231e-20
5.83053e-20
4.68189e-20
4.67305e-20
3.63235e-20
3.86352e-20
2.79046e-20
3.22145e-20
2.29894e-20
2.4687e-20
2.40525e-20
1.34645e-20
2.68226e-20
9.60506e-21
1.73404e-20
2.22419e-20
2.54087e-21
3.41026e-20
8.32048e-21
2.48377e-20
3.75244e-20
1.47364e-20
5.13981e-20
4.00164e-20
4.29202e-20
7.73179e-20
6.7896e-20
9.92108e-20
1.43101e-19
1.78584e-19
2.65582e-19
4.26781e-19
7.6762e-19
2.00556e-18
1.9382e-18
3.15421e-18
3.61068e-18
3.39654e-18
2.82257e-18
1.98976e-18
1.39594e-18
1.03079e-18
7.5999e-19
5.63367e-19
4.62763e-19
4.32595e-19
3.91045e-19
3.34055e-19
2.6723e-19
2.23995e-19
1.88032e-19
1.73105e-19
1.47772e-19
1.37798e-19
1.21941e-19
1.10461e-19
9.06645e-20
9.2278e-20
6.91852e-20
7.34097e-20
5.7415e-20
5.83853e-20
4.69579e-20
4.68269e-20
3.64102e-20
3.87596e-20
2.79662e-20
3.2335e-20
2.31083e-20
2.47178e-20
2.43609e-20
1.33733e-20
2.71846e-20
9.7673e-21
1.73373e-20
2.29148e-20
2.35254e-21
3.47771e-20
8.78576e-21
2.49564e-20
3.88536e-20
1.50119e-20
5.26317e-20
4.16702e-20
4.40453e-20
8.00305e-20
7.076e-20
1.02809e-19
1.49107e-19
1.86242e-19
2.76904e-19
4.45731e-19
7.97001e-19
2.09351e-18
1.98968e-18
3.26813e-18
3.67454e-18
3.43026e-18
2.84102e-18
1.99545e-18
1.40083e-18
1.03628e-18
7.64479e-19
5.66098e-19
4.64475e-19
4.34403e-19
3.92762e-19
3.35348e-19
2.68003e-19
2.24552e-19
1.88448e-19
1.73634e-19
1.48125e-19
1.38079e-19
1.22312e-19
1.10796e-19
9.072e-20
9.263e-20
6.93181e-20
7.36054e-20
5.75987e-20
5.85573e-20
4.71134e-20
4.70182e-20
3.64999e-20
3.90053e-20
2.80265e-20
3.25772e-20
2.32754e-20
2.48149e-20
2.48475e-20
1.32608e-20
2.78072e-20
1.00113e-20
1.74404e-20
2.39634e-20
2.13872e-21
3.59231e-20
9.50105e-21
2.53424e-20
4.08867e-20
1.56071e-20
5.46594e-20
4.42645e-20
4.59751e-20
8.42317e-20
7.51786e-20
1.08222e-19
1.57631e-19
1.9662e-19
2.90642e-19
4.66428e-19
8.28684e-19
2.18432e-18
2.04025e-18
3.25966e-18
3.62648e-18
3.36705e-18
2.76946e-18
1.95866e-18
1.38111e-18
1.02707e-18
7.60262e-19
5.63623e-19
4.62933e-19
4.33932e-19
3.92817e-19
3.3542e-19
2.67952e-19
2.24509e-19
1.88428e-19
1.73856e-19
1.48218e-19
1.38116e-19
1.22532e-19
1.11022e-19
9.06494e-20
9.29083e-20
6.93964e-20
7.37505e-20
5.77689e-20
5.87176e-20
4.72693e-20
4.72055e-20
3.6593e-20
3.92725e-20
2.80855e-20
3.28579e-20
2.34657e-20
2.49212e-20
2.54259e-20
1.31256e-20
2.85553e-20
1.03111e-20
1.75746e-20
2.52113e-20
1.92081e-21
3.72608e-20
1.03985e-20
2.57947e-20
4.3268e-20
1.63642e-20
5.69702e-20
4.73112e-20
4.8175e-20
8.88863e-20
8.01227e-20
1.13836e-19
1.6637e-19
2.06461e-19
3.01957e-19
4.80974e-19
8.36998e-19
2.24398e-18
2.0249e-18
3.13542e-18
3.51244e-18
3.22124e-18
2.60909e-18
1.88205e-18
1.33624e-18
1.00148e-18
7.45419e-19
5.54267e-19
4.56565e-19
4.29626e-19
3.89824e-19
3.33294e-19
2.66421e-19
2.23394e-19
1.87602e-19
1.73411e-19
1.4778e-19
1.37674e-19
1.22357e-19
1.10945e-19
9.03513e-20
9.29437e-20
6.93377e-20
7.37634e-20
5.78432e-20
5.88011e-20
4.737e-20
4.73318e-20
3.66505e-20
3.95056e-20
2.812e-20
3.3119e-20
2.36437e-20
2.49967e-20
2.60097e-20
1.2973e-20
2.92929e-20
1.06312e-20
1.76895e-20
2.64661e-20
1.72675e-21
3.85298e-20
1.13636e-20
2.61854e-20
4.56012e-20
1.71567e-20
5.90779e-20
5.02978e-20
5.02058e-20
9.30889e-20
8.46902e-20
1.18447e-19
1.73442e-19
2.13826e-19
3.08406e-19
4.88575e-19
8.21461e-19
2.28609e-18
1.96796e-18
2.97885e-18
3.45617e-18
3.04294e-18
2.39767e-18
1.78099e-18
1.27545e-18
9.62863e-19
7.21317e-19
5.38621e-19
4.45454e-19
4.2123e-19
3.8343e-19
3.28617e-19
2.6311e-19
2.20994e-19
1.85789e-19
1.7213e-19
1.46669e-19
1.36631e-19
1.21641e-19
1.10435e-19
8.97505e-20
9.26355e-20
6.90597e-20
7.3589e-20
5.77598e-20
5.87637e-20
4.73758e-20
4.73557e-20
3.66438e-20
3.96601e-20
2.81049e-20
3.33139e-20
2.37798e-20
2.50107e-20
2.65322e-20
1.28029e-20
2.99453e-20
1.09332e-20
1.77669e-20
2.75905e-20
1.56972e-21
3.95883e-20
1.22791e-20
2.64703e-20
4.75846e-20
1.78911e-20
6.07617e-20
5.2835e-20
5.18968e-20
9.63465e-20
8.84228e-20
1.21753e-19
1.78441e-19
2.18461e-19
3.10943e-19
4.90957e-19
7.90206e-19
2.34504e-18
1.92872e-18
2.82985e-18
3.53716e-18
2.86237e-18
2.16525e-18
1.66298e-18
1.20328e-18
9.14087e-19
6.89768e-19
5.17761e-19
4.30343e-19
4.09207e-19
3.73869e-19
3.21492e-19
2.58074e-19
2.17338e-19
1.83016e-19
1.70008e-19
1.44871e-19
1.34989e-19
1.20353e-19
1.09461e-19
8.88209e-20
9.19424e-20
6.85135e-20
7.31905e-20
5.74939e-20
5.85626e-20
4.72692e-20
4.72509e-20
3.65567e-20
3.97079e-20
2.80301e-20
3.34124e-20
2.38586e-20
2.49482e-20
2.69555e-20
1.26166e-20
3.04624e-20
1.11898e-20
1.78111e-20
2.85207e-20
1.44785e-21
4.04053e-20
1.30661e-20
2.6666e-20
4.91363e-20
1.84991e-20
6.20224e-20
5.4777e-20
5.32433e-20
9.86614e-20
9.11956e-20
1.2388e-19
1.81477e-19
2.20595e-19
3.10705e-19
4.89114e-19
7.49143e-19
2.43343e-18
1.95344e-18
2.70338e-18
3.78326e-18
2.69294e-18
1.93406e-18
1.53118e-18
1.12227e-18
8.57283e-19
6.52216e-19
4.92776e-19
4.12054e-19
3.94227e-19
3.61707e-19
3.12307e-19
2.5153e-19
2.12568e-19
1.79379e-19
1.67128e-19
1.42468e-19
1.32823e-19
1.18554e-19
1.08066e-19
8.75827e-20
9.08877e-20
6.77051e-20
7.2555e-20
5.70512e-20
5.8185e-20
4.70517e-20
4.70121e-20
3.63893e-20
3.96409e-20
2.78987e-20
3.34033e-20
2.38818e-20
2.48057e-20
2.72718e-20
1.24181e-20
3.08474e-20
1.14003e-20
1.78231e-20
2.92792e-20
1.34696e-21
4.1012e-20
1.37209e-20
2.67935e-20
5.03176e-20
1.89533e-20
6.30006e-20
5.61699e-20
5.42906e-20
1.00254e-19
9.31147e-20
1.25037e-19
1.82944e-19
2.20488e-19
3.0857e-19
4.83194e-19
7.02889e-19
2.54778e-18
2.05489e-18
2.60482e-18
4.16192e-18
2.54204e-18
1.72204e-18
1.38983e-18
1.03519e-18
7.94854e-19
6.10414e-19
4.6498e-19
3.91524e-19
3.77139e-19
3.4761e-19
3.01563e-19
2.43817e-19
2.06898e-19
1.75028e-19
1.63613e-19
1.39565e-19
1.3024e-19
1.16348e-19
1.06334e-19
8.60894e-20
8.95329e-20
6.66764e-20
7.16866e-20
5.64551e-20
5.76327e-20
4.67344e-20
4.66466e-20
3.61548e-20
3.94675e-20
2.77231e-20
3.32916e-20
2.38634e-20
2.45866e-20
2.74989e-20
1.22126e-20
3.11118e-20
1.15907e-20
1.77913e-20
2.99314e-20
1.24433e-21
4.14684e-20
1.42915e-20
2.68228e-20
5.12724e-20
1.92175e-20
6.37469e-20
5.71318e-20
5.49783e-20
1.01263e-19
9.4173e-20
1.25177e-19
1.82993e-19
2.18129e-19
3.04424e-19
4.72483e-19
6.54854e-19
2.67117e-18
2.20616e-18
2.53128e-18
4.59649e-18
2.41544e-18
1.53748e-18
1.24552e-18
9.45013e-19
7.29576e-19
5.66245e-19
4.35647e-19
3.69733e-19
3.58723e-19
3.32245e-19
2.89791e-19
2.35308e-19
2.00596e-19
1.70157e-19
1.59614e-19
1.36274e-19
1.27339e-19
1.13842e-19
1.04377e-19
8.44096e-20
8.79597e-20
6.54963e-20
7.06062e-20
5.5747e-20
5.69205e-20
4.63319e-20
4.61674e-20
3.58708e-20
3.92012e-20
2.75174e-20
3.30862e-20
2.38225e-20
2.42916e-20
2.76539e-20
1.20049e-20
3.1252e-20
1.17996e-20
1.76761e-20
3.05453e-20
1.11854e-21
4.17595e-20
1.48448e-20
2.66559e-20
5.20737e-20
1.92437e-20
6.41623e-20
5.7713e-20
5.50954e-20
1.01568e-19
9.42652e-20
1.23977e-19
1.81358e-19
2.12974e-19
2.9734e-19
4.54578e-19
6.05521e-19
2.7776e-18
2.34711e-18
2.46952e-18
4.97147e-18
2.31543e-18
1.37801e-18
1.10555e-18
8.54991e-19
6.64224e-19
5.21528e-19
4.06037e-19
3.47592e-19
3.39734e-19
3.1625e-19
2.77475e-19
2.26364e-19
1.93933e-19
1.64974e-19
1.55289e-19
1.32727e-19
1.24202e-19
1.11126e-19
1.02294e-19
8.26135e-20
8.62395e-20
6.4244e-20
6.93503e-20
5.496e-20
5.60735e-20
4.5853e-20
4.55923e-20
3.55526e-20
3.88523e-20
2.72947e-20
3.27933e-20
2.3772e-20
2.39209e-20
2.77472e-20
1.17991e-20
3.12465e-20
1.20604e-20
1.74285e-20
3.11468e-20
9.57017e-22
4.18163e-20
1.54179e-20
2.61846e-20
5.26734e-20
1.89822e-20
6.40488e-20
5.78572e-20
5.4425e-20
1.00952e-19
9.31679e-20
1.2101e-19
1.77651e-19
2.0465e-19
2.86402e-19
4.28765e-19
5.54611e-19
2.83372e-18
2.41883e-18
2.40326e-18
5.19704e-18
2.23899e-18
1.23728e-18
9.7579e-19
7.67845e-19
6.01118e-19
4.77752e-19
3.77123e-19
3.25844e-19
3.20796e-19
3.00144e-19
2.65012e-19
2.17287e-19
1.87134e-19
1.59657e-19
1.50787e-19
1.29034e-19
1.20913e-19
1.08274e-19
1.00148e-19
8.07639e-20
8.44267e-20
6.29885e-20
6.79635e-20
5.41288e-20
5.51213e-20
4.53068e-20
4.49356e-20
3.521e-20
3.84258e-20
2.70653e-20
3.24222e-20
2.37181e-20
2.34725e-20
2.77749e-20
1.1601e-20
3.10632e-20
1.23795e-20
1.70113e-20
3.17218e-20
7.61412e-22
4.15701e-20
1.60038e-20
2.53226e-20
5.29904e-20
1.84151e-20
6.32653e-20
5.75123e-20
5.28705e-20
9.92696e-20
9.08154e-20
1.16217e-19
1.71789e-19
1.93263e-19
2.71384e-19
3.96028e-19
5.02575e-19
2.81711e-18
2.38367e-18
2.31499e-18
5.21871e-18
2.17648e-18
1.1073e-18
8.59867e-19
6.85571e-19
5.42068e-19
4.36005e-19
3.49572e-19
3.05032e-19
3.02399e-19
2.84343e-19
2.5273e-19
2.08296e-19
1.80374e-19
1.54355e-19
1.46239e-19
1.253e-19
1.17556e-19
1.05351e-19
9.79835e-20
7.89122e-20
8.25619e-20
6.17801e-20
6.6499e-20
5.3282e-20
5.41024e-20
4.47047e-20
4.42133e-20
3.48472e-20
3.79246e-20
2.68372e-20
3.19774e-20
2.36597e-20
2.29561e-20
2.77257e-20
1.14167e-20
3.06827e-20
1.27451e-20
1.64344e-20
3.22775e-20
5.46222e-22
4.10068e-20
1.65781e-20
2.409e-20
5.29675e-20
1.75743e-20
6.17838e-20
5.66805e-20
5.04616e-20
9.65655e-20
8.73464e-20
1.09806e-19
1.64066e-19
1.79481e-19
2.52997e-19
3.58672e-19
4.50317e-19
2.71788e-18
2.23465e-18
2.19335e-18
5.02919e-18
2.11641e-18
9.82471e-19
7.59103e-19
6.09463e-19
4.88084e-19
3.97018e-19
3.23784e-19
2.8551e-19
2.84881e-19
2.69158e-19
2.40855e-19
1.99577e-19
1.73788e-19
1.49187e-19
1.41748e-19
1.21623e-19
1.14212e-19
1.02416e-19
9.58251e-20
7.70981e-20
8.06739e-20
6.06465e-20
6.49998e-20
5.24428e-20
5.30503e-20
4.40627e-20
4.34426e-20
3.44697e-20
3.73549e-20
2.66165e-20
3.14678e-20
2.35942e-20
2.23891e-20
2.75948e-20
1.12526e-20
3.0116e-20
1.31367e-20
1.57255e-20
3.28613e-20
3.35088e-22
4.02089e-20
1.7127e-20
2.25559e-20
5.26017e-20
1.65375e-20
5.96903e-20
5.54596e-20
4.73843e-20
9.30428e-20
8.30575e-20
1.02239e-19
1.55022e-19
1.64295e-19
2.32481e-19
3.19898e-19
3.9927e-19
2.54285e-18
1.99476e-18
2.03314e-18
4.66029e-18
2.04698e-18
8.61032e-19
6.72861e-19
5.40244e-19
4.39561e-19
3.61217e-19
2.99944e-19
2.67454e-19
2.68462e-19
2.54781e-19
2.29534e-19
1.91247e-19
1.67449e-19
1.44226e-19
1.3739e-19
1.18064e-19
1.10938e-19
9.95223e-20
9.36926e-20
7.53507e-20
7.87853e-20
5.95979e-20
6.35003e-20
5.16278e-20
5.19917e-20
4.34001e-20
4.26425e-20
3.40851e-20
3.67281e-20
2.64084e-20
3.09079e-20
2.352e-20
2.17956e-20
2.73875e-20
1.11173e-20
2.93911e-20
1.35435e-20
1.49084e-20
3.36235e-20
1.57918e-22
3.93861e-20
1.76592e-20
2.08118e-20
5.19428e-20
1.54053e-20
5.71087e-20
5.39858e-20
4.3872e-20
8.8962e-20
7.83043e-20
9.40372e-20
1.45278e-19
1.48746e-19
2.11193e-19
2.82415e-19
3.50719e-19
2.30827e-18
1.70128e-18
1.83757e-18
4.16797e-18
1.95925e-18
7.44583e-19
5.99249e-19
4.78207e-19
3.96474e-19
3.2877e-19
2.78067e-19
2.50903e-19
2.53225e-19
2.41314e-19
2.18854e-19
1.83356e-19
1.61398e-19
1.39515e-19
1.33211e-19
1.14662e-19
1.07779e-19
9.67156e-20
9.16009e-20
7.36901e-20
7.69157e-20
5.86332e-20
6.20254e-20
5.0847e-20
5.09491e-20
4.27376e-20
4.18309e-20
3.37023e-20
3.60602e-20
2.62149e-20
3.03164e-20
2.34373e-20
2.12006e-20
2.71152e-20
1.10195e-20
2.85478e-20
1.3956e-20
1.40102e-20
3.48162e-20
4.33104e-23
3.88922e-20
1.8191e-20
1.89515e-20
5.1063e-20
1.42735e-20
5.42048e-20
5.23972e-20
4.0151e-20
8.45811e-20
7.34108e-20
8.56679e-20
1.35373e-19
1.33702e-19
1.90303e-19
2.48093e-19
3.05465e-19
2.03774e-18
1.39621e-18
1.61546e-18
3.6113e-18
1.84694e-18
6.36107e-19
5.35783e-19
4.23291e-19
3.58477e-19
2.99646e-19
2.58066e-19
2.35796e-19
2.39176e-19
2.28796e-19
2.08844e-19
1.75926e-19
1.55655e-19
1.35076e-19
1.29235e-19
1.11438e-19
1.04759e-19
9.40289e-20
8.95615e-20
7.21289e-20
7.50797e-20
5.77462e-20
6.05901e-20
5.01059e-20
4.99388e-20
4.2091e-20
4.10235e-20
3.33299e-20
3.53692e-20
2.60375e-20
2.97105e-20
2.33495e-20
2.06203e-20
2.67986e-20
1.09505e-20
2.76478e-20
1.43192e-20
1.31329e-20
3.54319e-20
6.13879e-28
3.80992e-20
1.86247e-20
1.70724e-20
5.00251e-20
1.32176e-20
5.11186e-20
5.08035e-20
3.64065e-20
8.01133e-20
6.86268e-20
7.74866e-20
1.25742e-19
1.19718e-19
1.70585e-19
2.17911e-19
2.63966e-19
1.75398e-18
1.11112e-18
1.38188e-18
3.04538e-18
1.70912e-18
5.38818e-19
4.80064e-19
3.75205e-19
3.25068e-19
2.73695e-19
2.39807e-19
2.22027e-19
2.26274e-19
2.17217e-19
1.99502e-19
1.68956e-19
1.50223e-19
1.30911e-19
1.25474e-19
1.08398e-19
1.01891e-19
9.14839e-20
8.75822e-20
7.06731e-20
7.32964e-20
5.69296e-20
5.92082e-20
4.94062e-20
4.89698e-20
4.14718e-20
4.02329e-20
3.29748e-20
3.46717e-20
2.5877e-20
2.91053e-20
2.32617e-20
2.00642e-20
2.64601e-20
1.08979e-20
2.67453e-20
1.45825e-20
1.23599e-20
3.4059e-20
3.93944e-23
3.58219e-20
1.88821e-20
1.52502e-20
4.8887e-20
1.22902e-20
4.79587e-20
4.92795e-20
3.27755e-20
7.57022e-20
6.41205e-20
6.9732e-20
1.16644e-19
1.07141e-19
1.52485e-19
1.92037e-19
2.26578e-19
1.47802e-18
8.67763e-19
1.15337e-18
2.51244e-18
1.54915e-18
4.55162e-19
4.30147e-19
3.33489e-19
2.95719e-19
2.50714e-19
2.23149e-19
2.09462e-19
2.14445e-19
2.06539e-19
1.90808e-19
1.62436e-19
1.4509e-19
1.27011e-19
1.21923e-19
1.0554e-19
9.9177e-20
8.90914e-20
8.56683e-20
6.93227e-20
7.15744e-20
5.61754e-20
5.78841e-20
4.87475e-20
4.80475e-20
4.08873e-20
3.94687e-20
3.26416e-20
3.39825e-20
2.57325e-20
2.85144e-20
2.31761e-20
1.9544e-20
2.61108e-20
1.08726e-20
2.58514e-20
1.47958e-20
1.16491e-20
3.22917e-20
1.58656e-22
3.33368e-20
1.90968e-20
1.35181e-20
4.76938e-20
1.1521e-20
4.48079e-20
4.78688e-20
2.93493e-20
7.14479e-20
5.99881e-20
6.25437e-20
1.08215e-19
9.6085e-20
1.36156e-19
1.70208e-19
1.93522e-19
1.22549e-18
6.76827e-19
9.46304e-19
2.03903e-18
1.37404e-18
3.85871e-19
3.84715e-19
2.97577e-19
2.69915e-19
2.30459e-19
2.07953e-19
1.97964e-19
2.03598e-19
1.96706e-19
1.82723e-19
1.56335e-19
1.40239e-19
1.23361e-19
1.18578e-19
1.02854e-19
9.66115e-20
8.68539e-20
8.38228e-20
6.80737e-20
6.99216e-20
5.54768e-20
5.662e-20
4.81286e-20
4.7174e-20
4.03411e-20
3.87378e-20
3.23327e-20
3.33125e-20
2.56031e-20
2.79477e-20
2.30947e-20
1.90665e-20
2.57595e-20
1.08833e-20
2.49732e-20
1.50092e-20
1.09649e-20
3.10799e-20
3.89771e-22
3.13993e-20
1.93587e-20
1.19014e-20
4.64731e-20
1.09267e-20
4.17235e-20
4.65924e-20
2.61838e-20
6.739e-20
5.62732e-20
5.59785e-20
1.00493e-19
8.65112e-20
1.21523e-19
1.51899e-19
1.64906e-19
1.00656e-18
5.38862e-19
7.73073e-19
1.63662e-18
1.19176e-18
3.30127e-19
3.43014e-19
2.66811e-19
2.47208e-19
2.12658e-19
1.94093e-19
1.874e-19
1.93632e-19
1.87654e-19
1.75206e-19
1.50621e-19
1.35649e-19
1.19947e-19
1.1543e-19
1.00329e-19
9.41863e-20
8.4768e-20
8.20466e-20
6.69192e-20
6.83425e-20
5.48274e-20
5.54164e-20
4.75476e-20
4.63497e-20
3.98347e-20
3.80446e-20
3.20486e-20
3.26686e-20
2.54881e-20
2.74114e-20
2.30201e-20
1.86319e-20
2.54165e-20
1.09229e-20
2.41309e-20
1.522e-20
1.03326e-20
3.01991e-20
7.01119e-22
2.97431e-20
1.96571e-20
1.04293e-20
4.52437e-20
1.05056e-20
3.87448e-20
4.54509e-20
2.33068e-20
6.35563e-20
5.29838e-20
5.00405e-20
9.34626e-20
7.82761e-20
1.08452e-19
1.36495e-19
1.40737e-19
8.25087e-19
4.47429e-19
6.43096e-19
1.30643e-18
1.01107e-18
2.85789e-19
3.04745e-19
2.40529e-19
2.27214e-19
1.97045e-19
1.81462e-19
1.77651e-19
1.84455e-19
1.79319e-19
1.68213e-19
1.45262e-19
1.31299e-19
1.16748e-19
1.12467e-19
9.79532e-20
9.18922e-20
8.28267e-20
8.03393e-20
6.58518e-20
6.68394e-20
5.42214e-20
5.42723e-20
4.70017e-20
4.55738e-20
3.93675e-20
3.73916e-20
3.17891e-20
3.2055e-20
2.53864e-20
2.69097e-20
2.29531e-20
1.82407e-20
2.50865e-20
1.09885e-20
2.33334e-20
1.54225e-20
9.77501e-21
2.94817e-20
1.05861e-21
2.82347e-20
1.99762e-20
9.11233e-21
4.40194e-20
1.02481e-20
3.58973e-20
4.44354e-20
2.07296e-20
5.99506e-20
5.00983e-20
4.47016e-20
8.70717e-20
7.12137e-20
9.6728e-20
1.23465e-19
1.20846e-19
6.80948e-19
3.92364e-19
5.61976e-19
1.04161e-18
8.40723e-19
2.50021e-19
2.69914e-19
2.18075e-19
2.09614e-19
1.83365e-19
1.69968e-19
1.6862e-19
1.75978e-19
1.71637e-19
1.61704e-19
1.40225e-19
1.2717e-19
1.13749e-19
1.09677e-19
9.57142e-20
8.97194e-20
8.10207e-20
7.86998e-20
6.48632e-20
6.54126e-20
5.36537e-20
5.31861e-20
4.64882e-20
4.48448e-20
3.89379e-20
3.67804e-20
3.15529e-20
3.14746e-20
2.52967e-20
2.64449e-20
2.28934e-20
1.78934e-20
2.47709e-20
1.10801e-20
2.25807e-20
1.56198e-20
9.29579e-21
2.88454e-20
1.45225e-21
2.68316e-20
2.03174e-20
7.94795e-21
4.28083e-20
1.0141e-20
3.31974e-20
4.35301e-20
1.84506e-20
5.65627e-20
4.75856e-20
3.99149e-20
8.1259e-20
6.51557e-20
8.61592e-20
1.12319e-19
1.04931e-19
5.70951e-19
3.62122e-19
5.32021e-19
8.31634e-19
6.886e-19
2.19932e-19
2.38678e-19
1.98876e-19
1.94152e-19
1.71386e-19
1.59533e-19
1.60224e-19
1.68123e-19
1.6455e-19
1.55638e-19
1.35481e-19
1.23243e-19
1.1093e-19
1.07046e-19
9.36005e-20
8.76587e-20
7.93395e-20
7.71258e-20
6.39454e-20
6.40612e-20
5.31194e-20
5.21554e-20
4.60039e-20
4.41605e-20
3.85441e-20
3.62116e-20
3.13385e-20
3.09282e-20
2.52176e-20
2.6018e-20
2.28404e-20
1.75894e-20
2.44711e-20
1.11962e-20
2.18736e-20
1.58148e-20
8.89034e-21
2.82457e-20
1.87898e-21
2.55173e-20
2.06781e-20
6.93221e-21
4.16158e-20
1.01674e-20
3.06577e-20
4.27165e-20
1.64613e-20
5.33792e-20
4.54081e-20
3.56325e-20
7.59561e-20
5.99494e-20
7.65667e-20
1.02681e-19
9.27176e-20
4.9024e-19
3.44858e-19
5.5198e-19
6.63163e-19
5.60511e-19
1.93022e-19
2.11112e-19
1.82438e-19
1.80619e-19
1.60908e-19
1.50089e-19
1.52398e-19
1.60818e-19
1.58002e-19
1.49979e-19
1.31001e-19
1.19498e-19
1.08275e-19
1.04564e-19
9.16016e-20
8.57007e-20
7.7773e-20
7.56147e-20
6.30911e-20
6.27831e-20
5.26153e-20
5.11768e-20
4.55465e-20
4.35187e-20
3.81844e-20
3.56853e-20
3.11447e-20
3.04153e-20
2.5148e-20
2.56292e-20
2.27938e-20
1.73276e-20
2.41882e-20
1.1334e-20
2.12141e-20
1.60076e-20
8.55419e-21
2.76735e-20
2.33527e-21
2.42858e-20
2.10511e-20
6.06009e-21
4.04506e-20
1.03096e-20
2.82878e-20
4.19812e-20
1.47485e-20
5.03935e-20
4.35296e-20
3.1813e-20
7.11123e-20
5.54789e-20
6.78072e-20
9.42503e-20
8.39659e-20
4.32682e-19
3.29638e-19
3.00998e-18
3.53983e-18
3.32072e-18
2.76338e-18
1.96381e-18
1.38071e-18
1.02118e-18
7.54354e-19
5.60698e-19
4.61254e-19
4.31091e-19
3.89518e-19
3.3285e-19
2.66373e-19
2.23343e-19
1.87495e-19
1.72596e-19
1.4739e-19
1.37549e-19
1.21623e-19
1.10219e-19
9.05759e-20
9.20965e-20
6.9018e-20
7.3357e-20
5.72319e-20
5.83283e-20
4.68248e-20
4.67607e-20
3.63184e-20
3.86582e-20
2.78926e-20
3.22232e-20
2.29772e-20
2.46904e-20
2.40453e-20
1.34709e-20
2.68198e-20
9.61652e-21
1.73391e-20
2.22658e-20
2.53503e-21
3.41086e-20
8.30705e-21
2.48587e-20
3.75712e-20
1.47261e-20
5.14662e-20
4.002e-20
4.29935e-20
7.73443e-20
6.79713e-20
9.91555e-20
1.43135e-19
1.78412e-19
2.65371e-19
4.26357e-19
7.66427e-19
2.01433e-18
1.94377e-18
3.16005e-18
3.62413e-18
3.40879e-18
2.82985e-18
1.9939e-18
1.39805e-18
1.03259e-18
7.61655e-19
5.64749e-19
4.63668e-19
4.331e-19
3.91295e-19
3.34135e-19
2.67215e-19
2.2391e-19
1.87941e-19
1.73014e-19
1.47734e-19
1.37785e-19
1.21938e-19
1.1047e-19
9.06772e-20
9.2306e-20
6.91909e-20
7.34337e-20
5.74155e-20
5.84085e-20
4.69643e-20
4.68573e-20
3.64054e-20
3.87826e-20
2.79546e-20
3.23433e-20
2.30968e-20
2.47206e-20
2.43544e-20
1.3379e-20
2.71823e-20
9.77837e-21
1.73362e-20
2.29401e-20
2.34668e-21
3.47846e-20
8.7717e-21
2.49781e-20
3.89025e-20
1.50022e-20
5.2701e-20
4.16755e-20
4.41185e-20
8.00589e-20
7.08347e-20
1.02748e-19
1.49133e-19
1.8606e-19
2.76682e-19
4.45216e-19
7.95781e-19
2.10242e-18
1.99527e-18
3.27562e-18
3.68852e-18
3.44236e-18
2.84839e-18
1.99942e-18
1.40275e-18
1.03797e-18
7.66124e-19
5.67463e-19
4.65374e-19
4.34903e-19
3.93003e-19
3.35422e-19
2.67982e-19
2.24461e-19
1.88352e-19
1.73539e-19
1.48084e-19
1.38065e-19
1.22307e-19
1.10805e-19
9.07325e-20
9.26581e-20
6.93229e-20
7.36289e-20
5.75986e-20
5.85809e-20
4.71207e-20
4.70498e-20
3.64957e-20
3.90288e-20
2.80154e-20
3.25852e-20
2.32649e-20
2.48175e-20
2.48421e-20
1.3266e-20
2.78061e-20
1.00224e-20
1.74391e-20
2.3991e-20
2.13267e-21
3.59342e-20
9.4849e-21
2.53662e-20
4.09396e-20
1.55987e-20
5.47307e-20
4.42728e-20
4.6051e-20
8.42659e-20
7.52592e-20
1.08169e-19
1.57679e-19
1.9645e-19
2.90437e-19
4.65898e-19
8.27942e-19
2.19308e-18
2.04655e-18
3.26763e-18
3.64112e-18
3.37807e-18
2.77636e-18
1.9623e-18
1.38263e-18
1.02865e-18
7.61828e-19
5.64966e-19
4.63811e-19
4.34418e-19
3.93045e-19
3.35482e-19
2.67923e-19
2.2441e-19
1.88324e-19
1.73755e-19
1.48174e-19
1.381e-19
1.22525e-19
1.11029e-19
9.06615e-20
9.29364e-20
6.94007e-20
7.37732e-20
5.77683e-20
5.87405e-20
4.72778e-20
4.72378e-20
3.65899e-20
3.92962e-20
2.80753e-20
3.28651e-20
2.34564e-20
2.49226e-20
2.54219e-20
1.313e-20
2.85542e-20
1.03222e-20
1.75732e-20
2.52452e-20
1.91493e-21
3.72757e-20
1.0377e-20
2.58227e-20
4.33257e-20
1.63579e-20
5.70473e-20
4.73253e-20
4.8256e-20
8.8934e-20
8.02187e-20
1.13797e-19
1.66447e-19
2.06344e-19
3.01845e-19
4.80583e-19
8.37026e-19
2.25357e-18
2.03182e-18
3.14153e-18
3.52572e-18
3.23042e-18
2.61499e-18
1.88507e-18
1.33768e-18
1.00283e-18
7.46878e-19
5.5555e-19
4.57418e-19
4.30087e-19
3.9004e-19
3.3334e-19
2.66377e-19
2.23287e-19
1.87486e-19
1.73301e-19
1.4773e-19
1.37654e-19
1.22347e-19
1.10949e-19
9.03634e-20
9.29712e-20
6.93418e-20
7.37846e-20
5.7842e-20
5.8822e-20
4.73802e-20
4.73644e-20
3.66495e-20
3.95287e-20
2.81116e-20
3.31245e-20
2.36364e-20
2.4997e-20
2.60074e-20
1.29753e-20
2.92935e-20
1.06422e-20
1.76872e-20
2.65051e-20
1.72174e-21
3.85498e-20
1.13319e-20
2.62192e-20
4.56655e-20
1.71539e-20
5.91602e-20
5.03185e-20
5.0297e-20
9.31543e-20
8.48069e-20
1.18443e-19
1.73568e-19
2.13778e-19
3.0843e-19
4.88409e-19
8.21576e-19
2.29659e-18
1.97471e-18
2.98561e-18
3.46632e-18
3.05037e-18
2.40251e-18
1.7833e-18
1.2766e-18
9.64035e-19
7.22671e-19
5.39892e-19
4.46301e-19
4.21672e-19
3.83622e-19
3.28648e-19
2.63055e-19
2.20878e-19
1.85663e-19
1.72009e-19
1.46613e-19
1.36607e-19
1.21628e-19
1.10435e-19
8.97619e-20
9.2662e-20
6.90642e-20
7.36078e-20
5.77588e-20
5.87813e-20
4.73882e-20
4.73881e-20
3.66457e-20
3.96823e-20
2.80989e-20
3.33163e-20
2.37753e-20
2.50079e-20
2.6533e-20
1.28031e-20
2.99473e-20
1.09433e-20
1.77637e-20
2.76373e-20
1.56652e-21
3.96142e-20
1.22312e-20
2.65106e-20
4.76551e-20
1.78928e-20
6.08485e-20
5.2863e-20
5.1999e-20
9.64256e-20
8.8561e-20
1.21775e-19
1.78617e-19
2.18464e-19
3.11102e-19
4.90948e-19
7.90651e-19
2.35588e-18
1.93427e-18
2.83628e-18
3.54335e-18
2.86813e-18
2.16917e-18
1.66487e-18
1.20416e-18
9.15122e-19
6.91082e-19
5.19014e-19
4.31172e-19
4.09625e-19
3.74037e-19
3.21509e-19
2.5801e-19
2.17214e-19
1.82881e-19
1.69877e-19
1.44809e-19
1.3496e-19
1.20337e-19
1.09456e-19
8.8832e-20
9.19672e-20
6.85191e-20
7.32062e-20
5.74934e-20
5.85757e-20
4.72842e-20
4.72816e-20
3.65622e-20
3.97276e-20
2.80274e-20
3.34109e-20
2.38577e-20
2.49411e-20
2.69603e-20
1.26129e-20
3.04656e-20
1.11978e-20
1.78049e-20
2.85753e-20
1.44752e-21
4.04375e-20
1.29951e-20
2.67135e-20
4.92129e-20
1.85054e-20
6.21118e-20
5.48121e-20
5.33547e-20
9.87526e-20
9.13541e-20
1.23921e-19
1.81702e-19
2.20625e-19
3.1098e-19
4.89198e-19
7.4977e-19
2.44403e-18
1.95739e-18
2.70928e-18
3.78561e-18
2.69708e-18
1.93723e-18
1.53273e-18
1.12289e-18
8.58182e-19
6.535e-19
4.9402e-19
4.12866e-19
3.94637e-19
3.61858e-19
3.12313e-19
2.51458e-19
2.12437e-19
1.79237e-19
1.66987e-19
1.42399e-19
1.3279e-19
1.18535e-19
1.08054e-19
8.75936e-20
9.09102e-20
6.77128e-20
7.25666e-20
5.70517e-20
5.81924e-20
4.70695e-20
4.70398e-20
3.63995e-20
3.96566e-20
2.79003e-20
3.3396e-20
2.38856e-20
2.47929e-20
2.72806e-20
1.24083e-20
3.08535e-20
1.14038e-20
1.7813e-20
2.9338e-20
1.35037e-21
4.10628e-20
1.36175e-20
2.68472e-20
5.03965e-20
1.89638e-20
6.30918e-20
5.62107e-20
5.44101e-20
1.00354e-19
9.32916e-20
1.25092e-19
1.83205e-19
2.20529e-19
3.08934e-19
4.83279e-19
7.0357e-19
2.55768e-18
2.05718e-18
2.61017e-18
4.16125e-18
2.54468e-18
1.72458e-18
1.39108e-18
1.03558e-18
7.9563e-19
6.11655e-19
4.66199e-19
3.9232e-19
3.77535e-19
3.47746e-19
3.01559e-19
2.43738e-19
2.06761e-19
1.74882e-19
1.63464e-19
1.39491e-19
1.30201e-19
1.16327e-19
1.06316e-19
8.61005e-20
8.9552e-20
6.66869e-20
7.16939e-20
5.64572e-20
5.76337e-20
4.67555e-20
4.66703e-20
3.61704e-20
3.94785e-20
2.77299e-20
3.32772e-20
2.38732e-20
2.45661e-20
2.75121e-20
1.21943e-20
3.11226e-20
1.15836e-20
1.77758e-20
2.99874e-20
1.25151e-21
4.15375e-20
1.41441e-20
2.68803e-20
5.13579e-20
1.92317e-20
6.38382e-20
5.71772e-20
5.51025e-20
1.01366e-19
9.4363e-20
1.25238e-19
1.83279e-19
2.1816e-19
3.04846e-19
4.72583e-19
6.55543e-19
2.68013e-18
2.20721e-18
2.53614e-18
4.59403e-18
2.41673e-18
1.53956e-18
1.24653e-18
9.45215e-19
7.30227e-19
5.67435e-19
4.36841e-19
3.70515e-19
3.59109e-19
3.32372e-19
2.8978e-19
2.35225e-19
2.00456e-19
1.70008e-19
1.59458e-19
1.36196e-19
1.27295e-19
1.1382e-19
1.04353e-19
8.44213e-20
8.79746e-20
6.55101e-20
7.06091e-20
5.57511e-20
5.69146e-20
4.63564e-20
4.61868e-20
3.58922e-20
3.92062e-20
2.75301e-20
3.30633e-20
2.3839e-20
2.42622e-20
2.76739e-20
1.19751e-20
3.127e-20
1.17772e-20
1.76606e-20
3.0581e-20
1.1288e-21
4.18661e-20
1.46397e-20
2.67144e-20
5.21638e-20
1.9261e-20
6.42513e-20
5.77612e-20
5.52214e-20
1.01672e-19
9.44604e-20
1.24032e-19
1.81655e-19
2.12993e-19
2.97793e-19
4.54652e-19
6.06182e-19
2.78559e-18
2.34761e-18
2.47403e-18
4.96826e-18
2.31568e-18
1.37976e-18
1.10634e-18
8.55039e-19
6.64751e-19
5.22661e-19
4.07208e-19
3.48362e-19
3.40112e-19
3.1637e-19
2.77458e-19
2.26278e-19
1.93791e-19
1.64824e-19
1.55128e-19
1.32645e-19
1.24153e-19
1.11104e-19
1.02264e-19
8.26264e-20
8.62499e-20
6.42609e-20
6.93484e-20
5.49665e-20
5.60607e-20
4.5881e-20
4.56061e-20
3.55804e-20
3.88506e-20
2.73142e-20
3.27619e-20
2.3796e-20
2.38799e-20
2.77766e-20
1.17552e-20
3.12727e-20
1.20103e-20
1.74083e-20
3.11333e-20
9.6877e-22
4.19589e-20
1.51417e-20
2.62398e-20
5.27673e-20
1.90016e-20
6.41333e-20
5.79062e-20
5.45489e-20
1.01054e-19
9.33624e-20
1.21061e-19
1.77945e-19
2.04651e-19
2.86836e-19
4.28818e-19
5.55199e-19
2.84067e-18
2.41944e-18
2.40761e-18
5.19395e-18
2.23843e-18
1.2388e-18
9.76424e-19
7.67742e-19
6.01525e-19
4.78824e-19
3.78266e-19
3.266e-19
3.21167e-19
3.00259e-19
2.64995e-19
2.17199e-19
1.86992e-19
1.59506e-19
1.50621e-19
1.28949e-19
1.20859e-19
1.08251e-19
1.00112e-19
8.0778e-20
8.44329e-20
6.30092e-20
6.7957e-20
5.41377e-20
5.51022e-20
4.5338e-20
4.49431e-20
3.52436e-20
3.84172e-20
2.70916e-20
3.23813e-20
2.37499e-20
2.34202e-20
2.78138e-20
1.15396e-20
3.11023e-20
1.22914e-20
1.69875e-20
3.16157e-20
7.73624e-22
4.17359e-20
1.56447e-20
2.53742e-20
5.30855e-20
1.84355e-20
6.33434e-20
5.75607e-20
5.29886e-20
9.9366e-20
9.10013e-20
1.1626e-19
1.72064e-19
1.93251e-19
2.71766e-19
3.96063e-19
5.03077e-19
2.82308e-18
2.38481e-18
2.31931e-18
5.21625e-18
2.17538e-18
1.10863e-18
8.60373e-19
6.85377e-19
5.42357e-19
4.37009e-19
3.50685e-19
3.05771e-19
3.02763e-19
2.84456e-19
2.52709e-19
2.08211e-19
1.80233e-19
1.54205e-19
1.46071e-19
1.25215e-19
1.17499e-19
1.05328e-19
9.79427e-20
7.89275e-20
8.25642e-20
6.18042e-20
6.64883e-20
5.32931e-20
5.40769e-20
4.47387e-20
4.42147e-20
3.48864e-20
3.79094e-20
2.68701e-20
3.19269e-20
2.36995e-20
2.28917e-20
2.77743e-20
1.13365e-20
3.07381e-20
1.26113e-20
1.63979e-20
3.19812e-20
5.60376e-22
4.11539e-20
1.61293e-20
2.41327e-20
5.30604e-20
1.75954e-20
6.18545e-20
5.67269e-20
5.05704e-20
9.66543e-20
8.75185e-20
1.09842e-19
1.64309e-19
1.79459e-19
2.53299e-19
3.58696e-19
4.50726e-19
2.72297e-18
2.23637e-18
2.19773e-18
5.02756e-18
2.11506e-18
9.83619e-19
7.59506e-19
6.09206e-19
4.88261e-19
3.97949e-19
3.24862e-19
2.86231e-19
2.85232e-19
2.69268e-19
2.40832e-19
1.99495e-19
1.73646e-19
1.49037e-19
1.41579e-19
1.21537e-19
1.1415e-19
1.02394e-19
9.57799e-20
7.71145e-20
8.06724e-20
6.06738e-20
6.49851e-20
5.24559e-20
5.3019e-20
4.4099e-20
4.34381e-20
3.45138e-20
3.73337e-20
2.66557e-20
3.14094e-20
2.36412e-20
2.23144e-20
2.76525e-20
1.11553e-20
3.01868e-20
1.29534e-20
1.56705e-20
3.21987e-20
3.54879e-22
4.02381e-20
1.65824e-20
2.25848e-20
5.26915e-20
1.6559e-20
5.97519e-20
5.5503e-20
4.74821e-20
9.31237e-20
8.32116e-20
1.02269e-19
1.55224e-19
1.64269e-19
2.32685e-19
3.19914e-19
3.99579e-19
2.54715e-18
1.997e-18
2.03758e-18
4.65939e-18
2.0456e-18
8.61982e-19
6.73181e-19
5.39948e-19
4.3964e-19
3.6207e-19
3.00982e-19
2.68155e-19
2.68804e-19
2.54886e-19
2.29508e-19
1.91165e-19
1.67308e-19
1.44078e-19
1.3722e-19
1.17978e-19
1.10873e-19
9.95013e-20
9.36437e-20
7.53679e-20
7.87806e-20
5.96277e-20
6.34824e-20
5.16425e-20
5.19557e-20
4.34382e-20
4.2633e-20
3.41332e-20
3.67018e-20
2.64528e-20
3.08431e-20
2.35727e-20
2.17128e-20
2.74519e-20
1.10043e-20
2.94793e-20
1.33007e-20
1.48514e-20
3.22583e-20
1.8413e-22
3.90413e-20
1.70052e-20
2.08303e-20
5.20274e-20
1.54259e-20
5.7162e-20
5.40258e-20
4.39579e-20
8.90348e-20
7.84377e-20
9.40631e-20
1.45434e-19
1.48722e-19
2.11292e-19
2.82426e-19
3.50931e-19
2.31185e-18
1.70392e-18
1.84201e-18
4.16763e-18
1.958e-18
7.45316e-19
5.99503e-19
4.77898e-19
3.9647e-19
3.29543e-19
2.79061e-19
2.51582e-19
2.53557e-19
2.41414e-19
2.18825e-19
1.83274e-19
1.61259e-19
1.39369e-19
1.33041e-19
1.14577e-19
1.07711e-19
9.66958e-20
9.15492e-20
7.37079e-20
7.69081e-20
5.86649e-20
6.2005e-20
5.0863e-20
5.09093e-20
4.27767e-20
4.18171e-20
3.37535e-20
3.603e-20
2.62635e-20
3.02469e-20
2.34947e-20
2.11108e-20
2.71869e-20
1.0889e-20
2.86592e-20
1.36414e-20
1.39913e-20
3.21639e-20
7.0678e-23
3.76489e-20
1.74067e-20