/*--------------------------------*- C++ -*----------------------------------*\
| =========                 |                                                 |
| \\      /  F ield         | OpenFOAM: The Open Source CFD Toolbox           |
|  \\    /   O peration     | Version:  2312                                  |
|   \\  /    A nd           | Website:  www.openfoam.com                      |
|    \\/     M anipulation  |                                                 |
\*---------------------------------------------------------------------------*/
FoamFile
{
    version     2.0;
    format      ascii;
    arch        "LSB;label=32;scalar=64";
    class       volScalarField;
    location    "100";
    object      nut;
}
// * * * * * * * * * * * * * * * * * * * * * * * * * * * * * * * * * * * * * //

dimensions      [0 2 -1 0 0 0 0];

internalField   nonuniform List<scalar> 
330000
(
2.31873e-25
5.28202e-28
1.4824e-26
2.8964e-28
1.83879e-31
1.73956e-29
2.15261e-33
5.20683e-30
2.69636e-32
1.53609e-29
5.62821e-30
1.701e-29
1.48888e-29
9.71537e-30
1.39325e-29
5.39524e-30
4.35172e-29
9.86597e-29
2.21237e-28
2.13105e-28
2.53484e-28
2.03564e-28
2.63188e-28
2.81415e-28
4.39097e-28
3.84532e-28
4.9531e-28
4.54543e-28
6.18372e-28
7.0428e-28
8.93893e-28
8.13209e-28
8.38711e-28
7.81388e-28
1.02176e-27
1.29074e-27
1.85956e-27
2.01562e-27
2.23753e-27
2.34166e-27
2.64396e-27
3.22937e-27
3.80624e-27
4.16731e-27
4.50705e-27
4.9508e-27
4.98113e-27
5.27329e-27
5.16038e-27
5.51084e-27
4.44449e-27
4.09545e-27
3.10156e-27
2.72333e-27
9.01857e-28
3.00394e-28
5.6423e-27
3.98809e-25
1.92175e-24
4.00588e-24
6.10385e-25
1.78355e-25
4.94646e-27
1.37614e-28
2.403e-28
1.97382e-30
3.17396e-29
2.7701e-31
1.05224e-29
1.34104e-29
4.31309e-29
2.40082e-29
4.45664e-29
2.79526e-29
3.20134e-29
2.00465e-29
8.78186e-29
2.37389e-28
4.59803e-28
4.82123e-28
5.50618e-28
4.88257e-28
5.80772e-28
6.70119e-28
9.10344e-28
9.13385e-28
1.03394e-27
1.08219e-27
1.32907e-27
1.58123e-27
1.89281e-27
1.82477e-27
1.79843e-27
1.79539e-27
2.19817e-27
2.80556e-27
3.90171e-27
4.19798e-27
4.70997e-27
4.91211e-27
5.64662e-27
6.53671e-27
7.93442e-27
8.28669e-27
9.24121e-27
9.84341e-27
1.03378e-26
1.00501e-26
1.05237e-26
1.01307e-26
9.15038e-27
6.72462e-27
5.69258e-27
3.64935e-27
1.11776e-27
6.50083e-29
1.06299e-26
1.28723e-24
6.02807e-24
2.12863e-24
1.81665e-24
1.68283e-25
1.60318e-26
5.71079e-28
6.01048e-28
3.00197e-29
6.57127e-29
2.18422e-30
1.85719e-29
1.85763e-29
6.55176e-29
3.5955e-29
6.76592e-29
4.10691e-29
4.75201e-29
2.95681e-29
1.3082e-28
3.14084e-28
6.74802e-28
6.85606e-28
8.26372e-28
6.77807e-28
8.73519e-28
9.22434e-28
1.36818e-27
1.26865e-27
1.56693e-27
1.49043e-27
2.00218e-27
2.17772e-27
2.8327e-27
2.58027e-27
2.71769e-27
2.50093e-27
3.27454e-27
3.93549e-27
5.78666e-27
5.89834e-27
7.02281e-27
6.91869e-27
8.39353e-27
9.16522e-27
1.17065e-26
1.18444e-26
1.378e-26
1.39426e-26
1.53806e-26
1.44348e-26
1.57654e-26
1.4639e-26
1.36399e-26
9.93827e-27
8.65608e-27
5.35273e-27
1.7228e-27
1.3017e-28
2.28085e-26
1.66605e-24
7.72391e-24
4.90637e-24
3.30801e-24
4.72655e-25
3.06718e-26
3.35187e-27
6.51452e-28
1.61106e-28
1.03833e-28
1.68631e-29
2.2477e-29
3.12011e-29
6.45368e-29
4.85784e-29
7.54536e-29
4.40286e-29
5.33404e-29
3.09177e-29
1.42922e-28
3.19573e-28
7.30235e-28
7.07486e-28
8.86888e-28
6.78018e-28
9.40782e-28
9.15163e-28
1.49284e-27
1.25981e-27
1.71042e-27
1.47576e-27
2.16851e-27
2.16618e-27
3.08016e-27
2.59784e-27
2.94647e-27
2.49978e-27
3.5271e-27
3.9939e-27
6.21643e-27
5.98939e-27
7.53576e-27
7.01733e-27
8.95591e-27
9.28639e-27
1.25867e-26
1.21164e-26
1.48374e-26
1.41942e-26
1.65147e-26
1.48366e-26
1.70259e-26
1.51087e-26
1.46944e-26
1.04315e-26
9.54957e-27
5.69754e-27
2.0123e-27
1.84096e-28
2.35156e-26
1.89952e-24
1.07123e-23
7.10256e-24
6.61547e-24
1.54692e-24
3.90628e-26
9.44647e-27
1.37602e-27
5.48486e-28
2.64843e-28
5.96549e-29
4.65318e-29
4.764e-29
8.37875e-29
6.43839e-29
9.36754e-29
4.66213e-29
6.16115e-29
3.28305e-29
1.53013e-28
3.36502e-28
7.78793e-28
7.28072e-28
9.27389e-28
6.88191e-28
9.93024e-28
9.27938e-28
1.58095e-27
1.27057e-27
1.80908e-27
1.48352e-27
2.29204e-27
2.17767e-27
3.27063e-27
2.61042e-27
3.10492e-27
2.50879e-27
3.72868e-27
4.04221e-27
6.50513e-27
6.03837e-27
7.86668e-27
7.04351e-27
9.31608e-27
9.31246e-27
1.31722e-26
1.2161e-26
1.54052e-26
1.41849e-26
1.71883e-26
1.48013e-26
1.7666e-26
1.4962e-26
1.51667e-26
1.02421e-26
9.80566e-27
5.41341e-27
2.12076e-27
1.55443e-28
2.73088e-26
2.39572e-24
1.40983e-23
1.0125e-23
1.13994e-23
4.21822e-24
3.79978e-26
1.98718e-26
2.79674e-27
1.3357e-27
6.12225e-28
1.61642e-28
1.04363e-28
8.13905e-29
1.23836e-28
9.43666e-29
1.24935e-28
5.1395e-29
7.43581e-29
3.53108e-29
1.69009e-28
3.65753e-28
8.50268e-28
7.72723e-28
9.9336e-28
7.26861e-28
1.06962e-27
9.79629e-28
1.70686e-27
1.33147e-27
1.95044e-27
1.54996e-27
2.47139e-27
2.27505e-27
3.54443e-27
2.71172e-27
3.34009e-27
2.60564e-27
4.02198e-27
4.21371e-27
6.94598e-27
6.28185e-27
8.37227e-27
7.28916e-27
9.87561e-27
9.64151e-27
1.40446e-26
1.25475e-26
1.62906e-26
1.4583e-26
1.81936e-26
1.51186e-26
1.85974e-26
1.50774e-26
1.58304e-26
1.01426e-26
1.01183e-26
5.10133e-27
2.21322e-27
1.29727e-28
3.45644e-26
3.26266e-24
1.83853e-23
1.59786e-23
1.66683e-23
9.35733e-24
2.96667e-26
3.43306e-26
4.9178e-27
2.61282e-27
1.21e-27
3.59247e-28
2.14583e-28
1.45651e-28
1.90244e-28
1.45284e-28
1.70677e-28
5.9444e-29
9.14273e-29
3.71907e-29
1.90897e-28
3.97959e-28
9.36346e-28
8.2669e-28
1.07706e-27
7.77864e-28
1.15999e-27
1.04771e-27
1.85359e-27
1.41401e-27
2.11936e-27
1.64001e-27
2.68236e-27
2.41337e-27
3.86168e-27
2.85238e-27
3.61746e-27
2.73887e-27
4.35964e-27
4.43509e-27
7.46421e-27
6.61717e-27
8.96546e-27
7.63166e-27
1.05254e-26
1.01291e-26
1.50404e-26
1.31077e-26
1.73331e-26
1.51866e-26
1.93311e-26
1.56044e-26
1.96167e-26
1.53261e-26
1.65266e-26
1.01077e-26
1.04605e-26
4.85096e-27
2.32753e-27
1.56057e-28
4.5613e-26
4.47893e-24
2.28445e-23
2.64302e-23
2.14322e-23
1.75094e-23
1.94733e-26
5.17678e-26
7.63215e-27
4.35713e-27
2.09124e-27
6.79373e-28
3.96889e-28
2.52748e-28
2.92619e-28
2.24536e-28
2.35088e-28
7.15705e-29
1.13489e-28
3.84814e-29
2.19677e-28
4.30213e-28
1.03547e-27
8.82649e-28
1.17543e-27
8.33511e-28
1.2589e-27
1.12511e-27
2.01251e-27
1.50719e-27
2.30105e-27
1.74347e-27
2.91076e-27
2.57068e-27
4.19838e-27
3.01031e-27
3.91265e-27
2.88486e-27
4.71094e-27
4.67425e-27
8.01969e-27
6.98552e-27
9.57948e-27
8.01928e-27
1.12045e-26
1.06877e-26
1.60689e-26
1.37505e-26
1.84221e-26
1.58723e-26
2.04551e-26
1.61409e-26
2.05939e-26
1.55882e-26
1.71635e-26
1.00823e-26
1.07862e-26
4.6542e-27
2.43858e-27
2.9037e-28
6.12228e-26
6.03346e-24
2.65742e-23
4.26383e-23
2.47543e-23
2.87662e-23
1.18038e-26
7.13164e-26
1.07982e-26
6.49872e-27
3.26365e-27
1.13778e-27
6.67777e-28
4.12807e-28
4.41642e-28
3.38474e-28
3.21582e-28
8.90512e-29
1.40897e-28
3.96327e-29
2.56036e-28
4.608e-28
1.15113e-27
9.38727e-28
1.29193e-27
8.91173e-28
1.36968e-27
1.21076e-27
2.1831e-27
1.61163e-27
2.49843e-27
1.85707e-27
3.15658e-27
2.74543e-27
4.55422e-27
3.18365e-27
4.22384e-27
3.03975e-27
5.07599e-27
4.93023e-27
8.6087e-27
7.38374e-27
1.02278e-26
8.4397e-27
1.1919e-26
1.13157e-26
1.71329e-26
1.44733e-26
1.95555e-26
1.66138e-26
2.15762e-26
1.67114e-26
2.15349e-26
1.58778e-26
1.77614e-26
1.00912e-26
1.11362e-26
4.52993e-27
2.59186e-27
6.3476e-28
8.16249e-26
7.8632e-24
2.93655e-23
6.45944e-23
2.63926e-23
4.2582e-23
8.91686e-27
9.29179e-26
1.43903e-26
8.96056e-27
4.71568e-27
1.73487e-27
1.03779e-27
6.30975e-28
6.46385e-28
4.92563e-28
4.35248e-28
1.13451e-28
1.74887e-28
4.10538e-29
3.00922e-28
4.90275e-28
1.28916e-27
9.95148e-28
1.43305e-27
9.49851e-28
1.49876e-27
1.30438e-27
2.37454e-27
1.72822e-27
2.71464e-27
1.98473e-27
3.42801e-27
2.93771e-27
4.94109e-27
3.37619e-27
4.55826e-27
3.20633e-27
5.46398e-27
5.20907e-27
9.25493e-27
7.82093e-27
1.09286e-26
8.91665e-27
1.27057e-26
1.2025e-26
1.8282e-26
1.53047e-26
2.07653e-26
1.74419e-26
2.2736e-26
1.736e-26
2.25156e-26
1.62424e-26
1.84009e-26
1.01797e-26
1.15572e-26
4.51039e-27
2.81277e-27
1.34096e-27
1.06528e-25
9.79395e-24
3.08632e-23
9.1539e-23
2.62361e-23
5.80661e-23
1.08899e-26
1.17117e-25
1.84838e-26
1.17708e-26
6.45691e-27
2.47627e-27
1.51757e-27
9.10293e-28
9.1452e-28
6.90274e-28
5.78498e-28
1.46618e-28
2.16318e-28
4.29197e-29
3.54472e-28
5.18924e-28
1.45311e-27
1.05128e-27
1.60434e-27
1.0077e-27
1.65298e-27
1.40399e-27
2.59189e-27
1.85697e-27
2.95867e-27
2.12404e-27
3.72958e-27
3.14931e-27
5.36813e-27
3.58784e-27
4.92302e-27
3.38421e-27
5.88632e-27
5.5139e-27
9.9712e-27
8.30763e-27
1.17207e-26
9.4547e-27
1.359e-26
1.28329e-26
1.95497e-26
1.62544e-26
2.20842e-26
1.83686e-26
2.39991e-26
1.81119e-26
2.35961e-26
1.67304e-26
1.91378e-26
1.03816e-26
1.21045e-26
4.6164e-27
3.17497e-27
2.57494e-27
1.34232e-25
1.166e-23
3.15028e-23
1.20903e-22
2.47626e-23
7.3874e-23
1.90581e-26
1.44138e-25
2.33082e-26
1.50134e-26
8.53017e-27
3.36969e-27
2.12245e-27
1.25308e-27
1.25267e-27
9.36538e-28
7.55094e-28
1.89776e-28
2.6709e-28
4.52753e-29
4.17688e-28
5.49258e-28
1.6468e-27
1.10871e-27
1.81232e-27
1.06415e-27
1.83966e-27
1.50828e-27
2.84668e-27
1.99628e-27
3.23662e-27
2.27801e-27
4.07131e-27
3.38023e-27
5.84885e-27
3.81982e-27
5.32845e-27
3.57606e-27
6.35586e-27
5.85028e-27
1.07897e-26
8.85412e-27
1.26315e-26
1.00771e-26
1.46115e-26
1.3746e-26
2.09835e-26
1.73362e-26
2.35575e-26
1.94317e-26
2.54206e-26
1.90151e-26
2.48532e-26
1.73711e-26
2.00357e-26
1.07137e-26
1.28159e-26
4.86593e-27
3.71151e-27
4.50888e-27
1.62843e-25
1.32895e-23
3.11224e-23
1.503e-22
2.22633e-23
8.85389e-23
3.57011e-26
1.74562e-25
2.90698e-26
1.88708e-26
1.10291e-26
4.44943e-27
2.88122e-27
1.66872e-27
1.66929e-27
1.2387e-27
9.66283e-28
2.44622e-28
3.29302e-28
4.80549e-29
4.91266e-28
5.83058e-28
1.87235e-27
1.16959e-27
2.06238e-27
1.11913e-27
2.06659e-27
1.61588e-27
3.147e-27
2.14569e-27
3.56145e-27
2.44433e-27
4.4609e-27
3.63389e-27
6.39609e-27
4.0729e-27
5.786e-27
3.78336e-27
6.88996e-27
6.22489e-27
1.17368e-26
9.4766e-27
1.37088e-26
1.07868e-26
1.5798e-26
1.47795e-26
2.26219e-26
1.85588e-26
2.5237e-26
2.06516e-26
2.70776e-26
2.00911e-26
2.6337e-26
1.81856e-26
2.11264e-26
1.11771e-26
1.37203e-26
5.25387e-27
4.49015e-27
7.31407e-27
1.89463e-25
1.45236e-23
3.04374e-23
1.75864e-22
1.92684e-23
1.00542e-22
6.29953e-26
2.08328e-25
3.60421e-26
2.35323e-26
1.40847e-26
5.75602e-27
3.83414e-27
2.1742e-27
2.17401e-27
1.61104e-27
1.21625e-27
3.12753e-28
4.06391e-28
5.12464e-29
5.76826e-28
6.23659e-28
2.1325e-27
1.23862e-27
2.36069e-27
1.1748e-27
2.34166e-27
1.72729e-27
3.50873e-27
2.3047e-27
3.94267e-27
2.62615e-27
4.91456e-27
3.91236e-27
7.02871e-27
4.35088e-27
6.31068e-27
4.0118e-27
7.50945e-27
6.64847e-27
1.28623e-26
1.0192e-26
1.49851e-26
1.16038e-26
1.71963e-26
1.59376e-26
2.45244e-26
1.99433e-26
2.71868e-26
2.2071e-26
2.90317e-26
2.13709e-26
2.81102e-26
1.91732e-26
2.24497e-26
1.17599e-26
1.48267e-26
5.77733e-27
5.541e-27
1.1178e-26
2.11007e-25
1.52103e-23
2.952e-23
1.95699e-22
1.6163e-23
1.08528e-22
9.9299e-26
2.4571e-25
4.44438e-26
2.92355e-26
1.78612e-26
7.35893e-27
5.04133e-27
2.79957e-27
2.78284e-27
2.07395e-27
1.50873e-27
3.96809e-28
5.02467e-28
5.48903e-29
6.76531e-28
6.73446e-28
2.4302e-27
1.3203e-27
2.71269e-27
1.23434e-27
2.67316e-27
1.84433e-27
3.94277e-27
2.47466e-27
4.39955e-27
2.82183e-27
5.44614e-27
4.22142e-27
7.76565e-27
4.65766e-27
6.92047e-27
4.267e-27
8.24114e-27
7.13359e-27
1.42045e-26
1.10203e-26
1.6517e-26
1.25271e-26
1.8838e-26
1.72336e-26
2.67452e-26
2.15073e-26
2.94842e-26
2.37098e-26
3.13606e-26
2.28529e-26
3.01997e-26
2.03281e-26
2.40151e-26
1.24377e-26
1.61447e-26
6.41274e-27
6.9449e-27
1.6303e-26
2.24612e-25
1.52806e-23
2.90697e-23
2.06291e-22
1.34477e-23
1.11523e-22
1.42311e-25
2.85214e-25
5.46042e-26
3.61993e-26
2.25618e-26
9.32513e-27
6.57569e-27
3.58559e-27
3.51509e-27
2.65704e-27
1.85381e-27
4.99705e-28
6.23393e-28
5.92685e-29
7.93918e-28
7.36586e-28
2.77068e-27
1.4209e-27
3.12565e-27
1.30318e-27
3.06895e-27
1.97195e-27
4.46842e-27
2.65667e-27
4.94763e-27
3.03654e-27
6.0798e-27
4.56525e-27
8.63232e-27
4.99948e-27
7.6386e-27
4.55927e-27
9.11526e-27
7.69635e-27
1.58254e-26
1.19763e-26
1.83411e-26
1.35744e-26
2.07796e-26
1.86718e-26
2.9364e-26
2.32751e-26
3.22171e-26
2.56019e-26
3.41138e-26
2.45454e-26
3.26502e-26
2.16282e-26
2.58429e-26
1.31765e-26
1.76816e-26
7.15141e-27
8.75286e-27
2.28642e-26
2.28067e-25
1.47448e-23
2.89191e-23
2.07683e-22
1.12565e-23
1.08914e-22
1.84599e-25
3.27711e-25
6.67316e-26
4.46823e-26
2.84243e-26
1.17581e-26
8.53008e-27
4.59187e-27
4.3989e-27
3.39745e-27
2.26315e-27
6.25904e-28
7.76502e-28
6.51298e-29
9.32109e-28
8.16851e-28
3.16054e-27
1.54627e-27
3.607e-27
1.38733e-27
3.53773e-27
2.11725e-27
5.09931e-27
2.85545e-27
5.61291e-27
3.27092e-27
6.83648e-27
4.95244e-27
9.65745e-27
5.38326e-27
8.49239e-27
4.89798e-27
1.0169e-26
8.35398e-27
1.77723e-26
1.30783e-26
2.05184e-26
1.47426e-26
2.30618e-26
2.02727e-26
3.24679e-26
2.52693e-26
3.54772e-26
2.77445e-26
3.73605e-26
2.6425e-26
3.54815e-26
2.30531e-26
2.79335e-26
1.39363e-26
1.94437e-26
7.96009e-27
1.10835e-26
3.10921e-26
2.19924e-25
1.36259e-23
2.98316e-23
1.98711e-22
9.63948e-24
1.00981e-22
2.21112e-25
3.7308e-25
8.1248e-26
5.4988e-26
3.57507e-26
1.47623e-26
1.10059e-26
5.89516e-27
5.46689e-27
4.34286e-27
2.75758e-27
7.80517e-28
9.71689e-28
7.3727e-29
1.0938e-27
9.21125e-28
3.60857e-27
1.70402e-27
4.16726e-27
1.49456e-27
4.08809e-27
2.29045e-27
5.85902e-27
3.07681e-27
6.414e-27
3.5329e-27
7.74983e-27
5.38996e-27
1.0878e-26
5.81824e-27
9.51497e-27
5.29601e-27
1.14435e-26
9.12458e-27
2.01179e-26
1.43399e-26
2.30809e-26
1.60506e-26
2.57599e-26
2.20508e-26
3.61752e-26
2.75151e-26
3.93517e-26
3.01438e-26
4.11486e-26
2.84809e-26
3.87516e-26
2.45689e-26
3.03059e-26
1.46779e-26
2.14344e-26
8.82792e-27
1.40289e-26
4.11482e-26
2.00196e-25
1.20471e-23
3.19811e-23
1.82939e-22
8.69184e-24
8.83517e-23
2.43303e-25
4.22735e-25
9.86266e-26
6.74934e-26
4.48735e-26
1.85008e-26
1.4135e-26
7.5988e-27
6.77009e-27
5.55073e-27
3.36299e-27
9.70541e-28
1.22124e-27
8.68883e-29
1.28216e-27
1.05796e-27
4.12491e-27
1.90168e-27
4.81952e-27
1.6331e-27
4.73126e-27
2.50405e-27
6.7621e-27
3.33126e-27
7.38407e-27
3.82636e-27
8.85012e-27
5.89028e-27
1.23344e-26
6.31424e-27
1.07478e-26
5.76511e-27
1.29881e-26
1.00255e-26
2.29127e-26
1.57802e-26
2.60984e-26
1.75011e-26
2.89376e-26
2.40417e-26
4.06044e-26
3.00273e-26
4.39456e-26
3.27763e-26
4.55673e-26
3.06821e-26
4.2501e-26
2.61519e-26
3.29537e-26
1.53667e-26
2.36715e-26
9.72609e-27
1.77521e-26
5.31727e-26
1.71063e-25
1.02011e-23
3.58428e-23
1.6164e-22
8.50393e-24
7.25095e-23
2.54719e-25
4.74576e-25
1.19572e-25
8.26727e-26
5.62392e-26
2.31506e-26
1.80715e-26
9.83127e-27
8.37416e-27
7.09395e-27
4.11969e-27
1.2042e-27
1.54137e-27
1.07139e-28
1.501e-27
1.2416e-27
4.71997e-27
2.15009e-27
5.58197e-27
1.81322e-27
5.47938e-27
2.77386e-27
7.83517e-27
3.62933e-27
8.54759e-27
4.16483e-27
1.01827e-26
6.46477e-27
1.40748e-26
6.88284e-27
1.2242e-26
6.32e-27
1.48558e-26
1.10742e-26
2.62391e-26
1.74109e-26
2.96133e-26
1.91289e-26
3.27033e-26
2.62755e-26
4.58973e-26
3.28132e-26
4.93724e-26
3.56386e-26
5.06977e-26
3.30267e-26
4.68179e-26
2.77669e-26
3.58813e-26
1.59719e-26
2.61832e-26
1.06513e-26
2.23758e-26
6.69765e-26
1.36051e-25
8.34408e-24
4.13301e-23
1.39779e-22
9.0154e-24
5.49969e-23
2.54874e-25
5.31588e-25
1.44652e-25
1.01066e-25
7.03411e-26
2.89847e-26
2.30231e-26
1.27629e-26
1.03784e-26
9.0668e-27
5.07749e-27
1.49324e-27
1.95296e-27
1.38497e-28
1.75381e-27
1.49069e-27
5.40403e-27
2.46303e-27
6.47474e-27
2.04616e-27
6.34988e-27
3.11881e-27
9.09536e-27
3.98747e-27
9.9472e-27
4.55859e-27
1.17856e-26
7.13219e-27
1.61566e-26
7.53786e-27
1.4058e-26
6.97251e-27
1.7112e-26
1.22896e-26
3.01574e-26
1.92555e-26
3.37222e-26
2.09568e-26
3.71453e-26
2.88075e-26
5.22083e-26
3.58788e-26
5.57674e-26
3.87016e-26
5.66985e-26
3.54961e-26
5.17705e-26
2.93836e-26
3.90811e-26
1.64699e-26
2.89918e-26
1.15607e-26
2.80909e-26
8.25762e-26
9.98871e-26
6.62132e-24
4.90891e-23
1.20674e-22
9.99514e-24
3.79042e-23
2.54142e-25
5.94762e-25
1.74779e-25
1.2344e-25
8.78418e-26
3.63065e-26
2.92396e-26
1.66088e-26
1.29125e-26
1.15951e-26
6.30944e-27
1.85362e-27
2.48297e-27
1.86866e-28
2.04333e-27
1.83434e-27
6.18567e-27
2.86131e-27
7.52228e-27
2.3466e-27
7.36241e-27
3.56141e-27
1.05786e-26
4.42314e-27
1.16124e-26
5.0288e-27
1.37145e-26
7.91195e-27
1.86484e-26
8.29668e-27
1.62652e-26
7.73716e-27
1.98301e-26
1.3691e-26
3.47786e-26
2.13363e-26
3.84905e-26
2.30426e-26
4.24043e-26
3.16879e-26
5.97217e-26
3.92342e-26
6.32749e-26
4.19695e-26
6.37437e-26
3.80917e-26
5.7486e-26
3.0951e-26
4.257e-26
1.68442e-26
3.21029e-26
1.243e-26
3.5014e-26
9.96151e-26
6.76199e-26
5.21628e-24
5.98707e-23
1.10109e-22
1.15816e-23
2.29118e-23
2.65966e-25
6.67485e-25
2.10954e-25
1.50612e-25
1.09399e-25
4.55451e-26
3.70752e-26
2.1648e-26
1.61728e-26
1.48482e-26
7.91448e-27
2.30877e-27
3.16483e-27
2.60837e-28
2.37657e-27
2.31291e-27
7.07372e-27
3.37214e-27
8.75384e-27
2.73276e-27
8.54464e-27
4.12792e-27
1.231e-26
4.96153e-27
1.36006e-26
5.5935e-27
1.60184e-26
8.83553e-27
2.16251e-26
9.17996e-27
1.89484e-26
8.62877e-27
2.31032e-26
1.5299e-26
4.01934e-26
2.36973e-26
4.40645e-26
2.54288e-26
4.86017e-26
3.49975e-26
6.86181e-26
4.28936e-26
7.21104e-26
4.54437e-26
7.21146e-26
4.07886e-26
6.40728e-26
3.24334e-26
4.63442e-26
1.70874e-26
3.55122e-26
1.32082e-26
4.32494e-26
1.17612e-25
4.29774e-26
4.27457e-24
7.35831e-23
1.12112e-22
1.37231e-23
1.15013e-23
3.19775e-25
7.48103e-25
2.54257e-25
1.83636e-25
1.35899e-25
5.71473e-26
4.69752e-26
2.82286e-26
2.0422e-26
1.90552e-26
1.00382e-26
2.89213e-27
4.04114e-27
3.72134e-28
2.76341e-27
2.98639e-27
8.07485e-27
4.035e-27
1.02065e-26
3.22945e-27
9.92609e-27
4.84968e-27
1.43421e-26
5.62701e-27
1.59582e-26
6.28471e-27
1.87687e-26
9.93991e-27
2.51687e-26
1.02127e-26
2.22082e-26
9.66787e-27
2.70373e-26
1.71366e-26
4.65717e-26
2.63771e-26
5.05642e-26
2.81986e-26
5.59218e-26
3.88177e-26
7.90904e-26
4.68768e-26
8.25431e-26
4.91694e-26
8.21137e-26
4.35808e-26
7.17109e-26
3.37803e-26
5.04107e-26
1.71875e-26
3.92089e-26
1.38632e-26
5.28158e-26
1.3536e-25
2.83627e-26
3.93161e-24
9.0731e-23
1.33334e-22
1.6413e-23
4.28708e-24
4.56371e-25
8.42937e-25
3.05755e-25
2.23491e-25
1.6818e-25
7.16952e-26
5.95466e-26
3.68006e-26
2.60412e-26
2.45364e-26
1.28817e-26
3.65263e-27
5.16814e-27
5.38292e-28
3.21559e-27
3.93662e-27
9.20052e-27
4.90446e-27
1.19232e-26
3.86892e-27
1.15481e-26
5.76536e-27
1.67175e-26
6.45349e-27
1.87748e-26
7.13377e-27
2.20238e-26
1.12813e-26
2.93765e-26
1.14278e-26
2.6162e-26
1.08771e-26
3.17753e-26
1.92365e-26
5.40739e-26
2.94403e-26
5.82273e-26
3.14213e-26
6.45053e-26
4.32765e-26
9.13601e-26
5.1237e-26
9.49235e-26
5.31731e-26
9.42101e-26
4.64323e-26
8.0565e-26
3.4949e-26
5.47909e-26
1.71347e-26
4.31342e-26
1.43204e-26
6.365e-26
1.52111e-25
2.46193e-26
4.32593e-24
1.11169e-22
1.84924e-22
1.9092e-23
9.95591e-25
7.43658e-25
9.55608e-25
3.66915e-25
2.71598e-25
2.0738e-25
8.97325e-26
7.55161e-26
4.79388e-26
3.35391e-26
3.17322e-26
1.674e-26
4.66256e-27
6.62072e-27
7.84039e-28
3.74214e-27
5.28275e-27
1.04648e-26
6.05839e-27
1.39595e-26
4.696e-27
1.34553e-26
6.92172e-27
1.95199e-26
7.4758e-27
2.21281e-26
8.19024e-27
2.58739e-26
1.293e-26
3.43583e-26
1.28676e-26
3.09445e-26
1.22886e-26
3.74904e-26
2.16358e-26
6.29852e-26
3.29494e-26
6.72594e-26
3.52135e-26
7.45706e-26
4.85211e-26
1.05677e-25
5.60566e-26
1.0965e-25
5.75187e-26
1.08946e-25
4.9313e-26
9.0917e-26
3.58707e-26
5.95438e-26
1.69148e-26
4.7193e-26
1.45317e-26
7.55392e-26
1.66699e-25
3.49703e-26
5.7081e-24
1.36739e-22
2.84397e-22
2.2011e-23
3.35153e-25
1.30961e-24
1.09384e-24
4.39559e-25
3.29165e-25
2.54421e-25
1.1188e-25
9.58379e-26
6.23684e-26
4.36517e-26
4.12557e-26
2.20428e-26
6.02714e-27
8.49876e-27
1.14399e-27
4.36082e-27
7.18983e-27
1.18929e-26
7.60096e-27
1.63962e-26
5.77244e-27
1.57105e-26
8.37678e-27
2.28216e-26
8.74349e-27
2.61615e-26
9.50499e-27
3.04093e-26
1.49936e-26
4.02331e-26
1.45858e-26
3.67267e-26
1.39475e-26
4.44146e-26
2.43791e-26
7.35985e-26
3.70064e-26
7.80258e-26
3.96783e-26
8.63133e-26
5.47881e-26
1.22277e-25
6.14503e-26
1.27282e-25
6.22746e-26
1.27112e-25
5.21533e-26
1.03086e-25
3.65029e-26
6.47145e-26
1.65151e-26
5.12545e-26
1.44545e-26
8.79987e-26
1.77999e-25
6.78096e-26
8.55006e-24
1.65715e-22
4.61724e-22
2.47165e-23
1.61604e-24
2.34414e-24
1.25994e-24
5.2518e-25
3.97752e-25
3.10605e-25
1.38553e-25
1.21602e-25
8.09808e-26
5.73738e-26
5.39463e-26
2.9424e-26
7.90234e-27
1.09359e-26
1.66458e-27
5.09046e-27
9.89204e-27
1.35157e-26
9.67605e-27
1.93508e-26
7.18461e-27
1.83809e-26
1.02045e-26
2.67507e-26
1.0305e-26
3.10122e-26
1.11555e-26
3.57762e-26
1.76171e-26
4.71242e-26
1.66485e-26
4.37214e-26
1.59174e-26
5.28255e-26
2.75172e-26
8.63989e-26
4.16992e-26
9.08689e-26
4.4986e-26
1.00051e-25
6.23858e-26
1.41364e-25
6.7548e-26
1.48503e-25
6.75521e-26
1.49632e-25
5.49027e-26
1.17579e-25
3.67862e-26
7.03438e-26
1.59078e-26
5.52215e-26
1.40818e-26
1.00502e-25
1.8427e-25
1.41315e-25
1.35568e-23
2.00194e-22
7.52676e-22
2.7538e-23
7.98549e-24
4.15667e-24
1.4676e-24
6.26286e-25
4.78394e-25
3.76877e-25
1.70113e-25
1.54124e-25
1.0485e-25
7.61157e-26
7.09999e-26
3.981e-26
1.05162e-26
1.41208e-26
2.41544e-27
5.94993e-27
1.37035e-26
1.539e-26
1.24822e-26
2.29893e-26
9.05109e-27
2.15672e-26
1.25069e-26
3.14211e-26
1.22284e-26
3.69156e-26
1.32306e-26
4.21189e-26
2.10186e-26
5.5193e-26
1.9145e-26
5.21905e-26
1.82804e-26
6.31081e-26
3.11247e-26
1.01906e-25
4.71561e-26
1.06376e-25
5.13197e-26
1.1605e-25
7.17944e-26
1.63168e-25
7.45474e-26
1.74146e-25
7.34365e-26
1.7791e-25
5.74929e-26
1.34983e-25
3.66695e-26
7.65264e-26
1.50707e-26
5.89459e-26
1.34146e-26
1.12129e-25
1.85041e-25
2.77737e-25
2.17099e-23
2.37684e-22
1.21223e-21
2.97021e-23
2.49801e-23
7.1361e-24
1.72705e-24
7.45539e-25
5.7278e-25
4.54709e-25
2.06472e-25
1.94723e-25
1.35257e-25
1.01769e-25
9.40776e-26
5.45693e-26
1.42172e-26
1.83202e-26
3.49759e-27
6.94597e-27
1.90625e-26
1.75921e-26
1.62941e-26
2.7554e-26
1.15385e-26
2.53885e-26
1.54216e-26
3.7028e-26
1.45886e-26
4.40968e-26
1.58598e-26
4.96698e-26
2.55091e-26
6.46359e-26
2.21931e-26
6.24521e-26
2.11467e-26
7.57448e-26
3.52898e-26
1.20946e-25
5.34951e-26
1.25124e-25
5.89619e-26
1.34755e-25
8.3681e-26
1.87908e-25
8.26992e-26
2.05117e-25
8.00501e-26
2.1373e-25
5.98809e-26
1.56211e-25
3.60775e-26
8.34109e-26
1.39783e-26
6.23204e-26
1.25134e-26
1.21964e-25
1.80147e-25
5.05472e-25
3.41333e-23
2.81748e-22
1.89711e-21
3.19275e-23
6.00783e-23
1.18198e-23
2.05859e-24
8.87251e-25
6.81727e-25
5.44879e-25
2.47278e-25
2.44846e-25
1.73604e-25
1.36976e-25
1.2553e-25
7.57511e-26
1.95259e-26
2.39046e-26
5.05604e-27
8.10409e-27
2.65552e-26
2.02358e-26
2.14773e-26
3.34228e-26
1.48825e-26
3.00216e-26
1.9139e-26
4.3757e-26
1.7502e-26
5.29095e-26
1.91908e-26
5.87018e-26
3.1571e-26
7.56972e-26
2.59479e-26
7.49389e-26
2.46679e-26
9.13853e-26
4.01216e-26
1.4447e-25
6.09045e-26
1.48019e-25
6.82196e-26
1.5664e-25
9.91016e-26
2.15715e-25
9.23308e-26
2.42591e-25
8.75458e-26
2.5967e-25
6.20128e-26
1.82446e-25
3.50018e-26
9.11441e-26
1.26184e-26
6.52506e-26
1.14986e-26
1.28638e-25
1.70552e-25
8.49037e-25
5.2152e-23
3.27826e-22
2.89656e-21
3.33868e-23
1.21426e-22
1.88156e-23
2.47842e-24
1.05412e-24
8.06391e-25
6.48879e-25
2.91381e-25
3.05673e-25
2.21366e-25
1.85243e-25
1.68604e-25
1.064e-25
2.72551e-26
3.13946e-26
7.29485e-27
9.45555e-27
3.69831e-26
2.3464e-26
2.85234e-26
4.1171e-26
1.94185e-26
3.56842e-26
2.39243e-26
5.19131e-26
2.11068e-26
6.37115e-26
2.34273e-26
6.96374e-26
3.99182e-26
8.86855e-26
3.06154e-26
9.0234e-26
2.90434e-26
1.10836e-25
4.57509e-26
1.73962e-25
6.95521e-26
1.76035e-25
7.9528e-26
1.82492e-25
1.19588e-25
2.46614e-25
1.03841e-25
2.87945e-25
9.6133e-26
3.19029e-25
6.39098e-26
2.15461e-25
3.34776e-26
9.98748e-26
1.09834e-26
6.78329e-26
1.05413e-26
1.3138e-25
1.57431e-25
1.33816e-24
7.72473e-23
3.81097e-22
4.29252e-21
3.53685e-23
2.18991e-22
2.89993e-23
3.02302e-24
1.25319e-24
9.46402e-25
7.67242e-25
3.37205e-25
3.78197e-25
2.79843e-25
2.51319e-25
2.27956e-25
1.51063e-25
3.8645e-26
4.15458e-26
1.05307e-26
1.10426e-26
5.13713e-26
2.75037e-26
3.8101e-26
5.16579e-26
2.56216e-26
4.27173e-26
3.01672e-26
6.17907e-26
2.56185e-26
7.70764e-26
2.881e-26
8.29335e-26
5.16422e-26
1.04099e-25
3.64928e-26
1.09119e-25
3.45225e-26
1.35224e-25
5.2373e-26
2.11206e-25
7.96842e-26
2.10735e-25
9.33877e-26
2.13075e-25
1.47492e-25
2.80719e-25
1.17886e-25
3.42675e-25
1.05994e-25
3.96675e-25
6.56726e-26
2.57545e-25
3.16558e-26
1.09928e-25
9.12028e-27
7.01648e-26
9.86681e-27
1.29037e-25
1.44479e-25
1.98605e-24
1.11121e-22
4.35132e-22
6.20709e-21
3.74513e-23
3.61947e-22
4.34801e-23
3.72456e-24
1.48995e-24
1.10211e-24
9.01487e-25
3.82181e-25
4.62496e-25
3.50128e-25
3.41323e-25
3.1006e-25
2.16494e-25
5.56801e-26
5.54479e-26
1.52499e-26
1.28958e-26
7.11025e-26
3.26651e-26
5.11134e-26
6.61774e-26
3.41809e-26
5.15854e-26
3.84259e-26
7.38646e-26
3.13265e-26
9.36336e-26
3.56568e-26
9.92572e-26
6.83666e-26
1.22709e-25
4.40119e-26
1.32662e-25
4.1415e-26
1.66021e-25
6.02331e-26
2.58942e-25
9.1549e-26
2.53924e-25
1.10453e-25
2.4959e-25
1.86279e-25
3.18292e-25
1.35463e-25
4.08222e-25
1.17337e-25
4.99121e-25
6.75567e-26
3.12092e-25
2.98308e-26
1.21814e-25
7.12852e-27
7.25526e-26
9.78901e-27
1.21413e-25
1.36128e-25
2.80421e-24
1.55785e-22
4.95006e-22
8.74367e-21
4.12187e-23
5.61611e-22
6.33433e-23
4.64593e-24
1.7761e-24
1.27173e-24
1.05152e-24
4.23304e-25
5.58045e-25
4.32502e-25
4.63272e-25
4.2407e-25
3.12851e-25
8.1458e-26
7.46756e-26
2.21716e-26
1.51235e-26
9.79204e-26
3.93982e-26
6.87355e-26
8.67513e-26
4.61018e-26
6.30043e-26
4.95124e-26
8.8622e-26
3.86876e-26
1.14393e-25
4.43213e-26
1.19397e-25
9.25647e-26
1.45673e-25
5.38052e-26
1.62473e-25
5.01177e-26
2.05232e-25
6.96458e-26
3.20709e-25
1.05547e-25
3.08351e-25
1.31413e-25
2.93382e-25
2.4131e-25
3.59639e-25
1.58195e-25
4.86187e-25
1.30436e-25
6.35488e-25
6.99956e-26
3.8376e-25
2.86589e-26
1.36163e-25
5.18948e-27
7.54343e-26
1.07795e-26
1.08467e-25
1.39945e-25
3.78605e-24
2.12953e-22
5.52661e-22
1.20694e-20
4.59189e-23
8.26708e-22
8.99001e-23
5.85384e-24
2.11808e-24
1.45359e-24
1.21862e-24
4.56572e-25
6.62736e-25
5.26333e-25
6.27152e-25
5.82562e-25
4.55203e-25
1.21021e-25
1.01527e-25
3.23811e-26
1.7897e-26
1.34157e-25
4.83024e-26
9.25193e-26
1.16499e-25
6.28785e-26
7.79898e-26
6.46191e-26
1.06831e-25
4.83224e-26
1.4069e-25
5.52451e-26
1.44509e-25
1.2789e-25
1.74807e-25
6.68173e-26
2.01016e-25
6.11235e-26
2.55464e-25
8.10092e-26
4.01938e-25
1.22102e-25
3.77599e-25
1.57078e-25
3.46583e-25
3.20551e-25
4.05453e-25
1.8865e-25
5.7832e-25
1.45602e-25
8.17852e-25
7.37873e-26
4.79466e-25
2.92761e-26
1.53832e-25
3.55069e-27
7.97517e-26
1.36188e-26
9.19762e-26
1.66146e-25
4.92322e-24
2.84927e-22
6.17446e-22
1.63213e-20
5.4902e-23
1.1663e-21
1.24681e-22
7.46743e-24
2.53622e-24
1.64279e-24
1.40204e-24
4.78014e-25
7.73346e-25
6.29077e-25
8.45507e-25
8.03387e-25
6.66021e-25
1.82341e-25
1.39422e-25
4.76114e-26
2.14689e-26
1.82594e-25
6.03099e-26
1.24545e-25
1.60174e-25
8.67097e-26
9.81636e-26
8.55785e-26
1.29269e-25
6.11556e-26
1.74783e-25
6.89385e-26
1.75856e-25
1.79732e-25
2.13113e-25
8.4528e-26
2.52022e-25
7.5013e-26
3.20392e-25
9.4917e-26
5.09818e-25
1.41855e-25
4.67239e-25
1.88308e-25
4.11306e-25
4.3603e-25
4.57359e-25
2.3142e-25
6.85849e-25
1.63079e-25
1.06327e-24
8.02892e-26
6.08612e-25
3.3836e-26
1.76348e-25
2.52963e-27
8.67153e-26
1.97204e-26
7.37876e-26
2.36611e-25
6.18576e-24
3.73534e-22
6.77668e-22
2.16865e-20
7.03834e-23
1.58505e-21
1.70521e-22
9.61011e-24
3.04371e-24
1.83524e-24
1.60279e-24
4.83389e-25
8.84102e-25
7.36667e-25
1.13316e-24
1.11105e-24
9.78446e-25
2.7854e-25
1.93476e-25
7.06445e-26
2.615e-26
2.46942e-25
7.6759e-26
1.67614e-25
2.25028e-25
1.20918e-25
1.25972e-25
1.15191e-25
1.57143e-25
7.84608e-26
2.19985e-25
8.60544e-26
2.15247e-25
2.55886e-25
2.6554e-25
1.09266e-25
3.21315e-25
9.24891e-26
4.05002e-25
1.12166e-25
6.5527e-25
1.65589e-25
5.84994e-25
2.26058e-25
4.90725e-25
6.05558e-25
5.18711e-25
2.94333e-25
8.09428e-25
1.83055e-25
1.39476e-24
9.18008e-26
7.85047e-25
4.66265e-26
2.06127e-25
2.53451e-27
9.84683e-26
3.16809e-26
5.72821e-26
3.90597e-25
7.55513e-24
4.82466e-22
7.3776e-22
2.83192e-20
9.7687e-23
2.08651e-21
2.28765e-22
1.25049e-23
3.67463e-24
2.02297e-24
1.81845e-24
4.69611e-25
9.88249e-25
8.42057e-25
1.50781e-24
1.53976e-24
1.44177e-24
4.30573e-25
2.71287e-25
1.0578e-25
3.25554e-26
3.31575e-25
9.96026e-26
2.25318e-25
3.22347e-25
1.705e-25
1.65281e-25
1.57804e-25
1.91751e-25
1.0209e-25
2.81805e-25
1.07351e-25
2.64912e-25
3.67606e-25
3.39836e-25
1.44712e-25
4.18293e-25
1.14467e-25
5.16133e-25
1.33838e-25
8.53379e-25
1.94524e-25
7.42589e-25
2.71226e-25
5.88409e-25
8.55859e-25
5.94428e-25
3.91119e-25
9.4912e-25
2.05853e-25
1.84335e-24
1.1217e-25
1.02818e-24
7.71677e-26
2.46628e-25
4.64303e-27
1.18381e-25
5.40261e-26
4.60837e-26
7.05276e-25
9.01337e-24
6.12788e-22
7.87266e-22
3.64463e-20
1.41315e-22
2.66677e-21
3.02268e-22
1.64291e-23
4.44909e-24
2.19872e-24
2.04937e-24
4.34779e-25
1.0768e-24
9.3643e-25
1.98906e-24
2.13578e-24
2.12825e-24
6.73002e-25
3.8429e-25
1.59822e-25
4.16478e-26
4.42437e-25
1.31599e-25
3.0242e-25
4.69515e-25
2.43148e-25
2.22048e-25
2.20252e-25
2.35138e-25
1.34539e-25
3.68975e-25
1.3387e-25
3.2827e-25
5.30833e-25
4.48651e-25
1.96734e-25
5.58402e-25
1.42229e-25
6.62992e-25
1.61417e-25
1.12707e-24
2.30223e-25
9.57478e-25
3.24723e-25
7.10065e-25
1.22624e-24
6.93089e-25
5.45421e-25
1.10527e-24
2.31879e-25
2.45005e-24
1.48179e-25
1.36676e-24
1.45865e-25
3.03149e-25
1.23179e-26
1.52628e-25
9.45562e-26
4.50794e-26
1.31097e-24
1.05287e-23
7.68096e-22
8.4003e-22
4.6257e-20
2.16653e-22
3.31302e-21
3.92996e-22
2.18395e-23
5.42737e-24
2.34967e-24
2.29235e-24
3.7994e-25
1.14087e-24
1.0075e-24
2.59869e-24
2.96366e-24
3.14411e-24
1.06102e-24
5.49833e-25
2.43864e-25
5.48087e-26
5.86103e-25
1.7694e-25
4.05336e-25
6.93013e-25
3.50472e-25
3.05868e-25
3.13604e-25
2.8953e-25
1.79279e-25
4.9601e-25
1.67066e-25
4.09469e-25
7.67777e-25
6.12604e-25
2.74881e-25
7.66595e-25
1.77544e-25
8.58491e-25
1.97182e-25
1.50836e-24
2.75035e-25
1.25646e-24
3.876e-25
8.61572e-25
1.7742e-24
8.28755e-25
7.99848e-25
1.27623e-24
2.61637e-25
3.27015e-24
2.11859e-25