/*--------------------------------*- C++ -*----------------------------------*\
| =========                 |                                                 |
| \\      /  F ield         | OpenFOAM: The Open Source CFD Toolbox           |
|  \\    /   O peration     | Version:  2312                                  |
|   \\  /    A nd           | Website:  www.openfoam.com                      |
|    \\/     M anipulation  |                                                 |
\*---------------------------------------------------------------------------*/
FoamFile
{
    version     2.0;
    format      ascii;
    arch        "LSB;label=32;scalar=64";
    class       volScalarField;
    location    "100";
    object      p;
}
// * * * * * * * * * * * * * * * * * * * * * * * * * * * * * * * * * * * * * //

dimensions      [0 2 -2 0 0 0 0];

internalField   nonuniform List<scalar> 
330000
(
3.01783e-09
2.55293e-09
-5.11707e-10
-2.29625e-09
-2.79468e-09
-2.99495e-09
-2.99782e-09
-3.05195e-09
-3.07195e-09
-3.10592e-09
-2.93165e-09
-2.84721e-09
-2.56693e-09
-2.41591e-09
-2.12445e-09
-1.99197e-09
-1.76542e-09
-1.7839e-09
-1.47168e-09
-1.55883e-09
-1.26562e-09
-1.33191e-09
-1.02494e-09
-1.09378e-09
-7.30438e-10
-8.37932e-10
-4.886e-10
-6.10283e-10
-2.50325e-10
-4.15508e-10
-1.02916e-11
-2.04126e-10
1.75233e-10
5.55927e-12
4.09397e-10
1.87837e-10
6.6504e-10
3.59956e-10
8.38426e-10
5.30576e-10
1.0414e-09
7.10417e-10
1.3046e-09
9.20456e-10
1.51223e-09
1.11865e-09
1.76755e-09
1.38241e-09
2.03106e-09
1.65206e-09
2.30794e-09
1.97158e-09
2.51875e-09
2.22876e-09
2.7616e-09
2.8208e-09
3.12468e-09
3.45967e-09
-9.11846e-10
5.13754e-09
3.02475e-09
2.57788e-09
-5.01796e-10
-2.29538e-09
-2.79357e-09
-2.99454e-09
-2.9968e-09
-3.05137e-09
-3.07114e-09
-3.10556e-09
-2.93128e-09
-2.84715e-09
-2.56692e-09
-2.41599e-09
-2.12451e-09
-1.99213e-09
-1.76539e-09
-1.78407e-09
-1.47174e-09
-1.55881e-09
-1.26584e-09
-1.33193e-09
-1.02516e-09
-1.09391e-09
-7.30706e-10
-8.37985e-10
-4.88894e-10
-6.10315e-10
-2.50574e-10
-4.15562e-10
-1.05894e-11
-2.04044e-10
1.74878e-10
5.60324e-12
4.09145e-10
1.87853e-10
6.64718e-10
3.60165e-10
8.38001e-10
5.30873e-10
1.04097e-09
7.1068e-10
1.30411e-09
9.20937e-10
1.51164e-09
1.11927e-09
1.76694e-09
1.38317e-09
2.03035e-09
1.65304e-09
2.30712e-09
1.97276e-09
2.51785e-09
2.2303e-09
2.76045e-09
2.82277e-09
3.12629e-09
3.46674e-09
-9.24913e-10
5.09555e-09
3.03405e-09
2.60703e-09
-4.89384e-10
-2.29559e-09
-2.79331e-09
-2.99514e-09
-2.99596e-09
-3.05098e-09
-3.07018e-09
-3.10531e-09
-2.93089e-09
-2.84731e-09
-2.5669e-09
-2.41621e-09
-2.12452e-09
-1.99238e-09
-1.76513e-09
-1.78447e-09
-1.47153e-09
-1.55902e-09
-1.26589e-09
-1.33216e-09
-1.02521e-09
-1.09435e-09
-7.3074e-10
-8.38318e-10
-4.8894e-10
-6.10611e-10
-2.50553e-10
-4.15994e-10
-1.05908e-11
-2.04295e-10
1.74782e-10
5.34023e-12
4.09218e-10
1.87419e-10
6.64825e-10
3.59933e-10
8.37986e-10
5.30763e-10
1.04095e-09
7.1039e-10
1.30411e-09
9.209e-10
1.51159e-09
1.11944e-09
1.76684e-09
1.38345e-09
2.03014e-09
1.65359e-09
2.30666e-09
1.97353e-09
2.51737e-09
2.23153e-09
2.75953e-09
2.82419e-09
3.12826e-09
3.47943e-09
-9.49118e-10
5.05427e-09
3.04604e-09
2.63539e-09
-4.74871e-10
-2.29742e-09
-2.79476e-09
-2.9972e-09
-2.99563e-09
-3.05095e-09
-3.06926e-09
-3.10519e-09
-2.93064e-09
-2.84763e-09
-2.56695e-09
-2.41645e-09
-2.12452e-09
-1.99262e-09
-1.76472e-09
-1.78494e-09
-1.47121e-09
-1.55927e-09
-1.26591e-09
-1.33239e-09
-1.02525e-09
-1.09486e-09
-7.30697e-10
-8.38683e-10
-4.88899e-10
-6.10911e-10
-2.50461e-10
-4.16524e-10
-1.05138e-11
-2.04602e-10
1.74742e-10
5.04975e-12
4.09371e-10
1.86858e-10
6.65075e-10
3.5959e-10
8.38088e-10
5.30587e-10
1.04101e-09
7.09919e-10
1.30424e-09
9.20724e-10
1.51173e-09
1.11953e-09
1.76687e-09
1.38361e-09
2.03005e-09
1.65402e-09
2.3062e-09
1.97409e-09
2.51708e-09
2.23246e-09
2.75886e-09
2.82449e-09
3.13202e-09
3.49364e-09
-9.79406e-10
5.01882e-09
3.05468e-09
2.65881e-09
-4.57469e-10
-2.29979e-09
-2.79749e-09
-3.00033e-09
-2.99563e-09
-3.0511e-09
-3.06831e-09
-3.10508e-09
-2.93048e-09
-2.848e-09
-2.56702e-09
-2.41668e-09
-2.12452e-09
-1.99281e-09
-1.76422e-09
-1.78541e-09
-1.47084e-09
-1.5595e-09
-1.26594e-09
-1.33257e-09
-1.02533e-09
-1.09536e-09
-7.30656e-10
-8.39004e-10
-4.88853e-10
-6.11146e-10
-2.50391e-10
-4.17058e-10
-1.04658e-11
-2.04873e-10
1.74664e-10
4.81713e-12
4.09494e-10
1.86293e-10
6.65322e-10
3.59271e-10
8.38164e-10
5.30482e-10
1.041e-09
7.09432e-10
1.30431e-09
9.20589e-10
1.51187e-09
1.11972e-09
1.76684e-09
1.38384e-09
2.02988e-09
1.65452e-09
2.30554e-09
1.97465e-09
2.51674e-09
2.23325e-09
2.75828e-09
2.82363e-09
3.13794e-09
3.50717e-09
-1.00914e-09
4.9914e-09
3.05377e-09
2.67264e-09
-4.368e-10
-2.3016e-09
-2.80092e-09
-3.00404e-09
-2.99564e-09
-3.0512e-09
-3.06718e-09
-3.10484e-09
-2.93027e-09
-2.84831e-09
-2.56705e-09
-2.41684e-09
-2.12448e-09
-1.99294e-09
-1.76362e-09
-1.78587e-09
-1.47045e-09
-1.55968e-09
-1.26597e-09
-1.33269e-09
-1.02543e-09
-1.09584e-09
-7.30627e-10
-8.39284e-10
-4.88811e-10
-6.11326e-10
-2.50359e-10
-4.17592e-10
-1.04651e-11
-2.05107e-10
1.7454e-10
4.63709e-12
4.09569e-10
1.85741e-10
6.6553e-10
3.58989e-10
8.38191e-10
5.30455e-10
1.04089e-09
7.08958e-10
1.30428e-09
9.20521e-10
1.51196e-09
1.12002e-09
1.76668e-09
1.38418e-09
2.02955e-09
1.65513e-09
2.3046e-09
1.97529e-09
2.51622e-09
2.234e-09
2.75766e-09
2.82155e-09
3.14622e-09
3.5183e-09
-1.0333e-09
4.97601e-09
3.03876e-09
2.67164e-09
-4.13196e-10
-2.30188e-09
-2.80454e-09
-3.0079e-09
-2.99541e-09
-3.05102e-09
-3.06571e-09
-3.10431e-09
-2.92988e-09
-2.84844e-09
-2.56694e-09
-2.41688e-09
-2.12436e-09
-1.993e-09
-1.76293e-09
-1.78629e-09
-1.47002e-09
-1.5598e-09
-1.26599e-09
-1.33275e-09
-1.02554e-09
-1.09628e-09
-7.30605e-10
-8.39527e-10
-4.8877e-10
-6.11463e-10
-2.50367e-10
-4.18126e-10
-1.05173e-11
-2.05313e-10
1.74375e-10
4.49924e-12
4.09587e-10
1.85214e-10
6.65681e-10
3.58748e-10
8.38162e-10
5.30501e-10
1.04068e-09
7.08507e-10
1.30414e-09
9.20529e-10
1.51198e-09
1.12044e-09
1.76638e-09
1.38464e-09
2.02901e-09
1.65587e-09
2.3033e-09
1.97605e-09
2.51541e-09
2.23476e-09
2.75693e-09
2.81813e-09
3.15708e-09
3.52508e-09
-1.04805e-09
4.97785e-09
3.00693e-09
2.65081e-09
-3.87513e-10
-2.2999e-09
-2.80792e-09
-3.01154e-09
-2.99469e-09
-3.05037e-09
-3.06376e-09
-3.10336e-09
-2.9292e-09
-2.84827e-09
-2.56663e-09
-2.41676e-09
-2.12414e-09
-1.99297e-09
-1.76215e-09
-1.78665e-09
-1.46957e-09
-1.55985e-09
-1.26596e-09
-1.33274e-09
-1.02564e-09
-1.09666e-09
-7.30585e-10
-8.39728e-10
-4.88734e-10
-6.11564e-10
-2.50423e-10
-4.18656e-10
-1.06335e-11
-2.05489e-10
1.74165e-10
4.40227e-12
4.09533e-10
1.84726e-10
6.65749e-10
3.58558e-10
8.38058e-10
5.30626e-10
1.04035e-09
7.081e-10
1.30384e-09
9.20628e-10
1.51189e-09
1.12099e-09
1.76588e-09
1.38525e-09
2.0282e-09
1.65678e-09
2.30158e-09
1.97699e-09
2.51421e-09
2.23557e-09
2.75603e-09
2.81319e-09
3.17084e-09
3.5256e-09
-1.05076e-09
5.002e-09
2.95745e-09
2.60602e-09
-3.6091e-10
-2.29513e-09
-2.81073e-09
-3.01464e-09
-2.99326e-09
-3.04906e-09
-3.06119e-09
-3.10185e-09
-2.9281e-09
-2.84769e-09
-2.56602e-09
-2.41642e-09
-2.12378e-09
-1.99283e-09
-1.76126e-09
-1.78692e-09
-1.46909e-09
-1.55981e-09
-1.26589e-09
-1.33264e-09
-1.02571e-09
-1.09697e-09
-7.30566e-10
-8.39881e-10
-4.88707e-10
-6.1163e-10
-2.50539e-10
-4.19173e-10
-1.08277e-11
-2.05634e-10
1.73903e-10
4.34913e-12
4.09389e-10
1.84295e-10
6.65708e-10
3.58432e-10
8.37858e-10
5.30837e-10
1.03986e-09
7.07761e-10
1.30336e-09
9.20839e-10
1.51166e-09
1.12168e-09
1.76514e-09
1.38604e-09
2.02706e-09
1.65788e-09
2.29938e-09
1.97815e-09
2.51253e-09
2.23643e-09
2.75494e-09
2.80655e-09
3.18777e-09
3.51836e-09
-1.04019e-09
5.05255e-09
2.89088e-09
2.53429e-09
-3.34667e-10
-2.28721e-09
-2.81268e-09
-3.01694e-09
-2.99094e-09
-3.04692e-09
-3.05789e-09
-3.09966e-09
-2.92648e-09
-2.84662e-09
-2.56504e-09
-2.41581e-09
-2.12324e-09
-1.99255e-09
-1.76027e-09
-1.78709e-09
-1.46857e-09
-1.55966e-09
-1.26573e-09
-1.33243e-09
-1.02574e-09
-1.09719e-09
-7.30545e-10
-8.3998e-10
-4.88694e-10
-6.11664e-10
-2.50723e-10
-4.19671e-10
-1.11135e-11
-2.05742e-10
1.73577e-10
4.34339e-12
4.09137e-10
1.83937e-10
6.65531e-10
3.58383e-10
8.37538e-10
5.31142e-10
1.0392e-09
7.07509e-10
1.30266e-09
9.2118e-10
1.51124e-09
1.12253e-09
1.7641e-09
1.38702e-09
2.02553e-09
1.65921e-09
2.29662e-09
1.97955e-09
2.5103e-09
2.23735e-09
2.75366e-09
2.79805e-09
3.20801e-09
3.50249e-09
-1.01621e-09
5.13222e-09
2.80898e-09
2.43396e-09
-3.1002e-10
-2.2759e-09
-2.81357e-09
-3.01825e-09
-2.98762e-09
-3.04384e-09
-3.05376e-09
-3.09668e-09
-2.92424e-09
-2.84496e-09
-2.56363e-09
-2.41488e-09
-2.12249e-09
-1.99212e-09
-1.75916e-09
-1.78713e-09
-1.46802e-09
-1.55938e-09
-1.26549e-09
-1.33211e-09
-1.02571e-09
-1.0973e-09
-7.30519e-10
-8.40017e-10
-4.88698e-10
-6.11666e-10
-2.50984e-10
-4.20143e-10
-1.15046e-11
-2.0581e-10
1.73177e-10
4.38865e-12
4.0876e-10
1.83664e-10
6.65194e-10
3.5842e-10
8.37078e-10
5.31547e-10
1.03836e-09
7.07365e-10
1.3017e-09
9.21668e-10
1.51059e-09
1.12356e-09
1.76274e-09
1.38824e-09
2.02357e-09
1.66079e-09
2.29327e-09
1.98123e-09
2.50748e-09
2.23831e-09
2.75219e-09
2.78757e-09
3.23155e-09
3.47773e-09
-9.79651e-10
5.24208e-09
2.71423e-09
2.30458e-09
-2.88103e-10
-2.26109e-09
-2.81321e-09
-3.01843e-09
-2.98319e-09
-3.03973e-09
-3.04873e-09
-3.09285e-09
-2.9213e-09
-2.84265e-09
-2.56173e-09
-2.41359e-09
-2.12149e-09
-1.99152e-09
-1.75793e-09
-1.78703e-09
-1.46742e-09
-1.55896e-09
-1.26514e-09
-1.33167e-09
-1.0256e-09
-1.09728e-09
-7.30484e-10
-8.39986e-10
-4.88722e-10
-6.11636e-10
-2.51329e-10
-4.2058e-10
-1.2014e-11
-2.05833e-10
1.72689e-10
4.48783e-12
4.08243e-10
1.83488e-10
6.64676e-10
3.58552e-10
8.36459e-10
5.32055e-10
1.0373e-09
7.07342e-10
1.30047e-09
9.22316e-10
1.50969e-09
1.12478e-09
1.76101e-09
1.38969e-09
2.02112e-09
1.66262e-09
2.2893e-09
1.98317e-09
2.50403e-09
2.2393e-09
2.75056e-09
2.77511e-09
3.25816e-09
3.44431e-09
-9.31898e-10
5.38166e-09
2.60974e-09
2.14696e-09
-2.69899e-10
-2.24274e-09
-2.81145e-09
-3.01739e-09
-2.9776e-09
-3.03453e-09
-3.04276e-09
-3.0881e-09
-2.91762e-09
-2.83965e-09
-2.5593e-09
-2.4119e-09
-2.12022e-09
-1.99074e-09
-1.75656e-09
-1.78678e-09
-1.46678e-09
-1.5584e-09
-1.26468e-09
-1.3311e-09
-1.02541e-09
-1.09714e-09
-7.30439e-10
-8.39879e-10
-4.88769e-10
-6.11572e-10
-2.51764e-10
-4.20976e-10
-1.26551e-11
-2.05805e-10
1.72104e-10
4.64296e-12
4.07572e-10
1.83415e-10
6.63958e-10
3.58784e-10
8.35665e-10
5.32668e-10
1.03602e-09
7.07453e-10
1.29894e-09
9.23135e-10
1.5085e-09
1.12619e-09
1.75888e-09
1.39139e-09
2.01818e-09
1.66471e-09
2.28469e-09
1.98539e-09
2.49992e-09
2.24028e-09
2.74875e-09
2.7607e-09
3.28744e-09
3.40294e-09
-8.74846e-10
5.54895e-09
2.49876e-09
1.96296e-09
-2.56174e-10
-2.22093e-09
-2.80817e-09
-3.01503e-09
-2.97079e-09
-3.0282e-09
-3.0358e-09
-3.08242e-09
-2.91314e-09
-2.83592e-09
-2.55632e-09
-2.40979e-09
-2.11866e-09
-1.98977e-09
-1.75506e-09
-1.78635e-09
-1.46608e-09
-1.55769e-09
-1.26409e-09
-1.3304e-09
-1.02513e-09
-1.09684e-09
-7.30384e-10
-8.39687e-10
-4.88839e-10
-6.11473e-10
-2.52292e-10
-4.2132e-10
-1.34405e-11
-2.0572e-10
1.71409e-10
4.85442e-12
4.06739e-10
1.83452e-10
6.63023e-10
3.59121e-10
8.34682e-10
5.33384e-10
1.0345e-09
7.07707e-10
1.29709e-09
9.24133e-10
1.507e-09
1.12781e-09
1.75634e-09
1.39334e-09
2.0147e-09
1.66706e-09
2.27942e-09
1.98785e-09
2.49515e-09
2.24124e-09
2.74673e-09
2.74451e-09
3.31876e-09
3.35473e-09
-8.10478e-10
5.74062e-09
2.3845e-09
1.75546e-09
-2.47396e-10
-2.19578e-09
-2.80326e-09
-3.01132e-09
-2.96276e-09
-3.02074e-09
-3.02784e-09
-3.07578e-09
-2.90786e-09
-2.83144e-09
-2.55277e-09
-2.40725e-09
-2.11679e-09
-1.98861e-09
-1.7534e-09
-1.78575e-09
-1.46532e-09
-1.55682e-09
-1.26338e-09
-1.32956e-09
-1.02475e-09
-1.0964e-09
-7.3032e-10
-8.39405e-10
-4.88934e-10
-6.11335e-10
-2.52919e-10
-4.21602e-10
-1.43821e-11
-2.0557e-10
1.70597e-10
5.1209e-12
4.05734e-10
1.83602e-10
6.61857e-10
3.59565e-10
8.335e-10
5.342e-10
1.03274e-09
7.08111e-10
1.29491e-09
9.25312e-10
1.50518e-09
1.12963e-09
1.75338e-09
1.39554e-09
2.01069e-09
1.66965e-09
2.27349e-09
1.99056e-09
2.4897e-09
2.24217e-09
2.74447e-09
2.72677e-09
3.35138e-09
3.30119e-09
-7.40789e-10
5.95206e-09
2.26987e-09
1.528e-09
-2.43799e-10
-2.16744e-09
-2.79661e-09
-3.00621e-09
-2.9535e-09
-3.01213e-09
-3.01888e-09
-3.06818e-09
-2.90175e-09
-2.8262e-09
-2.54864e-09
-2.40426e-09
-2.1146e-09
-1.98726e-09
-1.75159e-09
-1.78496e-09
-1.46451e-09
-1.55579e-09
-1.26254e-09
-1.32858e-09
-1.02427e-09
-1.09579e-09
-7.30252e-10
-8.39026e-10
-4.89054e-10
-6.11156e-10
-2.53646e-10
-4.2181e-10
-1.54905e-11
-2.05352e-10
1.69662e-10
5.43926e-12
4.04554e-10
1.83867e-10
6.60447e-10
3.60114e-10
8.32109e-10
5.3511e-10
1.03073e-09
7.0867e-10
1.29237e-09
9.26676e-10
1.50301e-09
1.13165e-09
1.74997e-09
1.39798e-09
2.00614e-09
1.67247e-09
2.26692e-09
1.99348e-09
2.48356e-09
2.24308e-09
2.74189e-09
2.70779e-09
3.38437e-09
3.24398e-09
-6.67542e-10
6.17784e-09
2.15762e-09
1.28477e-09
-2.45422e-10
-2.13618e-09
-2.78817e-09
-2.99969e-09
-2.94302e-09
-3.00241e-09
-3.00891e-09
-3.05963e-09
-2.89481e-09
-2.82021e-09
-2.54393e-09
-2.40082e-09
-2.11207e-09
-1.98571e-09
-1.74963e-09
-1.78399e-09
-1.46365e-09
-1.5546e-09
-1.26157e-09
-1.32748e-09
-1.02369e-09
-1.09503e-09
-7.30186e-10
-8.38547e-10
-4.89201e-10
-6.10933e-10
-2.54479e-10
-4.21931e-10
-1.67741e-11
-2.0506e-10
1.68604e-10
5.80511e-12
4.03197e-10
1.84248e-10
6.58787e-10
3.60767e-10
8.30506e-10
5.36107e-10
1.02845e-09
7.09388e-10
1.28948e-09
9.28221e-10
1.5005e-09
1.13386e-09
1.74613e-09
1.40064e-09
2.00105e-09
1.6755e-09
2.25969e-09
1.99661e-09
2.47674e-09
2.24396e-09
2.73891e-09
2.68794e-09
3.41678e-09
3.18489e-09
-5.92399e-10
6.41189e-09
2.05001e-09
1.03027e-09
-2.52096e-10
-2.10228e-09
-2.77787e-09
-2.99175e-09
-2.93133e-09
-2.99159e-09
-2.99795e-09
-3.05014e-09
-2.88707e-09
-2.81346e-09
-2.53867e-09
-2.39694e-09
-2.10919e-09
-1.98398e-09
-1.7475e-09
-1.78282e-09
-1.46273e-09
-1.55324e-09
-1.26046e-09
-1.32625e-09
-1.02302e-09
-1.09409e-09
-7.30128e-10
-8.37965e-10
-4.89375e-10
-6.10664e-10
-2.5542e-10
-4.21955e-10
-1.82387e-11
-2.04693e-10
1.67424e-10
6.21319e-12
4.01663e-10
1.84745e-10
6.5687e-10
3.61522e-10
8.28687e-10
5.37183e-10
1.02592e-09
7.10264e-10
1.28622e-09
9.29943e-10
1.49762e-09
1.13626e-09
1.74186e-09
1.40353e-09
1.99542e-09
1.67873e-09
2.25182e-09
1.99991e-09
2.46923e-09
2.24483e-09
2.73541e-09
2.66764e-09
3.4476e-09
3.1257e-09
-5.16645e-10
6.64795e-09
1.9487e-09
7.69187e-10
-2.63398e-10
-2.06605e-09
-2.76569e-09
-2.9824e-09
-2.91847e-09
-2.97972e-09
-2.98602e-09
-3.03975e-09
-2.87854e-09
-2.80599e-09
-2.53285e-09
-2.39262e-09
-2.10596e-09
-1.98207e-09
-1.74521e-09
-1.78144e-09
-1.46177e-09
-1.55173e-09
-1.25923e-09
-1.3249e-09
-1.02227e-09
-1.09299e-09
-7.30086e-10
-8.37279e-10
-4.89576e-10
-6.10344e-10
-2.56473e-10
-4.21869e-10
-1.98871e-11
-2.04249e-10
1.66128e-10
6.65804e-12
3.99955e-10
1.85359e-10
6.54692e-10
3.62374e-10
8.26654e-10
5.38331e-10
1.02311e-09
7.11299e-10
1.28259e-09
9.31836e-10
1.4944e-09
1.13882e-09
1.73716e-09
1.40661e-09
1.98926e-09
1.68214e-09
2.24333e-09
2.00338e-09
2.46102e-09
2.24572e-09
2.73128e-09
2.64732e-09
3.47577e-09
3.06815e-09
-4.41158e-10
6.87956e-09
1.85476e-09
5.06153e-10
-2.78744e-10
-2.02781e-09
-2.75161e-09
-2.97166e-09
-2.90447e-09
-2.96685e-09
-2.97314e-09
-3.02846e-09
-2.86925e-09
-2.79779e-09
-2.52651e-09
-2.38787e-09
-2.10237e-09
-1.97998e-09
-1.74275e-09
-1.77985e-09
-1.46076e-09
-1.55005e-09
-1.25787e-09
-1.32342e-09
-1.02143e-09
-1.09172e-09
-7.30066e-10
-8.36491e-10
-4.89807e-10
-6.09972e-10
-2.57642e-10
-4.21664e-10
-2.17193e-11
-2.03731e-10
1.64723e-10
7.13458e-12
3.98075e-10
1.86092e-10
6.52255e-10
3.63319e-10
8.24409e-10
5.39542e-10
1.02004e-09
7.12491e-10
1.27859e-09
9.33889e-10
1.49083e-09
1.14155e-09
1.73204e-09
1.40989e-09
1.98259e-09
1.6857e-09
2.23424e-09
2.00699e-09
2.45212e-09
2.24665e-09
2.72639e-09
2.62743e-09
3.50031e-09
3.01384e-09
-3.66416e-10
7.10056e-09
1.76893e-09
2.45682e-10
-2.97472e-10
-1.98791e-09
-2.73565e-09
-2.95956e-09
-2.88939e-09
-2.95302e-09
-2.95935e-09
-3.01632e-09
-2.85922e-09
-2.78891e-09
-2.51965e-09
-2.38273e-09
-2.09842e-09
-1.97772e-09
-1.74014e-09
-1.77805e-09
-1.4597e-09
-1.54822e-09
-1.25638e-09
-1.32183e-09
-1.02052e-09
-1.09027e-09
-7.30075e-10
-8.356e-10
-4.90067e-10
-6.09544e-10
-2.58929e-10
-4.21331e-10
-2.37322e-11
-2.03141e-10
1.63219e-10
7.63869e-12
3.96029e-10
1.86944e-10
6.49561e-10
3.64353e-10
8.21958e-10
5.40811e-10
1.0167e-09
7.13837e-10
1.27422e-09
9.36091e-10
1.48691e-09
1.14442e-09
1.72652e-09
1.41334e-09
1.97542e-09
1.68941e-09
2.22456e-09
2.01073e-09
2.44253e-09
2.24765e-09
2.72061e-09
2.60843e-09
3.52031e-09
2.96423e-09
-2.92681e-10
7.30511e-09
1.69148e-09
-8.07583e-12
-3.18872e-10
-1.94672e-09
-2.71784e-09
-2.94616e-09
-2.87329e-09
-2.9383e-09
-2.94471e-09
-3.00336e-09
-2.8485e-09
-2.77936e-09
-2.51231e-09
-2.3772e-09
-2.09411e-09
-1.97529e-09
-1.73737e-09
-1.77603e-09
-1.4586e-09
-1.54623e-09
-1.25477e-09
-1.32013e-09
-1.01955e-09
-1.08865e-09
-7.30117e-10
-8.34608e-10
-4.90356e-10
-6.09057e-10
-2.60337e-10
-4.20867e-10
-2.592e-11
-2.02487e-10
1.61628e-10
8.16729e-12
3.93822e-10
1.87919e-10
6.46616e-10
3.65472e-10
8.19307e-10
5.4213e-10
1.0131e-09
7.15332e-10
1.26948e-09
9.38429e-10
1.48266e-09
1.14742e-09
1.7206e-09
1.41694e-09
1.96778e-09
1.69325e-09
2.21432e-09
2.01458e-09
2.43228e-09
2.24874e-09
2.71383e-09
2.59071e-09
3.53494e-09
2.92045e-09
-2.19908e-10
7.48811e-09
1.62215e-09
-2.51426e-10
-3.42151e-10
-1.90458e-09
-2.69823e-09
-2.93149e-09
-2.85622e-09
-2.92276e-09
-2.92925e-09
-2.98962e-09
-2.83712e-09
-2.76919e-09
-2.5045e-09
-2.37131e-09
-2.08944e-09
-1.9727e-09
-1.73445e-09
-1.77379e-09
-1.45746e-09
-1.5441e-09
-1.25304e-09
-1.31831e-09
-1.01853e-09
-1.08685e-09
-7.30195e-10
-8.33517e-10
-4.90674e-10
-6.08508e-10
-2.61865e-10
-4.20268e-10
-2.82753e-11
-2.01774e-10
1.59958e-10
8.71839e-12
3.9146e-10
1.89018e-10
6.43428e-10
3.66673e-10
8.16469e-10
5.43498e-10
1.00923e-09
7.16973e-10
1.26439e-09
9.40889e-10
1.47809e-09
1.15054e-09
1.71432e-09
1.4207e-09
1.95969e-09
1.69719e-09
2.20355e-09
2.01851e-09
2.42136e-09
2.24996e-09
2.70594e-09
2.57468e-09
3.54351e-09
2.88339e-09
-1.47684e-10
7.64522e-09
1.56032e-09
-4.81186e-10
-3.66509e-10
-1.8618e-09
-2.67688e-09
-2.91562e-09
-2.83828e-09
-2.90646e-09
-2.91304e-09
-2.97515e-09
-2.82513e-09
-2.75842e-09
-2.49625e-09
-2.36509e-09
-2.08443e-09
-1.96994e-09
-1.73139e-09
-1.77131e-09
-1.45629e-09
-1.54182e-09
-1.2512e-09
-1.31638e-09
-1.01746e-09
-1.08488e-09
-7.30309e-10
-8.32328e-10
-4.91018e-10
-6.07894e-10
-2.63513e-10
-4.19532e-10
-3.0789e-11
-2.01011e-10
1.5822e-10
9.29084e-12
3.88946e-10
1.90243e-10
6.40008e-10
3.67954e-10
8.13453e-10
5.4491e-10
1.00511e-09
7.18755e-10
1.25896e-09
9.43456e-10
1.4732e-09
1.15377e-09
1.70767e-09
1.42458e-09
1.95117e-09
1.70123e-09
2.1923e-09
2.02252e-09
2.4098e-09
2.25135e-09
2.69683e-09
2.56065e-09
3.54546e-09
2.85369e-09
-7.54193e-11
7.77288e-09
1.50516e-09
-6.94708e-10
-3.91213e-10
-1.81871e-09
-2.65389e-09
-2.89862e-09
-2.81954e-09
-2.88948e-09
-2.89614e-09
-2.95999e-09
-2.81257e-09
-2.7471e-09
-2.48759e-09
-2.35856e-09
-2.07908e-09
-1.96703e-09
-1.72818e-09
-1.7686e-09
-1.45507e-09
-1.53941e-09
-1.24926e-09
-1.31434e-09
-1.01635e-09
-1.08273e-09
-7.30462e-10
-8.31043e-10
-4.91385e-10
-6.07213e-10
-2.65278e-10
-4.18662e-10
-3.34509e-11
-2.00203e-10
1.56422e-10
9.88423e-12
3.86288e-10
1.91596e-10
6.36366e-10
3.69313e-10
8.10273e-10
5.46367e-10
1.00074e-09
7.20672e-10
1.25318e-09
9.46115e-10
1.46801e-09
1.15708e-09
1.70069e-09
1.42858e-09
1.94224e-09
1.70535e-09
2.18058e-09
2.0266e-09
2.39764e-09
2.25292e-09
2.68643e-09
2.5489e-09
3.5404e-09
2.83172e-09
-2.40121e-12
7.86846e-09
1.45579e-09
-8.89927e-10
-4.15626e-10
-1.77565e-09
-2.62935e-09
-2.88057e-09
-2.80008e-09
-2.87189e-09
-2.8786e-09
-2.94419e-09
-2.79948e-09
-2.73527e-09
-2.47854e-09
-2.35175e-09
-2.07341e-09
-1.96395e-09
-1.72485e-09
-1.76566e-09
-1.45383e-09
-1.53686e-09
-1.24722e-09
-1.3122e-09
-1.01521e-09
-1.08041e-09
-7.30651e-10
-8.29662e-10
-4.91772e-10
-6.06461e-10
-2.67153e-10
-4.17658e-10
-3.62502e-11
-1.99359e-10
1.5457e-10
1.04984e-11
3.8349e-10
1.93076e-10
6.32516e-10
3.70747e-10
8.06945e-10
5.4787e-10
9.96134e-10
7.22723e-10
1.24708e-09
9.4885e-10
1.46254e-09
1.16047e-09
1.69339e-09
1.43268e-09
1.93295e-09
1.70954e-09
2.16844e-09
2.03072e-09
2.38489e-09
2.25472e-09
2.67469e-09
2.53965e-09
3.52809e-09
2.81755e-09
7.20618e-11
7.93026e-09
1.41106e-09
-1.06545e-09
-4.39185e-10
-1.73288e-09
-2.60339e-09
-2.86153e-09
-2.77999e-09
-2.85378e-09
-2.86049e-09
-2.9278e-09
-2.7859e-09
-2.72296e-09
-2.46912e-09
-2.34468e-09
-2.06743e-09
-1.96073e-09
-1.72139e-09
-1.76247e-09
-1.45254e-09
-1.53417e-09
-1.2451e-09
-1.30995e-09
-1.01406e-09
-1.07793e-09
-7.30878e-10
-8.28189e-10
-4.92173e-10
-6.05634e-10
-2.69133e-10
-4.16522e-10
-3.91757e-11
-1.98484e-10
1.52671e-10
1.11329e-11
3.80557e-10
1.94683e-10
6.28471e-10
3.72255e-10
8.03482e-10
5.49422e-10
9.91305e-10
7.24905e-10
1.24068e-09
9.51647e-10
1.45679e-09
1.16391e-09
1.68579e-09
1.43687e-09
1.92331e-09
1.71377e-09
2.15593e-09
2.03488e-09
2.37159e-09
2.25675e-09
2.66157e-09
2.53303e-09
3.50846e-09
2.811e-09
1.48805e-10
7.95754e-09
1.36984e-09
-1.22042e-09
-4.61417e-10
-1.69065e-09
-2.57611e-09
-2.8416e-09
-2.75937e-09
-2.83521e-09
-2.84189e-09
-2.91087e-09
-2.77188e-09
-2.71023e-09
-2.45937e-09
-2.33739e-09
-2.06117e-09
-1.95735e-09
-1.71782e-09
-1.75904e-09
-1.45122e-09
-1.53136e-09
-1.24289e-09
-1.30761e-09
-1.0129e-09
-1.07529e-09
-7.3114e-10
-8.26626e-10
-4.92583e-10
-6.0473e-10
-2.71208e-10
-4.15255e-10
-4.22162e-11
-1.97585e-10
1.50729e-10
1.1787e-11
3.77494e-10
1.96415e-10
6.24245e-10
3.73833e-10
7.999e-10
5.51026e-10
9.86266e-10
7.27216e-10
1.23398e-09
9.54491e-10
1.45079e-09
1.1674e-09
1.6779e-09
1.44113e-09
1.91336e-09
1.71803e-09
2.14308e-09
2.03906e-09
2.35779e-09
2.25904e-09
2.64707e-09
2.52912e-09
3.4816e-09
2.81174e-09
2.28581e-10
7.95033e-09
1.33098e-09
-1.35451e-09
-4.81964e-10
-1.64921e-09
-2.54767e-09
-2.82086e-09
-2.73831e-09
-2.81626e-09
-2.82284e-09
-2.89347e-09
-2.75746e-09
-2.6971e-09
-2.44932e-09
-2.32988e-09
-2.05464e-09
-1.95384e-09
-1.71414e-09
-1.75537e-09
-1.44987e-09
-1.52842e-09
-1.2406e-09
-1.30517e-09
-1.01173e-09
-1.0725e-09
-7.31438e-10
-8.24978e-10
-4.92997e-10
-6.03745e-10
-2.73369e-10
-4.13858e-10
-4.53601e-11
-1.96664e-10
1.48748e-10
1.24598e-11
3.74306e-10
1.98266e-10
6.19849e-10
3.75481e-10
7.96213e-10
5.52688e-10
9.81035e-10
7.29656e-10
1.22701e-09
9.5737e-10
1.44454e-09
1.17091e-09
1.66974e-09
1.44544e-09
1.90312e-09
1.72231e-09
2.12993e-09
2.04326e-09
2.34352e-09
2.2616e-09
2.63122e-09
2.52793e-09
3.44773e-09
2.81921e-09
3.12112e-10
7.90944e-09
1.29353e-09
-1.46782e-09
-5.00609e-10
-1.60879e-09
-2.51823e-09
-2.79941e-09
-2.71691e-09
-2.79703e-09
-2.80343e-09
-2.87565e-09
-2.74268e-09
-2.68362e-09
-2.43898e-09
-2.32219e-09
-2.04787e-09
-1.95019e-09
-1.71038e-09
-1.75146e-09
-1.44848e-09
-1.52536e-09
-1.23825e-09
-1.30264e-09
-1.01056e-09
-1.06957e-09
-7.31772e-10
-8.23248e-10
-4.93409e-10
-6.02677e-10
-2.75606e-10
-4.12332e-10
-4.85955e-11
-1.95726e-10
1.46732e-10
1.31496e-11
3.70997e-10
2.00233e-10
6.15295e-10
3.77194e-10
7.92433e-10
5.54411e-10
9.75628e-10
7.32226e-10
1.21979e-09
9.60274e-10
1.43806e-09
1.17444e-09
1.66133e-09
1.44979e-09
1.89263e-09
1.72657e-09
2.11653e-09
2.04745e-09
2.32883e-09
2.26442e-09
2.61406e-09
2.52941e-09
3.4072e-09
2.83273e-09
3.99932e-10
7.83637e-09
1.25655e-09
-1.561e-09
-5.17268e-10
-1.56958e-09
-2.48792e-09
-2.77736e-09
-2.69526e-09
-2.77758e-09
-2.78371e-09
-2.85745e-09
-2.72759e-09
-2.66983e-09
-2.4284e-09
-2.31433e-09
-2.04088e-09
-1.94641e-09
-1.70652e-09
-1.74731e-09
-1.44705e-09
-1.52218e-09
-1.23582e-09
-1.30003e-09
-1.00941e-09
-1.0665e-09
-7.32143e-10
-8.21443e-10
-4.93817e-10
-6.01525e-10
-2.77909e-10
-4.10674e-10
-5.19108e-11
-1.94771e-10
1.44685e-10
1.38545e-11
3.67573e-10
2.02308e-10
6.10593e-10
3.78969e-10
7.88573e-10
5.562e-10
9.70063e-10
7.34926e-10
1.21235e-09
9.63193e-10
1.43137e-09
1.17797e-09
1.65268e-09
1.45414e-09
1.88191e-09
1.73081e-09
2.1029e-09
2.05162e-09
2.31376e-09
2.26752e-09
2.59566e-09
2.53343e-09
3.36049e-09
2.85146e-09
4.92537e-10
7.73331e-09
1.21929e-09
-1.63498e-09
-5.31948e-10
-1.53176e-09
-2.4569e-09
-2.75478e-09
-2.67345e-09
-2.75801e-09
-2.76376e-09
-2.83895e-09
-2.71223e-09
-2.65577e-09
-2.41758e-09
-2.30633e-09
-2.03369e-09
-1.94251e-09
-1.7026e-09
-1.74293e-09
-1.44558e-09
-1.51888e-09
-1.23333e-09
-1.29733e-09
-1.00826e-09
-1.06331e-09
-7.32551e-10
-8.19571e-10
-4.94218e-10
-6.00286e-10
-2.80267e-10
-4.08885e-10
-5.52944e-11
-1.938e-10
1.4261e-10
1.45721e-11
3.64037e-10
2.04486e-10
6.05753e-10
3.80802e-10
7.8464e-10
5.58058e-10
9.64359e-10
7.37759e-10
1.2047e-09
9.6612e-10
1.42449e-09
1.18148e-09
1.64381e-09
1.4585e-09
1.87098e-09
1.735e-09
2.08908e-09
2.05576e-09
2.29837e-09
2.27086e-09
2.57611e-09
2.53983e-09
3.30817e-09
2.87454e-09
5.90209e-10
7.60282e-09
1.18108e-09
-1.69106e-09
-5.44733e-10
-1.49546e-09
-2.42534e-09
-2.7318e-09
-2.65159e-09
-2.73838e-09
-2.74363e-09
-2.82019e-09
-2.69663e-09
-2.64146e-09
-2.40657e-09
-2.2982e-09
-2.02632e-09
-1.93849e-09
-1.69863e-09
-1.73832e-09
-1.44409e-09
-1.51547e-09
-1.23077e-09
-1.29456e-09
-1.00713e-09
-1.06001e-09
-7.32998e-10
-8.17638e-10
-4.94611e-10
-5.98962e-10
-2.82672e-10
-4.06964e-10
-5.87347e-11
-1.92812e-10
1.40514e-10
1.53004e-11
3.60394e-10
2.0676e-10
6.00781e-10
3.82688e-10
7.80645e-10
5.59985e-10
9.58531e-10
7.40726e-10
1.19688e-09
9.69051e-10
1.41743e-09
1.18498e-09
1.63474e-09
1.46282e-09
1.85987e-09
1.73912e-09
2.07511e-09
2.05984e-09
2.28269e-09
2.27443e-09
2.55551e-09
2.54841e-09
3.25086e-09
2.90106e-09
6.93188e-10
7.44788e-09
1.14148e-09
-1.73066e-09
-5.558e-10
-1.46084e-09
-2.39339e-09
-2.70851e-09
-2.62974e-09
-2.71877e-09
-2.72339e-09
-2.80123e-09
-2.68085e-09
-2.62695e-09
-2.39538e-09
-2.28995e-09
-2.0188e-09
-1.93437e-09
-1.6946e-09
-1.73349e-09
-1.44256e-09
-1.51195e-09
-1.22815e-09
-1.29172e-09
-1.00602e-09
-1.0566e-09
-7.33485e-10
-8.15653e-10
-4.94996e-10
-5.97554e-10
-2.85116e-10
-4.04908e-10
-6.22201e-11
-1.91807e-10
1.38401e-10
1.60371e-11
3.5665e-10
2.09122e-10
5.95686e-10
3.84622e-10
7.76593e-10
5.61981e-10
9.52597e-10
7.43826e-10
1.18891e-09
9.71982e-10
1.41022e-09
1.18844e-09
1.62549e-09
1.4671e-09
1.84861e-09
1.74316e-09
2.06102e-09
2.06385e-09
2.26677e-09
2.27821e-09
2.534e-09
2.55891e-09
3.18925e-09
2.93008e-09
8.01483e-10
7.2717e-09
1.10021e-09
-1.75551e-09
-5.6545e-10
-1.428e-09
-2.36123e-09
-2.68501e-09
-2.60801e-09
-2.69927e-09
-2.7031e-09
-2.78212e-09
-2.66492e-09
-2.61227e-09
-2.38405e-09
-2.2816e-09
-2.01114e-09
-1.93016e-09
-1.69054e-09
-1.72845e-09
-1.44099e-09
-1.50832e-09
-1.22547e-09
-1.2888e-09
-1.00492e-09
-1.05309e-09
-7.34013e-10
-8.13623e-10
-4.95375e-10
-5.96065e-10
-2.87591e-10
-4.02719e-10
-6.57402e-11
-1.90783e-10
1.36278e-10
1.67805e-11
3.52808e-10
2.11566e-10
5.90473e-10
3.86599e-10
7.72488e-10
5.64045e-10
9.46573e-10
7.47061e-10
1.18081e-09
9.7491e-10
1.40286e-09
1.19185e-09
1.61607e-09
1.47132e-09
1.83721e-09
1.74708e-09
2.04683e-09
2.06775e-09
2.25065e-09
2.28214e-09
2.51169e-09
2.57104e-09
3.12408e-09
2.96064e-09
9.15003e-10
7.07782e-09
1.05721e-09
-1.76741e-09
-5.7403e-10
-1.39705e-09
-2.329e-09
-2.6614e-09
-2.58647e-09
-2.67993e-09
-2.68282e-09
-2.76292e-09
-2.64888e-09
-2.59745e-09
-2.37259e-09
-2.27317e-09
-2.00336e-09
-1.92586e-09
-1.68646e-09
-1.72322e-09
-1.4394e-09
-1.5046e-09
-1.22273e-09
-1.28582e-09
-1.00385e-09
-1.04949e-09
-7.34582e-10
-8.11556e-10
-4.95751e-10
-5.94499e-10
-2.90094e-10
-4.00396e-10
-6.92852e-11
-1.89739e-10
1.34151e-10
1.7529e-11
3.48875e-10
2.14086e-10
5.85146e-10
3.88612e-10
7.68337e-10
5.66173e-10
9.40472e-10
7.50427e-10
1.1726e-09
9.77836e-10
1.3954e-09
1.19522e-09
1.6065e-09
1.47546e-09
1.82571e-09
1.75088e-09
2.03258e-09
2.07154e-09
2.23439e-09
2.28619e-09
2.48872e-09
2.58449e-09
3.05612e-09
2.99183e-09
1.03345e-09
6.86976e-09
1.01242e-09
-1.76826e-09
-5.8189e-10
-1.36805e-09
-2.29685e-09
-2.63778e-09
-2.56519e-09
-2.66083e-09
-2.6626e-09
-2.74367e-09
-2.63278e-09
-2.58251e-09
-2.36104e-09
-2.26466e-09
-1.99549e-09
-1.92148e-09
-1.68237e-09
-1.71779e-09
-1.43779e-09
-1.50078e-09
-1.21993e-09
-1.28277e-09
-1.00279e-09
-1.04581e-09
-7.35194e-10
-8.09458e-10
-4.96126e-10
-5.92861e-10
-2.92618e-10
-3.97941e-10
-7.28461e-11
-1.88671e-10
1.32028e-10
1.82818e-11
3.44855e-10
2.16676e-10
5.79712e-10
3.90656e-10
7.64141e-10
5.68357e-10
9.34306e-10
7.53923e-10
1.16432e-09
9.80758e-10
1.38783e-09
1.19854e-09
1.5968e-09
1.47951e-09
1.81411e-09
1.75453e-09
2.01828e-09
2.07519e-09
2.21801e-09
2.29032e-09
2.46525e-09
2.59895e-09
2.98611e-09
3.02279e-09
1.15655e-09
6.65112e-09
9.65976e-10
-1.75995e-09
-5.89407e-10
-1.34104e-09
-2.26494e-09
-2.61425e-09
-2.54424e-09
-2.64202e-09
-2.64249e-09
-2.72441e-09
-2.61664e-09
-2.56749e-09
-2.34942e-09
-2.2561e-09
-1.98754e-09
-1.91703e-09
-1.67826e-09
-1.71219e-09
-1.43615e-09
-1.49688e-09
-1.21708e-09
-1.27967e-09
-1.00175e-09
-1.04205e-09
-7.35849e-10
-8.07336e-10
-4.96504e-10
-5.91157e-10
-2.95162e-10
-3.95356e-10
-7.6415e-11
-1.87579e-10
1.29916e-10
1.90383e-11
3.40754e-10
2.19331e-10
5.74174e-10
3.92725e-10
7.59904e-10
5.70592e-10
9.28087e-10
7.57544e-10
1.15597e-09
9.83678e-10
1.3802e-09
1.20179e-09
1.587e-09
1.48344e-09
1.80245e-09
1.75802e-09
2.00396e-09
2.07867e-09
2.20156e-09
2.29445e-09
2.4414e-09
2.61407e-09
2.91479e-09
3.05273e-09
1.28384e-09
6.42539e-09
9.18206e-10
-1.74444e-09
-5.97052e-10
-1.31608e-09
-2.2334e-09
-2.5909e-09
-2.5237e-09
-2.62356e-09
-2.62256e-09
-2.70521e-09
-2.6005e-09
-2.55242e-09
-2.33775e-09
-2.24748e-09
-1.97952e-09
-1.91252e-09
-1.67416e-09
-1.70642e-09
-1.4345e-09
-1.4929e-09
-1.21416e-09
-1.2765e-09
-1.00072e-09
-1.03821e-09
-7.36546e-10
-8.05193e-10
-4.96887e-10
-5.89394e-10
-2.97723e-10
-3.92645e-10
-7.99856e-11
-1.86461e-10
1.27821e-10
1.97982e-11
3.36578e-10
2.22047e-10
5.68538e-10
3.94816e-10
7.55629e-10
5.72869e-10
9.21824e-10
7.61284e-10
1.14758e-09
9.86595e-10
1.37251e-09
1.20499e-09
1.5771e-09
1.48726e-09
1.79073e-09
1.76132e-09
1.98964e-09
2.08197e-09
2.18508e-09
2.29854e-09
2.41732e-09
2.62952e-09
2.8429e-09
3.08086e-09
1.41478e-09
6.19609e-09
8.69564e-10
-1.72361e-09
-6.05295e-10
-1.29319e-09