/*--------------------------------*- C++ -*----------------------------------*\
| =========                 |                                                 |
| \\      /  F ield         | OpenFOAM: The Open Source CFD Toolbox           |
|  \\    /   O peration     | Version:  2312                                  |
|   \\  /    A nd           | Website:  www.openfoam.com                      |
|    \\/     M anipulation  |                                                 |
\*---------------------------------------------------------------------------*/
FoamFile
{
    version     2.0;
    format      ascii;
    arch        "LSB;label=32;scalar=64";
    class       volScalarField;
    location    "100";
    object      pMean;
}
// * * * * * * * * * * * * * * * * * * * * * * * * * * * * * * * * * * * * * //

dimensions      [0 2 -2 0 0 0 0];

internalField   nonuniform List<scalar> 
330000
(
3.12649e-09
-6.30175e-09
-9.6809e-09
-1.03548e-08
-9.28708e-09
-7.78648e-09
-6.65702e-09
-5.75347e-09
-5.10459e-09
-4.52554e-09
-3.88264e-09
-3.33499e-09
-2.81655e-09
-2.41143e-09
-1.98188e-09
-1.68831e-09
-1.37492e-09
-1.19656e-09
-8.64387e-10
-7.14655e-10
-4.06036e-10
-3.17225e-10
1.38694e-11
6.41746e-11
4.03585e-10
3.94758e-10
7.40965e-10
6.71527e-10
1.07127e-09
9.61284e-10
1.40561e-09
1.23092e-09
1.71009e-09
1.45888e-09
2.03083e-09
1.71963e-09
2.36619e-09
1.95605e-09
2.68256e-09
2.15904e-09
3.03522e-09
2.41185e-09
3.43645e-09
2.65692e-09
3.81312e-09
2.83674e-09
4.29471e-09
3.1561e-09
4.90671e-09
3.50697e-09
5.69741e-09
3.9825e-09
6.60513e-09
4.44504e-09
7.87928e-09
5.46794e-09
9.80935e-09
8.25041e-09
-7.08151e-10
1.92255e-08
3.15923e-09
-6.22421e-09
-9.65324e-09
-1.0356e-08
-9.28885e-09
-7.78974e-09
-6.65896e-09
-5.75642e-09
-5.10669e-09
-4.52832e-09
-3.88482e-09
-3.33751e-09
-2.81851e-09
-2.41372e-09
-1.98357e-09
-1.69035e-09
-1.37641e-09
-1.19847e-09
-8.65672e-10
-7.1635e-10
-4.07162e-10
-3.18795e-10
1.28788e-11
6.27227e-11
4.02724e-10
3.93425e-10
7.40235e-10
6.70295e-10
1.07062e-09
9.60108e-10
1.40505e-09
1.22986e-09
1.7096e-09
1.45788e-09
2.03039e-09
1.71871e-09
2.3658e-09
1.95523e-09
2.68224e-09
2.15832e-09
3.03489e-09
2.41121e-09
3.43617e-09
2.65651e-09
3.81284e-09
2.83653e-09
4.29433e-09
3.15623e-09
4.90614e-09
3.50764e-09
5.69645e-09
3.98424e-09
6.60324e-09
4.44903e-09
7.87482e-09
5.4768e-09
9.8002e-09
8.29718e-09
-7.27973e-10
1.91202e-08
3.18221e-09
-6.1439e-09
-9.61207e-09
-1.03541e-08
-9.29132e-09
-7.79437e-09
-6.6615e-09
-5.76014e-09
-5.10909e-09
-4.53166e-09
-3.88745e-09
-3.34056e-09
-2.82084e-09
-2.4165e-09
-1.98559e-09
-1.69283e-09
-1.37806e-09
-1.20081e-09
-8.67077e-10
-7.18461e-10
-4.08336e-10
-3.20797e-10
1.18679e-11
6.08108e-11
4.0188e-10
3.91615e-10
7.39628e-10
6.68573e-10
1.07013e-09
9.58381e-10
1.40473e-09
1.22821e-09
1.70946e-09
1.45621e-09
2.03039e-09
1.71701e-09
2.36595e-09
1.95352e-09
2.68264e-09
2.15665e-09
3.03539e-09
2.40943e-09
3.43687e-09
2.65484e-09
3.81383e-09
2.83487e-09
4.29542e-09
3.15472e-09
4.90726e-09
3.5064e-09
5.69724e-09
3.98391e-09
6.60318e-09
4.45093e-09
7.87154e-09
5.48301e-09
9.78761e-09
8.35496e-09
-7.59723e-10
1.90217e-08
3.18493e-09
-6.07642e-09
-9.55352e-09
-1.03444e-08
-9.29349e-09
-7.79982e-09
-6.66419e-09
-5.76417e-09
-5.11146e-09
-4.53513e-09
-3.89027e-09
-3.34374e-09
-2.82328e-09
-2.41939e-09
-1.9877e-09
-1.69536e-09
-1.37971e-09
-1.20321e-09
-8.68526e-10
-7.20589e-10
-4.09492e-10
-3.22817e-10
1.08584e-11
5.88699e-11
4.01055e-10
3.89787e-10
7.39082e-10
6.6683e-10
1.06968e-09
9.56596e-10
1.40444e-09
1.22653e-09
1.7094e-09
1.45448e-09
2.03043e-09
1.71527e-09
2.36614e-09
1.95178e-09
2.68314e-09
2.15493e-09
3.03595e-09
2.40755e-09
3.4376e-09
2.65312e-09
3.81493e-09
2.83317e-09
4.29644e-09
3.15314e-09
4.90822e-09
3.50512e-09
5.69751e-09
3.98368e-09
6.60209e-09
4.45338e-09
7.86558e-09
5.48883e-09
9.7706e-09
8.40708e-09
-7.80505e-10
1.89362e-08
3.14947e-09
-6.03077e-09
-9.4699e-09
-1.03198e-08
-9.29239e-09
-7.80458e-09
-6.66641e-09
-5.76824e-09
-5.11378e-09
-4.53879e-09
-3.89337e-09
-3.34716e-09
-2.82597e-09
-2.42252e-09
-1.99003e-09
-1.69806e-09
-1.38147e-09
-1.20576e-09
-8.70116e-10
-7.22799e-10
-4.1073e-10
-3.24907e-10
9.74899e-12
5.68664e-11
4.00134e-10
3.87917e-10
7.38482e-10
6.65078e-10
1.06915e-09
9.54785e-10
1.40406e-09
1.22485e-09
1.70927e-09
1.45277e-09
2.03036e-09
1.71354e-09
2.36621e-09
1.95008e-09
2.68354e-09
2.1533e-09
3.03632e-09
2.40574e-09
3.43808e-09
2.65157e-09
3.81578e-09
2.83173e-09
4.29698e-09
3.15194e-09
4.90842e-09
3.50442e-09
5.69634e-09
3.98459e-09
6.59839e-09
4.45808e-09
7.85427e-09
5.497e-09
9.74712e-09
8.44337e-09
-7.71732e-10
1.8867e-08
3.07012e-09
-6.0132e-09
-9.35908e-09
-1.02757e-08
-9.28492e-09
-7.80674e-09
-6.66712e-09
-5.77179e-09
-5.11584e-09
-4.54253e-09
-3.89677e-09
-3.35091e-09
-2.82901e-09
-2.42601e-09
-1.99271e-09
-1.70105e-09
-1.38346e-09
-1.20858e-09
-8.71949e-10
-7.25216e-10
-4.1214e-10
-3.27182e-10
8.46415e-12
5.4699e-11
3.99052e-10
3.85909e-10
7.37769e-10
6.6323e-10
1.06849e-09
9.5287e-10
1.40355e-09
1.22311e-09
1.70904e-09
1.451e-09
2.03016e-09
1.71178e-09
2.36614e-09
1.94836e-09
2.68381e-09
2.15172e-09
3.03649e-09
2.40397e-09
3.43827e-09
2.65016e-09
3.81633e-09
2.83052e-09
4.29696e-09
3.15115e-09
4.90769e-09
3.50442e-09
5.6934e-09
3.98695e-09
6.59141e-09
4.46572e-09
7.83619e-09
5.50879e-09
9.71575e-09
8.459e-09
-7.29494e-10
1.88168e-08
2.95265e-09
-6.02582e-09
-9.22379e-09
-1.02104e-08
-9.26893e-09
-7.80455e-09
-6.66517e-09
-5.77401e-09
-5.11714e-09
-4.54607e-09
-3.90027e-09
-3.35489e-09
-2.83234e-09
-2.42988e-09
-1.99576e-09
-1.7044e-09
-1.38573e-09
-1.21175e-09
-8.74084e-10
-7.27917e-10
-4.13775e-10
-3.2972e-10
6.95669e-12
5.22933e-11
3.97768e-10
3.83692e-10
7.3691e-10
6.61217e-10
1.06768e-09
9.50787e-10
1.40289e-09
1.22124e-09
1.7087e-09
1.44911e-09
2.02982e-09
1.70993e-09
2.36591e-09
1.94657e-09
2.68394e-09
2.15011e-09
3.03645e-09
2.40217e-09
3.43816e-09
2.64885e-09
3.81655e-09
2.82951e-09
4.2963e-09
3.15076e-09
4.90589e-09
3.50518e-09
5.68844e-09
3.99093e-09
6.58067e-09
4.47663e-09
7.81062e-09
5.52466e-09
9.67542e-09
8.4532e-09
-6.57884e-10
1.87838e-08
2.80813e-09
-6.06649e-09
-9.06852e-09
-1.01245e-08
-9.2433e-09
-7.79676e-09
-6.65956e-09
-5.77408e-09
-5.11711e-09
-4.54894e-09
-3.90355e-09
-3.3589e-09
-2.83583e-09
-2.43405e-09
-1.99911e-09
-1.7081e-09
-1.38827e-09
-1.2153e-09
-8.76533e-10
-7.30945e-10
-4.15663e-10
-3.32569e-10
5.19973e-12
4.95992e-11
3.96259e-10
3.81212e-10
7.35875e-10
6.58986e-10
1.0667e-09
9.48487e-10
1.40205e-09
1.2192e-09
1.70824e-09
1.44706e-09
2.02931e-09
1.70793e-09
2.36551e-09
1.94466e-09
2.68392e-09
2.14846e-09
3.03617e-09
2.40034e-09
3.43771e-09
2.64761e-09
3.81635e-09
2.82871e-09
4.2949e-09
3.15082e-09
4.90286e-09
3.50681e-09
5.68121e-09
3.99671e-09
6.56579e-09
4.491e-09
7.77717e-09
5.54483e-09
9.62504e-09
8.42848e-09
-5.63687e-10
1.8761e-08
2.64792e-09
-6.12926e-09
-8.89792e-09
-1.00198e-08
-9.20773e-09
-7.78272e-09
-6.64964e-09
-5.77134e-09
-5.1152e-09
-4.55069e-09
-3.90624e-09
-3.36268e-09
-2.83925e-09
-2.43837e-09
-2.00265e-09
-1.71207e-09
-1.39102e-09
-1.21919e-09
-8.7927e-10
-7.34306e-10
-4.17798e-10
-3.35748e-10
3.18825e-12
4.65874e-11
3.94511e-10
3.78436e-10
7.34646e-10
6.56503e-10
1.06552e-09
9.45935e-10
1.40103e-09
1.21694e-09
1.70762e-09
1.44482e-09
2.02863e-09
1.70578e-09
2.36492e-09
1.94262e-09
2.6837e-09
2.14675e-09
3.03562e-09
2.39847e-09
3.43686e-09
2.64647e-09
3.81566e-09
2.82816e-09
4.29264e-09
3.15141e-09
4.89842e-09
3.50943e-09
5.67145e-09
4.00445e-09
6.54648e-09
4.50892e-09
7.73566e-09
5.56939e-09
9.56361e-09
8.38885e-09
-4.53835e-10
1.87376e-08
2.48148e-09
-6.20687e-09
-8.71597e-09
-9.89857e-09
-9.16242e-09
-7.76224e-09
-6.63507e-09
-5.76537e-09
-5.111e-09
-4.55092e-09
-3.90797e-09
-3.36593e-09
-2.84236e-09
-2.44265e-09
-2.00621e-09
-1.71622e-09
-1.39389e-09
-1.22335e-09
-8.82227e-10
-7.37968e-10
-4.20146e-10
-3.39247e-10
9.41219e-13
4.32538e-11
3.92534e-10
3.75348e-10
7.33219e-10
6.53746e-10
1.06415e-09
9.43113e-10
1.3998e-09
1.21445e-09
1.70682e-09
1.44237e-09
2.02774e-09
1.70344e-09
2.3641e-09
1.94044e-09
2.68323e-09
2.14497e-09
3.03474e-09
2.39659e-09
3.43554e-09
2.64545e-09
3.81436e-09
2.82794e-09
4.28939e-09
3.15261e-09
4.89239e-09
3.51318e-09
5.65897e-09
4.01427e-09
6.52256e-09
4.53038e-09
7.68618e-09
5.5983e-09
9.4904e-09
8.33859e-09
-3.33584e-10
1.87024e-08
2.31569e-09
-6.29197e-09
-8.52601e-09
-9.76327e-09
-9.10791e-09
-7.73543e-09
-6.61579e-09
-5.75596e-09
-5.10423e-09
-4.54933e-09
-3.90843e-09
-3.36839e-09
-2.84489e-09
-2.44669e-09
-2.00959e-09
-1.72039e-09
-1.39674e-09
-1.22768e-09
-8.85309e-10
-7.4187e-10
-4.22647e-10
-3.43025e-10
-1.50047e-12
3.96206e-11
3.9035e-10
3.71958e-10
7.31601e-10
6.5072e-10
1.06259e-09
9.40022e-10
1.39837e-09
1.21173e-09
1.70584e-09
1.43971e-09
2.02663e-09
1.70093e-09
2.36304e-09
1.93813e-09
2.68249e-09
2.14316e-09
3.03347e-09
2.39474e-09
3.43367e-09
2.64462e-09
3.81234e-09
2.82813e-09
4.28501e-09
3.15454e-09
4.88461e-09
3.51817e-09
5.64362e-09
4.02625e-09
6.49399e-09
4.55525e-09
7.62907e-09
5.63133e-09
9.4051e-09
8.2816e-09
-2.06566e-10
1.86453e-08
2.15529e-09
-6.37797e-09
-8.33085e-09
-9.61623e-09
-9.04485e-09
-7.70262e-09
-6.59195e-09
-5.74306e-09
-5.09478e-09
-4.54575e-09
-3.90741e-09
-3.36987e-09
-2.84666e-09
-2.4503e-09
-2.01262e-09
-1.72444e-09
-1.39944e-09
-1.23205e-09
-8.88409e-10
-7.45927e-10
-4.25225e-10
-3.47018e-10
-4.08057e-12
3.57333e-11
3.87998e-10
3.68299e-10
7.29811e-10
6.47447e-10
1.06084e-09
9.36683e-10
1.39673e-09
1.20878e-09
1.70466e-09
1.43687e-09
2.02527e-09
1.69828e-09
2.36168e-09
1.93572e-09
2.6814e-09
2.14136e-09
3.03175e-09
2.39297e-09
3.43118e-09
2.64404e-09
3.8095e-09
2.82881e-09
4.27939e-09
3.15729e-09
4.87496e-09
3.5245e-09
5.62532e-09
4.04037e-09
6.46088e-09
4.58326e-09
7.56489e-09
5.66811e-09
9.30776e-09
8.22113e-09
-7.51326e-11
1.85579e-08
2.00339e-09
-6.45895e-09
-8.13276e-09
-9.45972e-09
-8.97397e-09
-7.66425e-09
-6.56383e-09
-5.72679e-09
-5.08266e-09
-4.54009e-09
-3.90478e-09
-3.37023e-09
-2.8475e-09
-2.45333e-09
-2.01516e-09
-1.72824e-09
-1.40188e-09
-1.23636e-09
-8.91418e-10
-7.50046e-10
-4.278e-10
-3.5115e-10
-6.73573e-12
3.1655e-11
3.85523e-10
3.64421e-10
7.27876e-10
6.43973e-10
1.05892e-09
9.33135e-10
1.39489e-09
1.20565e-09
1.70326e-09
1.43389e-09
2.02365e-09
1.69552e-09
2.36e-09
1.93327e-09
2.67991e-09
2.13963e-09
3.02952e-09
2.39136e-09
3.42799e-09
2.64379e-09
3.80574e-09
2.83008e-09
4.27244e-09
3.16095e-09
4.86337e-09
3.53219e-09
5.60412e-09
4.05654e-09
6.42347e-09
4.61402e-09
7.49433e-09
5.70821e-09
9.19865e-09
8.15985e-09
5.93054e-11
1.84339e-08
1.86188e-09
-6.52982e-09
-7.93355e-09
-9.29585e-09
-8.8961e-09
-7.62085e-09
-6.53179e-09
-5.70736e-09
-5.06796e-09
-4.53239e-09
-3.9005e-09
-3.3694e-09
-2.84734e-09
-2.45569e-09
-2.0171e-09
-1.73169e-09
-1.40394e-09
-1.24049e-09
-8.94243e-10
-7.54135e-10
-4.30296e-10
-3.55336e-10
-9.40403e-12
2.74579e-11
3.82973e-10
3.60388e-10
7.25826e-10
6.40351e-10
1.05685e-09
9.29434e-10
1.39285e-09
1.20238e-09
1.70164e-09
1.43081e-09
2.02174e-09
1.69271e-09
2.35797e-09
1.93083e-09
2.67799e-09
2.13801e-09
3.02672e-09
2.38997e-09
3.42403e-09
2.64392e-09
3.801e-09
2.83199e-09
4.26412e-09
3.16553e-09
4.84984e-09
3.54123e-09
5.58012e-09
4.07458e-09
6.38212e-09
4.64709e-09
7.41815e-09
5.75113e-09
9.07822e-09
8.09991e-09
1.95905e-10
1.82688e-08
1.73151e-09
-6.58639e-09
-7.73453e-09
-9.1265e-09
-8.81202e-09
-7.57297e-09
-6.49626e-09
-5.68505e-09
-5.05087e-09
-4.52272e-09
-3.8946e-09
-3.36739e-09
-2.84614e-09
-2.45733e-09
-2.01837e-09
-1.7347e-09
-1.40558e-09
-1.24436e-09
-8.96812e-10
-7.58112e-10
-4.32654e-10
-3.59498e-10
-1.20315e-11
2.32157e-11
3.80388e-10
3.56269e-10
7.23688e-10
6.36647e-10
1.05464e-09
9.2564e-10
1.39063e-09
1.19904e-09
1.69979e-09
1.4277e-09
2.01953e-09
1.68991e-09
2.35557e-09
1.92846e-09
2.6756e-09
2.13659e-09
3.02332e-09
2.38887e-09
3.41929e-09
2.64451e-09
3.79524e-09
2.83458e-09
4.25443e-09
3.17105e-09
4.83443e-09
3.55153e-09
5.5535e-09
4.09425e-09
6.33723e-09
4.68201e-09
7.33712e-09
5.79644e-09
8.94699e-09
8.04299e-09
3.34422e-10
1.80597e-08
1.61236e-09
-6.62515e-09
-7.5366e-09
-8.9533e-09
-8.72249e-09
-7.52115e-09
-6.45767e-09
-5.66014e-09
-5.03159e-09
-4.51122e-09
-3.88715e-09
-3.36423e-09
-2.84391e-09
-2.45821e-09
-2.01897e-09
-1.73725e-09
-1.40675e-09
-1.24791e-09
-8.99079e-10
-7.61912e-10
-4.3483e-10
-3.63567e-10
-1.45767e-11
1.89969e-11
3.77805e-10
3.52129e-10
7.21489e-10
6.32924e-10
1.05232e-09
9.21818e-10
1.38822e-09
1.19568e-09
1.69771e-09
1.42461e-09
2.01702e-09
1.68717e-09
2.35278e-09
1.92621e-09
2.67273e-09
2.13539e-09
3.01931e-09
2.3881e-09
3.41375e-09
2.64556e-09
3.78846e-09
2.83787e-09
4.24341e-09
3.17747e-09
4.81723e-09
3.56299e-09
5.5245e-09
4.11531e-09
6.28925e-09
4.71832e-09
7.25199e-09
5.84374e-09
8.80558e-09
7.99041e-09
4.74788e-10
1.78048e-08
1.50381e-09
-6.64345e-09
-7.3403e-09
-8.77768e-09
-8.62823e-09
-7.46589e-09
-6.41643e-09
-5.63296e-09
-5.01036e-09
-4.49806e-09
-3.87827e-09
-3.35998e-09
-2.84072e-09
-2.45837e-09
-2.01889e-09
-1.73931e-09
-1.40746e-09
-1.2511e-09
-9.01021e-10
-7.65486e-10
-4.36798e-10
-3.67486e-10
-1.70118e-11
1.48605e-11
3.75248e-10
3.4803e-10
7.19247e-10
6.29241e-10
1.0499e-09
9.18025e-10
1.38565e-09
1.19237e-09
1.6954e-09
1.42161e-09
2.01421e-09
1.68455e-09
2.3496e-09
1.92415e-09
2.66936e-09
2.13448e-09
3.01469e-09
2.3877e-09
3.40743e-09
2.6471e-09
3.7807e-09
2.84183e-09
4.23114e-09
3.18472e-09
4.7984e-09
3.57547e-09
5.49337e-09
4.13748e-09
6.2386e-09
4.75561e-09
7.16343e-09
5.89266e-09
8.65466e-09
7.94304e-09
6.17299e-10
1.75034e-08
1.40503e-09
-6.6393e-09
-7.146e-09
-8.60088e-09
-8.52989e-09
-7.40767e-09
-6.37295e-09
-5.6038e-09
-4.98742e-09
-4.4834e-09
-3.86809e-09
-3.35474e-09
-2.83664e-09
-2.45784e-09
-2.01818e-09
-1.74089e-09
-1.4077e-09
-1.25391e-09
-9.02634e-10
-7.68803e-10
-4.3855e-10
-3.71215e-10
-1.93224e-11
1.08536e-11
3.72733e-10
3.44022e-10
7.16974e-10
6.25648e-10
1.0474e-09
9.14314e-10
1.38293e-09
1.18914e-09
1.69287e-09
1.41874e-09
2.0111e-09
1.6821e-09
2.34604e-09
1.92229e-09
2.66551e-09
2.13387e-09
3.00948e-09
2.38767e-09
3.40035e-09
2.64913e-09
3.77201e-09
2.84644e-09
4.2177e-09
3.19274e-09
4.77807e-09
3.58883e-09
5.46036e-09
4.16054e-09
6.1857e-09
4.79352e-09
7.07206e-09
5.94288e-09
8.49496e-09
7.90135e-09
7.62251e-10
1.71563e-08
1.31471e-09
-6.61168e-09
-6.95391e-09
-8.42391e-09
-8.42805e-09
-7.34691e-09
-6.32759e-09
-5.57296e-09
-4.963e-09
-4.46741e-09
-3.85675e-09
-3.34861e-09
-2.83176e-09
-2.45666e-09
-2.01689e-09
-1.74201e-09
-1.40753e-09
-1.25634e-09
-9.03931e-10
-7.71847e-10
-4.40091e-10
-3.74726e-10
-2.15053e-11
7.01092e-12
3.70266e-10
3.40143e-10
7.1468e-10
6.22186e-10
1.04482e-09
9.10728e-10
1.38005e-09
1.18605e-09
1.69013e-09
1.41604e-09
2.00771e-09
1.67983e-09
2.34211e-09
1.92068e-09
2.6612e-09
2.13358e-09
3.0037e-09
2.38804e-09
3.39257e-09
2.65163e-09
3.76245e-09
2.85166e-09
4.2032e-09
3.20143e-09
4.75642e-09
3.60293e-09
5.42574e-09
4.18424e-09
6.13093e-09
4.83175e-09
6.97842e-09
5.99409e-09
8.3273e-09
7.86541e-09
9.10164e-10
1.6765e-08
1.23149e-09
-6.56015e-09
-6.76413e-09
-8.24764e-09
-8.32325e-09
-7.28396e-09
-6.28066e-09
-5.54068e-09
-4.93731e-09
-4.45025e-09
-3.84438e-09
-3.34167e-09
-2.82616e-09
-2.4549e-09
-2.01508e-09
-1.7427e-09
-1.40698e-09
-1.2584e-09
-9.04936e-10
-7.74614e-10
-4.41435e-10
-3.78005e-10
-2.3566e-11
3.35499e-12
3.67847e-10
3.36422e-10
7.12366e-10
6.18884e-10
1.04216e-09
9.07297e-10
1.37704e-09
1.18312e-09
1.68718e-09
1.41354e-09
2.00406e-09
1.67779e-09
2.33783e-09
1.91932e-09
2.65644e-09
2.13362e-09
2.99739e-09
2.38878e-09
3.38413e-09
2.65456e-09
3.7521e-09
2.85743e-09
4.18775e-09
3.21073e-09
4.73358e-09
3.61764e-09
5.38972e-09
4.2084e-09
6.07463e-09
4.87001e-09
6.88301e-09
6.04597e-09
8.15261e-09
7.83502e-09
1.06142e-09
1.63321e-08
1.15374e-09
-6.48499e-09
-6.57664e-09
-8.07274e-09
-8.21597e-09
-7.21916e-09
-6.23245e-09
-5.50718e-09
-4.91054e-09
-4.43207e-09
-3.8311e-09
-3.33402e-09
-2.81993e-09
-2.4526e-09
-2.01282e-09
-1.743e-09
-1.40609e-09
-1.2601e-09
-9.05679e-10
-7.77109e-10
-4.42603e-10
-3.81045e-10
-2.55158e-11
-1.01836e-13
3.65472e-10
3.32877e-10
7.10031e-10
6.15762e-10
1.03944e-09
9.04044e-10
1.3739e-09
1.18037e-09
1.68405e-09
1.41125e-09
2.00015e-09
1.67597e-09
2.33323e-09
1.91823e-09
2.65129e-09
2.13398e-09
2.9906e-09
2.3899e-09
3.3751e-09
2.65792e-09
3.74102e-09
2.86372e-09
4.17145e-09
3.22056e-09
4.70972e-09
3.63285e-09
5.35252e-09
4.23283e-09
6.0171e-09
4.90808e-09
6.78629e-09
6.09822e-09
7.97185e-09
7.80971e-09
1.21656e-09
1.58606e-08
1.07998e-09
-6.3869e-09
-6.39144e-09
-7.89982e-09
-8.10666e-09
-7.15278e-09
-6.18321e-09
-5.47269e-09
-4.88286e-09
-4.41301e-09
-3.81704e-09
-3.32574e-09
-2.81317e-09
-2.44984e-09
-2.01016e-09
-1.74294e-09
-1.40492e-09
-1.26148e-09
-9.06191e-10
-7.79343e-10
-4.4362e-10
-3.8385e-10
-2.73694e-11
-3.35562e-12
3.63132e-10
3.29516e-10
7.07674e-10
6.12829e-10
1.03665e-09
9.00979e-10
1.37064e-09
1.17781e-09
1.68074e-09
1.40919e-09
1.99602e-09
1.67439e-09
2.32834e-09
1.91741e-09
2.64576e-09
2.13465e-09
2.98337e-09
2.39137e-09
3.36553e-09
2.66166e-09
3.7293e-09
2.87046e-09
4.15441e-09
3.23083e-09
4.68497e-09
3.64846e-09
5.31434e-09
4.25739e-09
5.95863e-09
4.94576e-09
6.68866e-09
6.1505e-09
7.78605e-09
7.78881e-09
1.37593e-09
1.53544e-08
1.00875e-09
-6.26724e-09
-6.20862e-09
-7.72937e-09
-7.99571e-09
-7.0851e-09
-6.13317e-09
-5.43736e-09
-4.85442e-09
-4.39317e-09
-3.8023e-09
-3.31692e-09
-2.80595e-09
-2.44666e-09
-2.00717e-09
-1.74256e-09
-1.4035e-09
-1.26255e-09
-9.06505e-10
-7.81332e-10
-4.44508e-10
-3.86427e-10
-2.91429e-11
-6.40859e-12
3.60818e-10
3.26341e-10
7.0529e-10
6.10089e-10
1.0338e-09
8.98109e-10
1.36727e-09
1.17544e-09
1.67726e-09
1.40735e-09
1.99168e-09
1.67304e-09
2.32317e-09
1.91684e-09
2.63988e-09
2.13563e-09
2.97574e-09
2.39317e-09
3.35548e-09
2.66576e-09
3.71699e-09
2.87762e-09
4.13671e-09
3.2415e-09
4.65944e-09
3.66436e-09
5.27535e-09
4.28193e-09
5.89945e-09
4.98286e-09
6.59051e-09
6.20245e-09
7.59628e-09
7.77144e-09
1.53986e-09
1.48178e-08
9.38816e-10
-6.12762e-09
-6.02824e-09
-7.56181e-09
-7.8835e-09
-7.01633e-09
-6.0825e-09
-5.40137e-09
-4.82537e-09
-4.37266e-09
-3.78697e-09
-3.30761e-09
-2.79833e-09
-2.4431e-09
-2.00389e-09
-1.7419e-09
-1.40188e-09
-1.26333e-09
-9.06652e-10
-7.83093e-10
-4.45291e-10
-3.88789e-10
-3.08523e-11
-9.26756e-12
3.58519e-10
3.23348e-10
7.02874e-10
6.07539e-10
1.03089e-09
8.95431e-10
1.36379e-09
1.17328e-09
1.67362e-09
1.40573e-09
1.98714e-09
1.67193e-09
2.31774e-09
1.91653e-09
2.63369e-09
2.13689e-09
2.96774e-09
2.39529e-09
3.34498e-09
2.67018e-09
3.70416e-09
2.88516e-09
4.11843e-09
3.2525e-09
4.63326e-09
3.68048e-09
5.23571e-09
4.30634e-09
5.8398e-09
5.01922e-09
6.49219e-09
6.25372e-09
7.40366e-09
7.75664e-09
1.70842e-09
1.42555e-08
8.68901e-10
-5.97003e-09
-5.85035e-09
-7.39743e-09
-7.77037e-09
-6.94669e-09
-6.03138e-09
-5.36485e-09
-4.7958e-09
-4.35158e-09
-3.77113e-09
-3.29788e-09
-2.79037e-09
-2.43922e-09
-2.00037e-09
-1.74099e-09
-1.4001e-09
-1.26386e-09
-9.06659e-10
-7.84645e-10
-4.45991e-10
-3.90948e-10
-3.25129e-11
-1.19424e-11
3.56227e-10
3.20531e-10
7.00422e-10
6.05172e-10
1.02791e-09
8.92942e-10
1.36021e-09
1.1713e-09
1.66984e-09
1.40432e-09
1.98242e-09
1.67103e-09
2.31209e-09
1.91646e-09
2.62722e-09
2.13842e-09
2.95942e-09
2.39769e-09
3.3341e-09
2.6749e-09
3.69086e-09
2.89303e-09
4.09965e-09
3.26377e-09
4.60651e-09
3.69674e-09
5.19556e-09
4.3305e-09
5.77988e-09
5.05468e-09
6.39406e-09
6.30394e-09
7.20928e-09
7.74346e-09
1.88173e-09
1.36722e-08
7.98008e-10
-5.79653e-09
-5.67503e-09
-7.2365e-09
-7.65667e-09
-6.87636e-09
-5.97996e-09
-5.32793e-09
-4.76584e-09
-4.33002e-09
-3.75486e-09
-3.28778e-09
-2.78213e-09
-2.43505e-09
-1.99665e-09
-1.73986e-09
-1.39819e-09
-1.26416e-09
-9.0655e-10
-7.86005e-10
-4.46628e-10
-3.9292e-10
-3.41384e-11
-1.44444e-11
3.53933e-10
3.17882e-10
6.97929e-10
6.02979e-10
1.02488e-09
8.90634e-10
1.35652e-09
1.1695e-09
1.66592e-09
1.40313e-09
1.97753e-09
1.67034e-09
2.30623e-09
1.91661e-09
2.62048e-09
2.14021e-09
2.9508e-09
2.40037e-09
3.32286e-09
2.67989e-09
3.67715e-09
2.9012e-09
4.08044e-09
3.27527e-09
4.57929e-09
3.71307e-09
5.15503e-09
4.35433e-09
5.71987e-09
5.08912e-09
6.29642e-09
6.35271e-09
7.01422e-09
7.73093e-09
2.05967e-09
1.30728e-08
7.25424e-10
-5.60946e-09
-5.50252e-09
-7.07926e-09
-7.54271e-09
-6.80554e-09
-5.92838e-09
-5.29072e-09
-4.73557e-09
-4.30804e-09
-3.73822e-09
-3.27735e-09
-2.77366e-09
-2.43062e-09
-1.99277e-09
-1.73853e-09
-1.39617e-09
-1.26424e-09
-9.06348e-10
-7.87192e-10
-4.47217e-10
-3.94719e-10
-3.57407e-11
-1.67857e-11
3.51628e-10
3.15389e-10
6.95392e-10
6.00951e-10
1.02177e-09
8.88497e-10
1.35275e-09
1.16787e-09
1.66187e-09
1.40212e-09
1.97249e-09
1.66985e-09
2.30017e-09
1.91698e-09
2.6135e-09
2.14222e-09
2.94191e-09
2.4033e-09
3.31131e-09
2.68512e-09
3.66307e-09
2.90964e-09
4.06085e-09
3.28696e-09
4.55169e-09
3.72941e-09
5.11423e-09
4.37772e-09
5.65994e-09
5.12238e-09
6.19957e-09
6.39965e-09
6.81955e-09
7.71804e-09
2.24201e-09
1.24622e-08
6.50674e-10
-5.41116e-09
-5.33302e-09
-6.92591e-09
-7.42877e-09
-6.73439e-09
-5.87674e-09
-5.25332e-09
-4.70507e-09
-4.28571e-09
-3.72126e-09
-3.26665e-09
-2.76498e-09
-2.42597e-09
-1.98876e-09
-1.73702e-09
-1.39406e-09
-1.26413e-09
-9.06069e-10
-7.88221e-10
-4.47772e-10
-3.96359e-10
-3.73302e-11
-1.89783e-11
3.49306e-10
3.13042e-10
6.92807e-10
5.99077e-10
1.01861e-09
8.86522e-10
1.34888e-09
1.1664e-09
1.6577e-09
1.40131e-09
1.9673e-09
1.66954e-09
2.29393e-09
1.91755e-09
2.6063e-09
2.14446e-09
2.93277e-09
2.40646e-09
3.29947e-09
2.69057e-09
3.64866e-09
2.91831e-09
4.04093e-09
3.29879e-09
4.52377e-09
3.74571e-09
5.07326e-09
4.4006e-09
5.60025e-09
5.15435e-09
6.1038e-09
6.44439e-09
6.62633e-09
7.70385e-09
2.42829e-09
1.18453e-08
5.73295e-10
-5.20403e-09
-5.16676e-09
-6.77656e-09
-7.31513e-09
-6.66307e-09
-5.82517e-09
-5.21582e-09
-4.67441e-09
-4.2631e-09
-3.70404e-09
-3.2557e-09
-2.75614e-09
-2.42113e-09
-1.98463e-09
-1.73537e-09
-1.39189e-09
-1.26385e-09
-9.0573e-10
-7.89108e-10
-4.48305e-10
-3.97852e-10
-3.89154e-11
-2.10338e-11
3.46962e-10
3.10831e-10
6.90172e-10
5.97345e-10
1.01538e-09
8.84698e-10
1.34493e-09
1.16508e-09
1.65341e-09
1.40066e-09
1.96198e-09
1.66941e-09
2.28752e-09
1.9183e-09
2.5989e-09
2.1469e-09
2.9234e-09
2.40983e-09
3.28737e-09
2.69622e-09
3.63395e-09
2.92719e-09
4.02073e-09
3.31073e-09
4.4956e-09
3.7619e-09
5.03223e-09
4.42289e-09
5.54094e-09
5.18491e-09
6.00938e-09
6.48654e-09
6.43551e-09
7.68754e-09
2.6181e-09
1.12266e-08
4.93064e-10
-4.99035e-09
-5.00392e-09
-6.63131e-09
-7.20208e-09
-6.59175e-09
-5.77376e-09
-5.17831e-09
-4.64366e-09
-4.24025e-09
-3.6866e-09
-3.24454e-09
-2.74717e-09
-2.41611e-09
-1.98042e-09
-1.73359e-09
-1.38967e-09
-1.26341e-09
-9.05343e-10
-7.89865e-10
-4.48826e-10
-3.99212e-10
-4.05034e-11
-2.29631e-11
3.44592e-10
3.08747e-10
6.87485e-10
5.95745e-10
1.01209e-09
8.83016e-10
1.34089e-09
1.16391e-09
1.649e-09
1.40018e-09
1.95654e-09
1.66944e-09
2.28095e-09
1.91923e-09
2.5913e-09
2.14952e-09
2.91383e-09
2.4134e-09
3.27503e-09
2.70205e-09
3.61898e-09
2.93624e-09
4.0003e-09
3.32274e-09
4.46724e-09
3.77795e-09
4.99121e-09
4.44452e-09
5.48213e-09
5.21395e-09
5.91654e-09
6.52575e-09
6.24802e-09
7.66837e-09
2.81087e-09
1.06106e-08
4.10085e-10
-4.77244e-09
-4.84485e-09
-6.49028e-09
-7.08987e-09
-6.52057e-09
-5.72261e-09
-5.14087e-09
-4.61288e-09
-4.21723e-09
-3.66899e-09
-3.2332e-09
-2.73808e-09
-2.41094e-09
-1.97614e-09
-1.73169e-09
-1.38742e-09
-1.26282e-09
-9.04918e-10
-7.90504e-10
-4.49342e-10
-4.00448e-10
-4.20999e-11
-2.4776e-11
3.42191e-10
3.06779e-10
6.84745e-10
5.94268e-10
1.00874e-09
8.81467e-10
1.33677e-09
1.16286e-09
1.64449e-09
1.39984e-09
1.95097e-09
1.66962e-09
2.27424e-09
1.92033e-09
2.58353e-09
2.15231e-09
2.90407e-09
2.41716e-09
3.26248e-09
2.70804e-09
3.60377e-09
2.94545e-09
3.97968e-09
3.33479e-09
4.43875e-09
3.7938e-09
4.95029e-09
4.46543e-09
5.42395e-09
5.24135e-09
5.82553e-09
6.56167e-09
6.0647e-09
7.64565e-09
3.00592e-09
1.00015e-08
3.24634e-10
-4.55244e-09
-4.68986e-09
-6.35355e-09
-6.97875e-09
-6.44968e-09
-5.6718e-09
-5.10357e-09
-4.58213e-09
-4.19408e-09
-3.65124e-09
-3.22171e-09
-2.72891e-09
-2.40564e-09
-1.97182e-09
-1.72969e-09
-1.38513e-09
-1.2621e-09
-9.04466e-10
-7.91036e-10
-4.4986e-10
-4.0157e-10
-4.37096e-11
-2.64812e-11
3.39758e-10
3.04921e-10
6.81951e-10
5.92904e-10
1.00532e-09
8.80042e-10
1.33257e-09
1.16194e-09
1.63988e-09
1.39965e-09
1.94529e-09
1.66995e-09
2.26739e-09
1.92158e-09
2.57559e-09
2.15527e-09
2.89413e-09
2.42108e-09
3.24974e-09
2.71417e-09
3.58836e-09
2.95479e-09
3.95889e-09
3.34683e-09
4.41018e-09
3.80942e-09
4.90954e-09
4.48555e-09
5.3665e-09
5.26702e-09
5.73655e-09
6.594e-09
5.88636e-09
7.61874e-09
3.20241e-09
9.40308e-09
2.36958e-10
-4.33246e-09
-4.53925e-09
-6.22116e-09
-6.86894e-09
-6.37923e-09
-5.62142e-09
-5.06648e-09
-4.55146e-09
-4.17084e-09
-3.63339e-09
-3.21009e-09
-2.71967e-09
-2.40022e-09
-1.96745e-09
-1.7276e-09
-1.38283e-09
-1.26125e-09
-9.03992e-10
-7.9147e-10
-4.50384e-10
-4.02586e-10
-4.5336e-11
-2.80869e-11
3.37289e-10
3.03164e-10
6.79102e-10
5.91646e-10
1.00185e-09
8.78733e-10
1.32829e-09
1.16113e-09
1.63517e-09
1.3996e-09
1.9395e-09
1.6704e-09
2.26041e-09
1.92297e-09
2.5675e-09
2.15836e-09
2.88403e-09
2.42515e-09
3.23681e-09
2.72043e-09
3.57276e-09
2.96424e-09
3.93798e-09
3.35886e-09
4.38157e-09
3.82475e-09
4.86901e-09
4.50482e-09
5.30989e-09
5.29087e-09
5.6498e-09
6.62243e-09
5.71371e-09
7.58721e-09
3.39962e-09
8.81902e-09
1.47429e-10
-4.11441e-09
-4.39324e-09
-6.09309e-09
-6.76067e-09
-6.30934e-09
-5.57154e-09
-5.02966e-09
-4.52091e-09
-4.14755e-09
-3.61546e-09
-3.19837e-09
-2.71039e-09
-2.39471e-09
-1.96306e-09
-1.72544e-09
-1.38053e-09
-1.26029e-09
-9.03504e-10
-7.91815e-10
-4.50918e-10
-4.03505e-10
-4.69821e-11
-2.96002e-11
3.34785e-10
3.01503e-10
6.762e-10
5.90486e-10
9.98312e-10
8.77533e-10
1.32393e-09
1.16042e-09
1.63036e-09
1.39966e-09
1.93361e-09
1.67098e-09
2.2533e-09
1.9245e-09
2.55926e-09
2.1616e-09
2.87378e-09
2.42937e-09
3.22373e-09
2.72678e-09
3.55701e-09
2.97377e-09
3.91696e-09
3.37083e-09
4.35297e-09
3.83977e-09
4.82878e-09
4.5232e-09
5.2542e-09
5.31281e-09
5.56545e-09
6.6467e-09
5.54736e-09
7.55068e-09
3.59676e-09
8.25251e-09
5.67182e-11
-3.9001e-09
-4.2522e-09
-5.96939e-09
-6.65416e-09
-6.24017e-09
-5.52225e-09
-4.99318e-09
-4.49052e-09
-4.12425e-09
-3.5975e-09
-3.18657e-09
-2.70107e-09
-2.38912e-09
-1.95867e-09
-1.72321e-09
-1.37822e-09
-1.25923e-09
-9.03006e-10
-7.92078e-10
-4.51465e-10
-4.04332e-10
-4.865e-11
-3.10271e-11
3.32244e-10
2.9993e-10
6.73243e-10
5.89418e-10
9.94717e-10
8.76436e-10
1.3195e-09
1.15981e-09
1.62546e-09
1.39985e-09
1.92762e-09
1.67167e-09
2.24608e-09
1.92615e-09
2.55088e-09
2.16495e-09
2.86339e-09
2.43371e-09
3.2105e-09
2.73323e-09
3.54112e-09
2.98336e-09
3.89588e-09
3.38271e-09
4.32442e-09
3.85445e-09
4.7889e-09
4.54063e-09
5.19952e-09
5.33276e-09
5.48365e-09
6.66659e-09
5.3879e-09
7.50881e-09
3.79295e-09
7.70657e-09
-3.44235e-11
-3.69119e-09
-4.11648e-09
-5.85009e-09
-6.5496e-09
-6.17184e-09
-5.47361e-09
-4.95708e-09
-4.46035e-09
-4.10097e-09
-3.57952e-09
-3.1747e-09
-2.69174e-09
-2.38346e-09
-1.95427e-09
-1.72093e-09
-1.37591e-09
-1.25807e-09
-9.02505e-10
-7.92264e-10
-4.52028e-10
-4.05074e-10
-5.03416e-11
-3.2373e-11
3.29666e-10
2.98443e-10
6.70233e-10
5.88436e-10
9.91063e-10
8.75437e-10
1.315e-09
1.1593e-09
1.62048e-09
1.40015e-09
1.92153e-09
1.67247e-09
2.23875e-09
1.92792e-09
2.54238e-09
2.16842e-09
2.85288e-09
2.43817e-09
3.19713e-09
2.73975e-09
3.52511e-09
2.993e-09
3.87475e-09
3.39449e-09
4.29596e-09
3.86874e-09
4.74941e-09
4.55708e-09
5.14592e-09
5.35066e-09
5.40455e-09
6.68188e-09
5.23583e-09
7.46133e-09
3.98725e-09
7.18389e-09
-1.25328e-10
-3.48925e-09
-3.98633e-09
-5.73513e-09
-6.44718e-09
-6.10447e-09
-5.4257e-09
-4.92142e-09
-4.43042e-09
-4.07776e-09
-3.56157e-09
-3.16279e-09
-2.68241e-09
-2.37774e-09
-1.94988e-09
-1.7186e-09
-1.3736e-09
-1.25682e-09
-9.02004e-10
-7.92381e-10
-4.52609e-10
-4.05734e-10
-5.20582e-11
-3.36431e-11
3.27049e-10
2.97035e-10
6.67171e-10
5.87535e-10
9.87353e-10
8.74531e-10
1.31043e-09
1.15887e-09
1.61541e-09
1.40055e-09
1.91535e-09
1.67337e-09
2.23131e-09
1.9298e-09
2.53376e-09
2.17199e-09
2.84225e-09
2.44273e-09
3.18365e-09
2.74633e-09
3.50901e-09
3.00266e-09
3.85361e-09
3.40614e-09
4.26761e-09
3.88261e-09
4.71035e-09
4.57249e-09
5.09345e-09
5.36644e-09
5.32825e-09
6.6924e-09
5.09157e-09
7.40808e-09
4.17886e-09
6.68687e-09
-2.153e-10
-3.2957e-09
-3.86199e-09
-5.62445e-09
-6.34705e-09
-6.03818e-09
-5.37858e-09
-4.88625e-09
-4.40079e-09
-4.05463e-09
-3.54365e-09
-3.15085e-09
-2.67309e-09
-2.37198e-09
-1.94551e-09
-1.71623e-09
-1.37131e-09
-1.25548e-09
-9.01506e-10
-7.92433e-10
-4.53209e-10
-4.06319e-10
-5.38007e-11
-3.48418e-11
3.24395e-10
2.95703e-10
6.64057e-10
5.8671e-10
9.83588e-10
8.73712e-10
1.30578e-09
1.15853e-09
1.61026e-09
1.40105e-09
1.90909e-09
1.67436e-09
2.22377e-09
1.93178e-09
2.52503e-09
2.17566e-09
2.83151e-09
2.44738e-09
3.17007e-09
2.75296e-09
3.49284e-09
3.01234e-09
3.83246e-09
3.41763e-09
4.23942e-09
3.89605e-09
4.67177e-09
4.58684e-09
5.04219e-09
5.38006e-09
5.25486e-09
6.69803e-09
4.95547e-09
7.349e-09
4.36698e-09
6.21757e-09
-3.03392e-10
-3.11183e-09
-3.74376e-09
-5.51802e-09
-6.2494e-09
-5.97309e-09
-5.33232e-09
-4.85162e-09
-4.37147e-09
-4.03162e-09
-3.52581e-09
-3.13891e-09
-2.6638e-09
-2.36619e-09
-1.94118e-09
-1.71384e-09
-1.36904e-09
-1.25407e-09
-9.01015e-10
-7.92426e-10
-4.53829e-10
-4.06831e-10
-5.55699e-11
-3.59729e-11
3.21704e-10
2.94443e-10
6.60893e-10
5.85958e-10
9.7977e-10
8.72978e-10
1.30108e-09
1.15826e-09
1.60504e-09
1.40164e-09
1.90274e-09
1.67543e-09
2.21614e-09
1.93386e-09
2.51619e-09
2.17941e-09
2.82068e-09
2.45212e-09
3.15639e-09
2.75961e-09
3.4766e-09
3.02201e-09
3.81134e-09
3.42894e-09
4.21141e-09
3.90902e-09
4.63371e-09
4.60009e-09
4.99218e-09
5.39146e-09
5.18446e-09
6.69864e-09
4.82785e-09
7.28398e-09
4.55074e-09
5.77791e-09
-3.88643e-10
-2.93878e-09
-3.63196e-09
-5.41579e-09
-6.15436e-09
-5.90933e-09
-5.28698e-09
-4.81757e-09
-4.34251e-09
-4.00876e-09
-3.50805e-09
-3.12696e-09
-2.65456e-09
-2.36037e-09
-1.93688e-09
-1.71143e-09
-1.36678e-09
-1.25258e-09
-9.00536e-10
-7.92364e-10
-4.54469e-10
-4.07275e-10
-5.73666e-11
-3.70399e-11
3.18975e-10
2.93253e-10
6.57681e-10
5.85273e-10
9.759e-10
8.72323e-10