/*--------------------------------*- C++ -*----------------------------------*\
| =========                 |                                                 |
| \\      /  F ield         | OpenFOAM: The Open Source CFD Toolbox           |
|  \\    /   O peration     | Version:  2312                                  |
|   \\  /    A nd           | Website:  www.openfoam.com                      |
|    \\/     M anipulation  |                                                 |
\*---------------------------------------------------------------------------*/
FoamFile
{
    version     2.0;
    format      ascii;
    arch        "LSB;label=32;scalar=64";
    class       volScalarField;
    location    "100";
    object      pPrime2Mean;
}
// * * * * * * * * * * * * * * * * * * * * * * * * * * * * * * * * * * * * * //

dimensions      [0 4 -4 0 0 0 0];

internalField   nonuniform List<scalar> 
330000
(
2.37976e-16
3.3489e-16
1.69142e-16
1.33693e-16
1.32453e-16
1.23153e-16
1.13499e-16
1.00866e-16
9.24494e-17
8.50562e-17
8.29558e-17
8.03447e-17
8.07636e-17
7.8827e-17
7.91874e-17
7.70459e-17
7.69254e-17
7.51317e-17
7.41782e-17
7.3553e-17
7.116e-17
7.18977e-17
6.79552e-17
7.0034e-17
6.49909e-17
6.80573e-17
6.25176e-17
6.59834e-17
6.05708e-17
6.38205e-17
5.9108e-17
6.1628e-17
5.79755e-17
5.94732e-17
5.70343e-17
5.74505e-17
5.62268e-17
5.55419e-17
5.55887e-17
5.36938e-17
5.52028e-17
5.2172e-17
5.47979e-17
5.1492e-17
5.39799e-17
5.16832e-17
5.33333e-17
5.25913e-17
5.34773e-17
5.48739e-17
5.52551e-17
5.63207e-17
6.86666e-17
4.40661e-17
1.12255e-16
2.69055e-17
1.62778e-16
1.0648e-16
1.94506e-17
4.42347e-16
2.38289e-16
3.33469e-16
1.68715e-16
1.33626e-16
1.32424e-16
1.23155e-16
1.13516e-16
1.00876e-16
9.2446e-17
8.50443e-17
8.29357e-17
8.03263e-17
8.07434e-17
7.88131e-17
7.91724e-17
7.70378e-17
7.69157e-17
7.51279e-17
7.41726e-17
7.35522e-17
7.11574e-17
7.18987e-17
6.79547e-17
7.00359e-17
6.49918e-17
6.80595e-17
6.25197e-17
6.59852e-17
6.05742e-17
6.38216e-17
5.91127e-17
6.16282e-17
5.79813e-17
5.94723e-17
5.70413e-17
5.74487e-17
5.62348e-17
5.55391e-17
5.55976e-17
5.36904e-17
5.5212e-17
5.21694e-17
5.48065e-17
5.14916e-17
5.39881e-17
5.16848e-17
5.33431e-17
5.25954e-17
5.34912e-17
5.48812e-17
5.52853e-17
5.63139e-17
6.87545e-17
4.40234e-17
1.12394e-16
2.69484e-17
1.62605e-16
1.06952e-16
1.93333e-17
4.40152e-16
2.39049e-16
3.32428e-16
1.67905e-16
1.3341e-16
1.32365e-16
1.23146e-16
1.13532e-16
1.00883e-16
9.24399e-17
8.5026e-17
8.29113e-17
8.03019e-17
8.07201e-17
7.87945e-17
7.91556e-17
7.70262e-17
7.69047e-17
7.51225e-17
7.41654e-17
7.35526e-17
7.11524e-17
7.19032e-17
6.79507e-17
7.0043e-17
6.49883e-17
6.80678e-17
6.25174e-17
6.59935e-17
6.05738e-17
6.38286e-17
5.91149e-17
6.16332e-17
5.79865e-17
5.94748e-17
5.70496e-17
5.74489e-17
5.6246e-17
5.55375e-17
5.5612e-17
5.36874e-17
5.52292e-17
5.21671e-17
5.4825e-17
5.14934e-17
5.40079e-17
5.16919e-17
5.33672e-17
5.26114e-17
5.35223e-17
5.49087e-17
5.53422e-17
5.63328e-17
6.89048e-17
4.39799e-17
1.12694e-16
2.69718e-17
1.62467e-16
1.07621e-16
1.92053e-17
4.3867e-16
2.39419e-16
3.31808e-16
1.66527e-16
1.32875e-16
1.32169e-16
1.23042e-16
1.13492e-16
1.00857e-16
9.24148e-17
8.49947e-17
8.28774e-17
8.0269e-17
8.069e-17
7.8769e-17
7.91329e-17
7.70092e-17
7.68896e-17
7.51135e-17
7.41552e-17
7.3551e-17
7.11453e-17
7.19068e-17
6.79446e-17
7.00497e-17
6.49831e-17
6.80761e-17
6.25137e-17
6.60019e-17
6.05723e-17
6.38359e-17
5.91163e-17
6.16384e-17
5.79913e-17
5.94775e-17
5.70577e-17
5.74497e-17
5.62572e-17
5.55362e-17
5.56266e-17
5.36846e-17
5.52467e-17
5.21651e-17
5.48435e-17
5.14965e-17
5.40266e-17
5.17013e-17
5.3389e-17
5.26285e-17
5.35521e-17
5.49352e-17
5.53957e-17
5.63484e-17
6.90447e-17
4.39315e-17
1.12922e-16
2.6983e-17
1.61996e-16
1.082e-16
1.90351e-17
4.37471e-16
2.38636e-16
3.31282e-16
1.64365e-16
1.31813e-16
1.31681e-16
1.22734e-16
1.13324e-16
1.00759e-16
9.2347e-17
8.49355e-17
8.28213e-17
8.02171e-17
8.06425e-17
7.87281e-17
7.90961e-17
7.69805e-17
7.68639e-17
7.5096e-17
7.41377e-17
7.35439e-17
7.11334e-17
7.19063e-17
6.79356e-17
7.00532e-17
6.49761e-17
6.80817e-17
6.25091e-17
6.60081e-17
6.05704e-17
6.38411e-17
5.91175e-17
6.1642e-17
5.79962e-17
5.94787e-17
5.70658e-17
5.74492e-17
5.62682e-17
5.55342e-17
5.56407e-17
5.36812e-17
5.52631e-17
5.21628e-17
5.486e-17
5.14997e-17
5.40421e-17
5.17103e-17
5.34069e-17
5.26415e-17
5.35796e-17
5.49479e-17
5.54473e-17
5.63368e-17
6.91584e-17
4.38574e-17
1.12976e-16
2.70095e-17
1.609e-16
1.085e-16
1.87698e-17
4.36065e-16
2.36082e-16
3.30276e-16
1.61369e-16
1.30114e-16
1.30791e-16
1.22134e-16
1.12967e-16
1.0055e-16
9.2212e-17
8.48318e-17
8.27294e-17
8.01345e-17
8.05668e-17
7.86627e-17
7.90366e-17
7.6933e-17
7.68212e-17
7.50648e-17
7.41079e-17
7.35271e-17
7.11135e-17
7.18989e-17
6.79213e-17
7.00514e-17
6.4966e-17
6.8083e-17
6.25029e-17
6.60105e-17
6.05678e-17
6.38433e-17
5.91185e-17
6.16429e-17
5.80012e-17
5.94776e-17
5.7074e-17
5.74469e-17
5.62792e-17
5.55304e-17
5.56546e-17
5.36763e-17
5.52788e-17
5.21594e-17
5.48745e-17
5.15023e-17
5.40542e-17
5.17174e-17
5.34206e-17
5.26466e-17
5.36064e-17
5.49362e-17
5.55021e-17
5.62759e-17
6.92472e-17
4.37388e-17
1.12792e-16
2.70772e-17
1.59006e-16
1.08379e-16
1.83635e-17
4.33691e-16
2.31448e-16
3.27975e-16
1.57619e-16
1.27774e-16
1.29454e-16
1.21195e-16
1.12378e-16
1.00199e-16
9.1989e-17
8.46687e-17
8.25895e-17
8.00109e-17
8.04537e-17
7.85649e-17
7.89471e-17
7.68607e-17
7.67553e-17
7.5015e-17
7.40611e-17
7.3497e-17
7.1082e-17
7.18816e-17
6.78994e-17
7.00421e-17
6.49511e-17
6.80783e-17
6.2494e-17
6.60079e-17
6.05638e-17
6.38411e-17
5.9119e-17
6.16401e-17
5.80062e-17
5.94733e-17
5.70824e-17
5.74418e-17
5.62904e-17
5.55242e-17
5.56684e-17
5.36693e-17
5.52935e-17
5.21542e-17
5.48866e-17
5.15033e-17
5.4062e-17
5.17208e-17
5.34296e-17
5.26392e-17
5.36326e-17
5.48904e-17
5.55618e-17
5.61473e-17
6.93066e-17
4.35625e-17
1.12316e-16
2.72112e-17
1.56204e-16
1.0775e-16
1.78232e-17
4.29287e-16
2.24769e-16
3.23687e-16
1.53239e-16
1.24873e-16
1.27679e-16
1.1991e-16
1.1154e-16
9.96886e-17
9.16629e-17
8.44351e-17
8.23927e-17
7.98389e-17
8.02966e-17
7.84293e-17
7.88224e-17
7.67591e-17
7.66616e-17
7.49428e-17
7.39934e-17
7.34501e-17
7.10357e-17
7.18519e-17
6.78676e-17
7.00232e-17
6.49301e-17
6.80658e-17
6.24815e-17
6.59987e-17
6.0558e-17
6.38332e-17
5.91187e-17
6.16323e-17
5.80111e-17
5.94645e-17
5.7091e-17
5.74329e-17
5.63018e-17
5.55146e-17
5.5682e-17
5.36592e-17
5.53071e-17
5.21463e-17
5.48955e-17
5.15017e-17
5.40645e-17
5.17183e-17
5.3433e-17
5.26153e-17
5.36568e-17
5.48037e-17
5.5624e-17
5.594e-17
6.93273e-17
4.33262e-17
1.11512e-16
2.74316e-17
1.52467e-16
1.06607e-16
1.71983e-17
4.2185e-16
2.16372e-16
3.1696e-16
1.48362e-16
1.21545e-16
1.2552e-16
1.18305e-16
1.10457e-16
9.90133e-17
9.12274e-17
8.41255e-17
8.21343e-17
7.96147e-17
8.00917e-17
7.82531e-17
7.86597e-17
7.6626e-17
7.65374e-17
7.48458e-17
7.39019e-17
7.33839e-17
7.09721e-17
7.18074e-17
6.78241e-17
6.99928e-17
6.49017e-17
6.80436e-17
6.24647e-17
6.59812e-17
6.05499e-17
6.38182e-17
5.91173e-17
6.16183e-17
5.80158e-17
5.94503e-17
5.70998e-17
5.74191e-17
5.63134e-17
5.55007e-17
5.56954e-17
5.36452e-17
5.53191e-17
5.2135e-17
5.49003e-17
5.14965e-17
5.40607e-17
5.17082e-17
5.34299e-17
5.25721e-17
5.36765e-17
5.46735e-17
5.56839e-17
5.56526e-17
6.92993e-17
4.30397e-17
1.10369e-16
2.77513e-17
1.47857e-16
1.05033e-16
1.65678e-17
4.10665e-16
2.06734e-16
3.07712e-16
1.4311e-16
1.17932e-16
1.23057e-16
1.16433e-16
1.09157e-16
9.81829e-17
9.06848e-17
8.37406e-17
8.18147e-17
7.93385e-17
7.98388e-17
7.80361e-17
7.84585e-17
7.64611e-17
7.63818e-17
7.47235e-17
7.37853e-17
7.32974e-17
7.08897e-17
7.17468e-17
6.77675e-17
6.99493e-17
6.48649e-17
6.80105e-17
6.24431e-17
6.59542e-17
6.05393e-17
6.37948e-17
5.91148e-17
6.15969e-17
5.80201e-17
5.94297e-17
5.71084e-17
5.73998e-17
5.63248e-17
5.54816e-17
5.5708e-17
5.36266e-17
5.53288e-17
5.21197e-17
5.49003e-17
5.1487e-17
5.40499e-17
5.1689e-17
5.34193e-17
5.25093e-17
5.36886e-17
5.45026e-17
5.5736e-17
5.52933e-17
6.92144e-17
4.27221e-17
1.08907e-16
2.81763e-17
1.42516e-16
1.03173e-16
1.60111e-17
3.95543e-16
1.96383e-16
2.96196e-16
1.37608e-16
1.14173e-16
1.2038e-16
1.1436e-16
1.07678e-16
9.7218e-17
9.00453e-17
8.32867e-17
8.14382e-17
7.90141e-17
7.95405e-17
7.77807e-17
7.82203e-17
7.62661e-17
7.61957e-17
7.45767e-17
7.36436e-17
7.31904e-17
7.07878e-17
7.16694e-17
6.76972e-17
6.98919e-17
6.48195e-17
6.79653e-17
6.24163e-17
6.59165e-17
6.0526e-17
6.37619e-17
5.9111e-17
6.15673e-17
5.80238e-17
5.94019e-17
5.71167e-17
5.73742e-17
5.63358e-17
5.5457e-17
5.57196e-17
5.3603e-17
5.53357e-17
5.21005e-17
5.48947e-17
5.14728e-17
5.40319e-17
5.16605e-17
5.34005e-17
5.24288e-17
5.36902e-17
5.42973e-17
5.57755e-17
5.48772e-17
6.90682e-17
4.23956e-17
1.07167e-16
2.87065e-17
1.36631e-16
1.01194e-16
1.55905e-17
3.76816e-16
1.85785e-16
2.82873e-16
1.31977e-16
1.10374e-16
1.17569e-16
1.12153e-16
1.06068e-16
9.61456e-17
8.93243e-17
8.27737e-17
8.10126e-17
7.86478e-17
7.92017e-17
7.74909e-17
7.79486e-17
7.6044e-17
7.59816e-17
7.44077e-17
7.34784e-17
7.30641e-17
7.06671e-17
7.15756e-17
6.76135e-17
6.98204e-17
6.47652e-17
6.79076e-17
6.23843e-17
6.58675e-17
6.05099e-17
6.37191e-17
5.91057e-17
6.15289e-17
5.80267e-17
5.93666e-17
5.71242e-17
5.73422e-17
5.63458e-17
5.54266e-17
5.57294e-17
5.35747e-17
5.53392e-17
5.20775e-17
5.48831e-17
5.14539e-17
5.40065e-17
5.16235e-17
5.33729e-17
5.23341e-17
5.36795e-17
5.40662e-17
5.57989e-17
5.44225e-17
6.8861e-17
4.20822e-17
1.05206e-16
2.9337e-17
1.30407e-16
9.92465e-17
1.53396e-17
3.55169e-16
1.75315e-16
2.68272e-16
1.26318e-16
1.0662e-16
1.14691e-16
1.0987e-16
1.04371e-16
9.4994e-17
8.85394e-17
8.22133e-17
8.05467e-17
7.82473e-17
7.88288e-17
7.71722e-17
7.76475e-17
7.57987e-17
7.57427e-17
7.42194e-17
7.3292e-17
7.29203e-17
7.05289e-17
7.14661e-17
6.7517e-17
6.97351e-17
6.47027e-17
6.78373e-17
6.23475e-17
6.58072e-17
6.04911e-17
6.36662e-17
5.90989e-17
6.14816e-17
5.80284e-17
5.93238e-17
5.71307e-17
5.73038e-17
5.63545e-17
5.53908e-17
5.57372e-17
5.3542e-17
5.53386e-17
5.20511e-17
5.48654e-17
5.14311e-17
5.39741e-17
5.15795e-17
5.33365e-17
5.22293e-17
5.36555e-17
5.38184e-17
5.5804e-17
5.39479e-17
6.85959e-17
4.17986e-17
1.03082e-16
3.00603e-17
1.24031e-16
9.74382e-17
1.52686e-17
3.31467e-16
1.65228e-16
2.52899e-16
1.20721e-16
1.02968e-16
1.11801e-16
1.07559e-16
1.02624e-16
9.37901e-17
8.77077e-17
8.16175e-17
8.00499e-17
7.78205e-17
7.84284e-17
7.68302e-17
7.73221e-17
7.55341e-17
7.54828e-17
7.4015e-17
7.30873e-17
7.27613e-17
7.03754e-17
7.13424e-17
6.74092e-17
6.96366e-17
6.46327e-17
6.7755e-17
6.23061e-17
6.57358e-17
6.04698e-17
6.36032e-17
5.90906e-17
6.14256e-17
5.80288e-17
5.92737e-17
5.71357e-17
5.72594e-17
5.63614e-17
5.53499e-17
5.57423e-17
5.35054e-17
5.53338e-17
5.20222e-17
5.48417e-17
5.1405e-17
5.39351e-17
5.15302e-17
5.32916e-17
5.21186e-17
5.36183e-17
5.35622e-17
5.57904e-17
5.34693e-17
6.82785e-17
4.15567e-17
1.00851e-16
3.08673e-17
1.1766e-16
9.58302e-17
1.53691e-17
3.06593e-16
1.55685e-16
2.37205e-16
1.15254e-16
9.94566e-17
1.08935e-16
1.05257e-16
1.0086e-16
9.25565e-17
8.68449e-17
8.09969e-17
7.95306e-17
7.73748e-17
7.80072e-17
7.64706e-17
7.69771e-17
7.52546e-17
7.52058e-17
7.37978e-17
7.28676e-17
7.25897e-17
7.02088e-17
7.12063e-17
6.72916e-17
6.95263e-17
6.45563e-17
6.76614e-17
6.22608e-17
6.56539e-17
6.04463e-17
6.3531e-17
5.90808e-17
6.13616e-17
5.80278e-17
5.92171e-17
5.71391e-17
5.72096e-17
5.63662e-17
5.53048e-17
5.57445e-17
5.34659e-17
5.53244e-17
5.19916e-17
5.48121e-17
5.13767e-17
5.389e-17
5.14777e-17
5.32388e-17
5.20054e-17
5.3569e-17
5.33044e-17
5.57584e-17
5.29994e-17
6.79159e-17
4.1363e-17
9.85616e-17
3.17479e-17
1.11417e-16
9.44424e-17
1.56242e-17
2.81366e-16
1.46765e-16
2.21555e-16
1.09969e-16
9.61097e-17
1.06121e-16
1.02987e-16
9.91005e-17
9.13116e-17
8.59637e-17
8.03606e-17
7.89958e-17
7.69165e-17
7.75709e-17
7.60982e-17
7.66172e-17
7.49638e-17
7.49152e-17
7.35708e-17
7.26358e-17
7.24077e-17
7.00316e-17
7.10594e-17
6.71658e-17
6.94053e-17
6.44744e-17
6.75576e-17
6.22122e-17
6.55625e-17
6.04207e-17
6.34502e-17
5.90695e-17
6.12903e-17
5.80251e-17
5.91546e-17
5.71404e-17
5.71552e-17
5.63686e-17
5.52561e-17
5.57435e-17
5.34243e-17
5.53105e-17
5.196e-17
5.47773e-17
5.13471e-17
5.38396e-17
5.14235e-17
5.31792e-17
5.18924e-17
5.3509e-17
5.30501e-17
5.57093e-17
5.25472e-17
6.75154e-17
4.12198e-17
9.62513e-17
3.26921e-17
1.05391e-16
9.32662e-17
1.60134e-17
2.5647e-16
1.38501e-16
2.06237e-16
1.04899e-16
9.29374e-17
1.03377e-16
1.00768e-16
9.73633e-17
9.00689e-17
8.50743e-17
7.97158e-17
7.84515e-17
7.64506e-17
7.71244e-17
7.57175e-17
7.62463e-17
7.46649e-17
7.46144e-17
7.33364e-17
7.23948e-17
7.22177e-17
6.98462e-17
7.09036e-17
6.70337e-17
6.92752e-17
6.43883e-17
6.74448e-17
6.21609e-17
6.54626e-17
6.03934e-17
6.33619e-17
5.90569e-17
6.12126e-17
5.80207e-17
5.9087e-17
5.71397e-17
5.7097e-17
5.63685e-17
5.52048e-17
5.57393e-17
5.33813e-17
5.52922e-17
5.1928e-17
5.47376e-17
5.13169e-17
5.37847e-17
5.1369e-17
5.31138e-17
5.17814e-17
5.34402e-17
5.28025e-17
5.56447e-17
5.21187e-17
6.70837e-17
4.11269e-17
9.39498e-17
3.36896e-17
9.96456e-17
9.22749e-17
1.65182e-17
2.32453e-16
1.30891e-16
1.91467e-16
1.00064e-16
8.99429e-17
1.00716e-16
9.86105e-17
9.56597e-17
8.88386e-17
8.41846e-17
7.90682e-17
7.79022e-17
7.59812e-17
7.66716e-17
7.53319e-17
7.5868e-17
7.43607e-17
7.43063e-17
7.30968e-17
7.21471e-17
7.20215e-17
6.96545e-17
7.07404e-17
6.68968e-17
6.91372e-17
6.4299e-17
6.73242e-17
6.21075e-17
6.53555e-17
6.03647e-17
6.32671e-17
5.90429e-17
6.11295e-17
5.80146e-17
5.90154e-17
5.71368e-17
5.70359e-17
5.63657e-17
5.51515e-17
5.57319e-17
5.33376e-17
5.52699e-17
5.18963e-17
5.46937e-17
5.12869e-17
5.37258e-17
5.13151e-17
5.30438e-17
5.16735e-17
5.33643e-17
5.2564e-17
5.55663e-17
5.17171e-17
6.66272e-17
4.10821e-17
9.16786e-17
3.47299e-17
9.42197e-17
9.14332e-17
1.71219e-17
2.0972e-16
1.2391e-16
1.77404e-16
9.54797e-17
8.71243e-17
9.81439e-17
9.65208e-17
9.39971e-17
8.76277e-17
8.33003e-17
7.8422e-17
7.73514e-17
7.55112e-17
7.62158e-17
7.49441e-17
7.54851e-17
7.40533e-17
7.39932e-17
7.28537e-17
7.18946e-17
7.18205e-17
6.94585e-17
7.05713e-17
6.67564e-17
6.89927e-17
6.42073e-17
6.71972e-17
6.20525e-17
6.52422e-17
6.03347e-17
6.31669e-17
5.90277e-17
6.10421e-17
5.80069e-17
5.89406e-17
5.71317e-17
5.69725e-17
5.63605e-17
5.50969e-17
5.57215e-17
5.32937e-17
5.5244e-17
5.18652e-17
5.46461e-17
5.12575e-17
5.36637e-17
5.12625e-17
5.29701e-17
5.15693e-17
5.32828e-17
5.23358e-17
5.54759e-17
5.13441e-17
6.61511e-17
4.10822e-17
8.94534e-17
3.58024e-17
8.9138e-17
9.0702e-17
1.78105e-17
1.88561e-16
1.17522e-16
1.64156e-16
9.1153e-17
8.44762e-17
9.56658e-17
9.45025e-17
9.238e-17
8.64408e-17
8.24256e-17
7.77803e-17
7.68019e-17
7.50429e-17
7.57594e-17
7.45563e-17
7.51e-17
7.37445e-17
7.36771e-17
7.26085e-17
7.16393e-17
7.16162e-17
6.92596e-17
7.03975e-17
6.66137e-17
6.88429e-17
6.41141e-17
6.70647e-17
6.19964e-17
6.51238e-17
6.03038e-17
6.30624e-17
5.90114e-17
6.09512e-17
5.79976e-17
5.88634e-17
5.71246e-17
5.69075e-17
5.63529e-17
5.50416e-17
5.57083e-17
5.32501e-17
5.52148e-17
5.18351e-17
5.45954e-17
5.1229e-17
5.3599e-17
5.12117e-17
5.28937e-17
5.14693e-17
5.31971e-17
5.21184e-17
5.53751e-17
5.1e-17
6.566e-17
4.11238e-17
8.72853e-17
3.68966e-17
8.44124e-17
9.00433e-17
1.8572e-17
1.69155e-16
1.11689e-16
1.51791e-16
8.7085e-17
8.19904e-17
9.32832e-17
9.25569e-17
9.08111e-17
8.52809e-17
8.15633e-17
7.71454e-17
7.62557e-17
7.45781e-17
7.53043e-17
7.417e-17
7.47145e-17
7.34356e-17
7.33596e-17
7.23621e-17
7.13824e-17
7.14094e-17
6.90591e-17
7.02201e-17
6.64697e-17
6.86888e-17
6.402e-17
6.6928e-17
6.19395e-17
6.50015e-17
6.0272e-17
6.29544e-17
5.89941e-17
6.08576e-17
5.79868e-17
5.87843e-17
5.71156e-17
5.68416e-17
5.63431e-17
5.49861e-17
5.56926e-17
5.32071e-17
5.51828e-17
5.1806e-17
5.45421e-17
5.12018e-17
5.35323e-17
5.11628e-17
5.28155e-17
5.13734e-17
5.31083e-17
5.19122e-17
5.52651e-17
5.06843e-17
6.51577e-17
4.12029e-17
8.5182e-17
3.80018e-17
8.00449e-17
8.94225e-17
1.93969e-17
1.51589e-16
1.06368e-16
1.40339e-16
8.32715e-17
7.96579e-17
9.09967e-17
9.06839e-17
8.92914e-17
8.41499e-17
8.07155e-17
7.6519e-17
7.57144e-17
7.41179e-17
7.48521e-17
7.37864e-17
7.433e-17
7.31276e-17
7.30421e-17
7.21153e-17
7.11252e-17
7.12011e-17
6.88581e-17
7.00401e-17
6.63252e-17
6.85315e-17
6.39255e-17
6.67878e-17
6.18822e-17
6.4876e-17
6.02395e-17
6.28438e-17
5.8976e-17
6.07621e-17
5.79747e-17
5.87041e-17
5.71049e-17
5.67751e-17
5.63312e-17
5.49306e-17
5.56747e-17
5.31649e-17
5.51483e-17
5.17781e-17
5.44868e-17
5.11759e-17
5.34639e-17
5.11161e-17
5.2736e-17
5.12818e-17
5.30173e-17
5.1717e-17
5.51472e-17
5.03963e-17
6.46475e-17
4.13158e-17
8.31489e-17
3.91078e-17
7.60303e-17
8.88099e-17
2.02766e-17
1.35876e-16
1.01518e-16
1.29807e-16
7.9708e-17
7.74698e-17
8.88054e-17
8.88825e-17
8.78211e-17
8.30486e-17
7.98836e-17
7.59021e-17
7.51791e-17
7.36632e-17
7.44037e-17
7.34064e-17
7.39478e-17
7.28212e-17
7.27256e-17
7.18689e-17
7.08684e-17
7.0992e-17
6.86572e-17
6.98581e-17
6.61808e-17
6.83716e-17
6.38309e-17
6.66451e-17
6.18247e-17
6.4748e-17
6.02066e-17
6.27312e-17
5.8957e-17
6.06653e-17
5.79614e-17
5.86232e-17
5.70925e-17
5.67084e-17
5.63175e-17
5.48756e-17
5.56548e-17
5.31236e-17
5.51118e-17
5.17516e-17
5.44297e-17
5.11515e-17
5.33944e-17
5.10716e-17
5.26558e-17
5.11942e-17
5.29246e-17
5.15326e-17
5.50225e-17
5.01346e-17
6.4132e-17
4.14587e-17
8.11896e-17
4.02045e-17
7.23581e-17
8.81803e-17
2.12031e-17
1.21974e-16
9.70978e-17
1.20177e-16
7.63871e-17
7.54173e-17
8.67076e-17
8.71509e-17
8.63996e-17
8.19773e-17
7.90683e-17
7.52956e-17
7.46507e-17
7.32147e-17
7.39602e-17
7.30305e-17
7.35686e-17
7.2517e-17
7.24109e-17
7.16232e-17
7.06129e-17
7.07824e-17
6.84572e-17
6.96747e-17
6.6037e-17
6.82099e-17
6.37367e-17
6.65004e-17
6.17671e-17
6.46184e-17
6.01733e-17
6.26173e-17
5.89374e-17
6.05676e-17
5.79471e-17
5.8542e-17
5.70787e-17
5.66418e-17
5.63022e-17
5.48211e-17
5.56331e-17
5.30835e-17
5.50736e-17
5.17263e-17
5.43712e-17
5.11285e-17
5.3324e-17
5.10293e-17
5.25752e-17
5.11108e-17
5.28309e-17
5.13589e-17
5.48917e-17
4.9898e-17
6.36136e-17
4.1628e-17
7.93064e-17
4.12826e-17
6.90141e-17
8.75138e-17
2.21688e-17
1.09801e-16
9.30697e-17
1.11417e-16
7.32989e-17
7.3491e-17
8.47013e-17
8.54873e-17
8.5026e-17
8.09361e-17
7.82702e-17
7.46998e-17
7.41298e-17
7.27727e-17
7.3522e-17
7.26593e-17
7.31932e-17
7.22155e-17
7.20986e-17
7.13787e-17
7.03591e-17
7.05729e-17
6.82586e-17
6.94906e-17
6.5894e-17
6.80468e-17
6.3643e-17
6.63543e-17
6.17096e-17
6.44876e-17
6.01396e-17
6.25025e-17
5.89172e-17
6.04695e-17
5.79317e-17
5.84608e-17
5.70637e-17
5.65756e-17
5.62855e-17
5.47674e-17
5.561e-17
5.30445e-17
5.5034e-17
5.17024e-17
5.43117e-17
5.11071e-17
5.3253e-17
5.09892e-17
5.24945e-17
5.10312e-17
5.27363e-17
5.11954e-17
5.47555e-17
4.96853e-17
6.30944e-17
4.18203e-17
7.75003e-17
4.23335e-17
6.59813e-17
8.67963e-17
2.31664e-17
9.92412e-17
8.93994e-17
1.03484e-16
7.04314e-17
7.16823e-17
8.27842e-17
8.38895e-17
8.36991e-17
7.99244e-17
7.74894e-17
7.41151e-17
7.36167e-17
7.23376e-17
7.30896e-17
7.22929e-17
7.28219e-17
7.19168e-17
7.17891e-17
7.11355e-17
7.01075e-17
7.03638e-17
6.80616e-17
6.9306e-17
6.57523e-17
6.78829e-17
6.355e-17
6.62074e-17
6.16523e-17
6.4356e-17
6.01058e-17
6.23873e-17
5.88964e-17
6.03714e-17
5.79156e-17
5.838e-17
5.70476e-17
5.651e-17
5.62675e-17
5.47146e-17
5.55855e-17
5.30067e-17
5.49932e-17
5.16799e-17
5.42513e-17
5.10871e-17
5.31817e-17
5.09513e-17
5.2414e-17
5.09556e-17
5.26413e-17
5.10419e-17
5.46148e-17
4.94949e-17
6.2576e-17
4.20323e-17
7.57718e-17
4.33493e-17
6.32405e-17
8.60184e-17
2.41893e-17
9.01619e-17
8.60531e-17
9.63243e-17
6.77732e-17
6.99834e-17
8.09537e-17
8.23551e-17
8.24174e-17
7.89418e-17
7.6726e-17
7.35415e-17
7.31119e-17
7.19095e-17
7.26634e-17
7.19316e-17
7.24552e-17
7.16212e-17
7.14829e-17
7.0894e-17
6.98583e-17
7.01553e-17
6.78666e-17
6.91214e-17
6.56119e-17
6.77186e-17
6.34579e-17
6.606e-17
6.15954e-17
6.42241e-17
6.00718e-17
6.2272e-17
5.88752e-17
6.02734e-17
5.78987e-17
5.82995e-17
5.70305e-17
5.64451e-17
5.62484e-17
5.46627e-17
5.556e-17
5.29702e-17
5.49514e-17
5.16587e-17
5.41903e-17
5.10686e-17
5.311e-17
5.09156e-17
5.23337e-17
5.08837e-17
5.25459e-17
5.08981e-17
5.447e-17
4.93256e-17
6.20601e-17
4.22608e-17
7.41205e-17
4.43234e-17
6.07719e-17
8.51748e-17
2.52301e-17
8.24209e-17
8.30004e-17
8.98835e-17
6.53123e-17
6.83873e-17
7.92071e-17
8.08818e-17
8.11796e-17
7.79876e-17
7.59798e-17
7.29791e-17
7.26154e-17
7.14884e-17
7.22434e-17
7.15755e-17
7.20933e-17
7.13288e-17
7.11801e-17
7.06542e-17
6.96119e-17
6.99478e-17
6.76737e-17
6.89371e-17
6.5473e-17
6.75542e-17
6.33666e-17
6.59124e-17
6.15388e-17
6.40922e-17
6.00377e-17
6.21569e-17
5.88537e-17
6.01759e-17
5.78813e-17
5.82197e-17
5.70126e-17
5.6381e-17
5.62283e-17
5.46119e-17
5.55334e-17
5.29349e-17
5.49088e-17
5.16389e-17
5.41288e-17
5.10517e-17
5.30383e-17
5.0882e-17
5.22538e-17
5.08155e-17
5.24504e-17
5.07635e-17
5.43217e-17
4.91761e-17
6.1548e-17
4.25029e-17
7.25456e-17
4.52499e-17
5.85554e-17
8.42635e-17
2.62817e-17
7.58742e-17
8.02134e-17
8.4104e-17
6.30362e-17
6.68868e-17
7.75417e-17
7.94675e-17
7.99841e-17
7.70611e-17
7.52507e-17
7.24279e-17
7.21273e-17
7.10744e-17
7.183e-17
7.12246e-17
7.17363e-17
7.10398e-17
7.0881e-17
7.04163e-17
6.93683e-17
6.97412e-17
6.74832e-17
6.87531e-17
6.53358e-17
6.73898e-17
6.32764e-17
6.57649e-17
6.14826e-17
6.39604e-17
6.00036e-17
6.20422e-17
5.88317e-17
6.00789e-17
5.78632e-17
5.81407e-17
5.6994e-17
5.63177e-17
5.62073e-17
5.45622e-17
5.5506e-17
5.2901e-17
5.48654e-17
5.16204e-17
5.40669e-17
5.10362e-17
5.29666e-17
5.08504e-17
5.21743e-17
5.07509e-17
5.23549e-17
5.06379e-17
5.41703e-17
4.90451e-17
6.10409e-17
4.27558e-17
7.10459e-17
4.6124e-17
5.65708e-17
8.32862e-17
2.73375e-17
7.03793e-17
7.76673e-17
7.89291e-17
6.09319e-17
6.54755e-17
7.59547e-17
7.81098e-17
7.88294e-17
7.61614e-17
7.45384e-17
7.18876e-17
7.16476e-17
7.06675e-17
7.1423e-17
7.08789e-17
7.13843e-17
7.07542e-17
7.05856e-17
7.01804e-17
6.91277e-17
6.95359e-17
6.7295e-17
6.85699e-17
6.52002e-17
6.72258e-17
6.31871e-17
6.56177e-17
6.14269e-17
6.38291e-17
5.99695e-17
6.1928e-17
5.88095e-17
5.99826e-17
5.78447e-17
5.80625e-17
5.69747e-17
5.62555e-17
5.61856e-17
5.45137e-17
5.54778e-17
5.28683e-17
5.48215e-17
5.16033e-17
5.40048e-17
5.10222e-17
5.2895e-17
5.0821e-17
5.20953e-17
5.06899e-17
5.22594e-17
5.05208e-17
5.40164e-17
4.89314e-17
6.05399e-17
4.3017e-17
6.96197e-17
4.69421e-17
5.47988e-17
8.22468e-17
2.8391e-17
6.58006e-17
7.53382e-17
7.43029e-17
5.89874e-17
6.41475e-17
7.44435e-17
7.68067e-17
7.77141e-17
7.52879e-17
7.38425e-17
7.13582e-17
7.11763e-17
7.02675e-17
7.10225e-17
7.05385e-17
7.10374e-17
7.0472e-17
7.02941e-17
6.99465e-17
6.88902e-17
6.93318e-17
6.71094e-17
6.83874e-17
6.50664e-17
6.70623e-17
6.30989e-17
6.54709e-17
6.13717e-17
6.36983e-17
5.99354e-17
6.18145e-17
5.87871e-17
5.98871e-17
5.78258e-17
5.79852e-17
5.69548e-17
5.61942e-17
5.61632e-17
5.44663e-17
5.5449e-17
5.28369e-17
5.47772e-17
5.15875e-17
5.39425e-17
5.10096e-17
5.28236e-17
5.07935e-17
5.20169e-17
5.06322e-17
5.21641e-17
5.0412e-17
5.38604e-17
4.88337e-17
6.00459e-17
4.32839e-17
6.82652e-17
4.77011e-17
5.32206e-17
8.11509e-17
2.94357e-17
6.20119e-17
7.32048e-17
7.01733e-17
5.71913e-17
6.28979e-17
7.30053e-17
7.55562e-17
7.66368e-17
7.44397e-17
7.31629e-17
7.08395e-17
7.07133e-17
6.98743e-17
7.06285e-17
7.02032e-17
7.06956e-17
7.01932e-17
7.00064e-17
6.97147e-17
6.86558e-17
6.91291e-17
6.69261e-17
6.82058e-17
6.49343e-17
6.68995e-17
6.30117e-17
6.53247e-17
6.13169e-17
6.35682e-17
5.99014e-17
6.17019e-17
5.87644e-17
5.97926e-17
5.78066e-17
5.79089e-17
5.69345e-17
5.61341e-17
5.61402e-17
5.44201e-17
5.54195e-17
5.28068e-17
5.47323e-17
5.1573e-17
5.388e-17
5.09985e-17
5.27524e-17
5.07681e-17
5.19391e-17
5.05779e-17
5.2069e-17
5.03112e-17
5.37026e-17
4.87508e-17
5.95599e-17
4.35543e-17
6.69802e-17
4.83994e-17
5.18186e-17
8.0005e-17
3.0466e-17
5.88979e-17
7.12478e-17
6.64914e-17
5.55326e-17
6.17214e-17
7.16376e-17
7.43563e-17
7.5596e-17
7.3616e-17
7.2499e-17
7.03313e-17
7.02586e-17
6.94879e-17
7.02408e-17
6.98731e-17
7.03589e-17
6.99179e-17
6.97226e-17
6.94851e-17
6.84244e-17
6.89278e-17
6.67454e-17
6.80252e-17
6.48039e-17
6.67374e-17
6.29256e-17
6.51792e-17
6.12627e-17
6.34389e-17
5.98674e-17
6.15901e-17
5.87416e-17
5.9699e-17
5.7787e-17
5.78336e-17
5.69138e-17
5.6075e-17
5.61167e-17
5.4375e-17
5.53895e-17
5.2778e-17
5.46872e-17
5.15598e-17
5.38175e-17
5.09888e-17
5.26814e-17
5.07446e-17
5.18619e-17
5.05268e-17
5.19743e-17
5.02178e-17
5.35436e-17
4.86816e-17
5.90825e-17
4.38261e-17
6.57626e-17
4.90358e-17
5.05762e-17
7.88167e-17
3.14762e-17
5.63543e-17
6.945e-17
6.32124e-17
5.40005e-17
6.06131e-17
7.03376e-17
7.32051e-17
7.45905e-17
7.28161e-17
7.18505e-17
6.98333e-17
6.98119e-17
6.91082e-17
6.98595e-17
6.95479e-17
7.00271e-17
6.9646e-17
6.94427e-17
6.92575e-17
6.81962e-17
6.8728e-17
6.65672e-17
6.78457e-17
6.46752e-17
6.65761e-17
6.28406e-17
6.50345e-17
6.1209e-17
6.33104e-17
5.98336e-17
6.14794e-17
5.87186e-17
5.96064e-17
5.77672e-17
5.77594e-17
5.68926e-17
5.6017e-17
5.60926e-17
5.43312e-17
5.53591e-17
5.27505e-17
5.46417e-17
5.15478e-17
5.3755e-17
5.09805e-17
5.26107e-17
5.0723e-17
5.17853e-17
5.04788e-17
5.18799e-17
5.01317e-17
5.33836e-17
4.8625e-17
5.86144e-17
4.40973e-17
6.46098e-17
4.961e-17
4.94783e-17
7.7594e-17
3.24616e-17
5.42882e-17
6.77953e-17
6.02946e-17
5.25855e-17
5.9569e-17
6.91029e-17
7.2101e-17
7.3619e-17
7.20393e-17
7.12171e-17
6.93455e-17
6.93733e-17
6.87349e-17
6.94844e-17
6.92277e-17
6.97004e-17
6.93774e-17
6.91666e-17
6.9032e-17
6.79711e-17
6.85297e-17
6.63914e-17
6.76673e-17
6.45482e-17
6.64157e-17
6.27566e-17
6.48907e-17
6.11557e-17
6.31829e-17
5.97998e-17
6.13696e-17
5.86955e-17
5.95148e-17
5.77471e-17
5.76862e-17
5.68711e-17
5.59601e-17
5.60681e-17
5.42886e-17
5.53281e-17
5.27242e-17
5.4596e-17
5.15372e-17
5.36925e-17
5.09736e-17
5.25404e-17
5.07032e-17
5.17094e-17
5.04339e-17
5.17859e-17
5.00524e-17
5.32231e-17
4.85799e-17
5.8156e-17
4.43664e-17
6.35195e-17
5.01223e-17
4.85108e-17
7.63448e-17
3.34175e-17
5.26178e-17
6.6269e-17
5.77006e-17
5.12787e-17
5.85853e-17
6.7931e-17
7.10421e-17
7.26802e-17
7.12848e-17
7.05985e-17
6.88675e-17
6.89425e-17
6.83681e-17
6.91154e-17
6.89124e-17
6.93786e-17
6.91122e-17
6.88944e-17
6.88087e-17
6.7749e-17
6.83329e-17
6.62181e-17
6.74901e-17
6.44229e-17
6.62564e-17
6.26736e-17
6.47478e-17
6.1103e-17
6.30564e-17
5.97661e-17
6.1261e-17
5.86722e-17
5.94242e-17
5.77268e-17
5.76141e-17
5.68493e-17
5.59043e-17
5.60433e-17
5.42472e-17
5.52968e-17
5.26992e-17
5.455e-17
5.15278e-17
5.36301e-17
5.0968e-17
5.24705e-17
5.06853e-17
5.16341e-17
5.03919e-17
5.16926e-17
4.99797e-17
5.30623e-17
4.85453e-17
5.77079e-17
4.46316e-17
6.24892e-17
5.05737e-17
4.76606e-17
7.50765e-17
3.43404e-17
5.12717e-17
6.48581e-17
5.53971e-17
5.00718e-17
5.76581e-17
6.68195e-17
7.00269e-17
7.17732e-17
7.05519e-17
6.99941e-17
6.83992e-17
6.85194e-17
6.80074e-17
6.87524e-17
6.86019e-17
6.90616e-17
6.88503e-17
6.86259e-17
6.85876e-17
6.75299e-17
6.81376e-17
6.60472e-17
6.73142e-17
6.42993e-17
6.6098e-17
6.25916e-17
6.46058e-17
6.10508e-17
6.29309e-17
5.97326e-17
6.11534e-17
5.86488e-17
5.93348e-17
5.77063e-17
5.75431e-17
5.68272e-17
5.58497e-17
5.6018e-17
5.42069e-17
5.52651e-17
5.26754e-17
5.45038e-17
5.15196e-17
5.35677e-17
5.09638e-17
5.2401e-17
5.06692e-17
5.15596e-17
5.03527e-17
5.15998e-17
4.99131e-17
5.29016e-17
4.85202e-17
5.72705e-17
4.48915e-17
6.15163e-17
5.09656e-17
4.69162e-17
7.37963e-17
3.52265e-17
5.01881e-17
6.35511e-17
5.3354e-17
4.89572e-17
5.67838e-17
6.57659e-17
6.90538e-17
7.08968e-17
6.984e-17
6.94038e-17
6.79403e-17
6.81039e-17
6.76529e-17
6.83953e-17
6.8296e-17
6.87493e-17
6.85916e-17
6.83611e-17
6.83685e-17
6.73139e-17
6.79439e-17
6.58786e-17
6.71395e-17
6.41772e-17
6.59407e-17
6.25106e-17
6.44648e-17
6.0999e-17
6.28065e-17
5.96991e-17
6.10469e-17
5.86253e-17
5.92464e-17
5.76856e-17
5.74731e-17
5.68049e-17
5.57962e-17
5.59924e-17
5.41679e-17
5.52331e-17
5.26528e-17
5.44575e-17
5.15126e-17
5.35056e-17
5.09608e-17
5.2332e-17
5.06548e-17
5.14859e-17
5.03163e-17
5.15078e-17
4.98523e-17
5.27414e-17
4.85036e-17
5.68439e-17
4.51449e-17
6.05983e-17
5.12997e-17
4.62669e-17
7.25109e-17
3.60734e-17
4.93138e-17
6.23371e-17
5.15443e-17
4.7928e-17
5.59593e-17
6.47682e-17
6.81214e-17
7.00499e-17
6.91485e-17
6.88271e-17
6.74907e-17
6.76959e-17
6.73044e-17
6.80439e-17
6.79948e-17
6.84418e-17
6.83362e-17
6.81001e-17
6.81515e-17
6.71007e-17
6.77517e-17
6.57124e-17
6.6966e-17
6.40568e-17
6.57844e-17
6.24306e-17
6.43249e-17
6.09477e-17
6.26831e-17
5.96658e-17
6.09416e-17
5.86018e-17
5.91591e-17
5.76648e-17
5.74043e-17
5.67823e-17
5.57439e-17
5.59665e-17
5.413e-17
5.52008e-17
5.26314e-17
5.44111e-17
5.15068e-17
5.34435e-17
5.09591e-17
5.22634e-17
5.06421e-17
5.14129e-17
5.02824e-17
5.14166e-17
4.9797e-17
5.25819e-17
4.84947e-17
5.64285e-17
4.53907e-17
5.97328e-17
5.15783e-17
4.57031e-17
7.12262e-17
3.68784e-17
4.86032e-17
6.12064e-17
4.99439e-17
4.69779e-17
5.51816e-17
6.38239e-17
6.72282e-17
6.92316e-17
6.84767e-17
6.82638e-17
6.70502e-17
6.72952e-17
6.69617e-17
6.76982e-17
6.7698e-17
6.81388e-17
6.80839e-17
6.78426e-17
6.79366e-17
6.68905e-17
6.75611e-17
6.55485e-17
6.67938e-17
6.39379e-17
6.56293e-17
6.23515e-17
6.41859e-17
6.08969e-17
6.25608e-17
5.96326e-17
6.08374e-17
5.85781e-17
5.90729e-17
5.76439e-17
5.73366e-17
5.67596e-17
5.56926e-17
5.59403e-17
5.40933e-17
5.51682e-17
5.26111e-17
5.43646e-17
5.15022e-17
5.33817e-17
5.09586e-17
5.21954e-17
5.0631e-17
5.13408e-17
5.02511e-17
5.13263e-17
4.97469e-17
5.24233e-17
4.84925e-17
5.60243e-17
4.56279e-17
5.89172e-17
5.18038e-17
4.52161e-17
6.99474e-17
3.76399e-17
4.80177e-17
6.01505e-17
4.85316e-17
4.61013e-17
5.44478e-17
6.2931e-17
6.63729e-17
6.84409e-17
6.7824e-17
6.77135e-17
6.66186e-17
6.69016e-17
6.66248e-17
6.7358e-17
6.74056e-17
6.78404e-17
6.78347e-17
6.75887e-17
6.77237e-17
6.66831e-17
6.73721e-17
6.53868e-17
6.66229e-17
6.38205e-17
6.54753e-17
6.22734e-17
6.40481e-17
6.08466e-17
6.24397e-17
5.95995e-17
6.07343e-17
5.85544e-17
5.89878e-17
5.76228e-17
5.72699e-17
5.67366e-17
5.56425e-17
5.59139e-17
5.40577e-17
5.51355e-17
5.2592e-17
5.43181e-17
5.14986e-17
5.33201e-17
5.09593e-17
5.21279e-17
5.06215e-17