/*--------------------------------*- C++ -*----------------------------------*\
| =========                 |                                                 |
| \\      /  F ield         | OpenFOAM: The Open Source CFD Toolbox           |
|  \\    /   O peration     | Version:  2312                                  |
|   \\  /    A nd           | Website:  www.openfoam.com                      |
|    \\/     M anipulation  |                                                 |
\*---------------------------------------------------------------------------*/
FoamFile
{
    version     2.0;
    format      ascii;
    arch        "LSB;label=32;scalar=64";
    class       volScalarField;
    location    "800";
    object      k;
}
// * * * * * * * * * * * * * * * * * * * * * * * * * * * * * * * * * * * * * //

dimensions      [0 2 -2 0 0 0 0];

internalField   nonuniform List<scalar> 
144000
(
7.72216e-06
7.72096e-06
7.72436e-06
7.72082e-06
7.75192e-06
7.72155e-06
7.75397e-06
7.74952e-06
7.75261e-06
7.7242e-06
7.72298e-06
7.72235e-06
7.72491e-06
7.7229e-06
7.75156e-06
7.75032e-06
7.72236e-06
7.72409e-06
7.72368e-06
7.75147e-06
7.7496e-06
7.7244e-06
7.7236e-06
7.75354e-06
7.7242e-06
7.72216e-06
7.75127e-06
7.72337e-06
7.72205e-06
7.74907e-06
7.71836e-06
7.75368e-06
7.72416e-06
7.75416e-06
7.75031e-06
7.75455e-06
7.7266e-06
7.75505e-06
7.72568e-06
7.72493e-06
7.75374e-06
7.72018e-06
7.72529e-06
7.7233e-06
7.7539e-06
7.75087e-06
7.723e-06
7.72691e-06
7.7228e-06
7.72472e-06
7.72063e-06
7.74925e-06
7.72112e-06
7.72686e-06
7.75055e-06
7.75216e-06
7.72222e-06
7.7248e-06
7.7214e-06
7.72065e-06
1.63086e-05
1.63073e-05
1.63118e-05
1.63104e-05
1.62894e-05
1.63026e-05
1.62919e-05
1.62804e-05
1.62794e-05
1.63001e-05
1.63081e-05
1.63081e-05
1.63115e-05
1.63111e-05
1.6293e-05
1.62813e-05
1.62984e-05
1.6308e-05
1.63123e-05
1.62929e-05
1.62771e-05
1.62977e-05
1.63096e-05
1.62906e-05
1.63043e-05
1.63104e-05
1.62896e-05
1.63036e-05
1.631e-05
1.6288e-05
1.62985e-05
1.62864e-05
1.63038e-05
1.62918e-05
1.6281e-05
1.6281e-05
1.63043e-05
1.62909e-05
1.63037e-05
1.63115e-05
1.6293e-05
1.63006e-05
1.63101e-05
1.63107e-05
1.62945e-05
1.62823e-05
1.62981e-05
1.63119e-05
1.63109e-05
1.63136e-05
1.63117e-05
1.62876e-05
1.62982e-05
1.63134e-05
1.6292e-05
1.62825e-05
1.62987e-05
1.63081e-05
1.63093e-05
1.63079e-05
2.01453e-05
2.01437e-05
2.01465e-05
2.01486e-05
2.01213e-05
2.01354e-05
2.01212e-05
2.01087e-05
2.01019e-05
2.01255e-05
2.01409e-05
2.01424e-05
2.01455e-05
2.01472e-05
2.01265e-05
2.01091e-05
2.01271e-05
2.0139e-05
2.01474e-05
2.01271e-05
2.0104e-05
2.01229e-05
2.01417e-05
2.01192e-05
2.01336e-05
2.01461e-05
2.0121e-05
2.01345e-05
2.01459e-05
2.01212e-05
2.01333e-05
2.01132e-05
2.0133e-05
2.012e-05
2.01083e-05
2.01022e-05
2.01295e-05
2.01164e-05
2.01311e-05
2.0144e-05
2.0123e-05
2.01336e-05
2.01423e-05
2.01459e-05
2.0126e-05
2.01099e-05
2.01257e-05
2.0142e-05
2.01459e-05
2.01488e-05
2.01509e-05
2.01221e-05
2.013e-05
2.01451e-05
2.01253e-05
2.01088e-05
2.01275e-05
2.01388e-05
2.01452e-05
2.01448e-05
2.18413e-05
2.184e-05
2.18405e-05
2.18444e-05
2.18228e-05
2.18308e-05
2.18201e-05
2.18105e-05
2.17997e-05
2.18152e-05
2.18323e-05
2.18361e-05
2.18383e-05
2.18417e-05
2.18278e-05
2.18099e-05
2.18206e-05
2.18302e-05
2.18403e-05
2.18283e-05
2.1806e-05
2.18149e-05
2.18329e-05
2.18171e-05
2.18253e-05
2.18395e-05
2.18213e-05
2.1828e-05
2.18401e-05
2.18228e-05
2.1831e-05
2.18128e-05
2.18255e-05
2.18173e-05
2.18088e-05
2.17988e-05
2.18185e-05
2.18114e-05
2.18214e-05
2.18353e-05
2.18211e-05
2.18287e-05
2.18345e-05
2.18399e-05
2.18258e-05
2.18102e-05
2.18187e-05
2.18316e-05
2.1839e-05
2.18414e-05
2.18469e-05
2.18258e-05
2.18272e-05
2.18363e-05
2.18258e-05
2.18086e-05
2.18208e-05
2.18299e-05
2.1839e-05
2.18397e-05
2.24872e-05
2.24866e-05
2.24854e-05
2.24893e-05
2.24752e-05
2.24785e-05
2.24709e-05
2.24652e-05
2.24537e-05
2.24608e-05
2.24746e-05
2.24803e-05
2.24818e-05
2.24858e-05
2.24786e-05
2.2464e-05
2.24686e-05
2.24741e-05
2.2483e-05
2.24777e-05
2.24624e-05
2.2464e-05
2.24753e-05
2.24669e-05
2.24706e-05
2.24823e-05
2.24722e-05
2.24746e-05
2.24837e-05
2.24743e-05
2.24798e-05
2.2466e-05
2.24718e-05
2.24668e-05
2.24623e-05
2.24519e-05
2.2463e-05
2.24597e-05
2.24655e-05
2.24774e-05
2.247e-05
2.24753e-05
2.24782e-05
2.24841e-05
2.2476e-05
2.24637e-05
2.24668e-05
2.24739e-05
2.24821e-05
2.2484e-05
2.24906e-05
2.2479e-05
2.24767e-05
2.24801e-05
2.24757e-05
2.24626e-05
2.24685e-05
2.24737e-05
2.24824e-05
2.24841e-05
2.26024e-05
2.26027e-05
2.2601e-05
2.2604e-05
2.25957e-05
2.25967e-05
2.25912e-05
2.25881e-05
2.25791e-05
2.25809e-05
2.25883e-05
2.25949e-05
2.2596e-05
2.25998e-05
2.25967e-05
2.25875e-05
2.25884e-05
2.25905e-05
2.25964e-05
2.25949e-05
2.25874e-05
2.25848e-05
2.25905e-05
2.25865e-05
2.25878e-05
2.25957e-05
2.25915e-05
2.25921e-05
2.25979e-05
2.25936e-05
2.25979e-05
2.25887e-05
2.25902e-05
2.25866e-05
2.25845e-05
2.25765e-05
2.25812e-05
2.25792e-05
2.25824e-05
2.25907e-05
2.25879e-05
2.2592e-05
2.25934e-05
2.25983e-05
2.25944e-05
2.25863e-05
2.2587e-05
2.25892e-05
2.25956e-05
2.25972e-05
2.26034e-05
2.25987e-05
2.25962e-05
2.2596e-05
2.25943e-05
2.2586e-05
2.2588e-05
2.25901e-05
2.25962e-05
2.25982e-05
2.24427e-05
2.24442e-05
2.24425e-05
2.24444e-05
2.244e-05
2.24401e-05
2.2436e-05
2.24345e-05
2.24288e-05
2.24277e-05
2.24304e-05
2.24358e-05
2.24366e-05
2.24397e-05
2.24387e-05
2.24342e-05
2.24338e-05
2.24339e-05
2.24367e-05
2.24367e-05
2.24345e-05
2.2431e-05
2.24333e-05
2.24314e-05
2.24316e-05
2.24359e-05
2.2435e-05
2.24352e-05
2.24386e-05
2.24369e-05
2.24405e-05
2.24352e-05
2.24349e-05
2.24316e-05
2.24309e-05
2.24256e-05
2.24268e-05
2.24249e-05
2.24264e-05
2.24314e-05
2.24307e-05
2.24343e-05
2.24349e-05
2.24385e-05
2.24369e-05
2.24327e-05
2.24326e-05
2.24325e-05
2.2436e-05
2.24372e-05
2.2442e-05
2.2441e-05
2.24404e-05
2.24384e-05
2.24377e-05
2.24329e-05
2.24334e-05
2.24337e-05
2.24368e-05
2.24386e-05
2.21365e-05
2.21385e-05
2.21372e-05
2.21383e-05
2.2136e-05
2.2136e-05
2.2133e-05
2.21323e-05
2.21293e-05
2.2127e-05
2.21277e-05
2.21307e-05
2.21312e-05
2.21335e-05
2.21334e-05
2.21318e-05
2.21313e-05
2.21306e-05
2.21315e-05
2.21319e-05
2.21317e-05
2.21297e-05
2.21299e-05
2.21289e-05
2.21286e-05
2.21304e-05
2.21309e-05
2.2131e-05
2.2133e-05
2.21325e-05
2.21355e-05
2.21329e-05
2.21322e-05
2.21292e-05
2.21291e-05
2.21261e-05
2.21258e-05
2.21237e-05
2.21243e-05
2.21267e-05
2.21266e-05
2.21296e-05
2.21299e-05
2.21324e-05
2.21319e-05
2.21303e-05
2.21303e-05
2.21293e-05
2.2131e-05
2.21316e-05
2.21346e-05
2.2135e-05
2.2136e-05
2.2134e-05
2.21337e-05
2.21312e-05
2.21311e-05
2.21306e-05
2.21318e-05
2.2133e-05
2.17483e-05
2.17501e-05
2.17493e-05
2.17499e-05
2.17486e-05
2.17488e-05
2.17466e-05
2.17463e-05
2.1745e-05
2.1743e-05
2.17425e-05
2.17439e-05
2.1744e-05
2.17453e-05
2.17455e-05
2.17453e-05
2.17452e-05
2.17445e-05
2.17445e-05
2.17445e-05
2.17452e-05
2.17444e-05
2.1744e-05
2.1743e-05
2.17428e-05
2.17432e-05
2.1744e-05
2.17441e-05
2.17452e-05
2.17452e-05
2.17474e-05
2.17464e-05
2.1746e-05
2.17437e-05
2.17438e-05
2.17422e-05
2.17416e-05
2.17394e-05
2.17395e-05
2.17404e-05
2.17402e-05
2.17425e-05
2.17426e-05
2.17443e-05
2.17442e-05
2.17439e-05
2.17443e-05
2.17433e-05
2.17441e-05
2.17442e-05
2.17457e-05
2.17463e-05
2.17482e-05
2.17467e-05
2.17466e-05
2.17454e-05
2.17453e-05
2.17446e-05
2.17449e-05
2.17456e-05
2.13108e-05
2.13121e-05
2.13115e-05
2.13118e-05
2.13111e-05
2.13113e-05
2.13098e-05
2.13097e-05
2.13092e-05
2.1308e-05
2.1307e-05
2.13076e-05
2.13074e-05
2.1308e-05
2.1308e-05
2.13082e-05
2.13085e-05
2.13081e-05
2.13078e-05
2.13074e-05
2.13083e-05
2.13081e-05
2.13077e-05
2.13068e-05
2.13068e-05
2.13067e-05
2.13071e-05
2.13072e-05
2.13077e-05
2.13078e-05
2.13095e-05
2.13092e-05
2.13092e-05
2.13077e-05
2.13079e-05
2.1307e-05
2.13065e-05
2.13046e-05
2.13044e-05
2.13045e-05
2.13041e-05
2.13057e-05
2.13058e-05
2.13067e-05
2.13068e-05
2.13069e-05
2.13077e-05
2.13069e-05
2.13073e-05
2.13072e-05
2.13078e-05
2.13083e-05
2.13102e-05
2.13091e-05
2.13092e-05
2.13088e-05
2.13088e-05
2.13084e-05
2.13083e-05
2.13085e-05
2.08406e-05
2.08413e-05
2.08409e-05
2.08409e-05
2.08405e-05
2.08407e-05
2.08397e-05
2.08397e-05
2.08396e-05
2.08391e-05
2.0838e-05
2.08383e-05
2.0838e-05
2.08381e-05
2.0838e-05
2.08382e-05
2.08386e-05
2.08384e-05
2.0838e-05
2.08375e-05
2.08382e-05
2.08383e-05
2.08381e-05
2.08375e-05
2.08375e-05
2.08373e-05
2.08374e-05
2.08374e-05
2.08375e-05
2.08376e-05
2.08389e-05
2.08388e-05
2.0839e-05
2.08381e-05
2.08383e-05
2.0838e-05
2.08376e-05
2.08362e-05
2.0836e-05
2.08358e-05
2.08351e-05
2.08362e-05
2.08361e-05
2.08366e-05
2.08367e-05
2.08369e-05
2.08378e-05
2.08373e-05
2.08375e-05
2.08373e-05
2.08376e-05
2.08378e-05
2.08392e-05
2.08386e-05
2.08387e-05
2.08387e-05
2.08389e-05
2.08387e-05
2.08384e-05
2.08386e-05
2.03466e-05
2.03468e-05
2.03465e-05
2.03464e-05
2.0346e-05
2.03462e-05
2.03455e-05
2.03456e-05
2.03456e-05
2.03454e-05
2.03448e-05
2.03449e-05
2.03445e-05
2.03444e-05
2.03441e-05
2.03443e-05
2.03447e-05
2.03445e-05
2.03443e-05
2.03437e-05
2.03442e-05
2.03444e-05
2.03443e-05
2.03439e-05
2.0344e-05
2.03438e-05
2.03437e-05
2.03437e-05
2.03437e-05
2.03437e-05
2.03445e-05
2.03445e-05
2.03448e-05
2.03442e-05
2.03445e-05
2.03444e-05
2.03442e-05
2.03433e-05
2.03431e-05
2.03428e-05
2.0342e-05
2.03428e-05
2.03427e-05
2.03429e-05
2.03429e-05
2.03431e-05
2.03439e-05
2.03436e-05
2.03438e-05
2.03436e-05
2.03437e-05
2.03437e-05
2.03447e-05
2.03443e-05
2.03444e-05
2.03445e-05
2.03448e-05
2.03447e-05
2.03446e-05
2.03447e-05
1.98338e-05
1.98338e-05
1.98335e-05
1.98333e-05
1.98329e-05
1.9833e-05
1.98325e-05
1.98327e-05
1.98327e-05
1.98326e-05
1.98323e-05
1.98324e-05
1.98321e-05
1.98319e-05
1.98315e-05
1.98316e-05
1.98319e-05
1.98318e-05
1.98316e-05
1.98311e-05
1.98315e-05
1.98317e-05
1.98317e-05
1.98314e-05
1.98315e-05
1.98313e-05
1.98312e-05
1.98312e-05
1.98311e-05
1.9831e-05
1.98316e-05
1.98316e-05
1.98318e-05
1.98314e-05
1.98317e-05
1.98317e-05
1.98316e-05
1.98311e-05
1.9831e-05
1.98307e-05
1.98301e-05
1.98306e-05
1.98305e-05
1.98305e-05
1.98305e-05
1.98306e-05
1.98312e-05
1.9831e-05
1.98311e-05
1.9831e-05
1.98309e-05
1.98309e-05
1.98316e-05
1.98314e-05
1.98313e-05
1.98315e-05
1.98318e-05
1.98318e-05
1.98318e-05
1.98318e-05
1.93052e-05
1.93052e-05
1.93049e-05
1.93047e-05
1.93042e-05
1.93043e-05
1.93039e-05
1.93041e-05
1.93041e-05
1.93041e-05
1.93039e-05
1.93041e-05
1.93038e-05
1.93036e-05
1.93033e-05
1.93033e-05
1.93036e-05
1.93035e-05
1.93033e-05
1.93029e-05
1.93032e-05
1.93033e-05
1.93033e-05
1.93032e-05
1.93033e-05
1.93032e-05
1.9303e-05
1.9303e-05
1.93029e-05
1.93027e-05
1.93031e-05
1.93031e-05
1.93033e-05
1.9303e-05
1.93033e-05
1.93033e-05
1.93033e-05
1.9303e-05
1.93029e-05
1.93028e-05
1.93023e-05
1.93026e-05
1.93025e-05
1.93025e-05
1.93023e-05
1.93024e-05
1.93029e-05
1.93028e-05
1.93028e-05
1.93027e-05
1.93026e-05
1.93026e-05
1.93031e-05
1.93029e-05
1.93028e-05
1.93029e-05
1.93032e-05
1.93032e-05
1.93032e-05
1.93033e-05
1.87632e-05
1.87632e-05
1.87629e-05
1.87627e-05
1.87622e-05
1.87623e-05
1.8762e-05
1.87621e-05
1.87621e-05
1.87621e-05
1.8762e-05
1.87622e-05
1.8762e-05
1.87618e-05
1.87616e-05
1.87615e-05
1.87618e-05
1.87617e-05
1.87615e-05
1.87612e-05
1.87614e-05
1.87615e-05
1.87615e-05
1.87614e-05
1.87615e-05
1.87615e-05
1.87613e-05
1.87613e-05
1.87612e-05
1.8761e-05
1.87613e-05
1.87613e-05
1.87614e-05
1.87612e-05
1.87614e-05
1.87614e-05
1.87615e-05
1.87613e-05
1.87613e-05
1.87612e-05
1.87609e-05
1.87611e-05
1.8761e-05
1.8761e-05
1.87608e-05
1.87608e-05
1.87612e-05
1.87611e-05
1.87611e-05
1.87611e-05
1.87609e-05
1.87608e-05
1.87613e-05
1.87611e-05
1.8761e-05
1.87611e-05
1.87613e-05
1.87613e-05
1.87613e-05
1.87614e-05
1.82095e-05
1.82095e-05
1.82093e-05
1.8209e-05
1.82086e-05
1.82086e-05
1.82084e-05
1.82084e-05
1.82084e-05
1.82084e-05
1.82084e-05
1.82086e-05
1.82085e-05
1.82083e-05
1.82081e-05
1.8208e-05
1.82082e-05
1.82082e-05
1.82081e-05
1.82078e-05
1.82079e-05
1.8208e-05
1.8208e-05
1.8208e-05
1.82081e-05
1.8208e-05
1.82079e-05
1.82079e-05
1.82078e-05
1.82076e-05
1.82078e-05
1.82078e-05
1.82079e-05
1.82077e-05
1.82078e-05
1.82078e-05
1.82079e-05
1.82078e-05
1.82079e-05
1.82079e-05
1.82076e-05
1.82078e-05
1.82077e-05
1.82076e-05
1.82075e-05
1.82074e-05
1.82078e-05
1.82077e-05
1.82077e-05
1.82077e-05
1.82075e-05
1.82074e-05
1.82078e-05
1.82077e-05
1.82075e-05
1.82076e-05
1.82077e-05
1.82077e-05
1.82077e-05
1.82078e-05
1.76457e-05
1.76457e-05
1.76455e-05
1.76453e-05
1.76449e-05
1.76448e-05
1.76446e-05
1.76446e-05
1.76447e-05
1.76447e-05
1.76447e-05
1.76448e-05
1.76447e-05
1.76446e-05
1.76444e-05
1.76444e-05
1.76446e-05
1.76445e-05
1.76444e-05
1.76442e-05
1.76443e-05
1.76444e-05
1.76444e-05
1.76444e-05
1.76444e-05
1.76444e-05
1.76443e-05
1.76443e-05
1.76442e-05
1.7644e-05
1.76442e-05
1.76441e-05
1.76442e-05
1.76441e-05
1.76442e-05
1.76442e-05
1.76443e-05
1.76442e-05
1.76442e-05
1.76442e-05
1.76441e-05
1.76442e-05
1.76442e-05
1.76441e-05
1.76439e-05
1.76439e-05
1.76442e-05
1.76442e-05
1.76442e-05
1.76441e-05
1.7644e-05
1.76439e-05
1.76442e-05
1.76441e-05
1.76439e-05
1.7644e-05
1.76441e-05
1.76441e-05
1.76441e-05
1.76441e-05
1.70733e-05
1.70733e-05
1.70731e-05
1.70729e-05
1.70725e-05
1.70725e-05
1.70723e-05
1.70722e-05
1.70723e-05
1.70723e-05
1.70723e-05
1.70724e-05
1.70724e-05
1.70723e-05
1.70721e-05
1.70721e-05
1.70722e-05
1.70722e-05
1.70721e-05
1.70719e-05
1.7072e-05
1.70721e-05
1.70721e-05
1.70721e-05
1.70722e-05
1.70721e-05
1.7072e-05
1.7072e-05
1.70719e-05
1.70717e-05
1.70719e-05
1.70719e-05
1.70719e-05
1.70718e-05
1.70719e-05
1.70719e-05
1.7072e-05
1.70719e-05
1.70719e-05
1.70719e-05
1.70718e-05
1.7072e-05
1.7072e-05
1.70719e-05
1.70718e-05
1.70717e-05
1.7072e-05
1.7072e-05
1.7072e-05
1.70719e-05
1.70718e-05
1.70717e-05
1.70719e-05
1.70718e-05
1.70717e-05
1.70718e-05
1.70718e-05
1.70718e-05
1.70718e-05
1.70718e-05
1.64939e-05
1.64938e-05
1.64937e-05
1.64935e-05
1.64932e-05
1.64931e-05
1.64929e-05
1.64929e-05
1.64929e-05
1.64929e-05
1.64929e-05
1.6493e-05
1.6493e-05
1.64929e-05
1.64928e-05
1.64927e-05
1.64929e-05
1.64928e-05
1.64928e-05
1.64926e-05
1.64927e-05
1.64928e-05
1.64928e-05
1.64927e-05
1.64928e-05
1.64928e-05
1.64927e-05
1.64927e-05
1.64925e-05
1.64924e-05
1.64925e-05
1.64925e-05
1.64926e-05
1.64925e-05
1.64925e-05
1.64925e-05
1.64926e-05
1.64925e-05
1.64926e-05
1.64926e-05
1.64925e-05
1.64926e-05
1.64926e-05
1.64926e-05
1.64925e-05
1.64925e-05
1.64927e-05
1.64927e-05
1.64927e-05
1.64926e-05
1.64925e-05
1.64924e-05
1.64926e-05
1.64925e-05
1.64924e-05
1.64925e-05
1.64925e-05
1.64925e-05
1.64925e-05
1.64925e-05
1.59091e-05
1.59091e-05
1.59089e-05
1.59088e-05
1.59085e-05
1.59084e-05
1.59082e-05
1.59082e-05
1.59082e-05
1.59082e-05
1.59082e-05
1.59083e-05
1.59083e-05
1.59082e-05
1.59081e-05
1.59081e-05
1.59082e-05
1.59082e-05
1.59081e-05
1.5908e-05
1.59081e-05
1.59081e-05
1.59081e-05
1.59081e-05
1.59081e-05
1.59081e-05
1.59081e-05
1.5908e-05
1.59079e-05
1.59077e-05
1.59078e-05
1.59078e-05
1.59079e-05
1.59078e-05
1.59079e-05
1.59079e-05
1.59079e-05
1.59079e-05
1.59079e-05
1.59079e-05
1.59079e-05
1.5908e-05
1.5908e-05
1.5908e-05
1.59079e-05
1.59079e-05
1.59081e-05
1.5908e-05
1.5908e-05
1.5908e-05
1.59079e-05
1.59078e-05
1.59079e-05
1.59079e-05
1.59078e-05
1.59078e-05
1.59079e-05
1.59079e-05
1.59079e-05
1.59079e-05
1.53211e-05
1.53211e-05
1.53209e-05
1.53208e-05
1.53205e-05
1.53205e-05
1.53203e-05
1.53203e-05
1.53203e-05
1.53203e-05
1.53203e-05
1.53204e-05
1.53204e-05
1.53203e-05
1.53202e-05
1.53202e-05
1.53202e-05
1.53202e-05
1.53202e-05
1.53201e-05
1.53202e-05
1.53202e-05
1.53202e-05
1.53202e-05
1.53202e-05
1.53202e-05
1.53202e-05
1.53201e-05
1.532e-05
1.53199e-05
1.532e-05
1.532e-05
1.532e-05
1.532e-05
1.532e-05
1.532e-05
1.532e-05
1.532e-05
1.532e-05
1.532e-05
1.532e-05
1.53201e-05
1.53201e-05
1.53201e-05
1.53201e-05
1.53201e-05
1.53202e-05
1.53202e-05
1.53202e-05
1.53201e-05
1.532e-05
1.53199e-05
1.532e-05
1.532e-05
1.532e-05
1.532e-05
1.532e-05
1.532e-05
1.532e-05
1.532e-05
1.47325e-05
1.47325e-05
1.47324e-05
1.47323e-05
1.47321e-05
1.4732e-05
1.47319e-05
1.47318e-05
1.47319e-05
1.47319e-05
1.47319e-05
1.47319e-05
1.47319e-05
1.47319e-05
1.47318e-05
1.47317e-05
1.47318e-05
1.47318e-05
1.47318e-05
1.47317e-05
1.47317e-05
1.47318e-05
1.47318e-05
1.47318e-05
1.47318e-05
1.47318e-05
1.47318e-05
1.47317e-05
1.47316e-05
1.47315e-05
1.47315e-05
1.47315e-05
1.47316e-05
1.47316e-05
1.47315e-05
1.47316e-05
1.47316e-05
1.47316e-05
1.47316e-05
1.47316e-05
1.47316e-05
1.47316e-05
1.47316e-05
1.47317e-05
1.47317e-05
1.47317e-05
1.47318e-05
1.47318e-05
1.47317e-05
1.47317e-05
1.47316e-05
1.47315e-05
1.47316e-05
1.47316e-05
1.47316e-05
1.47315e-05
1.47316e-05
1.47316e-05
1.47316e-05
1.47316e-05
1.41473e-05
1.41473e-05
1.41472e-05
1.41471e-05
1.41469e-05
1.41469e-05
1.41468e-05
1.41467e-05
1.41467e-05
1.41467e-05
1.41467e-05
1.41468e-05
1.41468e-05
1.41468e-05
1.41467e-05
1.41466e-05
1.41467e-05
1.41467e-05
1.41467e-05
1.41466e-05
1.41466e-05
1.41467e-05
1.41467e-05
1.41467e-05
1.41467e-05
1.41467e-05
1.41466e-05
1.41466e-05
1.41465e-05
1.41464e-05
1.41465e-05
1.41464e-05
1.41465e-05
1.41464e-05
1.41465e-05
1.41465e-05
1.41465e-05
1.41465e-05
1.41465e-05
1.41465e-05
1.41465e-05
1.41465e-05
1.41465e-05
1.41465e-05
1.41466e-05
1.41466e-05
1.41466e-05
1.41466e-05
1.41466e-05
1.41466e-05
1.41465e-05
1.41464e-05
1.41465e-05
1.41465e-05
1.41465e-05
1.41465e-05
1.41465e-05
1.41465e-05
1.41465e-05
1.41465e-05
1.35713e-05
1.35713e-05
1.35712e-05
1.35712e-05
1.3571e-05
1.3571e-05
1.35709e-05
1.35708e-05
1.35708e-05
1.35708e-05
1.35708e-05
1.35709e-05
1.35709e-05
1.35709e-05
1.35708e-05
1.35708e-05
1.35708e-05
1.35708e-05
1.35708e-05
1.35707e-05
1.35707e-05
1.35708e-05
1.35708e-05
1.35708e-05
1.35708e-05
1.35708e-05
1.35708e-05
1.35707e-05
1.35706e-05
1.35706e-05
1.35706e-05
1.35706e-05
1.35706e-05
1.35706e-05
1.35706e-05
1.35706e-05
1.35706e-05
1.35706e-05
1.35706e-05
1.35707e-05
1.35706e-05
1.35707e-05
1.35707e-05
1.35707e-05
1.35707e-05
1.35707e-05
1.35707e-05
1.35707e-05
1.35707e-05
1.35707e-05
1.35706e-05
1.35706e-05
1.35707e-05
1.35707e-05
1.35706e-05
1.35706e-05
1.35707e-05
1.35707e-05
1.35707e-05
1.35707e-05
1.30142e-05
1.30142e-05
1.30141e-05
1.30141e-05
1.30139e-05
1.30139e-05
1.30138e-05
1.30138e-05
1.30138e-05
1.30138e-05
1.30138e-05
1.30138e-05
1.30138e-05
1.30138e-05
1.30138e-05
1.30137e-05
1.30138e-05
1.30138e-05
1.30138e-05
1.30137e-05
1.30137e-05
1.30138e-05
1.30138e-05
1.30138e-05
1.30138e-05
1.30138e-05
1.30137e-05
1.30137e-05
1.30136e-05
1.30136e-05
1.30136e-05
1.30136e-05
1.30136e-05
1.30136e-05
1.30136e-05
1.30136e-05
1.30136e-05
1.30136e-05
1.30136e-05
1.30136e-05
1.30136e-05
1.30137e-05
1.30137e-05
1.30137e-05
1.30137e-05
1.30137e-05
1.30137e-05
1.30137e-05
1.30137e-05
1.30137e-05
1.30136e-05
1.30136e-05
1.30137e-05
1.30137e-05
1.30136e-05
1.30136e-05
1.30137e-05
1.30137e-05
1.30137e-05
1.30137e-05
7.75218e-06
7.72238e-06
7.7256e-06
7.72051e-06
7.72196e-06
7.72094e-06
7.7513e-06
7.75024e-06
7.72746e-06
7.72365e-06
7.7536e-06
7.72327e-06
7.75426e-06
7.7516e-06
7.72651e-06
7.72489e-06
7.75307e-06
7.72512e-06
7.72418e-06
7.75291e-06
7.7495e-06
7.75525e-06
7.72456e-06
7.72517e-06
7.72318e-06
7.71995e-06
7.7225e-06
7.71997e-06
7.75242e-06
7.7196e-06
7.75116e-06
7.72292e-06
7.72326e-06
7.75152e-06
7.75272e-06
7.72521e-06
7.7282e-06
7.72096e-06
7.75387e-06
7.71943e-06
7.75641e-06
7.72143e-06
7.75555e-06
7.72e-06
7.72235e-06
7.72161e-06
7.72045e-06
7.72071e-06
7.72297e-06
7.72439e-06
7.7494e-06
7.75251e-06
7.72269e-06
7.75487e-06
7.72351e-06
7.72674e-06
7.75287e-06
7.75512e-06
7.72549e-06
7.75443e-06
1.62832e-05
1.62986e-05
1.63121e-05
1.63104e-05
1.63091e-05
1.63096e-05
1.62923e-05
1.62767e-05
1.63011e-05
1.63113e-05
1.62912e-05
1.63049e-05
1.62933e-05
1.62808e-05
1.63017e-05
1.63123e-05
1.62909e-05
1.63052e-05
1.63131e-05
1.62947e-05
1.62793e-05
1.62807e-05
1.6301e-05
1.63101e-05
1.63121e-05
1.63092e-05
1.63096e-05
1.63087e-05
1.62904e-05
1.63011e-05
1.62856e-05
1.62998e-05
1.63101e-05
1.62908e-05
1.62801e-05
1.62986e-05
1.63149e-05
1.6311e-05
1.62919e-05
1.63012e-05
1.62904e-05
1.63021e-05
1.62916e-05
1.63008e-05
1.6307e-05
1.63081e-05
1.63076e-05
1.63079e-05
1.63092e-05
1.63144e-05
1.62917e-05
1.62802e-05
1.63005e-05
1.62899e-05
1.6301e-05
1.63136e-05
1.62935e-05
1.62848e-05
1.63051e-05
1.62928e-05
2.01097e-05
2.01266e-05
2.01434e-05
2.01485e-05
2.01464e-05
2.01473e-05
2.01272e-05
2.01028e-05
2.01243e-05
2.01442e-05
2.01206e-05
2.01363e-05
2.01231e-05
2.01065e-05
2.01263e-05
2.01451e-05
2.01206e-05
2.01345e-05
2.01477e-05
2.01281e-05
2.01085e-05
2.01014e-05
2.01261e-05
2.01408e-05
2.01473e-05
2.01479e-05
2.01467e-05
2.01468e-05
2.0122e-05
2.01355e-05
2.0115e-05
2.01287e-05
2.01439e-05
2.01232e-05
2.01047e-05
2.01227e-05
2.0144e-05
2.0148e-05
2.01228e-05
2.01355e-05
2.01167e-05
2.01333e-05
2.01181e-05
2.01331e-05
2.01408e-05
2.01439e-05
2.01445e-05
2.01452e-05
2.01445e-05
2.01501e-05
2.01279e-05
2.01058e-05
2.01291e-05
2.01159e-05
2.01293e-05
2.01454e-05
2.01254e-05
2.0109e-05
2.01329e-05
2.01207e-05
2.18087e-05
2.18193e-05
2.18331e-05
2.18434e-05
2.18425e-05
2.18435e-05
2.18303e-05
2.18052e-05
2.18147e-05
2.18349e-05
2.18188e-05
2.18295e-05
2.18215e-05
2.18061e-05
2.18163e-05
2.18361e-05
2.18192e-05
2.18266e-05
2.18399e-05
2.18282e-05
2.1812e-05
2.17985e-05
2.18155e-05
2.18305e-05
2.18392e-05
2.18441e-05
2.18427e-05
2.18436e-05
2.18231e-05
2.18321e-05
2.18159e-05
2.18224e-05
2.18364e-05
2.18239e-05
2.18046e-05
2.18137e-05
2.18309e-05
2.1842e-05
2.18224e-05
2.18315e-05
2.18148e-05
2.18269e-05
2.18148e-05
2.18269e-05
2.18342e-05
2.18387e-05
2.184e-05
2.18416e-05
2.18397e-05
2.18437e-05
2.1831e-05
2.18069e-05
2.18221e-05
2.18126e-05
2.18211e-05
2.18359e-05
2.18247e-05
2.1807e-05
2.18238e-05
2.1817e-05
2.24611e-05
2.24664e-05
2.24748e-05
2.24865e-05
2.24875e-05
2.2489e-05
2.24819e-05
2.2463e-05
2.24634e-05
2.24762e-05
2.24682e-05
2.24748e-05
2.24707e-05
2.24601e-05
2.24632e-05
2.24774e-05
2.24689e-05
2.24721e-05
2.2482e-05
2.24772e-05
2.24679e-05
2.24527e-05
2.24611e-05
2.24725e-05
2.24806e-05
2.24884e-05
2.24881e-05
2.24898e-05
2.24755e-05
2.24802e-05
2.24693e-05
2.24709e-05
2.24797e-05
2.24742e-05
2.24597e-05
2.2462e-05
2.24704e-05
2.24845e-05
2.24725e-05
2.24787e-05
2.24662e-05
2.24734e-05
2.24646e-05
2.24727e-05
2.24785e-05
2.24834e-05
2.24852e-05
2.24877e-05
2.24857e-05
2.24875e-05
2.24817e-05
2.24631e-05
2.24697e-05
2.2463e-05
2.24673e-05
2.24777e-05
2.24734e-05
2.24599e-05
2.24688e-05
2.24653e-05
2.2583e-05
2.25856e-05
2.25895e-05
2.25987e-05
2.26017e-05
2.26038e-05
2.26006e-05
2.259e-05
2.25842e-05
2.2591e-05
2.25874e-05
2.25913e-05
2.25893e-05
2.25836e-05
2.25828e-05
2.25908e-05
2.25878e-05
2.25891e-05
2.25953e-05
2.25939e-05
2.25904e-05
2.25787e-05
2.2581e-05
2.25871e-05
2.25931e-05
2.26016e-05
2.26023e-05
2.2605e-05
2.25961e-05
2.25983e-05
2.25917e-05
2.25906e-05
2.25948e-05
2.25929e-05
2.25845e-05
2.25831e-05
2.25853e-05
2.25964e-05
2.25908e-05
2.25956e-05
2.25872e-05
2.25913e-05
2.25848e-05
2.25897e-05
2.25936e-05
2.25982e-05
2.26e-05
2.2603e-05
2.26018e-05
2.26019e-05
2.25998e-05
2.2588e-05
2.25894e-05
2.25842e-05
2.25859e-05
2.25914e-05
2.25906e-05
2.25827e-05
2.25862e-05
2.25839e-05
2.24293e-05
2.2431e-05
2.24321e-05
2.24374e-05
2.24411e-05
2.24438e-05
2.24426e-05
2.24385e-05
2.24312e-05
2.24338e-05
2.24318e-05
2.24341e-05
2.24329e-05
2.24309e-05
2.24284e-05
2.24323e-05
2.24316e-05
2.24323e-05
2.24356e-05
2.24355e-05
2.24352e-05
2.24286e-05
2.24279e-05
2.24298e-05
2.24332e-05
2.24403e-05
2.24417e-05
2.24452e-05
2.24402e-05
2.24413e-05
2.24378e-05
2.24357e-05
2.24371e-05
2.24365e-05
2.24325e-05
2.24302e-05
2.24288e-05
2.24357e-05
2.24336e-05
2.24377e-05
2.24325e-05
2.2435e-05
2.24303e-05
2.24331e-05
2.24352e-05
2.24389e-05
2.24406e-05
2.24436e-05
2.24433e-05
2.24425e-05
2.24419e-05
2.24358e-05
2.2435e-05
2.24304e-05
2.24309e-05
2.24326e-05
2.24333e-05
2.24292e-05
2.24302e-05
2.24286e-05
2.21274e-05
2.21287e-05
2.21286e-05
2.2131e-05
2.2134e-05
2.21369e-05
2.21367e-05
2.21358e-05
2.21309e-05
2.21308e-05
2.21292e-05
2.21304e-05
2.21292e-05
2.2129e-05
2.21271e-05
2.21282e-05
2.21283e-05
2.21286e-05
2.21302e-05
2.21302e-05
2.21315e-05
2.21285e-05
2.21268e-05
2.21272e-05
2.21286e-05
2.21329e-05
2.21345e-05
2.21381e-05
2.21359e-05
2.21367e-05
2.2135e-05
2.21333e-05
2.2133e-05
2.21328e-05
2.21311e-05
2.21297e-05
2.21264e-05
2.21303e-05
2.21294e-05
2.21327e-05
2.21298e-05
2.21315e-05
2.21283e-05
2.21298e-05
2.21308e-05
2.21331e-05
2.21347e-05
2.2137e-05
2.21376e-05
2.21366e-05
2.21366e-05
2.2134e-05
2.21329e-05
2.21289e-05
2.2129e-05
2.21286e-05
2.21293e-05
2.21273e-05
2.21274e-05
2.2126e-05
2.17421e-05
2.17431e-05
2.17425e-05
2.17435e-05
2.17453e-05
2.17478e-05
2.17478e-05
2.17485e-05
2.17461e-05
2.17452e-05
2.17433e-05
2.17441e-05
2.17429e-05
2.17434e-05
2.17423e-05
2.1742e-05
2.17421e-05
2.17422e-05
2.17428e-05
2.17428e-05
2.17444e-05
2.17434e-05
2.17421e-05
2.17418e-05
2.17422e-05
2.17444e-05
2.17457e-05
2.17487e-05
2.1748e-05
2.17488e-05
2.17481e-05
2.17473e-05
2.17463e-05
2.17462e-05
2.17455e-05
2.17448e-05
2.17418e-05
2.17435e-05
2.17429e-05
2.17453e-05
2.17436e-05
2.1745e-05
2.17428e-05
2.17438e-05
2.17441e-05
2.17453e-05
2.17466e-05
2.17481e-05
2.17492e-05
2.17484e-05
2.17485e-05
2.17477e-05
2.1747e-05
2.17439e-05
2.17438e-05
2.17427e-05
2.17428e-05
2.17419e-05
2.17416e-05
2.17404e-05
2.13064e-05
2.1307e-05
2.13064e-05
2.13068e-05
2.13075e-05
2.13092e-05
2.13093e-05
2.13106e-05
2.13097e-05
2.13089e-05
2.13073e-05
2.13077e-05
2.13067e-05
2.13072e-05
2.13068e-05
2.13059e-05
2.13059e-05
2.13059e-05
2.1306e-05
2.13058e-05
2.13071e-05
2.13069e-05
2.13065e-05
2.1306e-05
2.13061e-05
2.1307e-05
2.13078e-05
2.13099e-05
2.13098e-05
2.13108e-05
2.13105e-05
2.13104e-05
2.13095e-05
2.13094e-05
2.1309e-05
2.13089e-05
2.13067e-05
2.13073e-05
2.13066e-05
2.13082e-05
2.13072e-05
2.13082e-05
2.13069e-05
2.13075e-05
2.13076e-05
2.13081e-05
2.13091e-05
2.13098e-05
2.1311e-05
2.13105e-05
2.13106e-05
2.13105e-05
2.13102e-05
2.13082e-05
2.13081e-05
2.13069e-05
2.13066e-05
2.13059e-05
2.13057e-05
2.13046e-05
2.08374e-05
2.08378e-05
2.08371e-05
2.08372e-05
2.08374e-05
2.08383e-05
2.08384e-05
2.08397e-05
2.08394e-05
2.0839e-05
2.08378e-05
2.08381e-05
2.08373e-05
2.08377e-05
2.08375e-05
2.08367e-05
2.08366e-05
2.08365e-05
2.08363e-05
2.08359e-05
2.08369e-05
2.0837e-05
2.0837e-05
2.08368e-05
2.08368e-05
2.08371e-05
2.08375e-05
2.08387e-05
2.08388e-05
2.08398e-05
2.08397e-05
2.08401e-05
2.08395e-05
2.08394e-05
2.08392e-05
2.08394e-05
2.08378e-05
2.0838e-05
2.08373e-05
2.08382e-05
2.08376e-05
2.08384e-05
2.08375e-05
2.0838e-05
2.0838e-05
2.08382e-05
2.08388e-05
2.08391e-05
2.08401e-05
2.08398e-05
2.08398e-05
2.084e-05
2.084e-05
2.08387e-05
2.08388e-05
2.08378e-05
2.08373e-05
2.08367e-05
2.08365e-05
2.08355e-05
2.03442e-05
2.03444e-05
2.03439e-05
2.03437e-05
2.03437e-05
2.03441e-05
2.03441e-05
2.0345e-05
2.0345e-05
2.03448e-05
2.03442e-05
2.03444e-05
2.03438e-05
2.0344e-05
2.0344e-05
2.03434e-05
2.03432e-05
2.0343e-05
2.03428e-05
2.03423e-05
2.03429e-05
2.03431e-05
2.03433e-05
2.03432e-05
2.03433e-05
2.03433e-05
2.03435e-05
2.03442e-05
2.03442e-05
2.03451e-05
2.03451e-05
2.03456e-05
2.03452e-05
2.03453e-05
2.03453e-05
2.03455e-05
2.03445e-05
2.03444e-05
2.03438e-05
2.03444e-05
2.0344e-05
2.03446e-05
2.0344e-05
2.03443e-05
2.03444e-05
2.03444e-05
2.03448e-05
2.03449e-05
2.03455e-05
2.03453e-05
2.03452e-05
2.03455e-05
2.03457e-05
2.03449e-05
2.03451e-05
2.03445e-05
2.03439e-05
2.03434e-05
2.03431e-05
2.03424e-05
1.98321e-05
1.98321e-05
1.98316e-05
1.98314e-05
1.98312e-05
1.98314e-05
1.98312e-05
1.98319e-05
1.98319e-05
1.98318e-05
1.98314e-05
1.98316e-05
1.98312e-05
1.98314e-05
1.98314e-05
1.9831e-05
1.98308e-05
1.98306e-05
1.98303e-05
1.98298e-05
1.98303e-05
1.98304e-05
1.98306e-05
1.98306e-05
1.98307e-05
1.98307e-05
1.98308e-05
1.98312e-05
1.98312e-05
1.98319e-05
1.98319e-05
1.98323e-05
1.98321e-05
1.98322e-05
1.98323e-05
1.98326e-05
1.98319e-05
1.98318e-05
1.98314e-05
1.98318e-05
1.98315e-05
1.98319e-05
1.98315e-05
1.98318e-05
1.98318e-05
1.98318e-05
1.98321e-05
1.98321e-05
1.98324e-05
1.98323e-05
1.98321e-05
1.98323e-05
1.98326e-05
1.98321e-05
1.98324e-05
1.9832e-05
1.98314e-05
1.9831e-05
1.98309e-05
1.98302e-05
1.93041e-05
1.93041e-05
1.93037e-05
1.93034e-05
1.93031e-05
1.93031e-05
1.93029e-05
1.93033e-05
1.93033e-05
1.93032e-05
1.9303e-05
1.93032e-05
1.93029e-05
1.9303e-05
1.93031e-05
1.93028e-05
1.93027e-05
1.93024e-05
1.93022e-05
1.93017e-05
1.93021e-05
1.93022e-05
1.93023e-05
1.93023e-05
1.93024e-05
1.93024e-05
1.93025e-05
1.93027e-05
1.93027e-05
1.93032e-05
1.93032e-05
1.93036e-05
1.93035e-05
1.93035e-05
1.93036e-05
1.93039e-05
1.93035e-05
1.93034e-05
1.93031e-05
1.93035e-05
1.93032e-05
1.93036e-05
1.93033e-05
1.93035e-05
1.93035e-05
1.93035e-05
1.93037e-05
1.93037e-05
1.93039e-05
1.93037e-05
1.93035e-05
1.93037e-05
1.9304e-05
1.93036e-05
1.93039e-05
1.93037e-05
1.93032e-05
1.93029e-05
1.93028e-05
1.93023e-05
1.87625e-05
1.87625e-05
1.87622e-05
1.87618e-05
1.87615e-05
1.87614e-05
1.87612e-05
1.87615e-05
1.87615e-05
1.87614e-05
1.87611e-05
1.87613e-05
1.87611e-05
1.87612e-05
1.87613e-05
1.8761e-05
1.8761e-05
1.87608e-05
1.87606e-05
1.87602e-05
1.87605e-05
1.87605e-05
1.87606e-05
1.87606e-05
1.87607e-05
1.87607e-05
1.87607e-05
1.87609e-05
1.87609e-05
1.87612e-05
1.87612e-05
1.87615e-05
1.87615e-05
1.87615e-05
1.87616e-05
1.87619e-05
1.87615e-05
1.87615e-05
1.87613e-05
1.87616e-05
1.87614e-05
1.87617e-05
1.87615e-05
1.87617e-05
1.87617e-05
1.87617e-05
1.87618e-05
1.87618e-05
1.87619e-05
1.87618e-05
1.87616e-05
1.87617e-05
1.8762e-05
1.87617e-05
1.87619e-05
1.87618e-05
1.87615e-05
1.87612e-05
1.87611e-05
1.87608e-05
1.82091e-05
1.82091e-05
1.82088e-05
1.82085e-05
1.82082e-05
1.82081e-05
1.82078e-05
1.8208e-05
1.8208e-05
1.82079e-05
1.82077e-05
1.82078e-05
1.82077e-05
1.82077e-05
1.82078e-05
1.82076e-05
1.82075e-05
1.82074e-05
1.82072e-05
1.82068e-05
1.82071e-05
1.82071e-05
1.82072e-05
1.82072e-05
1.82072e-05
1.82072e-05
1.82073e-05
1.82074e-05
1.82073e-05
1.82077e-05
1.82076e-05
1.82079e-05
1.82078e-05
1.82078e-05
1.82079e-05
1.82081e-05
1.82079e-05
1.82079e-05
1.82077e-05
1.8208e-05
1.82079e-05
1.82082e-05
1.8208e-05
1.82081e-05
1.82082e-05
1.82082e-05
1.82083e-05
1.82083e-05