/*--------------------------------*- C++ -*----------------------------------*\
| =========                 |                                                 |
| \\      /  F ield         | OpenFOAM: The Open Source CFD Toolbox           |
|  \\    /   O peration     | Version:  2312                                  |
|   \\  /    A nd           | Website:  www.openfoam.com                      |
|    \\/     M anipulation  |                                                 |
\*---------------------------------------------------------------------------*/
FoamFile
{
    version     2.0;
    format      ascii;
    arch        "LSB;label=32;scalar=64";
    class       volScalarField;
    location    "800";
    object      k_0;
}
// * * * * * * * * * * * * * * * * * * * * * * * * * * * * * * * * * * * * * //

dimensions      [0 2 -2 0 0 0 0];

internalField   nonuniform List<scalar> 
144000
(
7.72348e-06
7.72228e-06
7.72568e-06
7.72214e-06
7.75325e-06
7.72287e-06
7.7553e-06
7.75085e-06
7.75393e-06
7.72552e-06
7.7243e-06
7.72367e-06
7.72623e-06
7.72422e-06
7.75288e-06
7.75165e-06
7.72368e-06
7.72541e-06
7.725e-06
7.7528e-06
7.75092e-06
7.72572e-06
7.72492e-06
7.75487e-06
7.72552e-06
7.72348e-06
7.75259e-06
7.72469e-06
7.72337e-06
7.75039e-06
7.71967e-06
7.75501e-06
7.72548e-06
7.75549e-06
7.75164e-06
7.75588e-06
7.72792e-06
7.75638e-06
7.727e-06
7.72625e-06
7.75507e-06
7.7215e-06
7.72661e-06
7.72462e-06
7.75522e-06
7.75219e-06
7.72432e-06
7.72823e-06
7.72412e-06
7.72604e-06
7.72195e-06
7.75058e-06
7.72244e-06
7.72818e-06
7.75187e-06
7.75348e-06
7.72354e-06
7.72612e-06
7.72272e-06
7.72197e-06
1.63112e-05
1.63099e-05
1.63144e-05
1.6313e-05
1.6292e-05
1.63052e-05
1.62945e-05
1.6283e-05
1.6282e-05
1.63027e-05
1.63107e-05
1.63106e-05
1.63141e-05
1.63137e-05
1.62956e-05
1.62839e-05
1.6301e-05
1.63106e-05
1.63149e-05
1.62955e-05
1.62796e-05
1.63003e-05
1.63122e-05
1.62932e-05
1.63068e-05
1.6313e-05
1.62922e-05
1.63062e-05
1.63126e-05
1.62906e-05
1.63011e-05
1.6289e-05
1.63064e-05
1.62944e-05
1.62835e-05
1.62836e-05
1.63069e-05
1.62935e-05
1.63063e-05
1.63141e-05
1.62956e-05
1.63031e-05
1.63127e-05
1.63133e-05
1.62971e-05
1.62848e-05
1.63007e-05
1.63145e-05
1.63135e-05
1.63162e-05
1.63143e-05
1.62902e-05
1.63008e-05
1.6316e-05
1.62946e-05
1.6285e-05
1.63013e-05
1.63107e-05
1.63119e-05
1.63105e-05
2.01483e-05
2.01468e-05
2.01496e-05
2.01516e-05
2.01243e-05
2.01384e-05
2.01243e-05
2.01117e-05
2.0105e-05
2.01286e-05
2.01439e-05
2.01454e-05
2.01485e-05
2.01502e-05
2.01296e-05
2.01121e-05
2.01301e-05
2.01421e-05
2.01505e-05
2.01301e-05
2.0107e-05
2.01259e-05
2.01447e-05
2.01222e-05
2.01367e-05
2.01491e-05
2.0124e-05
2.01376e-05
2.0149e-05
2.01243e-05
2.01363e-05
2.01162e-05
2.01361e-05
2.0123e-05
2.01113e-05
2.01052e-05
2.01326e-05
2.01195e-05
2.01341e-05
2.01471e-05
2.0126e-05
2.01367e-05
2.01453e-05
2.01489e-05
2.01291e-05
2.01129e-05
2.01287e-05
2.01451e-05
2.0149e-05
2.01518e-05
2.0154e-05
2.01252e-05
2.0133e-05
2.01481e-05
2.01283e-05
2.01118e-05
2.01306e-05
2.01418e-05
2.01483e-05
2.01478e-05
2.18445e-05
2.18431e-05
2.18437e-05
2.18475e-05
2.1826e-05
2.1834e-05
2.18233e-05
2.18137e-05
2.18029e-05
2.18184e-05
2.18354e-05
2.18393e-05
2.18415e-05
2.18449e-05
2.1831e-05
2.1813e-05
2.18238e-05
2.18334e-05
2.18435e-05
2.18315e-05
2.18092e-05
2.18181e-05
2.18361e-05
2.18202e-05
2.18284e-05
2.18427e-05
2.18245e-05
2.18312e-05
2.18433e-05
2.1826e-05
2.18342e-05
2.18159e-05
2.18286e-05
2.18205e-05
2.1812e-05
2.1802e-05
2.18217e-05
2.18146e-05
2.18245e-05
2.18384e-05
2.18243e-05
2.18319e-05
2.18377e-05
2.18431e-05
2.1829e-05
2.18134e-05
2.18219e-05
2.18348e-05
2.18422e-05
2.18445e-05
2.18501e-05
2.18289e-05
2.18304e-05
2.18394e-05
2.18289e-05
2.18118e-05
2.1824e-05
2.18331e-05
2.18422e-05
2.18429e-05
2.24904e-05
2.24898e-05
2.24886e-05
2.24925e-05
2.24784e-05
2.24817e-05
2.24741e-05
2.24684e-05
2.24569e-05
2.2464e-05
2.24777e-05
2.24835e-05
2.2485e-05
2.2489e-05
2.24818e-05
2.24672e-05
2.24718e-05
2.24772e-05
2.24862e-05
2.24809e-05
2.24656e-05
2.24672e-05
2.24785e-05
2.247e-05
2.24737e-05
2.24855e-05
2.24754e-05
2.24778e-05
2.24869e-05
2.24775e-05
2.2483e-05
2.24692e-05
2.2475e-05
2.247e-05
2.24655e-05
2.24551e-05
2.24662e-05
2.24629e-05
2.24686e-05
2.24805e-05
2.24732e-05
2.24785e-05
2.24814e-05
2.24873e-05
2.24792e-05
2.24669e-05
2.247e-05
2.2477e-05
2.24853e-05
2.24872e-05
2.24938e-05
2.24822e-05
2.24799e-05
2.24833e-05
2.24789e-05
2.24658e-05
2.24716e-05
2.24769e-05
2.24856e-05
2.24873e-05
2.26055e-05
2.26058e-05
2.26041e-05
2.26071e-05
2.25989e-05
2.25998e-05
2.25943e-05
2.25912e-05
2.25822e-05
2.2584e-05
2.25914e-05
2.2598e-05
2.25991e-05
2.26029e-05
2.25998e-05
2.25906e-05
2.25915e-05
2.25936e-05
2.25995e-05
2.2598e-05
2.25905e-05
2.25879e-05
2.25936e-05
2.25897e-05
2.2591e-05
2.25988e-05
2.25947e-05
2.25953e-05
2.26011e-05
2.25967e-05
2.26011e-05
2.25919e-05
2.25933e-05
2.25897e-05
2.25876e-05
2.25796e-05
2.25843e-05
2.25823e-05
2.25855e-05
2.25939e-05
2.2591e-05
2.25952e-05
2.25965e-05
2.26014e-05
2.25976e-05
2.25895e-05
2.25901e-05
2.25924e-05
2.25987e-05
2.26004e-05
2.26065e-05
2.26019e-05
2.25994e-05
2.25991e-05
2.25975e-05
2.25891e-05
2.25911e-05
2.25933e-05
2.25993e-05
2.26013e-05
2.24458e-05
2.24472e-05
2.24455e-05
2.24475e-05
2.2443e-05
2.24431e-05
2.24391e-05
2.24376e-05
2.24318e-05
2.24307e-05
2.24334e-05
2.24389e-05
2.24397e-05
2.24428e-05
2.24418e-05
2.24373e-05
2.24368e-05
2.2437e-05
2.24397e-05
2.24398e-05
2.24376e-05
2.24341e-05
2.24363e-05
2.24344e-05
2.24347e-05
2.24389e-05
2.24381e-05
2.24382e-05
2.24416e-05
2.244e-05
2.24436e-05
2.24383e-05
2.24379e-05
2.24346e-05
2.24339e-05
2.24287e-05
2.24299e-05
2.2428e-05
2.24295e-05
2.24345e-05
2.24337e-05
2.24373e-05
2.24379e-05
2.24416e-05
2.244e-05
2.24358e-05
2.24356e-05
2.24355e-05
2.24391e-05
2.24403e-05
2.24451e-05
2.24441e-05
2.24434e-05
2.24414e-05
2.24408e-05
2.2436e-05
2.24364e-05
2.24367e-05
2.24398e-05
2.24416e-05
2.21395e-05
2.21414e-05
2.21401e-05
2.21413e-05
2.21389e-05
2.2139e-05
2.2136e-05
2.21353e-05
2.21323e-05
2.213e-05
2.21306e-05
2.21336e-05
2.21342e-05
2.21364e-05
2.21363e-05
2.21347e-05
2.21343e-05
2.21336e-05
2.21344e-05
2.21348e-05
2.21347e-05
2.21327e-05
2.21329e-05
2.21318e-05
2.21316e-05
2.21334e-05
2.21339e-05
2.2134e-05
2.21359e-05
2.21355e-05
2.21384e-05
2.21358e-05
2.21352e-05
2.21321e-05
2.2132e-05
2.21291e-05
2.21287e-05
2.21266e-05
2.21272e-05
2.21297e-05
2.21296e-05
2.21326e-05
2.21328e-05
2.21354e-05
2.21349e-05
2.21332e-05
2.21332e-05
2.21322e-05
2.2134e-05
2.21346e-05
2.21375e-05
2.2138e-05
2.2139e-05
2.2137e-05
2.21367e-05
2.21341e-05
2.2134e-05
2.21335e-05
2.21348e-05
2.2136e-05
2.17511e-05
2.1753e-05
2.17521e-05
2.17527e-05
2.17515e-05
2.17516e-05
2.17495e-05
2.17492e-05
2.17479e-05
2.17458e-05
2.17453e-05
2.17467e-05
2.17469e-05
2.17482e-05
2.17483e-05
2.17481e-05
2.1748e-05
2.17473e-05
2.17473e-05
2.17474e-05
2.17481e-05
2.17473e-05
2.17468e-05
2.17458e-05
2.17456e-05
2.17461e-05
2.17468e-05
2.17469e-05
2.1748e-05
2.1748e-05
2.17503e-05
2.17492e-05
2.17488e-05
2.17465e-05
2.17467e-05
2.17451e-05
2.17444e-05
2.17422e-05
2.17423e-05
2.17432e-05
2.17431e-05
2.17453e-05
2.17455e-05
2.17471e-05
2.17471e-05
2.17468e-05
2.17472e-05
2.17461e-05
2.17469e-05
2.1747e-05
2.17485e-05
2.17492e-05
2.17511e-05
2.17495e-05
2.17494e-05
2.17482e-05
2.17481e-05
2.17475e-05
2.17478e-05
2.17484e-05
2.13135e-05
2.13148e-05
2.13142e-05
2.13145e-05
2.13138e-05
2.1314e-05
2.13125e-05
2.13124e-05
2.13119e-05
2.13108e-05
2.13097e-05
2.13103e-05
2.13102e-05
2.13107e-05
2.13108e-05
2.1311e-05
2.13113e-05
2.13108e-05
2.13105e-05
2.13102e-05
2.1311e-05
2.13108e-05
2.13104e-05
2.13095e-05
2.13096e-05
2.13095e-05
2.13098e-05
2.131e-05
2.13104e-05
2.13105e-05
2.13123e-05
2.13119e-05
2.13119e-05
2.13104e-05
2.13106e-05
2.13098e-05
2.13092e-05
2.13074e-05
2.13072e-05
2.13073e-05
2.13068e-05
2.13085e-05
2.13085e-05
2.13094e-05
2.13095e-05
2.13097e-05
2.13105e-05
2.13097e-05
2.131e-05
2.13099e-05
2.13106e-05
2.1311e-05
2.13129e-05
2.13119e-05
2.13119e-05
2.13115e-05
2.13116e-05
2.13111e-05
2.1311e-05
2.13113e-05
2.08432e-05
2.08439e-05
2.08435e-05
2.08435e-05
2.08431e-05
2.08433e-05
2.08423e-05
2.08423e-05
2.08422e-05
2.08417e-05
2.08406e-05
2.08409e-05
2.08406e-05
2.08407e-05
2.08406e-05
2.08408e-05
2.08412e-05
2.0841e-05
2.08406e-05
2.08401e-05
2.08408e-05
2.08409e-05
2.08407e-05
2.08401e-05
2.08402e-05
2.08399e-05
2.084e-05
2.084e-05
2.08401e-05
2.08402e-05
2.08415e-05
2.08414e-05
2.08416e-05
2.08407e-05
2.08409e-05
2.08406e-05
2.08402e-05
2.08388e-05
2.08386e-05
2.08384e-05
2.08377e-05
2.08388e-05
2.08388e-05
2.08392e-05
2.08393e-05
2.08395e-05
2.08404e-05
2.08399e-05
2.08401e-05
2.08399e-05
2.08402e-05
2.08404e-05
2.08419e-05
2.08412e-05
2.08413e-05
2.08413e-05
2.08415e-05
2.08413e-05
2.08411e-05
2.08412e-05
2.03491e-05
2.03493e-05
2.0349e-05
2.03489e-05
2.03485e-05
2.03487e-05
2.0348e-05
2.03481e-05
2.03481e-05
2.03479e-05
2.03472e-05
2.03474e-05
2.0347e-05
2.03469e-05
2.03466e-05
2.03467e-05
2.03472e-05
2.0347e-05
2.03467e-05
2.03462e-05
2.03467e-05
2.03469e-05
2.03468e-05
2.03464e-05
2.03465e-05
2.03463e-05
2.03462e-05
2.03462e-05
2.03461e-05
2.03462e-05
2.0347e-05
2.0347e-05
2.03473e-05
2.03467e-05
2.0347e-05
2.03469e-05
2.03467e-05
2.03458e-05
2.03456e-05
2.03453e-05
2.03445e-05
2.03453e-05
2.03452e-05
2.03454e-05
2.03454e-05
2.03455e-05
2.03464e-05
2.03461e-05
2.03462e-05
2.0346e-05
2.03461e-05
2.03462e-05
2.03472e-05
2.03468e-05
2.03469e-05
2.0347e-05
2.03472e-05
2.03472e-05
2.0347e-05
2.03471e-05
1.98361e-05
1.98361e-05
1.98358e-05
1.98356e-05
1.98352e-05
1.98354e-05
1.98349e-05
1.9835e-05
1.9835e-05
1.9835e-05
1.98346e-05
1.98347e-05
1.98344e-05
1.98342e-05
1.98339e-05
1.9834e-05
1.98343e-05
1.98342e-05
1.9834e-05
1.98335e-05
1.98338e-05
1.9834e-05
1.9834e-05
1.98337e-05
1.98339e-05
1.98337e-05
1.98335e-05
1.98336e-05
1.98335e-05
1.98334e-05
1.9834e-05
1.98339e-05
1.98342e-05
1.98338e-05
1.98341e-05
1.98341e-05
1.9834e-05
1.98334e-05
1.98333e-05
1.98331e-05
1.98324e-05
1.98329e-05
1.98328e-05
1.98329e-05
1.98328e-05
1.98329e-05
1.98335e-05
1.98333e-05
1.98335e-05
1.98333e-05
1.98333e-05
1.98333e-05
1.9834e-05
1.98337e-05
1.98337e-05
1.98338e-05
1.98341e-05
1.98341e-05
1.98341e-05
1.98342e-05
1.93074e-05
1.93074e-05
1.93071e-05
1.93069e-05
1.93064e-05
1.93065e-05
1.93062e-05
1.93063e-05
1.93063e-05
1.93063e-05
1.93062e-05
1.93063e-05
1.9306e-05
1.93058e-05
1.93055e-05
1.93055e-05
1.93058e-05
1.93057e-05
1.93055e-05
1.93051e-05
1.93054e-05
1.93055e-05
1.93055e-05
1.93054e-05
1.93055e-05
1.93054e-05
1.93052e-05
1.93052e-05
1.93051e-05
1.93049e-05
1.93054e-05
1.93053e-05
1.93055e-05
1.93052e-05
1.93055e-05
1.93055e-05
1.93055e-05
1.93052e-05
1.93051e-05
1.9305e-05
1.93045e-05
1.93048e-05
1.93048e-05
1.93047e-05
1.93045e-05
1.93046e-05
1.93051e-05
1.9305e-05
1.93051e-05
1.93049e-05
1.93048e-05
1.93048e-05
1.93053e-05
1.93051e-05
1.9305e-05
1.93051e-05
1.93054e-05
1.93054e-05
1.93055e-05
1.93055e-05
1.87653e-05
1.87652e-05
1.8765e-05
1.87647e-05
1.87643e-05
1.87644e-05
1.87641e-05
1.87641e-05
1.87641e-05
1.87642e-05
1.87641e-05
1.87642e-05
1.87641e-05
1.87639e-05
1.87636e-05
1.87636e-05
1.87638e-05
1.87638e-05
1.87636e-05
1.87632e-05
1.87635e-05
1.87636e-05
1.87636e-05
1.87635e-05
1.87636e-05
1.87635e-05
1.87633e-05
1.87634e-05
1.87633e-05
1.87631e-05
1.87634e-05
1.87634e-05
1.87635e-05
1.87632e-05
1.87635e-05
1.87635e-05
1.87635e-05
1.87633e-05
1.87634e-05
1.87633e-05
1.8763e-05
1.87632e-05
1.87631e-05
1.8763e-05
1.87628e-05
1.87629e-05
1.87633e-05
1.87631e-05
1.87632e-05
1.87631e-05
1.8763e-05
1.87629e-05
1.87633e-05
1.87632e-05
1.8763e-05
1.87631e-05
1.87633e-05
1.87633e-05
1.87633e-05
1.87634e-05
1.82114e-05
1.82114e-05
1.82112e-05
1.8211e-05
1.82105e-05
1.82105e-05
1.82103e-05
1.82103e-05
1.82103e-05
1.82104e-05
1.82103e-05
1.82105e-05
1.82104e-05
1.82102e-05
1.821e-05
1.821e-05
1.82102e-05
1.82101e-05
1.821e-05
1.82097e-05
1.82098e-05
1.821e-05
1.821e-05
1.82099e-05
1.821e-05
1.82099e-05
1.82098e-05
1.82098e-05
1.82097e-05
1.82095e-05
1.82097e-05
1.82097e-05
1.82098e-05
1.82096e-05
1.82098e-05
1.82098e-05
1.82099e-05
1.82097e-05
1.82098e-05
1.82098e-05
1.82095e-05
1.82097e-05
1.82097e-05
1.82096e-05
1.82094e-05
1.82094e-05
1.82097e-05
1.82096e-05
1.82097e-05
1.82096e-05
1.82094e-05
1.82094e-05
1.82097e-05
1.82096e-05
1.82094e-05
1.82095e-05
1.82096e-05
1.82096e-05
1.82097e-05
1.82097e-05
1.76475e-05
1.76475e-05
1.76473e-05
1.76471e-05
1.76466e-05
1.76466e-05
1.76464e-05
1.76464e-05
1.76464e-05
1.76464e-05
1.76464e-05
1.76466e-05
1.76465e-05
1.76464e-05
1.76462e-05
1.76462e-05
1.76463e-05
1.76463e-05
1.76462e-05
1.76459e-05
1.76461e-05
1.76462e-05
1.76462e-05
1.76461e-05
1.76462e-05
1.76462e-05
1.7646e-05
1.76461e-05
1.7646e-05
1.76458e-05
1.76459e-05
1.76459e-05
1.7646e-05
1.76458e-05
1.76459e-05
1.76459e-05
1.7646e-05
1.76459e-05
1.7646e-05
1.7646e-05
1.76458e-05
1.7646e-05
1.7646e-05
1.76459e-05
1.76457e-05
1.76457e-05
1.7646e-05
1.76459e-05
1.76459e-05
1.76459e-05
1.76458e-05
1.76457e-05
1.76459e-05
1.76458e-05
1.76457e-05
1.76457e-05
1.76458e-05
1.76458e-05
1.76459e-05
1.76459e-05
1.70749e-05
1.70749e-05
1.70747e-05
1.70745e-05
1.70742e-05
1.70741e-05
1.70739e-05
1.70739e-05
1.70739e-05
1.70739e-05
1.70739e-05
1.7074e-05
1.7074e-05
1.70739e-05
1.70738e-05
1.70737e-05
1.70739e-05
1.70738e-05
1.70738e-05
1.70736e-05
1.70737e-05
1.70737e-05
1.70737e-05
1.70737e-05
1.70738e-05
1.70737e-05
1.70737e-05
1.70736e-05
1.70735e-05
1.70733e-05
1.70735e-05
1.70735e-05
1.70735e-05
1.70734e-05
1.70735e-05
1.70735e-05
1.70736e-05
1.70735e-05
1.70735e-05
1.70736e-05
1.70734e-05
1.70736e-05
1.70736e-05
1.70735e-05
1.70734e-05
1.70734e-05
1.70736e-05
1.70736e-05
1.70736e-05
1.70735e-05
1.70734e-05
1.70733e-05
1.70735e-05
1.70735e-05
1.70733e-05
1.70734e-05
1.70734e-05
1.70734e-05
1.70734e-05
1.70735e-05
1.64953e-05
1.64953e-05
1.64951e-05
1.6495e-05
1.64946e-05
1.64946e-05
1.64944e-05
1.64943e-05
1.64944e-05
1.64944e-05
1.64944e-05
1.64945e-05
1.64945e-05
1.64944e-05
1.64943e-05
1.64942e-05
1.64943e-05
1.64943e-05
1.64943e-05
1.64941e-05
1.64942e-05
1.64942e-05
1.64942e-05
1.64942e-05
1.64943e-05
1.64943e-05
1.64942e-05
1.64941e-05
1.6494e-05
1.64938e-05
1.6494e-05
1.6494e-05
1.6494e-05
1.64939e-05
1.6494e-05
1.6494e-05
1.64941e-05
1.6494e-05
1.6494e-05
1.6494e-05
1.6494e-05
1.64941e-05
1.64941e-05
1.64941e-05
1.6494e-05
1.64939e-05
1.64941e-05
1.64941e-05
1.64941e-05
1.64941e-05
1.6494e-05
1.64939e-05
1.64941e-05
1.6494e-05
1.64939e-05
1.64939e-05
1.6494e-05
1.6494e-05
1.6494e-05
1.6494e-05
1.59104e-05
1.59104e-05
1.59102e-05
1.59101e-05
1.59098e-05
1.59097e-05
1.59095e-05
1.59095e-05
1.59095e-05
1.59095e-05
1.59096e-05
1.59096e-05
1.59096e-05
1.59095e-05
1.59094e-05
1.59094e-05
1.59095e-05
1.59095e-05
1.59094e-05
1.59093e-05
1.59094e-05
1.59094e-05
1.59094e-05
1.59094e-05
1.59094e-05
1.59094e-05
1.59094e-05
1.59093e-05
1.59092e-05
1.59091e-05
1.59092e-05
1.59092e-05
1.59092e-05
1.59091e-05
1.59092e-05
1.59092e-05
1.59092e-05
1.59092e-05
1.59092e-05
1.59092e-05
1.59092e-05
1.59093e-05
1.59093e-05
1.59093e-05
1.59093e-05
1.59092e-05
1.59094e-05
1.59094e-05
1.59094e-05
1.59093e-05
1.59092e-05
1.59091e-05
1.59093e-05
1.59092e-05
1.59091e-05
1.59091e-05
1.59092e-05
1.59092e-05
1.59092e-05
1.59092e-05
1.53222e-05
1.53222e-05
1.53221e-05
1.5322e-05
1.53217e-05
1.53216e-05
1.53215e-05
1.53214e-05
1.53215e-05
1.53215e-05
1.53215e-05
1.53215e-05
1.53215e-05
1.53215e-05
1.53214e-05
1.53213e-05
1.53214e-05
1.53214e-05
1.53214e-05
1.53213e-05
1.53213e-05
1.53214e-05
1.53214e-05
1.53213e-05
1.53214e-05
1.53214e-05
1.53213e-05
1.53213e-05
1.53212e-05
1.5321e-05
1.53211e-05
1.53211e-05
1.53212e-05
1.53211e-05
1.53211e-05
1.53211e-05
1.53212e-05
1.53211e-05
1.53212e-05
1.53212e-05
1.53211e-05
1.53212e-05
1.53212e-05
1.53212e-05
1.53212e-05
1.53212e-05
1.53213e-05
1.53213e-05
1.53213e-05
1.53212e-05
1.53212e-05
1.53211e-05
1.53212e-05
1.53212e-05
1.53211e-05
1.53211e-05
1.53212e-05
1.53212e-05
1.53212e-05
1.53212e-05
1.47336e-05
1.47335e-05
1.47334e-05
1.47333e-05
1.47331e-05
1.4733e-05
1.47329e-05
1.47328e-05
1.47329e-05
1.47329e-05
1.47329e-05
1.47329e-05
1.47329e-05
1.47329e-05
1.47328e-05
1.47327e-05
1.47328e-05
1.47328e-05
1.47328e-05
1.47327e-05
1.47327e-05
1.47328e-05
1.47328e-05
1.47328e-05
1.47328e-05
1.47328e-05
1.47328e-05
1.47327e-05
1.47326e-05
1.47325e-05
1.47325e-05
1.47325e-05
1.47326e-05
1.47326e-05
1.47325e-05
1.47326e-05
1.47326e-05
1.47326e-05
1.47326e-05
1.47326e-05
1.47326e-05
1.47327e-05
1.47326e-05
1.47327e-05
1.47327e-05
1.47327e-05
1.47328e-05
1.47328e-05
1.47327e-05
1.47327e-05
1.47326e-05
1.47325e-05
1.47326e-05
1.47326e-05
1.47326e-05
1.47326e-05
1.47326e-05
1.47326e-05
1.47326e-05
1.47326e-05
1.41482e-05
1.41482e-05
1.41481e-05
1.4148e-05
1.41478e-05
1.41477e-05
1.41476e-05
1.41476e-05
1.41476e-05
1.41476e-05
1.41476e-05
1.41476e-05
1.41476e-05
1.41476e-05
1.41476e-05
1.41475e-05
1.41475e-05
1.41475e-05
1.41475e-05
1.41475e-05
1.41475e-05
1.41475e-05
1.41475e-05
1.41475e-05
1.41475e-05
1.41475e-05
1.41475e-05
1.41475e-05
1.41474e-05
1.41473e-05
1.41473e-05
1.41473e-05
1.41473e-05
1.41473e-05
1.41473e-05
1.41473e-05
1.41473e-05
1.41473e-05
1.41473e-05
1.41474e-05
1.41473e-05
1.41474e-05
1.41474e-05
1.41474e-05
1.41474e-05
1.41474e-05
1.41475e-05
1.41475e-05
1.41475e-05
1.41474e-05
1.41474e-05
1.41473e-05
1.41474e-05
1.41474e-05
1.41473e-05
1.41473e-05
1.41474e-05
1.41474e-05
1.41474e-05
1.41474e-05
1.3572e-05
1.3572e-05
1.35719e-05
1.35719e-05
1.35717e-05
1.35717e-05
1.35716e-05
1.35715e-05
1.35715e-05
1.35716e-05
1.35715e-05
1.35716e-05
1.35716e-05
1.35716e-05
1.35715e-05
1.35715e-05
1.35715e-05
1.35715e-05
1.35715e-05
1.35714e-05
1.35714e-05
1.35715e-05
1.35715e-05
1.35715e-05
1.35715e-05
1.35715e-05
1.35715e-05
1.35714e-05
1.35714e-05
1.35713e-05
1.35713e-05
1.35713e-05
1.35713e-05
1.35713e-05
1.35713e-05
1.35713e-05
1.35713e-05
1.35713e-05
1.35713e-05
1.35714e-05
1.35713e-05
1.35714e-05
1.35714e-05
1.35714e-05
1.35714e-05
1.35714e-05
1.35714e-05
1.35714e-05
1.35714e-05
1.35714e-05
1.35713e-05
1.35713e-05
1.35714e-05
1.35714e-05
1.35713e-05
1.35713e-05
1.35714e-05
1.35714e-05
1.35714e-05
1.35714e-05
1.30147e-05
1.30147e-05
1.30147e-05
1.30146e-05
1.30145e-05
1.30145e-05
1.30144e-05
1.30143e-05
1.30144e-05
1.30144e-05
1.30144e-05
1.30144e-05
1.30144e-05
1.30144e-05
1.30143e-05
1.30143e-05
1.30143e-05
1.30143e-05
1.30143e-05
1.30143e-05
1.30143e-05
1.30143e-05
1.30143e-05
1.30143e-05
1.30143e-05
1.30143e-05
1.30143e-05
1.30143e-05
1.30142e-05
1.30141e-05
1.30142e-05
1.30142e-05
1.30142e-05
1.30142e-05
1.30141e-05
1.30142e-05
1.30142e-05
1.30142e-05
1.30142e-05
1.30142e-05
1.30142e-05
1.30142e-05
1.30142e-05
1.30142e-05
1.30142e-05
1.30142e-05
1.30143e-05
1.30143e-05
1.30143e-05
1.30142e-05
1.30142e-05
1.30142e-05
1.30142e-05
1.30142e-05
1.30142e-05
1.30142e-05
1.30142e-05
1.30142e-05
1.30142e-05
1.30142e-05
7.75351e-06
7.7237e-06
7.72692e-06
7.72183e-06
7.72328e-06
7.72226e-06
7.75263e-06
7.75157e-06
7.72878e-06
7.72497e-06
7.75492e-06
7.72459e-06
7.75558e-06
7.75292e-06
7.72783e-06
7.72621e-06
7.75439e-06
7.72644e-06
7.7255e-06
7.75424e-06
7.75082e-06
7.75657e-06
7.72588e-06
7.72649e-06
7.7245e-06
7.72127e-06
7.72382e-06
7.72129e-06
7.75375e-06
7.72092e-06
7.75248e-06
7.72424e-06
7.72458e-06
7.75284e-06
7.75405e-06
7.72653e-06
7.72952e-06
7.72228e-06
7.7552e-06
7.72075e-06
7.75774e-06
7.72275e-06
7.75687e-06
7.72132e-06
7.72367e-06
7.72293e-06
7.72177e-06
7.72203e-06
7.72429e-06
7.72571e-06
7.75073e-06
7.75384e-06
7.72401e-06
7.7562e-06
7.72483e-06
7.72806e-06
7.75419e-06
7.75645e-06
7.72681e-06
7.75576e-06
1.62857e-05
1.63011e-05
1.63147e-05
1.63129e-05
1.63117e-05
1.63122e-05
1.62948e-05
1.62793e-05
1.63037e-05
1.63139e-05
1.62938e-05
1.63075e-05
1.62959e-05
1.62834e-05
1.63043e-05
1.63148e-05
1.62934e-05
1.63077e-05
1.63156e-05
1.62973e-05
1.62819e-05
1.62832e-05
1.63036e-05
1.63127e-05
1.63146e-05
1.63118e-05
1.63122e-05
1.63113e-05
1.6293e-05
1.63037e-05
1.62882e-05
1.63024e-05
1.63127e-05
1.62934e-05
1.62827e-05
1.63012e-05
1.63175e-05
1.63136e-05
1.62945e-05
1.63038e-05
1.6293e-05
1.63046e-05
1.62941e-05
1.63034e-05
1.63096e-05
1.63107e-05
1.63102e-05
1.63105e-05
1.63117e-05
1.6317e-05
1.62943e-05
1.62828e-05
1.63031e-05
1.62925e-05
1.63036e-05
1.63161e-05
1.62961e-05
1.62874e-05
1.63076e-05
1.62954e-05
2.01127e-05
2.01296e-05
2.01464e-05
2.01515e-05
2.01495e-05
2.01503e-05
2.01303e-05
2.01058e-05
2.01273e-05
2.01472e-05
2.01236e-05
2.01393e-05
2.01261e-05
2.01095e-05
2.01294e-05
2.01482e-05
2.01236e-05
2.01376e-05
2.01507e-05
2.01311e-05
2.01115e-05
2.01045e-05
2.01291e-05
2.01438e-05
2.01503e-05
2.0151e-05
2.01497e-05
2.01499e-05
2.0125e-05
2.01386e-05
2.01181e-05
2.01317e-05
2.01469e-05
2.01262e-05
2.01077e-05
2.01258e-05
2.01471e-05
2.01511e-05
2.01259e-05
2.01385e-05
2.01198e-05
2.01363e-05
2.01211e-05
2.01362e-05
2.01438e-05
2.0147e-05
2.01475e-05
2.01483e-05
2.01475e-05
2.01532e-05
2.0131e-05
2.01089e-05
2.01321e-05
2.01189e-05
2.01323e-05
2.01484e-05
2.01284e-05
2.0112e-05
2.0136e-05
2.01237e-05
2.18119e-05
2.18224e-05
2.18363e-05
2.18466e-05
2.18457e-05
2.18466e-05
2.18335e-05
2.18084e-05
2.18179e-05
2.1838e-05
2.18219e-05
2.18326e-05
2.18246e-05
2.18093e-05
2.18195e-05
2.18393e-05
2.18223e-05
2.18297e-05
2.18431e-05
2.18314e-05
2.18152e-05
2.18017e-05
2.18187e-05
2.18337e-05
2.18424e-05
2.18473e-05
2.18459e-05
2.18468e-05
2.18263e-05
2.18353e-05
2.18191e-05
2.18256e-05
2.18396e-05
2.18271e-05
2.18078e-05
2.18168e-05
2.18341e-05
2.18452e-05
2.18256e-05
2.18347e-05
2.1818e-05
2.18301e-05
2.1818e-05
2.18301e-05
2.18374e-05
2.18419e-05
2.18432e-05
2.18448e-05
2.18429e-05
2.18469e-05
2.18342e-05
2.18101e-05
2.18253e-05
2.18158e-05
2.18243e-05
2.18391e-05
2.18279e-05
2.18102e-05
2.1827e-05
2.18202e-05
2.24642e-05
2.24696e-05
2.2478e-05
2.24897e-05
2.24907e-05
2.24922e-05
2.24851e-05
2.24662e-05
2.24666e-05
2.24794e-05
2.24714e-05
2.2478e-05
2.24739e-05
2.24633e-05
2.24664e-05
2.24805e-05
2.24721e-05
2.24753e-05
2.24852e-05
2.24804e-05
2.24711e-05
2.24559e-05
2.24643e-05
2.24756e-05
2.24838e-05
2.24916e-05
2.24913e-05
2.24929e-05
2.24786e-05
2.24834e-05
2.24724e-05
2.2474e-05
2.24829e-05
2.24774e-05
2.24629e-05
2.24651e-05
2.24736e-05
2.24877e-05
2.24757e-05
2.24819e-05
2.24693e-05
2.24766e-05
2.24678e-05
2.24759e-05
2.24817e-05
2.24866e-05
2.24884e-05
2.24908e-05
2.24888e-05
2.24907e-05
2.24849e-05
2.24662e-05
2.24729e-05
2.24662e-05
2.24704e-05
2.24809e-05
2.24765e-05
2.24631e-05
2.2472e-05
2.24685e-05
2.25861e-05
2.25887e-05
2.25926e-05
2.26018e-05
2.26048e-05
2.2607e-05
2.26037e-05
2.25931e-05
2.25873e-05
2.25941e-05
2.25905e-05
2.25944e-05
2.25924e-05
2.25868e-05
2.25859e-05
2.25939e-05
2.25909e-05
2.25923e-05
2.25984e-05
2.2597e-05
2.25936e-05
2.25818e-05
2.25841e-05
2.25902e-05
2.25962e-05
2.26047e-05
2.26054e-05
2.26081e-05
2.25992e-05
2.26014e-05
2.25948e-05
2.25937e-05
2.25979e-05
2.25961e-05
2.25876e-05
2.25862e-05
2.25884e-05
2.25996e-05
2.25939e-05
2.25987e-05
2.25903e-05
2.25944e-05
2.2588e-05
2.25928e-05
2.25967e-05
2.26013e-05
2.26031e-05
2.26062e-05
2.26049e-05
2.2605e-05
2.26029e-05
2.25912e-05
2.25925e-05
2.25873e-05
2.2589e-05
2.25945e-05
2.25937e-05
2.25858e-05
2.25894e-05
2.2587e-05
2.24324e-05
2.2434e-05
2.24351e-05
2.24405e-05
2.24441e-05
2.24469e-05
2.24457e-05
2.24416e-05
2.24343e-05
2.24368e-05
2.24349e-05
2.24372e-05
2.2436e-05
2.24339e-05
2.24314e-05
2.24353e-05
2.24347e-05
2.24353e-05
2.24386e-05
2.24385e-05
2.24382e-05
2.24317e-05
2.24309e-05
2.24328e-05
2.24363e-05
2.24433e-05
2.24447e-05
2.24482e-05
2.24433e-05
2.24444e-05
2.24409e-05
2.24387e-05
2.24401e-05
2.24395e-05
2.24355e-05
2.24333e-05
2.24319e-05
2.24388e-05
2.24366e-05
2.24407e-05
2.24355e-05
2.2438e-05
2.24334e-05
2.24361e-05
2.24382e-05
2.24419e-05
2.24436e-05
2.24466e-05
2.24464e-05
2.24455e-05
2.24449e-05
2.24388e-05
2.2438e-05
2.24334e-05
2.2434e-05
2.24357e-05
2.24363e-05
2.24322e-05
2.24332e-05
2.24316e-05
2.21304e-05
2.21316e-05
2.21316e-05
2.2134e-05
2.2137e-05
2.21399e-05
2.21396e-05
2.21387e-05
2.21339e-05
2.21338e-05
2.21321e-05
2.21334e-05
2.21322e-05
2.2132e-05
2.21301e-05
2.21312e-05
2.21312e-05
2.21315e-05
2.21331e-05
2.21332e-05
2.21345e-05
2.21315e-05
2.21298e-05
2.21301e-05
2.21315e-05
2.21359e-05
2.21375e-05
2.21411e-05
2.21388e-05
2.21396e-05
2.21379e-05
2.21362e-05
2.21359e-05
2.21357e-05
2.2134e-05
2.21326e-05
2.21294e-05
2.21333e-05
2.21324e-05
2.21357e-05
2.21327e-05
2.21344e-05
2.21312e-05
2.21328e-05
2.21337e-05
2.2136e-05
2.21376e-05
2.214e-05
2.21406e-05
2.21396e-05
2.21395e-05
2.21369e-05
2.21358e-05
2.21318e-05
2.2132e-05
2.21316e-05
2.21322e-05
2.21303e-05
2.21303e-05
2.21289e-05
2.1745e-05
2.17459e-05
2.17454e-05
2.17464e-05
2.17481e-05
2.17506e-05
2.17507e-05
2.17514e-05
2.1749e-05
2.17481e-05
2.17462e-05
2.17469e-05
2.17458e-05
2.17463e-05
2.17452e-05
2.17448e-05
2.1745e-05
2.17451e-05
2.17457e-05
2.17457e-05
2.17472e-05
2.17462e-05
2.1745e-05
2.17446e-05
2.17451e-05
2.17473e-05
2.17485e-05
2.17515e-05
2.17508e-05
2.17517e-05
2.17509e-05
2.17502e-05
2.17491e-05
2.1749e-05
2.17483e-05
2.17477e-05
2.17446e-05
2.17464e-05
2.17457e-05
2.17481e-05
2.17465e-05
2.17478e-05
2.17457e-05
2.17466e-05
2.1747e-05
2.17481e-05
2.17495e-05
2.17509e-05
2.17521e-05
2.17513e-05
2.17514e-05
2.17505e-05
2.17498e-05
2.17468e-05
2.17467e-05
2.17455e-05
2.17457e-05
2.17447e-05
2.17445e-05
2.17432e-05
2.13091e-05
2.13098e-05
2.13091e-05
2.13095e-05
2.13102e-05
2.1312e-05
2.13121e-05
2.13134e-05
2.13124e-05
2.13117e-05
2.131e-05
2.13104e-05
2.13094e-05
2.131e-05
2.13095e-05
2.13086e-05
2.13087e-05
2.13087e-05
2.13088e-05
2.13085e-05
2.13098e-05
2.13097e-05
2.13092e-05
2.13087e-05
2.13088e-05
2.13097e-05
2.13105e-05
2.13126e-05
2.13126e-05
2.13135e-05
2.13132e-05
2.13131e-05
2.13123e-05
2.13122e-05
2.13118e-05
2.13116e-05
2.13094e-05
2.131e-05
2.13093e-05
2.13109e-05
2.13099e-05
2.1311e-05
2.13096e-05
2.13102e-05
2.13103e-05
2.13108e-05
2.13118e-05
2.13125e-05
2.13138e-05
2.13132e-05
2.13133e-05
2.13132e-05
2.13129e-05
2.13109e-05
2.13108e-05
2.13096e-05
2.13094e-05
2.13086e-05
2.13084e-05
2.13073e-05
2.084e-05
2.08404e-05
2.08398e-05
2.08398e-05
2.084e-05
2.08409e-05
2.0841e-05
2.08423e-05
2.0842e-05
2.08416e-05
2.08405e-05
2.08407e-05
2.08399e-05
2.08403e-05
2.08402e-05
2.08393e-05
2.08392e-05
2.08391e-05
2.08389e-05
2.08385e-05
2.08395e-05
2.08396e-05
2.08396e-05
2.08394e-05
2.08394e-05
2.08397e-05
2.08401e-05
2.08413e-05
2.08414e-05
2.08424e-05
2.08423e-05
2.08427e-05
2.08421e-05
2.0842e-05
2.08418e-05
2.0842e-05
2.08405e-05
2.08406e-05
2.08399e-05
2.08408e-05
2.08402e-05
2.0841e-05
2.08401e-05
2.08406e-05
2.08406e-05
2.08408e-05
2.08414e-05
2.08418e-05
2.08427e-05
2.08424e-05
2.08424e-05
2.08426e-05
2.08426e-05
2.08413e-05
2.08414e-05
2.08405e-05
2.08399e-05
2.08393e-05
2.08391e-05
2.08382e-05
2.03467e-05
2.03469e-05
2.03463e-05
2.03462e-05
2.03462e-05
2.03466e-05
2.03466e-05
2.03475e-05
2.03475e-05
2.03473e-05
2.03466e-05
2.03468e-05
2.03462e-05
2.03465e-05
2.03465e-05
2.03458e-05
2.03457e-05
2.03454e-05
2.03452e-05
2.03447e-05
2.03454e-05
2.03456e-05
2.03457e-05
2.03457e-05
2.03457e-05
2.03458e-05
2.0346e-05
2.03466e-05
2.03467e-05
2.03476e-05
2.03476e-05
2.03481e-05
2.03477e-05
2.03477e-05
2.03477e-05
2.0348e-05
2.0347e-05
2.03469e-05
2.03463e-05
2.03469e-05
2.03465e-05
2.03471e-05
2.03465e-05
2.03468e-05
2.03468e-05
2.03469e-05
2.03473e-05
2.03474e-05
2.0348e-05
2.03478e-05
2.03477e-05
2.0348e-05
2.03482e-05
2.03474e-05
2.03476e-05
2.0347e-05
2.03464e-05
2.03458e-05
2.03456e-05
2.03449e-05
1.98344e-05
1.98344e-05
1.9834e-05
1.98337e-05
1.98335e-05
1.98337e-05
1.98336e-05
1.98343e-05
1.98343e-05
1.98341e-05
1.98338e-05
1.9834e-05
1.98336e-05
1.98337e-05
1.98338e-05
1.98333e-05
1.98332e-05
1.98329e-05
1.98327e-05
1.98322e-05
1.98327e-05
1.98327e-05
1.9833e-05
1.9833e-05
1.9833e-05
1.98331e-05
1.98332e-05
1.98335e-05
1.98335e-05
1.98342e-05
1.98342e-05
1.98347e-05
1.98345e-05
1.98346e-05
1.98346e-05
1.98349e-05
1.98342e-05
1.98342e-05
1.98337e-05
1.98342e-05
1.98338e-05
1.98343e-05
1.98339e-05
1.98341e-05
1.98341e-05
1.98341e-05
1.98344e-05
1.98345e-05
1.98348e-05
1.98346e-05
1.98345e-05
1.98347e-05
1.9835e-05
1.98345e-05
1.98347e-05
1.98343e-05
1.98338e-05
1.98334e-05
1.98332e-05
1.98326e-05
1.93063e-05
1.93063e-05
1.93059e-05
1.93056e-05
1.93053e-05
1.93053e-05
1.93051e-05
1.93055e-05
1.93056e-05
1.93055e-05
1.93052e-05
1.93054e-05
1.93051e-05
1.93052e-05
1.93053e-05
1.9305e-05
1.93049e-05
1.93046e-05
1.93044e-05
1.93039e-05
1.93043e-05
1.93044e-05
1.93045e-05
1.93045e-05
1.93046e-05
1.93046e-05
1.93047e-05
1.93049e-05
1.93049e-05
1.93054e-05
1.93054e-05
1.93058e-05
1.93057e-05
1.93058e-05
1.93058e-05
1.93061e-05
1.93057e-05
1.93056e-05
1.93053e-05
1.93057e-05
1.93054e-05
1.93058e-05
1.93055e-05
1.93057e-05
1.93057e-05
1.93057e-05
1.93059e-05
1.93059e-05
1.93061e-05
1.93059e-05
1.93057e-05
1.93059e-05
1.93062e-05
1.93058e-05
1.93061e-05
1.93059e-05
1.93054e-05
1.93051e-05
1.9305e-05
1.93045e-05
1.87645e-05
1.87645e-05
1.87642e-05
1.87639e-05
1.87636e-05
1.87635e-05
1.87632e-05
1.87635e-05
1.87635e-05
1.87634e-05
1.87632e-05
1.87634e-05
1.87632e-05
1.87633e-05
1.87634e-05
1.87631e-05
1.8763e-05
1.87628e-05
1.87626e-05
1.87622e-05
1.87625e-05
1.87626e-05
1.87627e-05
1.87627e-05
1.87627e-05
1.87627e-05
1.87628e-05
1.8763e-05
1.87629e-05
1.87633e-05
1.87633e-05
1.87636e-05
1.87635e-05
1.87636e-05
1.87636e-05
1.87639e-05
1.87636e-05
1.87636e-05
1.87634e-05
1.87637e-05
1.87635e-05
1.87638e-05
1.87636e-05
1.87637e-05
1.87638e-05
1.87638e-05
1.87639e-05
1.87639e-05
1.8764e-05
1.87639e-05
1.87637e-05
1.87638e-05
1.87641e-05
1.87638e-05
1.8764e-05
1.87639e-05
1.87635e-05
1.87633e-05
1.87632e-05
1.87628e-05
1.8211e-05
1.8211e-05
1.82108e-05
1.82104e-05
1.82101e-05
1.821e-05
1.82097e-05
1.82099e-05
1.82099e-05
1.82098e-05
1.82096e-05
1.82097e-05
1.82096e-05
1.82096e-05
1.82097e-05
1.82095e-05
1.82094e-05
1.82093e-05
1.82091e-05
1.82088e-05
1.8209e-05
1.8209e-05
1.82091e-05
1.82091e-05
1.82091e-05
1.82091e-05
1.82092e-05
1.82093e-05
1.82093e-05
1.82096e-05
1.82096e-05
1.82098e-05
1.82097e-05
1.82098e-05
1.82098e-05
1.82101e-05
1.82098e-05
1.82098e-05
1.82097e-05
1.82099e-05
1.82098e-05
1.82101e-05
1.821e-05
1.82101e-05
1.82101e-05
1.82101e-05