/*--------------------------------*- C++ -*----------------------------------*\
| =========                 |                                                 |
| \\      /  F ield         | OpenFOAM: The Open Source CFD Toolbox           |
|  \\    /   O peration     | Version:  2312                                  |
|   \\  /    A nd           | Website:  www.openfoam.com                      |
|    \\/     M anipulation  |                                                 |
\*---------------------------------------------------------------------------*/
FoamFile
{
    version     2.0;
    format      ascii;
    arch        "LSB;label=32;scalar=64";
    class       volScalarField;
    location    "800";
    object      nut;
}
// * * * * * * * * * * * * * * * * * * * * * * * * * * * * * * * * * * * * * //

dimensions      [0 2 -1 0 0 0 0];

internalField   nonuniform List<scalar> 
144000
(
7.80405e-06
7.80345e-06
7.80516e-06
7.80338e-06
7.81908e-06
7.80374e-06
7.82011e-06
7.81787e-06
7.81942e-06
7.80508e-06
7.80446e-06
7.80415e-06
7.80544e-06
7.80443e-06
7.81889e-06
7.81827e-06
7.80415e-06
7.80503e-06
7.80482e-06
7.81885e-06
7.8179e-06
7.80519e-06
7.80478e-06
7.81989e-06
7.80509e-06
7.80405e-06
7.81875e-06
7.80466e-06
7.804e-06
7.81764e-06
7.80213e-06
7.81996e-06
7.80506e-06
7.82021e-06
7.81826e-06
7.8204e-06
7.8063e-06
7.82065e-06
7.80583e-06
7.80545e-06
7.81999e-06
7.80305e-06
7.80563e-06
7.80463e-06
7.82007e-06
7.81854e-06
7.80448e-06
7.80645e-06
7.80437e-06
7.80534e-06
7.80328e-06
7.81773e-06
7.80353e-06
7.80643e-06
7.81838e-06
7.8192e-06
7.80408e-06
7.80539e-06
7.80367e-06
7.80329e-06
1.13412e-05
1.13407e-05
1.13423e-05
1.13418e-05
1.13345e-05
1.13391e-05
1.13354e-05
1.13314e-05
1.13311e-05
1.13383e-05
1.1341e-05
1.1341e-05
1.13422e-05
1.13421e-05
1.13358e-05
1.13317e-05
1.13377e-05
1.1341e-05
1.13425e-05
1.13357e-05
1.13302e-05
1.13374e-05
1.13415e-05
1.1335e-05
1.13397e-05
1.13418e-05
1.13346e-05
1.13395e-05
1.13417e-05
1.1334e-05
1.13377e-05
1.13335e-05
1.13395e-05
1.13354e-05
1.13316e-05
1.13316e-05
1.13397e-05
1.13351e-05
1.13395e-05
1.13422e-05
1.13358e-05
1.13384e-05
1.13417e-05
1.13419e-05
1.13363e-05
1.1332e-05
1.13376e-05
1.13424e-05
1.1342e-05
1.1343e-05
1.13423e-05
1.13339e-05
1.13376e-05
1.13429e-05
1.13354e-05
1.13321e-05
1.13378e-05
1.1341e-05
1.13414e-05
1.1341e-05
1.26049e-05
1.26044e-05
1.26052e-05
1.26059e-05
1.25973e-05
1.26018e-05
1.25973e-05
1.25934e-05
1.25913e-05
1.25987e-05
1.26035e-05
1.26039e-05
1.26049e-05
1.26054e-05
1.2599e-05
1.25935e-05
1.25991e-05
1.26029e-05
1.26055e-05
1.25991e-05
1.25919e-05
1.25978e-05
1.26037e-05
1.25967e-05
1.26012e-05
1.26051e-05
1.25972e-05
1.26015e-05
1.2605e-05
1.25973e-05
1.26011e-05
1.25948e-05
1.2601e-05
1.25969e-05
1.25933e-05
1.25914e-05
1.25999e-05
1.25958e-05
1.26004e-05
1.26045e-05
1.25979e-05
1.26012e-05
1.26039e-05
1.2605e-05
1.25988e-05
1.25938e-05
1.25987e-05
1.26038e-05
1.2605e-05
1.26059e-05
1.26066e-05
1.25976e-05
1.26001e-05
1.26048e-05
1.25986e-05
1.25934e-05
1.25993e-05
1.26028e-05
1.26048e-05
1.26047e-05
1.31247e-05
1.31243e-05
1.31245e-05
1.31256e-05
1.31192e-05
1.31216e-05
1.31184e-05
1.31155e-05
1.31122e-05
1.31169e-05
1.3122e-05
1.31232e-05
1.31238e-05
1.31248e-05
1.31207e-05
1.31153e-05
1.31185e-05
1.31214e-05
1.31244e-05
1.31208e-05
1.31141e-05
1.31168e-05
1.31222e-05
1.31174e-05
1.31199e-05
1.31242e-05
1.31187e-05
1.31207e-05
1.31244e-05
1.31192e-05
1.31216e-05
1.31161e-05
1.312e-05
1.31175e-05
1.31149e-05
1.3112e-05
1.31179e-05
1.31157e-05
1.31187e-05
1.31229e-05
1.31187e-05
1.31209e-05
1.31227e-05
1.31243e-05
1.31201e-05
1.31154e-05
1.31179e-05
1.31218e-05
1.3124e-05
1.31247e-05
1.31264e-05
1.312e-05
1.31205e-05
1.31232e-05
1.31201e-05
1.31149e-05
1.31186e-05
1.31213e-05
1.3124e-05
1.31242e-05
1.33174e-05
1.33172e-05
1.33168e-05
1.3318e-05
1.33138e-05
1.33148e-05
1.33126e-05
1.33109e-05
1.33075e-05
1.33095e-05
1.33136e-05
1.33153e-05
1.33158e-05
1.3317e-05
1.33148e-05
1.33105e-05
1.33119e-05
1.33135e-05
1.33161e-05
1.33146e-05
1.331e-05
1.33105e-05
1.33138e-05
1.33113e-05
1.33124e-05
1.33159e-05
1.33129e-05
1.33137e-05
1.33163e-05
1.33135e-05
1.33152e-05
1.33111e-05
1.33128e-05
1.33113e-05
1.331e-05
1.33069e-05
1.33102e-05
1.33092e-05
1.33109e-05
1.33145e-05
1.33123e-05
1.33138e-05
1.33147e-05
1.33165e-05
1.33141e-05
1.33104e-05
1.33113e-05
1.33134e-05
1.33159e-05
1.33164e-05
1.33184e-05
1.33149e-05
1.33143e-05
1.33153e-05
1.3314e-05
1.33101e-05
1.33118e-05
1.33134e-05
1.3316e-05
1.33164e-05
1.33514e-05
1.33515e-05
1.3351e-05
1.33519e-05
1.33495e-05
1.33497e-05
1.33481e-05
1.33472e-05
1.33446e-05
1.33451e-05
1.33473e-05
1.33492e-05
1.33495e-05
1.33507e-05
1.33497e-05
1.3347e-05
1.33473e-05
1.33479e-05
1.33497e-05
1.33492e-05
1.3347e-05
1.33462e-05
1.33479e-05
1.33468e-05
1.33471e-05
1.33494e-05
1.33482e-05
1.33484e-05
1.33501e-05
1.33488e-05
1.33501e-05
1.33474e-05
1.33478e-05
1.33468e-05
1.33462e-05
1.33438e-05
1.33452e-05
1.33446e-05
1.33455e-05
1.3348e-05
1.33471e-05
1.33484e-05
1.33488e-05
1.33502e-05
1.33491e-05
1.33467e-05
1.33469e-05
1.33475e-05
1.33494e-05
1.33499e-05
1.33517e-05
1.33504e-05
1.33496e-05
1.33496e-05
1.33491e-05
1.33466e-05
1.33472e-05
1.33478e-05
1.33496e-05
1.33502e-05
1.33042e-05
1.33046e-05
1.33041e-05
1.33047e-05
1.33034e-05
1.33034e-05
1.33022e-05
1.33018e-05
1.33001e-05
1.32997e-05
1.33005e-05
1.33021e-05
1.33024e-05
1.33033e-05
1.3303e-05
1.33017e-05
1.33015e-05
1.33016e-05
1.33024e-05
1.33024e-05
1.33018e-05
1.33007e-05
1.33014e-05
1.33008e-05
1.33009e-05
1.33022e-05
1.33019e-05
1.3302e-05
1.3303e-05
1.33025e-05
1.33035e-05
1.3302e-05
1.33019e-05
1.33009e-05
1.33007e-05
1.32991e-05
1.32995e-05
1.32989e-05
1.32994e-05
1.33008e-05
1.33006e-05
1.33017e-05
1.33019e-05
1.33029e-05
1.33025e-05
1.33012e-05
1.33012e-05
1.33012e-05
1.33022e-05
1.33026e-05
1.3304e-05
1.33037e-05
1.33035e-05
1.33029e-05
1.33027e-05
1.33013e-05
1.33014e-05
1.33015e-05
1.33024e-05
1.3303e-05
1.32131e-05
1.32137e-05
1.32133e-05
1.32137e-05
1.3213e-05
1.3213e-05
1.32121e-05
1.32119e-05
1.3211e-05
1.32103e-05
1.32105e-05
1.32114e-05
1.32115e-05
1.32122e-05
1.32122e-05
1.32117e-05
1.32116e-05
1.32114e-05
1.32116e-05
1.32117e-05
1.32117e-05
1.32111e-05
1.32112e-05
1.32108e-05
1.32108e-05
1.32113e-05
1.32115e-05
1.32115e-05
1.32121e-05
1.32119e-05
1.32128e-05
1.3212e-05
1.32118e-05
1.32109e-05
1.32109e-05
1.321e-05
1.32099e-05
1.32093e-05
1.32095e-05
1.32102e-05
1.32102e-05
1.32111e-05
1.32111e-05
1.32119e-05
1.32118e-05
1.32113e-05
1.32113e-05
1.3211e-05
1.32115e-05
1.32117e-05
1.32125e-05
1.32127e-05
1.3213e-05
1.32124e-05
1.32123e-05
1.32115e-05
1.32115e-05
1.32114e-05
1.32117e-05
1.32121e-05
1.30967e-05
1.30973e-05
1.3097e-05
1.30972e-05
1.30968e-05
1.30969e-05
1.30962e-05
1.30962e-05
1.30958e-05
1.30951e-05
1.3095e-05
1.30954e-05
1.30955e-05
1.30959e-05
1.30959e-05
1.30958e-05
1.30958e-05
1.30956e-05
1.30956e-05
1.30956e-05
1.30958e-05
1.30956e-05
1.30954e-05
1.30951e-05
1.30951e-05
1.30952e-05
1.30954e-05
1.30955e-05
1.30958e-05
1.30958e-05
1.30965e-05
1.30962e-05
1.30961e-05
1.30954e-05
1.30954e-05
1.30949e-05
1.30947e-05
1.30941e-05
1.30941e-05
1.30944e-05
1.30943e-05
1.3095e-05
1.3095e-05
1.30955e-05
1.30955e-05
1.30954e-05
1.30956e-05
1.30952e-05
1.30955e-05
1.30955e-05
1.3096e-05
1.30962e-05
1.30967e-05
1.30963e-05
1.30962e-05
1.30959e-05
1.30958e-05
1.30956e-05
1.30957e-05
1.30959e-05
1.29643e-05
1.29647e-05
1.29646e-05
1.29646e-05
1.29644e-05
1.29645e-05
1.2964e-05
1.2964e-05
1.29639e-05
1.29635e-05
1.29632e-05
1.29634e-05
1.29633e-05
1.29635e-05
1.29635e-05
1.29636e-05
1.29637e-05
1.29635e-05
1.29634e-05
1.29633e-05
1.29636e-05
1.29635e-05
1.29634e-05
1.29631e-05
1.29631e-05
1.29631e-05
1.29632e-05
1.29633e-05
1.29634e-05
1.29634e-05
1.2964e-05
1.29638e-05
1.29638e-05
1.29634e-05
1.29635e-05
1.29632e-05
1.2963e-05
1.29625e-05
1.29624e-05
1.29624e-05
1.29623e-05
1.29628e-05
1.29628e-05
1.29631e-05
1.29631e-05
1.29632e-05
1.29634e-05
1.29632e-05
1.29633e-05
1.29633e-05
1.29634e-05
1.29636e-05
1.29642e-05
1.29638e-05
1.29639e-05
1.29637e-05
1.29637e-05
1.29636e-05
1.29636e-05
1.29637e-05
1.28205e-05
1.28207e-05
1.28206e-05
1.28206e-05
1.28205e-05
1.28206e-05
1.28202e-05
1.28203e-05
1.28202e-05
1.28201e-05
1.28197e-05
1.28198e-05
1.28197e-05
1.28198e-05
1.28197e-05
1.28198e-05
1.28199e-05
1.28198e-05
1.28197e-05
1.28196e-05
1.28198e-05
1.28198e-05
1.28198e-05
1.28196e-05
1.28196e-05
1.28195e-05
1.28195e-05
1.28196e-05
1.28196e-05
1.28196e-05
1.282e-05
1.282e-05
1.282e-05
1.28198e-05
1.28198e-05
1.28197e-05
1.28196e-05
1.28192e-05
1.28191e-05
1.2819e-05
1.28188e-05
1.28192e-05
1.28192e-05
1.28193e-05
1.28193e-05
1.28194e-05
1.28197e-05
1.28195e-05
1.28196e-05
1.28195e-05
1.28196e-05
1.28197e-05
1.28201e-05
1.28199e-05
1.282e-05
1.28199e-05
1.282e-05
1.28199e-05
1.28199e-05
1.28199e-05
1.26677e-05
1.26677e-05
1.26676e-05
1.26676e-05
1.26675e-05
1.26675e-05
1.26673e-05
1.26674e-05
1.26674e-05
1.26673e-05
1.26671e-05
1.26671e-05
1.2667e-05
1.2667e-05
1.26669e-05
1.26669e-05
1.26671e-05
1.2667e-05
1.26669e-05
1.26668e-05
1.26669e-05
1.2667e-05
1.2667e-05
1.26668e-05
1.26669e-05
1.26668e-05
1.26668e-05
1.26668e-05
1.26668e-05
1.26668e-05
1.2667e-05
1.2667e-05
1.26671e-05
1.26669e-05
1.2667e-05
1.2667e-05
1.26669e-05
1.26666e-05
1.26666e-05
1.26665e-05
1.26662e-05
1.26665e-05
1.26665e-05
1.26665e-05
1.26665e-05
1.26666e-05
1.26668e-05
1.26667e-05
1.26668e-05
1.26667e-05
1.26668e-05
1.26668e-05
1.26671e-05
1.2667e-05
1.2667e-05
1.2667e-05
1.26671e-05
1.26671e-05
1.2667e-05
1.26671e-05
1.2507e-05
1.2507e-05
1.25069e-05
1.25069e-05
1.25067e-05
1.25068e-05
1.25066e-05
1.25067e-05
1.25067e-05
1.25066e-05
1.25065e-05
1.25066e-05
1.25065e-05
1.25064e-05
1.25063e-05
1.25063e-05
1.25064e-05
1.25064e-05
1.25063e-05
1.25062e-05
1.25063e-05
1.25064e-05
1.25063e-05
1.25063e-05
1.25063e-05
1.25062e-05
1.25062e-05
1.25062e-05
1.25062e-05
1.25061e-05
1.25063e-05
1.25063e-05
1.25064e-05
1.25063e-05
1.25064e-05
1.25064e-05
1.25063e-05
1.25062e-05
1.25061e-05
1.25061e-05
1.25058e-05
1.2506e-05
1.2506e-05
1.2506e-05
1.2506e-05
1.2506e-05
1.25062e-05
1.25061e-05
1.25062e-05
1.25061e-05
1.25061e-05
1.25061e-05
1.25063e-05
1.25062e-05
1.25062e-05
1.25063e-05
1.25064e-05
1.25064e-05
1.25064e-05
1.25064e-05
1.23392e-05
1.23392e-05
1.23391e-05
1.23391e-05
1.23389e-05
1.23389e-05
1.23388e-05
1.23389e-05
1.23389e-05
1.23389e-05
1.23388e-05
1.23389e-05
1.23388e-05
1.23387e-05
1.23386e-05
1.23386e-05
1.23387e-05
1.23387e-05
1.23386e-05
1.23385e-05
1.23386e-05
1.23386e-05
1.23386e-05
1.23386e-05
1.23386e-05
1.23386e-05
1.23385e-05
1.23385e-05
1.23385e-05
1.23384e-05
1.23386e-05
1.23386e-05
1.23386e-05
1.23385e-05
1.23386e-05
1.23386e-05
1.23386e-05
1.23385e-05
1.23385e-05
1.23385e-05
1.23383e-05
1.23384e-05
1.23384e-05
1.23384e-05
1.23383e-05
1.23383e-05
1.23385e-05
1.23384e-05
1.23385e-05
1.23384e-05
1.23384e-05
1.23384e-05
1.23386e-05
1.23385e-05
1.23385e-05
1.23385e-05
1.23386e-05
1.23386e-05
1.23386e-05
1.23386e-05
1.21648e-05
1.21648e-05
1.21647e-05
1.21646e-05
1.21645e-05
1.21645e-05
1.21644e-05
1.21644e-05
1.21644e-05
1.21644e-05
1.21644e-05
1.21644e-05
1.21644e-05
1.21643e-05
1.21643e-05
1.21642e-05
1.21643e-05
1.21643e-05
1.21642e-05
1.21641e-05
1.21642e-05
1.21642e-05
1.21642e-05
1.21642e-05
1.21642e-05
1.21642e-05
1.21642e-05
1.21642e-05
1.21641e-05
1.21641e-05
1.21642e-05
1.21642e-05
1.21642e-05
1.21641e-05
1.21642e-05
1.21642e-05
1.21642e-05
1.21641e-05
1.21642e-05
1.21641e-05
1.2164e-05
1.21641e-05
1.21641e-05
1.21641e-05
1.2164e-05
1.2164e-05
1.21641e-05
1.21641e-05
1.21641e-05
1.21641e-05
1.2164e-05
1.2164e-05
1.21642e-05
1.21641e-05
1.21641e-05
1.21641e-05
1.21641e-05
1.21642e-05
1.21642e-05
1.21642e-05
1.19839e-05
1.19839e-05
1.19839e-05
1.19838e-05
1.19837e-05
1.19836e-05
1.19836e-05
1.19836e-05
1.19836e-05
1.19836e-05
1.19836e-05
1.19836e-05
1.19836e-05
1.19836e-05
1.19835e-05
1.19835e-05
1.19835e-05
1.19835e-05
1.19835e-05
1.19834e-05
1.19834e-05
1.19835e-05
1.19835e-05
1.19834e-05
1.19835e-05
1.19835e-05
1.19834e-05
1.19834e-05
1.19834e-05
1.19833e-05
1.19834e-05
1.19834e-05
1.19834e-05
1.19833e-05
1.19834e-05
1.19834e-05
1.19834e-05
1.19834e-05
1.19834e-05
1.19834e-05
1.19833e-05
1.19834e-05
1.19834e-05
1.19833e-05
1.19833e-05
1.19833e-05
1.19834e-05
1.19834e-05
1.19834e-05
1.19833e-05
1.19833e-05
1.19833e-05
1.19834e-05
1.19833e-05
1.19833e-05
1.19833e-05
1.19834e-05
1.19834e-05
1.19834e-05
1.19834e-05
1.1797e-05
1.1797e-05
1.17969e-05
1.17968e-05
1.17967e-05
1.17967e-05
1.17966e-05
1.17966e-05
1.17966e-05
1.17966e-05
1.17966e-05
1.17967e-05
1.17966e-05
1.17966e-05
1.17965e-05
1.17965e-05
1.17966e-05
1.17966e-05
1.17965e-05
1.17965e-05
1.17965e-05
1.17965e-05
1.17965e-05
1.17965e-05
1.17965e-05
1.17965e-05
1.17965e-05
1.17965e-05
1.17965e-05
1.17964e-05
1.17965e-05
1.17964e-05
1.17965e-05
1.17964e-05
1.17965e-05
1.17965e-05
1.17965e-05
1.17965e-05
1.17965e-05
1.17965e-05
1.17964e-05
1.17965e-05
1.17965e-05
1.17964e-05
1.17964e-05
1.17964e-05
1.17965e-05
1.17964e-05
1.17965e-05
1.17964e-05
1.17964e-05
1.17964e-05
1.17964e-05
1.17964e-05
1.17964e-05
1.17964e-05
1.17964e-05
1.17964e-05
1.17964e-05
1.17964e-05
1.16041e-05
1.1604e-05
1.1604e-05
1.16039e-05
1.16038e-05
1.16038e-05
1.16037e-05
1.16037e-05
1.16037e-05
1.16037e-05
1.16037e-05
1.16038e-05
1.16037e-05
1.16037e-05
1.16037e-05
1.16036e-05
1.16037e-05
1.16037e-05
1.16037e-05
1.16036e-05
1.16036e-05
1.16036e-05
1.16036e-05
1.16036e-05
1.16037e-05
1.16036e-05
1.16036e-05
1.16036e-05
1.16036e-05
1.16035e-05
1.16036e-05
1.16036e-05
1.16036e-05
1.16035e-05
1.16036e-05
1.16036e-05
1.16036e-05
1.16036e-05
1.16036e-05
1.16036e-05
1.16035e-05
1.16036e-05
1.16036e-05
1.16036e-05
1.16035e-05
1.16035e-05
1.16036e-05
1.16036e-05
1.16036e-05
1.16036e-05
1.16035e-05
1.16035e-05
1.16036e-05
1.16036e-05
1.16035e-05
1.16035e-05
1.16035e-05
1.16035e-05
1.16035e-05
1.16036e-05
1.14054e-05
1.14054e-05
1.14054e-05
1.14053e-05
1.14052e-05
1.14052e-05
1.14051e-05
1.14051e-05
1.14051e-05
1.14051e-05
1.14051e-05
1.14051e-05
1.14051e-05
1.14051e-05
1.14051e-05
1.1405e-05
1.14051e-05
1.14051e-05
1.14051e-05
1.1405e-05
1.1405e-05
1.14051e-05
1.14051e-05
1.14051e-05
1.14051e-05
1.14051e-05
1.1405e-05
1.1405e-05
1.1405e-05
1.14049e-05
1.1405e-05
1.1405e-05
1.1405e-05
1.1405e-05
1.1405e-05
1.1405e-05
1.1405e-05
1.1405e-05
1.1405e-05
1.1405e-05
1.1405e-05
1.1405e-05
1.1405e-05
1.1405e-05
1.1405e-05
1.1405e-05
1.1405e-05
1.1405e-05
1.1405e-05
1.1405e-05
1.1405e-05
1.14049e-05
1.1405e-05
1.1405e-05
1.14049e-05
1.1405e-05
1.1405e-05
1.1405e-05
1.1405e-05
1.1405e-05
1.12014e-05
1.12014e-05
1.12014e-05
1.12013e-05
1.12012e-05
1.12012e-05
1.12011e-05
1.12011e-05
1.12011e-05
1.12011e-05
1.12011e-05
1.12012e-05
1.12011e-05
1.12011e-05
1.12011e-05
1.12011e-05
1.12011e-05
1.12011e-05
1.12011e-05
1.1201e-05
1.12011e-05
1.12011e-05
1.12011e-05
1.12011e-05
1.12011e-05
1.12011e-05
1.12011e-05
1.1201e-05
1.1201e-05
1.1201e-05
1.1201e-05
1.1201e-05
1.1201e-05
1.1201e-05
1.1201e-05
1.1201e-05
1.1201e-05
1.1201e-05
1.1201e-05
1.1201e-05
1.1201e-05
1.1201e-05
1.1201e-05
1.1201e-05
1.1201e-05
1.1201e-05
1.12011e-05
1.12011e-05
1.12011e-05
1.1201e-05
1.1201e-05
1.1201e-05
1.1201e-05
1.1201e-05
1.1201e-05
1.1201e-05
1.1201e-05
1.1201e-05
1.1201e-05
1.1201e-05
1.09925e-05
1.09925e-05
1.09924e-05
1.09924e-05
1.09923e-05
1.09923e-05
1.09922e-05
1.09922e-05
1.09922e-05
1.09922e-05
1.09922e-05
1.09922e-05
1.09922e-05
1.09922e-05
1.09922e-05
1.09921e-05
1.09922e-05
1.09922e-05
1.09922e-05
1.09921e-05
1.09921e-05
1.09922e-05
1.09922e-05
1.09922e-05
1.09922e-05
1.09922e-05
1.09922e-05
1.09921e-05
1.09921e-05
1.0992e-05
1.09921e-05
1.09921e-05
1.09921e-05
1.09921e-05
1.09921e-05
1.09921e-05
1.09921e-05
1.09921e-05
1.09921e-05
1.09921e-05
1.09921e-05
1.09921e-05
1.09921e-05
1.09921e-05
1.09921e-05
1.09921e-05
1.09922e-05
1.09922e-05
1.09921e-05
1.09921e-05
1.09921e-05
1.09921e-05
1.09921e-05
1.09921e-05
1.09921e-05
1.09921e-05
1.09921e-05
1.09921e-05
1.09921e-05
1.09921e-05
1.07793e-05
1.07793e-05
1.07792e-05
1.07792e-05
1.07791e-05
1.07791e-05
1.0779e-05
1.0779e-05
1.0779e-05
1.0779e-05
1.0779e-05
1.0779e-05
1.0779e-05
1.0779e-05
1.0779e-05
1.0779e-05
1.0779e-05
1.0779e-05
1.0779e-05
1.0779e-05
1.0779e-05
1.0779e-05
1.0779e-05
1.0779e-05
1.0779e-05
1.0779e-05
1.0779e-05
1.0779e-05
1.07789e-05
1.07789e-05
1.07789e-05
1.07789e-05
1.07789e-05
1.07789e-05
1.07789e-05
1.07789e-05
1.07789e-05
1.07789e-05
1.07789e-05
1.07789e-05
1.07789e-05
1.07789e-05
1.07789e-05
1.0779e-05
1.0779e-05
1.0779e-05
1.0779e-05
1.0779e-05
1.0779e-05
1.0779e-05
1.07789e-05
1.07789e-05
1.07789e-05
1.07789e-05
1.07789e-05
1.07789e-05
1.07789e-05
1.07789e-05
1.07789e-05
1.07789e-05
1.0563e-05
1.0563e-05
1.0563e-05
1.05629e-05
1.05629e-05
1.05629e-05
1.05628e-05
1.05628e-05
1.05628e-05
1.05628e-05
1.05628e-05
1.05628e-05
1.05628e-05
1.05628e-05
1.05628e-05
1.05628e-05
1.05628e-05
1.05628e-05
1.05628e-05
1.05627e-05
1.05628e-05
1.05628e-05
1.05628e-05
1.05628e-05
1.05628e-05
1.05628e-05
1.05628e-05
1.05627e-05
1.05627e-05
1.05627e-05
1.05627e-05
1.05627e-05
1.05627e-05
1.05627e-05
1.05627e-05
1.05627e-05
1.05627e-05
1.05627e-05
1.05627e-05
1.05627e-05
1.05627e-05
1.05627e-05
1.05627e-05
1.05627e-05
1.05627e-05
1.05627e-05
1.05628e-05
1.05628e-05
1.05628e-05
1.05627e-05
1.05627e-05
1.05627e-05
1.05627e-05
1.05627e-05
1.05627e-05
1.05627e-05
1.05627e-05
1.05627e-05
1.05627e-05
1.05627e-05
1.03457e-05
1.03457e-05
1.03457e-05
1.03457e-05
1.03456e-05
1.03456e-05
1.03456e-05
1.03456e-05
1.03456e-05
1.03456e-05
1.03456e-05
1.03456e-05
1.03456e-05
1.03456e-05
1.03456e-05
1.03455e-05
1.03455e-05
1.03455e-05
1.03455e-05
1.03455e-05
1.03455e-05
1.03455e-05
1.03455e-05
1.03455e-05
1.03455e-05
1.03455e-05
1.03455e-05
1.03455e-05
1.03455e-05
1.03455e-05
1.03455e-05
1.03455e-05
1.03455e-05
1.03455e-05
1.03455e-05
1.03455e-05
1.03455e-05
1.03455e-05
1.03455e-05
1.03455e-05
1.03455e-05
1.03455e-05
1.03455e-05
1.03455e-05
1.03455e-05
1.03455e-05
1.03455e-05
1.03455e-05
1.03455e-05
1.03455e-05
1.03455e-05
1.03455e-05
1.03455e-05
1.03455e-05
1.03455e-05
1.03455e-05
1.03455e-05
1.03455e-05
1.03455e-05
1.03455e-05
1.01312e-05
1.01312e-05
1.01311e-05
1.01311e-05
1.01311e-05
1.01311e-05
1.0131e-05
1.0131e-05
1.0131e-05
1.0131e-05
1.0131e-05
1.0131e-05
1.0131e-05
1.0131e-05
1.0131e-05
1.0131e-05
1.0131e-05
1.0131e-05
1.0131e-05
1.0131e-05
1.0131e-05
1.0131e-05
1.0131e-05
1.0131e-05
1.0131e-05
1.0131e-05
1.0131e-05
1.0131e-05
1.0131e-05
1.01309e-05
1.01309e-05
1.01309e-05
1.01309e-05
1.01309e-05
1.01309e-05
1.01309e-05
1.01309e-05
1.01309e-05
1.01309e-05
1.0131e-05
1.01309e-05
1.0131e-05
1.0131e-05
1.0131e-05
1.0131e-05
1.0131e-05
1.0131e-05
1.0131e-05
1.0131e-05
1.0131e-05
1.0131e-05
1.01309e-05
1.0131e-05
1.0131e-05
1.01309e-05
1.0131e-05
1.0131e-05
1.0131e-05
1.0131e-05
1.0131e-05
7.81921e-06
7.80416e-06
7.80579e-06
7.80322e-06
7.80395e-06
7.80344e-06
7.81876e-06
7.81823e-06
7.80673e-06
7.8048e-06
7.81992e-06
7.80461e-06
7.82025e-06
7.81891e-06
7.80625e-06
7.80543e-06
7.81965e-06
7.80555e-06
7.80508e-06
7.81958e-06
7.81785e-06
7.82075e-06
7.80526e-06
7.80557e-06
7.80457e-06
7.80293e-06
7.80423e-06
7.80294e-06
7.81933e-06
7.80276e-06
7.81869e-06
7.80444e-06
7.80461e-06
7.81887e-06
7.81948e-06
7.8056e-06
7.8071e-06
7.80344e-06
7.82006e-06
7.80267e-06
7.82134e-06
7.80368e-06
7.8209e-06
7.80296e-06
7.80415e-06
7.80378e-06
7.80319e-06
7.80332e-06
7.80446e-06
7.80518e-06
7.81781e-06
7.81937e-06
7.80432e-06
7.82056e-06
7.80473e-06
7.80636e-06
7.81955e-06
7.82069e-06
7.80574e-06
7.82034e-06
1.13324e-05
1.13377e-05
1.13424e-05
1.13418e-05
1.13414e-05
1.13416e-05
1.13355e-05
1.13301e-05
1.13386e-05
1.13421e-05
1.13352e-05
1.13399e-05
1.13359e-05
1.13315e-05
1.13388e-05
1.13425e-05
1.1335e-05
1.134e-05
1.13428e-05
1.13364e-05
1.1331e-05
1.13315e-05
1.13386e-05
1.13417e-05
1.13424e-05
1.13414e-05
1.13416e-05
1.13412e-05
1.13349e-05
1.13386e-05
1.13332e-05
1.13381e-05
1.13417e-05
1.1335e-05
1.13313e-05
1.13377e-05
1.13434e-05
1.1342e-05
1.13354e-05
1.13386e-05
1.13349e-05
1.13389e-05
1.13353e-05
1.13385e-05
1.13407e-05
1.1341e-05
1.13409e-05
1.1341e-05
1.13414e-05
1.13432e-05
1.13353e-05
1.13313e-05
1.13384e-05
1.13347e-05
1.13386e-05
1.13429e-05
1.1336e-05
1.13329e-05
1.134e-05
1.13357e-05
1.25937e-05
1.2599e-05
1.26042e-05
1.26058e-05
1.26052e-05
1.26055e-05
1.25992e-05
1.25915e-05
1.25983e-05
1.26045e-05
1.25971e-05
1.2602e-05
1.25979e-05
1.25927e-05
1.25989e-05
1.26048e-05
1.25971e-05
1.26015e-05
1.26056e-05
1.25995e-05
1.25933e-05
1.25911e-05
1.25988e-05
1.26034e-05
1.26055e-05
1.26057e-05
1.26053e-05
1.26053e-05
1.25975e-05
1.26018e-05
1.25954e-05
1.25997e-05
1.26044e-05
1.25979e-05
1.25921e-05
1.25978e-05
1.26044e-05
1.26057e-05
1.25978e-05
1.26018e-05
1.25959e-05
1.26011e-05
1.25963e-05
1.2601e-05
1.26034e-05
1.26044e-05
1.26046e-05
1.26048e-05
1.26046e-05
1.26064e-05
1.25994e-05
1.25925e-05
1.25998e-05
1.25956e-05
1.25998e-05
1.26049e-05
1.25986e-05
1.25935e-05
1.2601e-05
1.25971e-05
1.31149e-05
1.31181e-05
1.31223e-05
1.31254e-05
1.31251e-05
1.31254e-05
1.31214e-05
1.31139e-05
1.31167e-05
1.31228e-05
1.31179e-05
1.31212e-05
1.31188e-05
1.31141e-05
1.31172e-05
1.31232e-05
1.31181e-05
1.31203e-05
1.31243e-05
1.31208e-05
1.31159e-05
1.31119e-05
1.3117e-05
1.31215e-05
1.31241e-05
1.31256e-05
1.31251e-05
1.31254e-05
1.31193e-05
1.3122e-05
1.31171e-05
1.3119e-05
1.31232e-05
1.31195e-05
1.31137e-05
1.31164e-05
1.31216e-05
1.31249e-05
1.3119e-05
1.31218e-05
1.31168e-05
1.31204e-05
1.31168e-05
1.31204e-05
1.31226e-05
1.31239e-05
1.31243e-05
1.31248e-05
1.31242e-05
1.31255e-05
1.31216e-05
1.31144e-05
1.31189e-05
1.31161e-05
1.31186e-05
1.31231e-05
1.31197e-05
1.31144e-05
1.31195e-05
1.31174e-05
1.33096e-05
1.33112e-05
1.33137e-05
1.33172e-05
1.33175e-05
1.33179e-05
1.33158e-05
1.33102e-05
1.33103e-05
1.33141e-05
1.33118e-05
1.33137e-05
1.33125e-05
1.33093e-05
1.33103e-05
1.33145e-05
1.33119e-05
1.33129e-05
1.33158e-05
1.33144e-05
1.33117e-05
1.33071e-05
1.33096e-05
1.3313e-05
1.33154e-05
1.33177e-05
1.33176e-05
1.33181e-05
1.33139e-05
1.33153e-05
1.33121e-05
1.33125e-05
1.33151e-05
1.33135e-05
1.33092e-05
1.33099e-05
1.33124e-05
1.33166e-05
1.3313e-05
1.33149e-05
1.33111e-05
1.33133e-05
1.33107e-05
1.33131e-05
1.33148e-05
1.33163e-05
1.33168e-05
1.33175e-05
1.33169e-05
1.33175e-05
1.33158e-05
1.33102e-05
1.33122e-05
1.33102e-05
1.33115e-05
1.33146e-05
1.33133e-05
1.33093e-05
1.33119e-05
1.33109e-05
1.33457e-05
1.33465e-05
1.33476e-05
1.33503e-05
1.33512e-05
1.33519e-05
1.33509e-05
1.33478e-05
1.33461e-05
1.33481e-05
1.3347e-05
1.33482e-05
1.33476e-05
1.33459e-05
1.33457e-05
1.3348e-05
1.33471e-05
1.33475e-05
1.33493e-05
1.33489e-05
1.33479e-05
1.33444e-05
1.33451e-05
1.33469e-05
1.33487e-05
1.33512e-05
1.33514e-05
1.33522e-05
1.33496e-05
1.33502e-05
1.33483e-05
1.33479e-05
1.33492e-05
1.33486e-05
1.33462e-05
1.33457e-05
1.33464e-05
1.33497e-05
1.3348e-05
1.33494e-05
1.33469e-05
1.33481e-05
1.33462e-05
1.33477e-05
1.33488e-05
1.33502e-05
1.33507e-05
1.33516e-05
1.33512e-05
1.33513e-05
1.33507e-05
1.33472e-05
1.33476e-05
1.33461e-05
1.33466e-05
1.33482e-05
1.3348e-05
1.33456e-05
1.33467e-05
1.3346e-05
1.33002e-05
1.33007e-05
1.3301e-05
1.33026e-05
1.33037e-05
1.33045e-05
1.33042e-05
1.33029e-05
1.33008e-05
1.33015e-05
1.3301e-05
1.33017e-05
1.33013e-05
1.33007e-05
1.32999e-05
1.33011e-05
1.33009e-05
1.33011e-05
1.33021e-05
1.3302e-05
1.3302e-05
1.33e-05
1.32998e-05
1.33004e-05
1.33014e-05
1.33035e-05
1.33039e-05
1.33049e-05
1.33035e-05
1.33038e-05
1.33027e-05
1.33021e-05
1.33025e-05
1.33023e-05
1.33012e-05
1.33005e-05
1.33001e-05
1.33021e-05
1.33015e-05
1.33027e-05
1.33012e-05
1.33019e-05
1.33005e-05
1.33013e-05
1.3302e-05
1.33031e-05
1.33036e-05
1.33044e-05
1.33044e-05
1.33041e-05
1.33039e-05
1.33021e-05
1.33019e-05
1.33005e-05
1.33007e-05
1.33012e-05
1.33014e-05
1.33002e-05
1.33005e-05
1.33e-05
1.32104e-05
1.32108e-05
1.32108e-05
1.32115e-05
1.32124e-05
1.32132e-05
1.32132e-05
1.32129e-05
1.32114e-05
1.32114e-05
1.32109e-05
1.32113e-05
1.32109e-05
1.32109e-05
1.32103e-05
1.32106e-05
1.32107e-05
1.32108e-05
1.32112e-05
1.32112e-05
1.32116e-05
1.32107e-05
1.32102e-05
1.32103e-05
1.32107e-05
1.3212e-05
1.32125e-05
1.32136e-05
1.32129e-05
1.32132e-05
1.32127e-05
1.32122e-05
1.32121e-05
1.3212e-05
1.32115e-05
1.32111e-05
1.32101e-05
1.32113e-05
1.3211e-05
1.3212e-05
1.32111e-05
1.32116e-05
1.32107e-05
1.32111e-05
1.32114e-05
1.32121e-05
1.32126e-05
1.32133e-05
1.32134e-05
1.32131e-05
1.32131e-05
1.32124e-05
1.3212e-05
1.32108e-05
1.32109e-05
1.32108e-05
1.3211e-05
1.32104e-05
1.32104e-05
1.321e-05
1.30949e-05
1.30952e-05
1.3095e-05
1.30953e-05
1.30958e-05
1.30966e-05
1.30966e-05
1.30968e-05
1.30961e-05
1.30958e-05
1.30953e-05
1.30955e-05
1.30951e-05
1.30953e-05
1.3095e-05
1.30948e-05
1.30949e-05
1.30949e-05
1.30951e-05
1.30951e-05
1.30956e-05
1.30953e-05
1.30949e-05
1.30948e-05
1.30949e-05
1.30956e-05
1.3096e-05
1.30969e-05
1.30966e-05
1.30969e-05
1.30967e-05
1.30965e-05
1.30961e-05
1.30961e-05
1.30959e-05
1.30957e-05
1.30948e-05
1.30953e-05
1.30951e-05
1.30958e-05
1.30953e-05
1.30957e-05
1.30951e-05
1.30954e-05
1.30955e-05
1.30958e-05
1.30962e-05
1.30967e-05
1.3097e-05
1.30968e-05
1.30968e-05
1.30966e-05
1.30963e-05
1.30954e-05
1.30954e-05
1.30951e-05
1.30951e-05
1.30948e-05
1.30947e-05
1.30944e-05
1.2963e-05
1.29632e-05
1.2963e-05
1.29631e-05
1.29633e-05
1.29639e-05
1.29639e-05
1.29643e-05
1.2964e-05
1.29638e-05
1.29633e-05
1.29634e-05
1.29631e-05
1.29633e-05
1.29631e-05
1.29628e-05
1.29629e-05
1.29629e-05
1.29629e-05
1.29628e-05
1.29632e-05
1.29632e-05
1.2963e-05
1.29629e-05
1.29629e-05
1.29632e-05
1.29634e-05
1.29641e-05
1.29641e-05
1.29643e-05
1.29642e-05
1.29642e-05
1.2964e-05
1.29639e-05
1.29638e-05
1.29638e-05
1.29631e-05
1.29633e-05
1.29631e-05
1.29635e-05
1.29632e-05
1.29636e-05
1.29632e-05
1.29633e-05
1.29634e-05
1.29635e-05
1.29638e-05
1.2964e-05
1.29644e-05
1.29643e-05
1.29643e-05
1.29643e-05
1.29642e-05
1.29635e-05
1.29635e-05
1.29632e-05
1.29631e-05
1.29629e-05
1.29628e-05
1.29624e-05
1.28195e-05
1.28197e-05
1.28195e-05
1.28195e-05
1.28196e-05
1.28198e-05
1.28199e-05
1.28202e-05
1.28202e-05
1.282e-05
1.28197e-05
1.28198e-05
1.28195e-05
1.28196e-05
1.28196e-05
1.28193e-05
1.28193e-05
1.28193e-05
1.28192e-05
1.28191e-05
1.28194e-05
1.28194e-05
1.28194e-05
1.28193e-05
1.28194e-05
1.28194e-05
1.28196e-05
1.28199e-05
1.282e-05
1.28203e-05
1.28203e-05
1.28204e-05
1.28202e-05
1.28202e-05
1.28201e-05
1.28202e-05
1.28197e-05
1.28197e-05
1.28195e-05
1.28198e-05
1.28196e-05
1.28199e-05
1.28196e-05
1.28197e-05
1.28197e-05
1.28198e-05
1.282e-05
1.28201e-05
1.28204e-05
1.28203e-05
1.28203e-05
1.28203e-05
1.28203e-05
1.282e-05
1.282e-05
1.28197e-05
1.28195e-05
1.28193e-05
1.28193e-05
1.2819e-05
1.26669e-05
1.2667e-05
1.26668e-05
1.26668e-05
1.26668e-05
1.26669e-05
1.26669e-05
1.26672e-05
1.26672e-05
1.26671e-05
1.26669e-05
1.2667e-05
1.26668e-05
1.26669e-05
1.26669e-05
1.26667e-05
1.26666e-05
1.26665e-05
1.26665e-05
1.26663e-05
1.26665e-05
1.26666e-05
1.26666e-05
1.26666e-05
1.26666e-05
1.26666e-05
1.26667e-05
1.26669e-05
1.26669e-05
1.26672e-05
1.26672e-05
1.26674e-05
1.26672e-05
1.26673e-05
1.26673e-05
1.26673e-05
1.2667e-05
1.2667e-05
1.26668e-05
1.2667e-05
1.26669e-05
1.2667e-05
1.26669e-05
1.2667e-05
1.2667e-05
1.2667e-05
1.26671e-05
1.26672e-05
1.26673e-05
1.26673e-05
1.26672e-05
1.26673e-05
1.26674e-05
1.26672e-05
1.26672e-05
1.2667e-05
1.26668e-05
1.26667e-05
1.26666e-05
1.26664e-05
1.25065e-05
1.25065e-05
1.25063e-05
1.25062e-05
1.25062e-05
1.25062e-05
1.25062e-05
1.25064e-05
1.25064e-05
1.25064e-05
1.25063e-05
1.25063e-05
1.25062e-05
1.25063e-05
1.25063e-05
1.25061e-05
1.25061e-05
1.2506e-05
1.25059e-05
1.25058e-05
1.25059e-05
1.25059e-05
1.2506e-05
1.2506e-05
1.2506e-05
1.2506e-05
1.25061e-05
1.25062e-05
1.25062e-05
1.25064e-05
1.25064e-05
1.25066e-05
1.25065e-05
1.25065e-05
1.25065e-05
1.25066e-05
1.25064e-05
1.25064e-05
1.25063e-05
1.25064e-05
1.25063e-05
1.25064e-05
1.25063e-05
1.25064e-05
1.25064e-05
1.25064e-05
1.25065e-05
1.25065e-05
1.25066e-05
1.25065e-05
1.25065e-05
1.25066e-05
1.25067e-05
1.25065e-05
1.25066e-05
1.25064e-05
1.25063e-05
1.25061e-05
1.25061e-05
1.25059e-05
1.23389e-05
1.23389e-05
1.23387e-05
1.23386e-05
1.23385e-05
1.23385e-05
1.23385e-05
1.23386e-05
1.23386e-05
1.23386e-05
1.23385e-05
1.23386e-05
1.23385e-05
1.23385e-05
1.23386e-05
1.23384e-05
1.23384e-05
1.23383e-05
1.23383e-05
1.23381e-05
1.23382e-05
1.23383e-05
1.23383e-05
1.23383e-05
1.23383e-05
1.23383e-05
1.23384e-05
1.23384e-05
1.23384e-05
1.23386e-05
1.23386e-05
1.23387e-05
1.23387e-05
1.23387e-05
1.23387e-05
1.23388e-05
1.23387e-05
1.23387e-05
1.23386e-05
1.23387e-05
1.23386e-05
1.23387e-05
1.23386e-05
1.23387e-05
1.23387e-05
1.23387e-05
1.23387e-05
1.23387e-05
1.23388e-05
1.23388e-05
1.23387e-05
1.23387e-05
1.23388e-05
1.23387e-05
1.23388e-05
1.23387e-05
1.23386e-05
1.23385e-05
1.23384e-05
1.23383e-05
1.21645e-05
1.21645e-05
1.21644e-05
1.21643e-05
1.21642e-05
1.21642e-05
1.21641e-05
1.21642e-05
1.21642e-05
1.21642e-05
1.21641e-05
1.21642e-05
1.21641e-05
1.21641e-05
1.21642e-05
1.21641e-05
1.21641e-05
1.2164e-05
1.21639e-05
1.21638e-05
1.21639e-05
1.21639e-05
1.21639e-05
1.21639e-05
1.2164e-05
1.2164e-05
1.2164e-05
1.2164e-05
1.2164e-05
1.21641e-05
1.21641e-05
1.21642e-05
1.21642e-05
1.21642e-05
1.21643e-05
1.21643e-05
1.21642e-05
1.21642e-05
1.21642e-05
1.21643e-05
1.21642e-05
1.21643e-05
1.21642e-05
1.21643e-05
1.21643e-05
1.21643e-05
1.21643e-05
1.21643e-05
1.21644e-05
1.21643e-05
1.21643e-05
1.21643e-05
1.21644e-05
1.21643e-05
1.21644e-05
1.21643e-05
1.21642e-05
1.21641e-05
1.21641e-05
1.2164e-05
1.19838e-05
1.19838e-05
1.19837e-05
1.19836e-05
1.19835e-05
1.19835e-05
1.19834e-05
1.19835e-05
1.19835e-05
1.19834e-05
1.19833e-05
1.19834e-05
1.19833e-05
1.19833e-05
1.19834e-05
1.19833e-05
1.19833e-05
1.19832e-05
1.19832e-05
1.19831e-05
1.19831e-05
1.19832e-05
1.19832e-05
1.19832e-05
1.19832e-05
1.19832e-05
1.19832e-05
1.19833e-05
1.19832e-05
1.19833e-05
1.19833e-05
1.19834e-05
1.19834e-05
1.19834e-05
1.19834e-05
1.19835e-05
1.19834e-05
1.19834e-05
1.19834e-05
1.19834e-05
1.19834e-05
1.19835e-05
1.19835e-05
1.19835e-05
1.19835e-05
1.19835e-05
1.19835e-05
1.19835e-05
1.19836e-05
1.19835e-05
1.19835e-05
1.19835e-05