/*--------------------------------*- C++ -*----------------------------------*\
| =========                 |                                                 |
| \\      /  F ield         | OpenFOAM: The Open Source CFD Toolbox           |
|  \\    /   O peration     | Version:  2312                                  |
|   \\  /    A nd           | Website:  www.openfoam.com                      |
|    \\/     M anipulation  |                                                 |
\*---------------------------------------------------------------------------*/
FoamFile
{
    version     2.0;
    format      ascii;
    arch        "LSB;label=32;scalar=64";
    class       volScalarField;
    location    "800";
    object      p;
}
// * * * * * * * * * * * * * * * * * * * * * * * * * * * * * * * * * * * * * //

dimensions      [0 2 -2 0 0 0 0];

internalField   nonuniform List<scalar> 
144000
(
1.33502e-09
-1.44376e-08
-9.78787e-08
-1.28901e-07
3.93683e-08
-1.52765e-08
-4.21244e-08
1.31817e-07
1.57102e-07
3.93099e-08
-6.23119e-09
-3.09226e-09
-6.23628e-08
-9.70084e-08
-1.97718e-08
1.26006e-07
5.35002e-08
-6.81891e-08
-1.33241e-07
7.36737e-09
2.26022e-07
1.07962e-07
-7.41783e-08
4.48116e-08
4.02628e-08
-1.15876e-07
4.14167e-08
-7.74114e-09
-1.19632e-07
7.04874e-08
7.64768e-08
7.73764e-08
1.27124e-08
9.74095e-09
1.76729e-07
1.91712e-07
1.55775e-08
3.54309e-08
1.12254e-07
-7.52511e-08
8.508e-08
1.3235e-07
1.32263e-09
-3.67114e-08
8.15281e-09
1.87882e-07
9.83296e-08
-5.90672e-08
-5.39706e-08
-9.37991e-08
-1.23585e-07
9.75806e-08
6.82107e-08
-1.56684e-07
-2.90468e-08
1.30835e-07
5.36305e-08
-2.63417e-08
-2.64708e-08
-1.77374e-08
1.39992e-09
-1.40055e-08
-9.67748e-08
-1.1767e-07
3.80455e-08
-1.46136e-08
-3.1245e-08
1.30135e-07
1.44534e-07
2.85493e-08
-4.96827e-09
-2.61843e-09
-6.16033e-08
-8.44831e-08
-1.01277e-08
1.12202e-07
4.25011e-08
-6.61763e-08
-1.20639e-07
1.63404e-08
2.11694e-07
9.84691e-08
-6.05324e-08
4.33441e-08
2.96889e-08
-1.02799e-07
3.9887e-08
-1.86114e-08
-1.07348e-07
6.95052e-08
7.63006e-08
7.72477e-08
1.3323e-08
2.09173e-08
1.74919e-07
1.80185e-07
1.70329e-08
3.42552e-08
1.01737e-07
-6.23289e-08
8.35159e-08
1.20844e-07
2.88108e-09
-2.35664e-08
1.77022e-08
1.74093e-07
8.77593e-08
-5.78234e-08
-5.35035e-08
-9.26706e-08
-1.12258e-07
9.55538e-08
5.74986e-08
-1.42983e-07
-1.94472e-08
1.16755e-07
4.26418e-08
-2.53135e-08
-2.59704e-08
-1.78341e-08
1.20966e-09
-1.35495e-08
-9.47841e-08
-1.13854e-07
3.6035e-08
-1.33491e-08
-2.77223e-08
1.27116e-07
1.38981e-07
2.56678e-08
-3.04484e-09
-1.96144e-09
-6.03231e-08
-7.87198e-08
-8.54441e-09
1.04771e-07
3.91764e-08
-6.25918e-08
-1.14611e-07
1.69812e-08
2.03512e-07
9.69269e-08
-5.42254e-08
4.06642e-08
2.71112e-08
-9.71138e-08
3.73924e-08
-2.1446e-08
-1.02218e-07
6.80572e-08
7.58058e-08
7.71386e-08
1.45488e-08
2.46863e-08
1.71701e-07
1.75871e-07
1.92739e-08
3.25931e-08
9.91131e-08
-5.65761e-08
8.07332e-08
1.16654e-07
5.68495e-09
-1.7248e-08
1.91504e-08
1.66571e-07
8.48101e-08
-5.58359e-08
-5.28581e-08
-9.04521e-08
-1.08538e-07
9.20761e-08
5.45541e-08
-1.35998e-07
-1.77383e-08
1.09451e-07
3.92719e-08
-2.37025e-08
-2.51559e-08
-1.79239e-08
8.64658e-10
-1.33513e-08
-9.20714e-08
-1.1088e-07
3.3403e-08
-1.15774e-08
-2.53648e-08
1.22497e-07
1.34127e-07
2.46781e-08
-8.53279e-10
-1.19272e-09
-5.8474e-08
-7.39227e-08
-8.93894e-09
9.73608e-08
3.73348e-08
-5.81573e-08
-1.087e-07
1.57654e-08
1.94951e-07
9.70203e-08
-4.83854e-08
3.72784e-08
2.61111e-08
-9.20072e-08
3.39768e-08
-2.22752e-08
-9.76379e-08
6.60879e-08
7.51756e-08
7.69891e-08
1.66856e-08
2.72809e-08
1.67169e-07
1.72259e-07
2.19674e-08
3.08347e-08
9.7786e-08
-5.10551e-08
7.69935e-08
1.13503e-07
9.24555e-09
-1.1632e-08
1.88474e-08
1.58789e-07
8.32907e-08
-5.32142e-08
-5.23011e-08
-8.74063e-08
-1.05593e-07
8.71885e-08
5.32576e-08
-1.28951e-07
-1.80597e-08
1.02396e-07
3.7435e-08
-2.17968e-08
-2.42148e-08
-1.78413e-08
4.42168e-10
-1.33805e-08
-8.86669e-08
-1.07433e-07
3.04195e-08
-9.44711e-09
-2.29414e-08
1.16806e-07
1.28789e-07
2.40417e-08
1.48139e-09
-2.13994e-10
-5.6075e-08
-6.87845e-08
-9.8278e-09
8.90128e-08
3.5521e-08
-5.31104e-08
-1.01693e-07
1.42804e-08
1.85119e-07
9.71393e-08
-4.19596e-08
3.33585e-08
2.52553e-08
-8.63668e-08
2.98493e-08
-2.24446e-08
-9.25198e-08
6.36822e-08
7.44438e-08
7.67786e-08
1.96936e-08
2.99035e-08
1.61407e-07
1.68008e-07
2.52826e-08
2.90186e-08
9.63957e-08
-4.46807e-08
7.25022e-08
1.10022e-07
1.32685e-08
-5.50698e-09
1.83433e-08
1.49765e-07
8.17484e-08
-5.00332e-08
-5.17865e-08
-8.36039e-08
-1.02092e-07
8.08799e-08
5.18839e-08
-1.20555e-07
-1.89475e-08
9.43641e-08
3.56626e-08
-1.97214e-08
-2.31765e-08
-1.75566e-08
-1.33106e-11
-1.35516e-08
-8.46835e-08
-1.0359e-07
2.70229e-08
-7.12213e-09
-2.05228e-08
1.10427e-07
1.23137e-07
2.35582e-08
3.77155e-09
1.02487e-09
-5.32196e-08
-6.29753e-08
-1.09682e-08
8.01107e-08
3.36648e-08
-4.7707e-08
-9.39199e-08
1.27736e-08
1.74527e-07
9.71439e-08
-3.51974e-08
2.91435e-08
2.44375e-08
-8.03884e-08
2.53551e-08
-2.20483e-08
-8.70581e-08
6.09736e-08
7.36237e-08
7.65237e-08
2.30136e-08
3.2474e-08
1.54913e-07
1.63156e-07
2.92214e-08
2.71984e-08
9.4892e-08
-3.76672e-08
6.75669e-08
1.06248e-07
1.73773e-08
9.62428e-10
1.78692e-08
1.39857e-07
8.00829e-08
-4.64486e-08
-5.12642e-08
-7.92033e-08
-9.81086e-08
7.36956e-08
5.04643e-08
-1.11446e-07
-2.01773e-08
8.56527e-08
3.38263e-08
-1.76107e-08
-2.20298e-08
-1.70978e-08
-4.76847e-10
-1.37888e-08
-8.03018e-08
-9.95179e-08
2.33132e-08
-4.72664e-09
-1.82155e-08
1.03621e-07
1.17396e-07
2.32013e-08
5.8157e-09
2.48547e-09
-5.0054e-08
-5.72683e-08
-1.22616e-08
7.1096e-08
3.17691e-08
-4.22182e-08
-8.57891e-08
1.13675e-08
1.63573e-07
9.68314e-08
-2.84059e-08
2.48944e-08
2.36376e-08
-7.43271e-08
2.0788e-08
-2.11204e-08
-8.14492e-08
5.80626e-08
7.27131e-08
7.62451e-08
2.65158e-08
3.48972e-08
1.48048e-07
1.57848e-07
3.35797e-08
2.54901e-08
9.32818e-08
-3.02288e-08
6.24656e-08
1.02381e-07
2.14172e-08
7.4789e-09
1.75478e-08
1.29535e-07
7.83063e-08
-4.26039e-08
-5.07191e-08
-7.44474e-08
-9.3803e-08
6.60889e-08
4.90287e-08
-1.02174e-07
-2.15884e-08
7.69869e-08
3.194e-08
-1.55746e-08
-2.08176e-08
-1.65356e-08
-9.43435e-10
-1.4036e-08
-7.56981e-08
-9.53001e-08
1.94701e-08
-2.38126e-09
-1.60124e-08
9.6581e-08
1.11632e-07
2.29555e-08
7.49641e-09
4.08274e-09
-4.67198e-08
-5.18846e-08
-1.35255e-08
6.22658e-08
2.97796e-08
-3.68394e-08
-7.75649e-08
1.01625e-08
1.52578e-07
9.6125e-08
-2.17537e-08
2.08135e-08
2.27904e-08
-6.83046e-08
1.63445e-08
-1.97666e-08
-7.57549e-08
5.50195e-08
7.16923e-08
7.59451e-08
3.01469e-08
3.72092e-08
1.41038e-07
1.52172e-07
3.81351e-08
2.4009e-08
9.1513e-08
-2.247e-08
5.74378e-08
9.84788e-08
2.52328e-08
1.38469e-08
1.75022e-08
1.19143e-07
7.63792e-08
-3.85831e-08
-5.01272e-08
-6.95725e-08
-8.92673e-08
5.82859e-08
4.75215e-08
-9.30122e-08
-2.30697e-08
6.86256e-08
2.9994e-08
-1.36681e-08
-1.95902e-08
-1.59501e-08
-1.42017e-09
-1.42568e-08
-7.1009e-08
-9.09914e-08
1.56304e-08
-1.50491e-10
-1.38816e-08
8.94463e-08
1.05861e-07
2.28211e-08
8.78346e-09
5.7387e-09
-4.33096e-08
-4.68664e-08
-1.46249e-08
5.38366e-08
2.78219e-08
-3.16907e-08
-6.94164e-08
9.20088e-09
1.4179e-07
9.50217e-08
-1.53753e-08
1.70263e-08
2.18547e-08
-6.23656e-08
1.21398e-08
-1.81011e-08
-7.00133e-08
5.19057e-08
7.05398e-08
7.56026e-08
3.38466e-08
3.9499e-08
1.34017e-07
1.46231e-07
4.27011e-08
2.28059e-08
8.95212e-08
-1.46724e-08
5.2649e-08
9.45667e-08
2.86956e-08
1.97284e-08
1.77985e-08
1.08944e-07
7.42691e-08
-3.44354e-08
-4.94449e-08
-6.4754e-08
-8.45772e-08
5.05071e-08
4.58829e-08
-8.4117e-08
-2.44008e-08
6.0646e-08
2.79954e-08
-1.19066e-08
-1.83753e-08
-1.53937e-08
-1.91267e-09
-1.44295e-08
-6.6336e-08
-8.66423e-08
1.18809e-08
1.91382e-09
-1.18041e-08
8.23301e-08
1.00125e-07
2.27988e-08
9.69899e-09
7.39551e-09
-3.98733e-08
-4.22334e-08
-1.54899e-08
4.59494e-08
2.59182e-08
-2.68502e-08
-6.14795e-08
8.49091e-09
1.31379e-07
9.35307e-08
-9.33545e-09
1.36065e-08
2.08435e-08
-5.65432e-08
8.24277e-09
-1.6232e-08
-6.42885e-08
4.87898e-08
6.92464e-08
7.51849e-08
3.75353e-08
4.16938e-08
1.27116e-07
1.40136e-07
4.71287e-08
2.19282e-08
8.72908e-08
-6.57607e-09
4.82246e-08
9.06828e-08
3.17366e-08
2.50175e-08
1.84461e-08
9.91274e-08
7.19646e-08
-3.02081e-08
-4.86239e-08
-6.01065e-08
-7.98022e-08
4.29208e-08
4.40658e-08
-7.55985e-08
-2.55186e-08
5.30426e-08
2.59861e-08
-1.02918e-08
-1.7183e-08
-1.48816e-08
-2.41965e-09
-1.454e-08
-6.17538e-08
-8.2296e-08
8.27981e-09
3.76653e-09
-9.77359e-09
7.53449e-08
9.44673e-08
2.28784e-08
1.02926e-08
9.00212e-09
-3.64367e-08
-3.79934e-08
-1.60897e-08
3.86783e-08
2.40515e-08
-2.23697e-08
-5.38752e-08
8.03075e-09
1.21455e-07
9.16689e-08
-3.68283e-09
1.06131e-08
1.97888e-08
-5.08926e-08
4.70299e-09
-1.42593e-08
-5.86398e-08
4.57463e-08
6.78195e-08
7.46627e-08
4.11168e-08
4.37455e-08
1.20523e-07
1.33982e-07
5.13025e-08
2.14679e-08
8.48243e-08
1.14327e-09
4.42808e-08
8.68709e-08
3.43397e-08
2.96512e-08
1.94181e-08
8.98599e-08
6.9461e-08
-2.59572e-08
-4.76204e-08
-5.5707e-08
-7.50047e-08
3.56537e-08
4.20399e-08
-6.75381e-08
-2.6413e-08
4.55957e-08
2.40055e-08
-8.8204e-09
-1.60162e-08
-1.4408e-08
-2.9344e-09
-1.45777e-08
-5.73168e-08
-7.79865e-08
4.86891e-09
5.37004e-09
-7.79038e-09
6.85969e-08
8.88995e-08
2.30363e-08
1.06091e-08
1.05102e-08
-3.30165e-08
-3.41394e-08
-1.6417e-08
3.20564e-08
2.22083e-08
-1.8276e-08
-4.66739e-08
7.81413e-09
1.12089e-07
8.9463e-08
1.5493e-09
8.0866e-09
1.86957e-08
-4.54682e-08
1.56666e-09
-1.22658e-08
-5.31011e-08
4.2837e-08
6.62817e-08
7.40167e-08
4.45052e-08
4.56637e-08
1.14338e-07
1.27841e-07
5.51329e-08
2.14632e-08
8.2135e-08
8.49814e-09
4.0907e-08
8.31685e-08
3.65159e-08
3.36024e-08
2.06695e-08
8.1244e-08
6.67564e-08
-2.1746e-08
-4.63989e-08
-5.16085e-08
-7.02406e-08
2.88157e-08
3.97929e-08
-5.99954e-08
-2.70681e-08
3.88917e-08
2.20683e-08
-7.48171e-09
-1.48766e-08
-1.39637e-08
-3.4469e-09
-1.45355e-08
-5.30612e-08
-7.37381e-08
1.68019e-09
6.69704e-09
-5.85843e-09
6.217e-08
8.33237e-08
2.32442e-08
1.06883e-08
1.18745e-08
-2.96282e-08
-3.06497e-08
-1.64813e-08
2.60954e-08
2.03845e-08
-1.45855e-08
-3.99198e-08
7.82718e-09
1.03327e-07
8.69512e-08
6.34072e-09
6.04418e-09
1.75611e-08
-4.02963e-08
-1.10848e-09
-1.03125e-08
-4.76966e-08
4.00861e-08
6.46682e-08
7.32399e-08
4.76422e-08
4.74554e-08
1.08599e-07
1.21778e-07
5.85489e-08
2.19012e-08
7.92574e-08
1.54163e-08
3.81535e-08
7.96065e-08
3.82876e-08
3.68735e-08
2.21418e-08
7.33443e-08
6.38584e-08
-1.764e-08
-4.49346e-08
-4.78425e-08
-6.55601e-08
2.24902e-08
3.73318e-08
-5.30104e-08
-2.74709e-08
3.24917e-08
2.01608e-08
-6.30183e-09
-1.37688e-08
-1.35433e-08
-3.9456e-09
-1.44118e-08
-4.90099e-08
-6.9567e-08
-1.26037e-09
7.73358e-09
-3.98672e-09
5.61222e-08
7.81124e-08
2.34821e-08
1.05808e-08
1.30538e-08
-2.62899e-08
-2.74915e-08
-1.63007e-08
2.07926e-08
1.85812e-08
-1.13031e-08
-3.36393e-08
8.04645e-09
9.51898e-08
8.41825e-08
1.06818e-08
4.48243e-09
1.63894e-08
-3.53929e-08
-3.32378e-09
-8.43848e-09
-4.24488e-08
3.75125e-08
6.30185e-08
7.23355e-08
5.04903e-08
4.91177e-08
1.0332e-07
1.15852e-07
6.15045e-08
2.27506e-08
7.62377e-08
2.18277e-08
3.60329e-08
7.62071e-08
3.97017e-08
3.94892e-08
2.37658e-08
6.61992e-08
6.07884e-08
-1.37011e-08
-4.32181e-08
-4.44199e-08
-6.10052e-08
1.67321e-08
3.46802e-08
-4.66075e-08
-2.76126e-08
2.69195e-08
1.82635e-08
-5.30131e-09
-1.27046e-08
-1.31512e-08
-4.42226e-09
-1.42134e-08
-4.51814e-08
-6.54822e-08
-3.93059e-09
8.48269e-09
-2.19115e-09
5.04805e-08
7.29402e-08
2.37352e-08
1.03379e-08
1.40133e-08
-2.30237e-08
-2.46318e-08
-1.58901e-08
1.61285e-08
1.6803e-08
-8.43145e-09
-2.78445e-08
8.43962e-09
8.76794e-08
8.12121e-08
1.45703e-08
3.38225e-09
1.51952e-08
-3.07799e-08
-5.09278e-09
-6.66503e-09
-3.73762e-08
3.51479e-08
6.13662e-08
7.13126e-08
5.30275e-08
5.06519e-08
9.84962e-08
1.10116e-07
6.40688e-08
2.40094e-08
7.31342e-08
2.76797e-08
3.45255e-08
7.29733e-08
4.08263e-08
4.15039e-08
2.54674e-08
5.98226e-08
5.75788e-08
-9.98529e-09
-4.1258e-08
-4.13405e-08
-5.66083e-08
1.15716e-08
3.18756e-08
-4.08e-08
-2.75068e-08
2.16456e-08
1.63943e-08
-4.47196e-09
-1.1705e-08
-1.278e-08
-4.87699e-09
-1.39582e-08
-4.15878e-08
-6.14875e-08
-6.313e-09
8.96223e-09
-4.91997e-10
4.52627e-08
6.78349e-08
2.39848e-08
1.00042e-08
1.47339e-08
-1.98548e-08
-2.20105e-08
-1.52673e-08
1.20786e-08
1.506e-08
-5.94087e-09
-2.25312e-08
8.97016e-09
8.07911e-08
7.80953e-08
1.80097e-08
2.71341e-09
1.40007e-08
-2.64722e-08
-6.4342e-09
-5.00394e-09
-3.24931e-08
3.30172e-08
5.97372e-08
7.01835e-08
5.52433e-08
5.20754e-08
9.41086e-08
1.0461e-07
6.59103e-08
2.54421e-08
7.00081e-08
3.29314e-08
3.35902e-08
6.99214e-08
4.17207e-08
4.29814e-08
2.71738e-08
5.42432e-08
5.42717e-08
-6.54175e-09
-3.90781e-08
-3.85796e-08
-5.23934e-08
7.01932e-09
2.89678e-08
-3.55901e-08
-2.71668e-08
1.69056e-08
1.4562e-08
-3.81536e-09
-1.07906e-08
-1.2443e-08
-5.31017e-09
-1.3672e-08
-3.82453e-08
-5.75856e-08
-8.39764e-09
9.19392e-09
1.09139e-09
4.04858e-08
6.2828e-08
2.42043e-08
9.62335e-09
1.52129e-08
-1.68119e-08
-1.96006e-08
-1.44744e-08
8.61609e-09
1.33673e-08
-3.80523e-09
-1.76986e-08
9.60223e-09
7.45104e-08
7.48844e-08
2.10094e-08
2.43811e-09
1.28327e-08
-2.24792e-08
-7.36959e-09
-3.46387e-09
-2.78117e-08
3.11364e-08
5.81518e-08
6.89637e-08
5.7133e-08
5.33791e-08
9.01331e-08
9.93786e-08
6.72491e-08
2.71699e-08
6.69183e-08
3.75565e-08
3.31724e-08
6.70666e-08
4.24249e-08
4.39852e-08
2.88208e-08
4.93488e-08
5.09174e-08
-3.40992e-09
-3.6713e-08
-3.61057e-08
-4.83779e-08
3.06895e-09
2.60158e-08
-3.09598e-08
-2.6619e-08
1.26725e-08
1.27694e-08
-3.32192e-09
-9.97294e-09
-1.21079e-08
-5.71058e-09
-1.33801e-08
-3.5152e-08
-5.37819e-08
-1.0184e-08
9.19807e-09
2.54385e-09
3.61617e-08
5.79352e-08
2.43625e-08
9.23592e-09
1.54506e-08
-1.39238e-08
-1.73746e-08
-1.34173e-08
5.71397e-09
1.1744e-08
-1.99137e-09
-1.33445e-08
1.03029e-08
6.88132e-08
7.16278e-08
2.35843e-08
2.51336e-09
1.17189e-08
-1.88033e-08
-7.9284e-09
-2.05349e-09
-2.33415e-08
2.95142e-08
5.66265e-08
6.76705e-08
5.86958e-08
5.45658e-08
8.65427e-08
9.44605e-08
6.81057e-08
2.90795e-08
6.39171e-08
4.15443e-08
3.3206e-08
6.44111e-08
4.2981e-08
4.45843e-08
3.03569e-08
4.52123e-08
4.75723e-08
-6.10581e-10
-3.42036e-08
-3.38776e-08
-4.45753e-08
-3.00302e-10
2.30807e-08
-2.68608e-08
-2.59016e-08
8.91308e-09
1.10216e-08
-2.98796e-09
-9.25435e-09
-1.17705e-08
-6.0852e-09
-1.3101e-08
-3.2301e-08
-5.0085e-08
-1.16795e-08
8.99346e-09
3.85419e-09
3.22959e-08
5.32e-08
2.44254e-08
8.87557e-09
1.54606e-08
-1.12167e-08
-1.5313e-08
-1.2279e-08
3.34312e-09
1.02088e-08
-4.69347e-10
-9.46046e-09
1.10423e-08
6.36681e-08
6.83699e-08
2.57551e-08
2.89262e-09
1.06831e-08
-1.5441e-08
-8.14481e-09
-7.75609e-10
-1.90909e-08
2.81526e-08
5.51737e-08
6.63227e-08
5.99351e-08
5.55115e-08
8.32996e-08
8.98856e-08
6.8513e-08
3.11074e-08
6.1049e-08
4.48979e-08
3.36182e-08
6.19505e-08
4.34263e-08
4.48486e-08
3.17451e-08
4.1686e-08
4.42942e-08
1.84985e-09
-3.15927e-08
-3.18477e-08
-4.09962e-08
-3.12117e-09
2.02149e-08
-2.32729e-08
-2.50517e-08
5.59142e-09
9.32458e-09
-2.80172e-09
-8.63099e-09
-1.1409e-08
-6.43726e-09
-1.28467e-08
-2.96857e-08
-4.6506e-08
-1.28962e-08
8.60819e-09
5.01258e-09
2.88797e-08
4.86427e-08
2.43722e-08
8.56578e-09
1.52626e-08
-8.71229e-09
-1.33994e-08
-1.10621e-08
1.46991e-09
8.77813e-09
7.8949e-10
-6.03048e-09
1.1793e-08
5.90386e-08
6.51498e-08
2.75473e-08
3.52944e-09
9.74689e-09
-1.23848e-08
-8.05339e-09
3.78388e-10
-1.50678e-08
2.70463e-08
5.38022e-08
6.49405e-08
6.08623e-08
5.63385e-08
8.03717e-08
8.56738e-08
6.85134e-08
3.3197e-08
5.83511e-08
4.76332e-08
3.43369e-08
5.96916e-08
4.37888e-08
4.48451e-08
3.29454e-08
3.8754e-08
4.11354e-08
3.96451e-09
-2.89217e-08
-2.99711e-08
-3.76473e-08
-5.43704e-09
1.74571e-08
-2.0162e-08
-2.40987e-08
2.66782e-09
7.6848e-09
-2.74527e-09
-8.09691e-09
-1.10151e-08
-6.75978e-09
-1.26234e-08
-2.72995e-08
-4.30557e-08
-1.38479e-08
8.07387e-09
6.01068e-09
2.58908e-08
4.42838e-08
2.41919e-08
8.31954e-09
1.48795e-08
-6.4271e-09
-1.16193e-08
-9.78627e-09
5.59979e-11
7.46614e-09
1.81464e-09
-3.03135e-09
1.25302e-08
5.48833e-08
6.20011e-08
2.8989e-08
4.38193e-09
8.93027e-09
-9.62307e-09
-7.68833e-09
1.45507e-09
-1.128e-08
2.61826e-08
5.25178e-08
6.35461e-08
6.1494e-08
5.70301e-08
7.7729e-08
8.18329e-08
6.81533e-08
3.52739e-08
5.58541e-08
4.97777e-08
3.52935e-08
5.7638e-08
4.40872e-08
4.46368e-08
3.39482e-08
3.63532e-08
3.81388e-08
5.73751e-09
-2.62314e-08
-2.82096e-08
-3.45299e-08
-7.29964e-09
1.48263e-08
-1.74817e-08
-2.30599e-08
1.01116e-10
6.10385e-09
-2.7981e-09
-7.64884e-09
-1.05897e-08
-7.04791e-09
-1.24319e-08
-2.51342e-08
-3.97441e-08
-1.455e-08
7.42246e-09
6.84338e-09
2.33071e-08
4.0303e-08
2.38767e-08
8.14143e-09
1.43393e-08
-4.37146e-09
-9.9624e-09
-8.47547e-09
-9.3864e-10
6.2867e-09
2.63635e-09
-4.32564e-10
1.32342e-08
5.11561e-08
5.89507e-08
3.01102e-08
5.394e-09
8.24988e-09
-7.14015e-09
-7.08494e-09
2.43497e-09
-7.73223e-09
2.55409e-08
5.13224e-08
6.21646e-08
6.18528e-08
5.75844e-08
7.534e-08
7.83605e-08
6.74841e-08
3.72918e-08
5.35794e-08
5.13675e-08
3.64223e-08
5.57856e-08
4.43304e-08
4.42837e-08
3.47502e-08
3.44146e-08
3.53398e-08
7.19336e-09
-2.35608e-08
-2.65319e-08
-3.16416e-08
-8.76395e-09
1.2341e-08
-1.51837e-08
-2.19628e-08
-2.14028e-09
4.58256e-09
-2.94062e-09
-7.28688e-09
-1.01401e-08
-7.29406e-09
-1.22685e-08
-2.31799e-08
-3.658e-08
-1.50219e-08
6.7338e-09
7.51181e-09
2.10987e-08
3.65715e-08
2.34247e-08
8.02917e-09
1.3674e-08
-2.54775e-09
-8.42226e-09
-7.1575e-09
-1.55846e-09
5.25642e-09
3.28541e-09
1.80357e-09
1.38973e-08
4.78068e-08
5.6019e-08
3.09441e-08
6.52754e-09
7.71036e-09
-4.91645e-09
-6.27882e-09
3.33661e-09
-4.42479e-09
2.50933e-08
5.02069e-08
6.08239e-08
6.19686e-08
5.80041e-08
7.31719e-08
7.52449e-08
6.65615e-08
3.92072e-08
5.15391e-08
5.24472e-08
3.76595e-08
5.41242e-08
4.45165e-08
4.38394e-08
3.53567e-08
3.28734e-08
3.27646e-08
8.357e-09
-2.09442e-08
-2.49141e-08
-2.89769e-08
-9.8842e-09
1.00206e-08
-1.32215e-08
-2.08323e-08
-4.08154e-09
3.13217e-09
-3.15481e-09
-7.01447e-09
-9.68151e-09
-7.49056e-09
-1.21272e-08
-2.14252e-08
-3.35696e-08
-1.52876e-08
5.88342e-09
8.02316e-09
1.92313e-08
3.31069e-08
2.28406e-08
7.97661e-09
1.29171e-08
-9.52302e-10
-6.996e-09
-5.86162e-09
-1.86415e-09
4.39431e-09
3.79282e-09
3.71755e-09
1.45138e-08
4.47856e-08
5.32227e-08
3.15265e-08
7.74311e-09
7.3132e-09
-2.92973e-09
-5.30478e-09
4.17326e-09
-1.35414e-09
2.48087e-08
4.91548e-08
5.95489e-08
6.1877e-08
5.8294e-08
7.11928e-08
7.24623e-08
6.54394e-08
4.09856e-08
4.97393e-08
5.30719e-08
3.89431e-08
5.26408e-08
4.46505e-08
4.33476e-08
3.57798e-08
3.16631e-08
3.04282e-08
9.25573e-09
-1.84084e-08
-2.33399e-08
-2.65244e-08
-1.07117e-08
7.86792e-09
-1.15494e-08
-1.96886e-08
-5.74641e-09
1.75846e-09
-3.40078e-09
-6.83298e-09
-9.23362e-09
-7.63337e-09
-1.20016e-08
-1.98584e-08
-3.07152e-08
-1.53686e-08
5.04911e-09
8.38847e-09
1.76702e-08
2.99158e-08
2.21331e-08
7.97741e-09
1.20988e-08
4.25963e-10
-5.68295e-09
-4.62586e-09
-1.91289e-09
3.71538e-09
4.18773e-09
5.34598e-09
1.50742e-08
4.20475e-08
5.05615e-08
3.1893e-08
9.00783e-09
7.05558e-09
-1.15716e-09
-4.19579e-09
4.9643e-09
1.48787e-09
2.46593e-08
4.816e-08
5.83546e-08
6.16156e-08
5.84624e-08
6.93729e-08
6.99891e-08
6.41673e-08
4.2574e-08
4.81799e-08
5.33038e-08
4.02184e-08
5.13209e-08
4.47376e-08
4.284e-08
3.60377e-08
3.07249e-08
2.83353e-08
9.92049e-09
-1.59735e-08
-2.17998e-08
-2.42706e-08
-1.12909e-08
5.88621e-09
-1.01232e-08
-1.85438e-08
-7.16008e-09
4.62199e-10
-3.72717e-09
-6.73172e-09
-8.81765e-09
1.51035e-07
5.90826e-08
-9.91187e-08
-7.1403e-08
-3.38504e-08
-1.1352e-07
-5.30882e-09
2.06345e-07
2.69628e-08
-1.36717e-07
4.02292e-08
-1.97569e-08
-5.07922e-08
1.58339e-07
2.00586e-08
-1.2836e-07
3.89359e-08
8.72623e-09
-1.53143e-07
7.16768e-09
1.88367e-07
1.90429e-07
5.56225e-08
-2.56507e-08
-3.35101e-08
-3.45451e-08
-1.07793e-08
-9.02995e-08
3.28562e-08
5.41782e-08
8.6493e-08
1.13629e-07
-7.20003e-08
7.3165e-08
2.30615e-07
9.62351e-08
-6.91173e-08
-5.17098e-08
1.03331e-07
6.37387e-08
9.49602e-08
6.00823e-08
4.02741e-08
1.20383e-07
2.16721e-08
2.76382e-08
1.29981e-08
-1.46659e-08
-5.98511e-08
-1.74291e-07
-4.30314e-08
1.72776e-07
-2.11197e-08
1.73322e-09
4.15011e-08
-1.45694e-07
-3.4967e-08
1.10781e-07
-4.85722e-08
-6.35727e-08
1.37482e-07
4.892e-08
-9.76576e-08
-7.13494e-08
-3.29308e-08
-1.00942e-07
3.50091e-09
1.92127e-07
1.75328e-08
-1.23734e-07
3.94752e-08
-1.87463e-08
-4.05749e-08
1.44482e-07
1.02449e-08
-1.15289e-07
3.74147e-08
-1.8329e-09
-1.39826e-07
1.69251e-08
1.86243e-07
1.78048e-07
4.5457e-08
-2.43601e-08
-3.27648e-08
-3.45606e-08
-9.78252e-09
-7.86077e-08
3.15314e-08
5.40142e-08
8.51394e-08
1.02878e-07
-5.81421e-08
8.23141e-08
2.16953e-07
8.57748e-08
-6.70179e-08
-4.00954e-08
1.02604e-07
6.35835e-08
9.47081e-08
6.06196e-08
3.93011e-08
1.09029e-07
2.25974e-08
2.80098e-08
1.34223e-08
-1.4385e-08
-5.88092e-08
-1.61733e-07
-3.45706e-08
1.59565e-07
-2.01806e-08
7.21106e-10
3.08327e-08
-1.31967e-07
-2.55314e-08
9.76917e-08
-4.66667e-08
-5.32257e-08
1.30183e-07
4.64649e-08
-9.53018e-08
-7.11906e-08
-3.12392e-08
-9.49866e-08
4.04821e-09
1.84368e-07
1.62261e-08
-1.18155e-07
3.82953e-08
-1.70285e-08
-3.81476e-08
1.37571e-07
8.78959e-09
-1.09641e-07
3.47881e-08
-4.42155e-09
-1.32642e-07
1.92259e-08
1.82557e-07
1.72165e-07
4.29285e-08
-2.21822e-08
-3.17394e-08
-3.4932e-08
-7.97817e-09
-7.42471e-08
2.9755e-08
5.37155e-08
8.29012e-08
1.00146e-07
-5.09509e-08
8.34617e-08
2.09401e-07
8.30059e-08
-6.34024e-08
-3.59545e-08
1.01404e-07
6.29369e-08
9.43954e-08
6.13173e-08
3.75859e-08
1.05019e-07
2.40423e-08
2.83976e-08
1.38325e-08
-1.41936e-08
-5.67976e-08
-1.55825e-07
-3.44142e-08
1.53556e-07
-1.87517e-08
-8.09773e-10
2.82561e-08
-1.2475e-07
-2.42602e-08
9.1618e-08
-4.34583e-08
-5.0559e-08
1.22619e-07
4.54267e-08
-9.21535e-08
-7.09174e-08
-2.93727e-08
-8.93686e-08
2.70956e-09
1.76214e-07
1.70135e-08
-1.13051e-07
3.63853e-08
-1.47262e-08
-3.71596e-08
1.30608e-07
9.45609e-09
-1.04357e-07
3.122e-08
-5.35449e-09
-1.25323e-07
1.99713e-08
1.77661e-07
1.66679e-07
4.20131e-08
-1.96945e-08
-3.04984e-08
-3.4938e-08
-5.87132e-09
-7.07571e-08
2.7695e-08
5.35114e-08
8.02292e-08
9.87479e-08
-4.37799e-08
8.25271e-08
2.01787e-07
8.18072e-08
-5.84955e-08
-3.28997e-08
9.96919e-08
6.22465e-08
9.36706e-08
6.20423e-08
3.57618e-08
1.01831e-07
2.59373e-08
2.87056e-08
1.41763e-08
-1.41612e-08
-5.43787e-08
-1.50046e-07
-3.63688e-08
1.47662e-07
-1.66873e-08
-2.76786e-09
2.70875e-08
-1.17457e-07
-2.48865e-08
8.58108e-08
-3.94525e-08
-4.91577e-08
1.13795e-07
4.43495e-08
-8.82509e-08
-7.04744e-08
-2.7367e-08
-8.28579e-08
1.05356e-09
1.6673e-07
1.83099e-08
-1.07372e-07
3.38775e-08
-1.18863e-08
-3.62525e-08
1.2246e-07
1.07282e-08
-9.83309e-08
2.69193e-08
-5.96294e-09
-1.16936e-07
2.05727e-08
1.71659e-07
1.60354e-07
4.12302e-08
-1.70518e-08
-2.89153e-08
-3.46893e-08
-3.55426e-09
-6.67926e-08
2.53583e-08
5.33876e-08
7.71966e-08
9.72378e-08
-3.5749e-08
8.10459e-08
1.93247e-07
8.06528e-08
-5.26271e-08
-2.96087e-08
9.75402e-08
6.1537e-08
9.24814e-08
6.29238e-08
3.38909e-08
9.82873e-08
2.81897e-08
2.89867e-08
1.45399e-08
-1.41638e-08
-5.16638e-08
-1.43195e-07
-3.87966e-08
1.40774e-07
-1.40838e-08
-5.57763e-09
2.59662e-08
-1.08839e-07
-2.58976e-08
7.91453e-08
-3.48298e-08
-4.76552e-08
1.04092e-07
4.31486e-08
-8.37515e-08
-6.98595e-08
-2.52828e-08
-7.565e-08
-6.69727e-10
1.56227e-07
1.98822e-08
-1.01332e-07
3.09011e-08
-8.65385e-09
-3.53866e-08
1.12991e-07
1.24114e-08
-9.17717e-08
2.21985e-08
-6.30676e-09
-1.07823e-07
2.10584e-08
1.64844e-07
1.53312e-07
4.04051e-08
-1.4415e-08
-2.69669e-08
-3.42076e-08
-1.1318e-09
-6.23502e-08
2.28367e-08
5.33126e-08
7.39439e-08
9.55455e-08
-2.71759e-08
7.9232e-08
1.84097e-07
7.94619e-08
-4.61595e-08
-2.61224e-08
9.50792e-08
6.081e-08
9.08285e-08
6.4021e-08
3.20424e-08
9.444e-08
3.06253e-08
2.92722e-08
1.49726e-08
-1.41104e-08
-4.87498e-08
-1.35472e-07
-4.14663e-08
1.33073e-07
-1.11005e-08
-8.74693e-09
2.4824e-08
-9.92809e-08
-2.70775e-08
7.18641e-08
-2.99031e-08
-4.60218e-08
9.39768e-08
4.18339e-08
-7.88553e-08
-6.91015e-08
-2.32734e-08
-6.81578e-08
-2.31172e-09
1.45242e-07
2.16738e-08
-9.51551e-08
2.75486e-08
-5.24181e-09
-3.4546e-08
1.0329e-07
1.43965e-08
-8.4957e-08
1.73587e-08
-6.39793e-09
-9.84665e-08
2.13373e-08
1.57568e-07
1.46095e-07
3.96486e-08
-1.196e-08
-2.47322e-08
-3.35446e-08
1.21233e-09
-5.75364e-08
2.02641e-08
5.3275e-08
7.06908e-08
9.37144e-08
-1.85233e-08
7.71499e-08
1.74801e-07
7.83734e-08
-3.94284e-08
-2.27046e-08
9.2397e-08
6.00512e-08
8.87693e-08
6.52494e-08
3.03727e-08
9.04072e-08
3.30598e-08
2.95582e-08
1.5473e-08
-1.39585e-08
-4.57691e-08
-1.27201e-07
-4.42182e-08
1.24804e-07
-7.83743e-09
-1.19183e-08
2.35961e-08
-8.95884e-08
-2.82429e-08
6.43135e-08
-2.49541e-08
-4.42889e-08
8.37745e-08
4.03518e-08
-7.37204e-08
-6.82115e-08
-2.14887e-08
-6.05904e-08
-3.74142e-09
1.34187e-07
2.36264e-08
-8.89404e-08
2.39109e-08
-1.85304e-09
-3.36351e-08
9.36952e-08
1.65556e-08
-7.808e-08
1.26354e-08
-6.32582e-09
-8.92251e-08
2.1414e-08
1.50092e-07
1.38982e-07
3.89539e-08
-9.79e-09
-2.23105e-08
-3.27573e-08
3.27429e-09
-5.24278e-08
1.77457e-08
5.32624e-08
6.76386e-08
9.17547e-08
-1.011e-08
7.48518e-08
1.65676e-07
7.75362e-08
-3.26569e-08
-1.94126e-08
8.95312e-08
5.94392e-08
8.63353e-08
6.6542e-08
2.90349e-08
8.62501e-08
3.53558e-08
2.98303e-08
1.60126e-08
-1.36959e-08
-4.28483e-08
-1.1861e-07
-4.6839e-08
1.16197e-07
-4.36942e-09
-1.4916e-08
2.21648e-08
-8.01166e-08
-2.91944e-08
5.67188e-08
-2.02283e-08
-4.24215e-08
7.37165e-08
3.86521e-08
-6.84551e-08
-6.71686e-08
-2.00227e-08
-5.31318e-08
-4.90305e-09
1.23259e-07
2.56837e-08
-8.27203e-08
2.00852e-08
1.35901e-09
-3.25856e-08
8.43244e-08
1.8687e-08
-7.12819e-08
8.19809e-09
-6.16776e-09
-8.03678e-08
2.13224e-08
1.42569e-07
1.32304e-07
3.83205e-08
-7.92843e-09
-1.97713e-08
-3.18665e-08
5.02182e-09
-4.7122e-08
1.53497e-08
5.32467e-08
6.49174e-08
8.96942e-08
-2.12842e-09
7.23407e-08
1.5689e-07
7.6865e-08
-2.59393e-08
-1.6161e-08
8.65213e-08
5.8895e-08
8.35763e-08
6.7823e-08
2.81292e-08
8.20325e-08
3.74355e-08
3.00857e-08
1.65544e-08
-1.33247e-08
-4.00907e-08
-1.09882e-07
-4.91567e-08
1.07345e-07
-7.78036e-10
-1.76027e-08
2.04735e-08
-7.10388e-08
-2.98185e-08
4.92375e-08
-1.58972e-08
-4.0396e-08
6.39956e-08
3.67096e-08
-6.31478e-08
-6.59376e-08
-1.89134e-08
-4.59705e-08
-5.79225e-09
1.12682e-07
2.78005e-08
-7.64979e-08
1.61764e-08
4.28518e-09
-3.13667e-08
7.52555e-08
2.06542e-08
-6.46436e-08
4.16111e-09
-5.95692e-09
-7.19326e-08
2.10788e-08
1.3508e-07
1.25911e-07
3.77723e-08
-6.35697e-09
-1.71838e-08
-3.08538e-08
6.41029e-09
-4.17274e-08
1.31379e-08
5.31864e-08
6.25862e-08
8.75758e-08
5.3291e-09
6.97617e-08
1.48507e-07
7.62847e-08
-1.93119e-08
-1.29613e-08
8.33916e-08
5.84382e-08
8.05662e-08
6.90006e-08
2.77503e-08
7.78304e-08
3.92614e-08
3.03297e-08
1.70658e-08
-1.28459e-08
-3.75567e-08
-1.01182e-07
-5.10544e-08
9.83826e-08
2.83998e-09
-1.98637e-08
1.85308e-08
-6.24803e-08
-3.00825e-08
4.20127e-08
-1.2065e-08
-3.82139e-08
5.4766e-08
3.45191e-08
-5.78832e-08
-6.4485e-08
-1.81576e-08
-3.92505e-08
-6.38812e-09
1.02541e-07
2.96717e-08
-7.02708e-08
1.22899e-08
6.84594e-09
-2.99677e-08
6.65566e-08
2.23731e-08
-5.8203e-08
5.93399e-10
-5.70885e-09
-6.39282e-08
2.06834e-08
1.27682e-07
1.19833e-07
3.73338e-08
-5.05379e-09
-1.46275e-08
-2.96847e-08
7.42658e-09
-3.63369e-08
1.1161e-08
5.30401e-08
6.0657e-08
8.54366e-08
1.22299e-08
6.72302e-08
1.40536e-07
7.57765e-08
-1.28207e-08
-9.86175e-09
8.01752e-08
5.80627e-08
7.73695e-08
6.998e-08
2.78481e-08
7.37216e-08
4.08148e-08
3.05367e-08
1.75282e-08
-1.22545e-08
-3.52675e-08
-9.26534e-08
-5.2453e-08
8.93849e-08
6.38004e-09
-2.16189e-08
1.63772e-08
-5.42352e-08
-2.99922e-08
3.51318e-08
-8.78714e-09
-3.58927e-08
4.61402e-08
3.20908e-08
-5.27433e-08
-6.27925e-08
-1.77243e-08
-3.30608e-08
-6.68963e-09
9.29647e-08
3.141e-08
-6.40469e-08
8.52277e-09
8.98688e-09
-2.83883e-08
5.82888e-08
2.37845e-08
-5.19832e-08
-2.46713e-09
-5.43015e-09
-5.63999e-08
2.01469e-08
1.20427e-07
1.14059e-07
3.7008e-08
-3.99683e-09
-1.2156e-08
-2.83314e-08
8.09022e-09
-3.10256e-08
9.45e-09
5.27516e-08
5.91137e-08
8.33016e-08
1.85634e-08
6.47994e-08
1.32976e-07
7.53191e-08
-6.52955e-09
-6.84933e-09
7.69238e-08
5.77671e-08
7.40544e-08
7.06802e-08
2.83625e-08
6.97772e-08
4.20865e-08
3.07028e-08
1.79355e-08
-1.15447e-08
-3.32422e-08
-8.44149e-08
-5.33041e-08
8.04188e-08
9.74139e-09
-2.28237e-08
1.40581e-08
-4.69183e-08
-2.95685e-08
2.86596e-08
-6.08474e-09
-3.34622e-08
3.81771e-08
2.94468e-08
-4.78041e-08
-6.08572e-08
-1.75676e-08
-2.74511e-08
-6.69928e-09
8.39199e-08
3.30304e-08
-5.78506e-08
4.95898e-09
1.06782e-08
-2.66387e-08
5.05048e-08
2.48473e-08
-4.60071e-08
-5.00329e-09
-5.11872e-09
-4.93747e-08
1.95096e-08
1.13355e-07
1.08573e-07
3.67719e-08
-3.14724e-09
-9.81024e-09
-2.6783e-08
8.41764e-09
-2.58592e-08
8.02767e-09
5.23135e-08
5.7919e-08
8.11886e-08
2.43245e-08
6.2512e-08
1.25826e-07
7.48863e-08
-5.01791e-10
-3.89537e-09
7.36841e-08
5.75437e-08
7.06934e-08
7.10429e-08
2.92436e-08
6.60543e-08
4.30761e-08
3.08332e-08
1.82873e-08
-1.07156e-08
-3.14702e-08
-7.65604e-08
-5.35867e-08
7.15602e-08
1.28304e-08
-2.3468e-08
1.16277e-08
-4.01092e-08
-2.88343e-08
2.2681e-08
-3.95319e-09
-3.09605e-08
3.09646e-08
2.66214e-08
-4.31306e-08
-5.869e-08
-1.7637e-08
-2.24493e-08
-6.43817e-09
7.54421e-08
3.41013e-08
-5.17223e-08
1.66152e-09
1.19133e-08
-2.47392e-08
4.32492e-08
2.55461e-08
-4.0298e-08
-7.01557e-09
-4.77905e-09
-4.28552e-08
1.88276e-08
1.06499e-07
1.03348e-07
3.66113e-08
-2.44894e-09
-7.62741e-09
-2.50465e-08
8.47444e-09
-2.09001e-08
6.9113e-09
5.17164e-08
5.70246e-08
7.91115e-08
2.95127e-08
6.04083e-08
1.19086e-07
7.44515e-08
5.39018e-09
-9.79103e-10
7.04921e-08
5.73763e-08
6.73618e-08
7.10378e-08
3.04171e-08
6.25926e-08
4.37931e-08
3.09337e-08
1.85847e-08
-9.77281e-09
-2.9926e-08
-6.91665e-08
-5.33023e-08
6.28888e-08
1.55628e-08
-2.3581e-08
9.13756e-09
-3.43594e-08
-2.78206e-08
1.72521e-08
-2.36714e-09
-2.84313e-08
2.44987e-08
2.3663e-08
-3.87687e-08
-5.63143e-08
-1.78819e-08
-1.80711e-08
-5.93508e-09
6.75696e-08
3.48995e-08
-4.57097e-08
-1.31363e-09
1.27048e-08
-2.27193e-08
3.65491e-08
2.58693e-08
-3.4877e-08
-8.51894e-09
-4.41629e-09
-3.68322e-08
1.81393e-08
9.98929e-08
9.83569e-08
3.65182e-08
-1.83766e-09