/*--------------------------------*- C++ -*----------------------------------*\
| =========                 |                                                 |
| \\      /  F ield         | OpenFOAM: The Open Source CFD Toolbox           |
|  \\    /   O peration     | Version:  2312                                  |
|   \\  /    A nd           | Website:  www.openfoam.com                      |
|    \\/     M anipulation  |                                                 |
\*---------------------------------------------------------------------------*/
FoamFile
{
    version     2.0;
    format      ascii;
    arch        "LSB;label=32;scalar=64";
    class       volScalarField;
    location    "800";
    object      pMean;
}
// * * * * * * * * * * * * * * * * * * * * * * * * * * * * * * * * * * * * * //

dimensions      [0 2 -2 0 0 0 0];

internalField   nonuniform List<scalar> 
144000
(
1.2444e-08
-1.71717e-08
-1.52818e-07
-1.97398e-07
6.78269e-08
-1.53982e-08
-6.1594e-08
2.05875e-07
2.45777e-07
6.18434e-08
-1.50038e-08
-4.35315e-09
-9.4212e-08
-1.58307e-07
-3.33953e-08
1.94793e-07
8.13616e-08
-1.14037e-07
-2.13503e-07
1.50263e-08
3.60736e-07
1.68949e-07
-1.27556e-07
6.15523e-08
5.61614e-08
-1.91952e-07
5.46036e-08
-1.54438e-08
-1.9543e-07
9.74398e-08
1.13626e-07
1.1298e-07
1.08146e-08
1.81048e-09
2.58848e-07
2.80078e-07
3.85709e-09
3.78539e-08
1.58598e-07
-1.25423e-07
1.15915e-07
1.90559e-07
-1.27089e-08
-7.44703e-08
5.00688e-09
2.80598e-07
1.45605e-07
-9.78541e-08
-9.83368e-08
-1.56931e-07
-1.94041e-07
1.51325e-07
1.11158e-07
-2.44988e-07
-5.11155e-08
2.07407e-07
9.06653e-08
-3.66438e-08
-4.39518e-08
-2.52667e-08
1.25908e-08
-1.66848e-08
-1.50906e-07
-1.80529e-07
6.55584e-08
-1.41622e-08
-4.51963e-08
2.02894e-07
2.26772e-07
4.586e-08
-1.30215e-08
-3.58405e-09
-9.28976e-08
-1.39127e-07
-1.9137e-08
1.73753e-07
6.48899e-08
-1.10641e-07
-1.94222e-07
2.82503e-08
3.3875e-07
1.54909e-07
-1.06871e-07
5.90301e-08
4.04025e-08
-1.72207e-07
5.19783e-08
-3.15091e-08
-1.76971e-07
9.57271e-08
1.13426e-07
1.12845e-07
1.19517e-08
1.86098e-08
2.55721e-07
2.62767e-07
6.47866e-09
3.59355e-08
1.42936e-07
-1.05904e-07
1.13111e-07
1.73225e-07
-1.00338e-08
-5.44071e-08
1.91656e-08
2.59477e-07
1.29955e-07
-9.58405e-08
-9.77432e-08
-1.54941e-07
-1.77026e-07
1.47749e-07
9.53906e-08
-2.24069e-07
-3.69367e-08
1.8602e-07
7.43122e-08
-3.49884e-08
-4.33433e-08
-2.52913e-08
1.23168e-08
-1.62833e-08
-1.4711e-07
-1.74606e-07
6.15516e-08
-1.16648e-08
-3.97573e-08
1.96761e-07
2.17616e-07
4.22221e-08
-9.41967e-09
-2.43241e-09
-9.04012e-08
-1.29563e-07
-1.77656e-08
1.60988e-07
6.0088e-08
-1.03848e-07
-1.83788e-07
2.81006e-08
3.24254e-07
1.53415e-07
-9.61326e-08
5.37964e-08
3.68934e-08
-1.62679e-07
4.69485e-08
-3.5159e-08
-1.68478e-07
9.28939e-08
1.12532e-07
1.12572e-07
1.45267e-08
2.44034e-08
2.49342e-07
2.55941e-07
1.08631e-08
3.29102e-08
1.39296e-07
-9.62068e-08
1.07673e-07
1.66579e-07
-4.65704e-09
-4.38756e-08
2.03946e-08
2.46355e-07
1.25888e-07
-9.19842e-08
-9.67163e-08
-1.50697e-07
-1.71124e-07
1.40749e-07
9.13969e-08
-2.1186e-07
-3.52995e-08
1.73526e-07
6.95735e-08
-3.18635e-08
-4.18262e-08
-2.52106e-08
1.17827e-08
-1.62661e-08
-1.4201e-07
-1.69888e-07
5.63701e-08
-8.33872e-09
-3.60865e-08
1.88012e-07
2.09283e-07
4.15424e-08
-5.23475e-09
-1.00197e-09
-8.68448e-08
-1.21286e-07
-1.95435e-08
1.47945e-07
5.74598e-08
-9.54577e-08
-1.73149e-07
2.49689e-08
3.08735e-07
1.54441e-07
-8.57927e-08
4.72834e-08
3.58287e-08
-1.53774e-07
4.02634e-08
-3.56096e-08
-1.60582e-07
8.91163e-08
1.11273e-07
1.12158e-07
1.8827e-08
2.83952e-08
2.40436e-07
2.49956e-07
1.62121e-08
2.97154e-08
1.37608e-07
-8.65345e-08
1.00649e-07
1.61388e-07
1.98153e-09
-3.42173e-08
1.89067e-08
2.32464e-07
1.23869e-07
-8.68468e-08
-9.56551e-08
-1.4497e-07
-1.66262e-07
1.31081e-07
8.93671e-08
-1.99143e-07
-3.68772e-08
1.60963e-07
6.71015e-08
-2.80922e-08
-3.9957e-08
-2.48325e-08
1.11072e-08
-1.65197e-08
-1.35746e-07
-1.64235e-07
5.05967e-08
-4.52772e-09
-3.21791e-08
1.7761e-07
1.99998e-07
4.11558e-08
-9.33789e-10
8.36671e-10
-8.23473e-08
-1.12058e-07
-2.17825e-08
1.33368e-07
5.45945e-08
-8.61875e-08
-1.60676e-07
2.16783e-08
2.91136e-07
1.5522e-07
-7.43502e-08
4.00361e-08
3.47702e-08
-1.43831e-07
3.25923e-08
-3.51364e-08
-1.51633e-07
8.46355e-08
1.09746e-07
1.11621e-07
2.42203e-08
3.25332e-08
2.29805e-07
2.42661e-07
2.26857e-08
2.65057e-08
1.35532e-07
-7.52755e-08
9.2665e-08
1.55465e-07
9.12001e-09
-2.36539e-08
1.74577e-08
2.1649e-07
1.21459e-07
-8.07895e-08
-9.45179e-08
-1.3803e-07
-1.60282e-07
1.19271e-07
8.70314e-08
-1.84215e-07
-3.91026e-08
1.46506e-07
6.44357e-08
-2.41118e-08
-3.78328e-08
-2.41352e-08
1.03354e-08
-1.68809e-08
-1.28529e-07
-1.57782e-07
4.41523e-08
-5.15303e-10
-2.81307e-08
1.66162e-07
1.90058e-07
4.07479e-08
3.08481e-09
3.10579e-09
-7.71092e-08
-1.02027e-07
-2.40841e-08
1.1791e-07
5.1417e-08
-7.65391e-08
-1.46954e-07
1.86483e-08
2.72074e-07
1.55362e-07
-6.22689e-08
3.25214e-08
3.35134e-08
-1.33214e-07
2.45608e-08
-3.3922e-08
-1.41938e-07
7.96751e-08
1.07978e-07
1.10996e-07
3.00252e-08
3.67226e-08
2.18223e-07
2.34134e-07
3.01005e-08
2.34134e-08
1.32943e-07
-6.28052e-08
8.42215e-08
1.48933e-07
1.62291e-08
-1.25334e-08
1.64457e-08
1.99135e-07
1.18505e-07
-7.41208e-08
-9.32393e-08
-1.30221e-07
-1.53323e-07
1.06348e-07
8.4362e-08
-1.68198e-07
-4.15545e-08
1.31186e-07
6.1391e-08
-2.02025e-08
-3.54698e-08
-2.31917e-08
9.47779e-09
-1.72371e-08
-1.20677e-07
-1.5086e-07
3.72733e-08
3.48549e-09
-2.41301e-08
1.54121e-07
1.79843e-07
4.03781e-08
6.51375e-09
5.66399e-09
-7.1401e-08
-9.21707e-08
-2.63173e-08
1.02409e-07
4.79799e-08
-6.69342e-08
-1.32737e-07
1.59985e-08
2.52599e-07
1.5469e-07
-5.01081e-08
2.5178e-08
3.20549e-08
-1.22376e-07
1.66406e-08
-3.20112e-08
-1.3184e-07
7.44108e-08
1.05956e-07
1.10298e-07
3.6058e-08
4.08054e-08
2.06232e-07
2.24691e-07
3.80396e-08
2.06738e-08
1.29886e-07
-4.95337e-08
7.57694e-08
1.42158e-07
2.30599e-08
-1.42268e-09
1.59921e-08
1.81298e-07
1.15094e-07
-6.70697e-08
-9.17806e-08
-1.21995e-07
-1.45735e-07
9.28846e-08
8.1441e-08
-1.51991e-07
-4.39954e-08
1.16025e-07
5.80615e-08
-1.65325e-08
-3.29718e-08
-2.21305e-08
8.52117e-09
-1.75299e-08
-1.12502e-07
-1.43644e-07
3.02785e-08
7.27548e-09
-2.01935e-08
1.41844e-07
1.69505e-07
4.01022e-08
9.23121e-09
8.33057e-09
-6.54696e-08
-8.28382e-08
-2.82402e-08
8.74688e-08
4.44155e-08
-5.76784e-08
-1.18524e-07
1.3823e-08
2.33212e-07
1.53156e-07
-3.82097e-08
1.83478e-08
3.03398e-08
-1.11542e-07
9.14667e-09
-2.95789e-08
-1.2151e-07
6.90015e-08
1.03659e-07
1.09507e-07
4.22004e-08
4.48103e-08
1.94211e-07
2.14583e-07
4.60881e-08
1.8497e-08
1.26324e-07
-3.59629e-08
6.77344e-08
1.35286e-07
2.93369e-08
9.10322e-09
1.621e-08
1.63647e-07
1.11222e-07
-5.97895e-08
-9.00706e-08
-1.13744e-07
-1.37756e-07
7.93442e-08
7.82071e-08
-1.36085e-07
-4.6163e-08
1.01398e-07
5.44979e-08
-1.31792e-08
-3.04282e-08
-2.10548e-08
7.45057e-09
-1.77272e-08
-1.04244e-07
-1.36238e-07
2.34057e-08
1.07176e-08
-1.6299e-08
1.2961e-07
1.59158e-07
3.99438e-08
1.12562e-08
1.09678e-08
-5.94726e-08
-7.41387e-08
-2.96765e-08
7.34738e-08
4.08747e-08
-4.8971e-08
-1.04636e-07
1.21597e-08
2.14354e-07
1.50767e-07
-2.68463e-08
1.22533e-08
2.83605e-08
-1.00854e-07
2.28261e-09
-2.68359e-08
-1.11108e-07
6.3605e-08
1.01084e-07
1.08572e-07
4.83112e-08
4.87476e-08
1.82424e-07
2.04067e-07
5.3898e-08
1.69821e-08
1.22208e-07
-2.25297e-08
6.04376e-08
1.28403e-07
3.48725e-08
1.86353e-08
1.71274e-08
1.46662e-07
1.06876e-07
-5.24086e-08
-8.80133e-08
-1.05738e-07
-1.29568e-07
6.61349e-08
7.4581e-08
-1.20791e-07
-4.7818e-08
8.74456e-08
5.07684e-08
-1.0167e-08
-2.78926e-08
-2.00189e-08
6.26677e-09
-1.78172e-08
-9.60778e-08
-1.28722e-07
1.68157e-08
1.37171e-08
-1.245e-08
1.17669e-07
1.48934e-07
3.98939e-08
1.26725e-08
1.3473e-08
-5.34957e-08
-6.61158e-08
-3.05494e-08
6.0631e-08
3.73748e-08
-4.09332e-08
-9.12895e-08
1.10073e-08
1.96326e-07
1.47557e-07
-1.61484e-08
7.02789e-09
2.61802e-08
-9.046e-08
-3.81573e-09
-2.39741e-08
-1.00808e-07
5.83703e-08
9.82685e-08
1.07442e-07
5.4224e-08
5.25013e-08
1.71135e-07
1.93382e-07
6.11968e-08
1.62518e-08
1.17572e-07
-9.52244e-09
5.40773e-08
1.21608e-07
3.95925e-08
2.69984e-08
1.86835e-08
1.30691e-07
1.02072e-07
-4.50617e-08
-8.55349e-08
-9.8139e-08
-1.21318e-07
5.3564e-08
7.05204e-08
-1.06336e-07
-4.89052e-08
7.42327e-08
4.69587e-08
-7.50036e-09
-2.53966e-08
-1.90346e-08
4.99248e-09
-1.78046e-08
-8.81376e-08
-1.21167e-07
1.06206e-08
1.61982e-08
-8.67128e-09
1.06236e-07
1.38924e-07
3.99238e-08
1.35774e-08
1.57543e-08
-4.75947e-08
-5.87821e-08
-3.08529e-08
4.90412e-08
3.39124e-08
-3.36317e-08
-7.86866e-08
1.03411e-08
1.79321e-07
1.43592e-07
-6.22778e-09
2.76086e-09
2.38664e-08
-8.04731e-08
-9.05759e-09
-2.11441e-08
-9.07401e-08
5.34239e-08
9.52733e-08
1.06085e-07
5.97682e-08
5.59999e-08
1.60588e-07
1.82724e-07
6.77825e-08
1.6376e-08
1.12518e-07
2.79886e-09
4.88009e-08
1.15004e-07
4.35047e-08
3.41178e-08
2.07647e-08
1.1597e-07
9.68516e-08
-3.78934e-08
-8.2598e-08
-9.10442e-08
-1.13132e-07
4.18636e-08
6.60284e-08
-9.2888e-08
-4.94219e-08
6.19396e-08
4.31255e-08
-5.19024e-09
-2.29653e-08
-1.8083e-08
3.66151e-09
-1.77038e-08
-8.05214e-08
-1.13632e-07
4.902e-09
1.81127e-08
-4.99976e-09
9.5481e-08
1.29167e-07
3.9993e-08
1.40636e-08
1.77308e-08
-4.18195e-08
-5.21197e-08
-3.06178e-08
3.87464e-08
3.05017e-08
-2.71082e-08
-6.69481e-08
1.01214e-08
1.63462e-07
1.3897e-07
2.83157e-09
-5.13602e-10
2.14604e-08
-7.1003e-08
-1.33665e-08
-1.84454e-08
-8.09881e-08
4.88545e-08
9.21728e-08
1.04489e-07
6.48156e-08
5.92327e-08
1.50903e-07
1.72253e-07
7.35121e-08
1.73284e-08
1.07152e-07
1.42205e-08
4.46865e-08
1.08677e-07
4.66625e-08
3.99969e-08
2.32329e-08
1.02636e-07
9.12771e-08
-3.10416e-08
-7.91994e-08
-8.45067e-08
-1.05115e-07
3.11974e-08
6.11506e-08
-8.05554e-08
-4.93789e-08
5.06583e-08
3.92891e-08
-3.25788e-09
-2.06294e-08
-1.71479e-08
2.31118e-09
-1.7537e-08
-7.32998e-08
-1.06162e-07
-2.78411e-10
1.94457e-08
-1.47857e-09
8.5514e-08
1.19672e-07
4.00633e-08
1.42226e-08
1.9341e-08
-3.6221e-08
-4.60855e-08
-2.98938e-08
2.97446e-08
2.71684e-08
-2.13597e-08
-5.61387e-08
1.02934e-08
1.48818e-07
1.33807e-07
1.09765e-08
-2.81289e-09
1.90041e-08
-6.21242e-08
-1.67272e-08
-1.59305e-08
-7.16141e-08
4.47193e-08
8.90414e-08
1.02668e-07
6.92865e-08
6.21931e-08
1.42113e-07
1.62105e-07
7.82948e-08
1.90178e-08
1.01595e-07
2.45867e-08
4.17332e-08
1.02688e-07
4.91428e-08
4.46943e-08
2.59386e-08
9.07604e-08
8.54357e-08
-2.46233e-08
-7.53685e-08
-7.85395e-08
-9.7354e-08
2.16611e-08
5.59688e-08
-6.94043e-08
-4.88051e-08
4.04272e-08
3.5457e-08
-1.71661e-09
-1.84292e-08
-1.6226e-08
9.75463e-10
-1.73342e-08
-6.6525e-08
-9.87964e-08
-4.87475e-09
2.02177e-08
1.84417e-09
7.63955e-08
1.10459e-07
4.00998e-08
1.41446e-08
2.05487e-08
-3.08511e-08
-4.06207e-08
-2.87346e-08
2.19998e-08
2.39383e-08
-1.6369e-08
-4.62841e-08
1.07903e-08
1.35412e-07
1.28232e-07
1.81823e-08
-4.19358e-09
1.65539e-08
-5.38892e-08
-1.91824e-08
-1.3618e-08
-6.26662e-08
4.10633e-08
8.59441e-08
1.00645e-07
7.3143e-08
6.48725e-08
1.342e-07
1.52394e-07
8.20911e-08
2.13272e-08
9.59769e-08
3.38033e-08
3.98716e-08
9.70727e-08
5.10585e-08
4.83115e-08
2.8735e-08
8.03499e-08
7.94348e-08
-1.87309e-08
-7.11642e-08
-7.31267e-08
-8.99158e-08
1.3293e-08
5.0589e-08
-5.9457e-08
-4.77495e-08
3.12549e-08
3.1661e-08
-5.56912e-10
-1.64102e-08
-1.53219e-08
-3.17572e-10
-1.71281e-08
-6.02351e-08
-9.15702e-08
-8.85661e-09
2.04808e-08
4.91806e-09
6.81517e-08
1.01563e-07
4.00675e-08
1.39117e-08
2.1344e-08
-2.57615e-08
-3.56584e-08
-2.71845e-08
1.54516e-08
2.08357e-08
-1.211e-08
-3.73801e-08
1.15402e-08
1.23235e-07
1.22375e-07
2.44483e-08
-4.74134e-09
1.41753e-08
-4.63328e-08
-2.07977e-08
-1.15057e-08
-5.41819e-08
3.79133e-08
8.29317e-08
9.84536e-08
7.63765e-08
6.72741e-08
1.27115e-07
1.43216e-07
8.49079e-08
2.41303e-08
9.04314e-08
4.18164e-08
3.89856e-08
9.18556e-08
5.25224e-08
5.09744e-08
3.14888e-08
7.13658e-08
7.33901e-08
-1.34307e-08
-6.66679e-08
-6.82248e-08
-8.28474e-08
6.08514e-09
4.51302e-08
-5.06949e-08
-4.6279e-08
2.31268e-08
2.7943e-08
2.52064e-10
-1.46116e-08
-1.44345e-08
-1.54455e-09
-1.69482e-08
-5.44534e-08
-8.45196e-08
-1.22119e-08
2.02979e-08
7.69647e-09
6.07851e-08
9.30373e-08
3.9932e-08
1.35964e-08
2.17397e-08
-2.10006e-08
-3.1133e-08
-2.53179e-08
1.00262e-08
1.78891e-08
-8.51742e-09
-2.94064e-08
1.24735e-08
1.12251e-07
1.16355e-07
2.97949e-08
-4.55786e-09
1.19357e-08
-3.94677e-08
-2.16477e-08
-9.58378e-09
-4.61889e-08
3.52748e-08
8.00427e-08
9.61334e-08
7.89974e-08
6.94013e-08
1.20791e-07
1.34645e-07
8.67924e-08
2.72881e-08
8.50779e-08
4.86115e-08
3.8933e-08
8.70616e-08
5.36244e-08
5.28137e-08
3.40892e-08
6.37329e-08
6.74182e-08
-8.76297e-09
-6.19716e-08
-6.37681e-08
-7.61811e-08
-6.91511e-12
3.97135e-08
-4.30672e-08
-4.44733e-08
1.60072e-08
2.4331e-08
7.4694e-10
-1.30548e-08
-1.35513e-08
-2.68347e-09
-1.68136e-08
-4.91866e-08
-7.76827e-08
-1.49495e-08
1.97346e-08
1.01441e-08
5.42802e-08
8.49312e-08
3.96589e-08
1.32584e-08
2.17635e-08
-1.66103e-08
-2.70019e-08
-2.32111e-08
5.64253e-09
1.51323e-08
-5.52891e-09
-2.23335e-08
1.3526e-08
1.02402e-07
1.10283e-07
3.42598e-08
-3.75118e-09
9.89715e-09
-3.32873e-08
-2.18174e-08
-7.83759e-09
-3.87051e-08
3.31361e-08
7.73048e-08
9.37259e-08
8.10281e-08
7.12467e-08
1.15159e-07
1.2673e-07
8.78219e-08
3.06594e-08
8.00163e-08
5.421e-08
3.95603e-08
8.26997e-08
5.44397e-08
5.39632e-08
3.64518e-08
5.73461e-08
6.16296e-08
-4.73984e-09
-5.71674e-08
-5.96846e-08
-6.99377e-08
-5.05511e-09
3.44471e-08
-3.6491e-08
-4.24183e-08
9.83597e-09
2.0845e-08
9.5446e-10
-1.1742e-08
-1.26645e-08
-3.71993e-09
-1.67295e-08
-4.4426e-08
-7.10986e-08
-1.7097e-08
1.88515e-08
1.22406e-08
4.86053e-08
7.72925e-08
3.92184e-08
1.29437e-08
2.14561e-08
-1.2622e-08
-2.32292e-08
-2.09301e-08
2.21381e-09
1.26003e-08
-3.07254e-09
-1.61216e-08
1.46401e-08
9.36106e-08
1.04254e-07
3.78955e-08
-2.44197e-09
8.11122e-09
-2.77676e-08
-2.13985e-08
-6.25019e-09
-3.17402e-08
3.14716e-08
7.47362e-08
9.12745e-08
8.25019e-08
7.28154e-08
1.10144e-07
1.195e-07
8.80947e-08
3.41169e-08
7.53231e-08
5.86641e-08
4.07107e-08
7.87648e-08
5.5035e-08
5.45541e-08
3.85172e-08
5.20808e-08
5.61226e-08
-1.34849e-09
-5.23413e-08
-5.5901e-08
-6.41278e-08
-9.15089e-09
2.94141e-08
-3.08831e-08
-4.01934e-08
4.53905e-09
1.75009e-08
9.07587e-10
-1.06611e-08
-1.17818e-08
-4.64562e-09
-1.66887e-08
-4.01556e-08
-6.48047e-08
-1.86944e-08
1.77118e-08
1.39784e-08
4.3713e-08
7.01571e-08
3.85873e-08
1.26862e-08
2.08706e-08
-9.05455e-09
-1.97884e-08
-1.85463e-08
-3.51258e-10
1.03252e-08
-1.07613e-09
-1.07203e-08
1.57662e-08
8.57905e-08
9.83473e-08
4.07664e-08
-7.37421e-10
6.61078e-09
-2.28718e-08
-2.04834e-08
-4.79407e-09
-2.52962e-08
3.02437e-08
7.23443e-08
8.88221e-08
8.34599e-08
7.41113e-08
1.05676e-07
1.12961e-07
8.77201e-08
3.75475e-08
7.10525e-08
6.20484e-08
4.22323e-08
7.52521e-08
5.54623e-08
5.47093e-08
4.02504e-08
4.7801e-08
5.09764e-08
1.44054e-09
-4.75701e-08
-5.23532e-08
-5.87535e-08
-1.23965e-08
2.46741e-08
-2.61535e-08
-3.78653e-08
3.61372e-11
1.43132e-08
6.49018e-10
-9.79253e-09
-1.09077e-08
-5.45295e-09
-1.6676e-08
-3.6354e-08
-5.88343e-08
-1.97877e-08
1.63827e-08
1.53596e-08
3.95403e-08
6.35452e-08
3.77573e-08
1.2507e-08
2.00651e-08
-5.91379e-09
-1.66595e-08
-1.61246e-08
-2.14835e-09
8.33516e-09
5.29376e-10
-6.06915e-09
1.68639e-08
7.8848e-08
9.26279e-08
4.29441e-08
1.25716e-09
5.4196e-09
-1.8554e-08
-1.916e-08
-3.4407e-09
-1.93678e-08
2.94041e-08
7.01277e-08
8.64101e-08
8.39509e-08
7.51377e-08
1.01688e-07
1.07098e-07
8.68121e-08
4.08533e-08
6.72397e-08
6.44567e-08
4.39915e-08
7.21517e-08
5.5758e-08
5.454e-08
4.16393e-08
4.43716e-08
4.6249e-08
3.67258e-09
-4.29209e-08
-4.8991e-08
-5.38084e-08
-1.48985e-08
2.02634e-08
-2.22012e-08
-3.54874e-08
-3.75373e-09
1.12926e-08
2.24098e-10
-9.11568e-09
-1.00623e-08
-6.13765e-09
-1.66715e-08
-3.29945e-08
-5.32135e-08
-2.04262e-08
1.49282e-08
1.63952e-08
3.60143e-08
5.74723e-08
3.67402e-08
1.24095e-08
1.90977e-08
-3.19327e-09
-1.38247e-08
-1.37225e-08
-3.27712e-09
6.6513e-09
1.80859e-09
-2.10072e-09
1.79032e-08
7.26881e-08
8.71435e-08
4.45042e-08
3.44043e-09
4.55134e-09
-1.47624e-08
-1.75115e-08
-2.16255e-09
-1.39434e-08
2.88984e-08
6.80767e-08
8.40767e-08
8.40311e-08
7.59057e-08
9.81163e-08
1.01883e-07
8.54835e-08
4.39509e-08
6.3901e-08
6.59959e-08
4.58645e-08
6.94407e-08
5.59447e-08
5.41452e-08
4.26928e-08
4.16605e-08
4.19774e-08
5.40682e-09
-3.84492e-08
-4.57778e-08
-4.92773e-08
-1.6762e-08
1.62016e-08
-1.89239e-08
-3.31063e-08
-6.90476e-09
8.44771e-09
-3.24057e-10
-8.61189e-09
-9.27248e-09
-6.69941e-09
-1.6654e-08
-3.0046e-08
-4.79621e-08
-2.06616e-08
1.34065e-08
1.71045e-08
3.30579e-08
5.19479e-08
3.55548e-08
1.23863e-08
1.8026e-08
-8.75461e-10
-1.12674e-08
-1.13923e-08
-3.8402e-09
5.28735e-09
2.82415e-09
1.25675e-09
1.88636e-08
6.72181e-08
8.19275e-08
4.5525e-08
5.7301e-09
4.00428e-09
-1.14415e-08
-1.56142e-08
-9.33102e-10
-9.00534e-09
2.86699e-08
6.61754e-08
8.18534e-08
8.3763e-08
7.64312e-08
9.49012e-08
9.72726e-08
8.38426e-08
4.67853e-08
6.10371e-08
6.67812e-08
4.77451e-08
6.70861e-08
5.60331e-08
5.36099e-08
4.34333e-08
3.95426e-08
3.81785e-08
6.71013e-09
-3.41979e-08
-4.26888e-08
-4.51391e-08
-1.80859e-08
1.25006e-08
-1.62273e-08
-3.07634e-08
-9.48055e-09
5.78909e-09
-9.56667e-10
-8.26183e-09
-8.56617e-09
-7.14227e-09
-1.66046e-08
-2.74738e-08
-4.30914e-08
-2.05487e-08
1.18669e-08
1.75139e-08
3.05936e-08
4.69671e-08
3.42268e-08
1.24258e-08
1.68999e-08
1.06643e-09
-8.97147e-09
-9.17993e-09
-3.94001e-09
4.2509e-09
3.6364e-09
4.07534e-09
1.9731e-08
6.23513e-08
7.70001e-08
4.60855e-08
8.05597e-09
3.763e-09
-8.53425e-09
-1.35374e-08
2.6858e-10
-4.5298e-09
2.86642e-08
6.44043e-08
7.97617e-08
8.32119e-08
7.67337e-08
9.1986e-08
9.32113e-08
8.19896e-08
4.93173e-08
5.86338e-08
6.69326e-08
4.95419e-08
6.50499e-08
5.60322e-08
5.3001e-08
4.38928e-08
3.79034e-08
3.48515e-08
7.64972e-09
-3.01967e-08
-3.97094e-08
-4.13684e-08
-1.89598e-08
9.15942e-09
-1.40237e-08
-2.84909e-08
-1.15407e-08
3.32461e-09
-1.63904e-09
-8.04312e-09
-7.96826e-09
-7.47463e-09
-1.6508e-08
-2.52425e-08
-3.86043e-08
-2.0144e-08
1.03465e-08
1.76572e-08
2.85444e-08
4.25128e-08
3.27887e-08
1.2514e-08
1.57618e-08
2.6668e-09
-6.91993e-09
-7.12111e-09
-3.67229e-09
3.53685e-09
4.2995e-09
6.42356e-09
2.04953e-08
5.80097e-08
7.23702e-08
4.62625e-08
1.03602e-08
3.80403e-09
-5.98376e-09
-1.13436e-08
1.45891e-09
-4.86942e-10
2.88331e-08
6.27475e-08
7.78105e-08
8.24408e-08
7.68358e-08
8.93213e-08
8.96412e-08
8.00118e-08
5.15266e-08
5.66642e-08
6.65691e-08
5.1183e-08
6.32931e-08
5.59541e-08
5.23662e-08
4.41097e-08
3.66425e-08
3.19807e-08
8.29286e-09
-2.64632e-08
-3.68334e-08
-3.79358e-08
-1.94623e-08
6.16715e-09
-1.22335e-08
-2.63086e-08
-1.31437e-08
1.05557e-09
-2.33987e-09
-7.92884e-09
-7.49727e-09
-7.70843e-09
-1.6353e-08
-2.33178e-08
-3.44955e-08
-1.95015e-08
8.87367e-09
1.75715e-08
2.68387e-08
3.85575e-08
3.12746e-08
1.26409e-08
1.46443e-08
3.96226e-09
-5.0935e-09
-5.24496e-09
-3.12008e-09
3.12477e-09
4.86226e-09
8.36451e-09
2.11528e-08
5.4125e-08
6.80356e-08
4.6127e-08
1.26006e-08
4.09802e-09
-3.73742e-09
-9.08658e-09
2.64784e-09
3.15856e-09
2.91367e-08
6.11913e-08
7.5997e-08
8.15058e-08
7.67649e-08
8.68641e-08
8.65021e-08
7.79818e-08
5.341e-08
5.5092e-08
6.57979e-08
5.26182e-08
6.1777e-08
5.58073e-08
5.17347e-08
4.41263e-08
3.56763e-08
2.95398e-08
8.70311e-09
-2.3004e-08
-3.40601e-08
-3.48106e-08
-1.96598e-08
3.50568e-09
-1.07855e-08
-2.42258e-08
-1.43458e-08
-1.02167e-09
-3.03225e-09
-7.88966e-09
-7.16442e-09
2.41723e-07
9.90811e-08
-1.54194e-07
-1.15872e-07
-5.47146e-08
-1.74603e-07
3.00687e-10
3.39667e-07
5.6204e-08
-2.19861e-07
5.3669e-08
-2.96435e-08
-7.88385e-08
2.4865e-07
3.78354e-08
-2.02311e-07
5.77717e-08
9.88565e-09
-2.51238e-07
7.24328e-09
3.03977e-07
3.04704e-07
7.71611e-08
-5.60314e-08
-6.47494e-08
-6.50885e-08
-2.92138e-08
-1.4833e-07
4.27628e-08
8.08394e-08
1.31869e-07
1.64917e-07
-1.32221e-07
9.75071e-08
3.59138e-07
1.45776e-07
-1.2982e-07
-1.0524e-07
1.43521e-07
8.50683e-08
1.32335e-07
8.07087e-08
5.17542e-08
1.69059e-07
2.26768e-08
3.37236e-08
8.41647e-09
-3.64004e-08
-1.05919e-07
-2.81433e-07
-7.01469e-08
2.76762e-07
-2.34788e-08
-9.40229e-10
6.35158e-08
-2.23837e-07
-5.14076e-08
1.78784e-07
-7.5695e-08
-9.5183e-08
2.20997e-07
8.38526e-08
-1.51852e-07
-1.15913e-07
-5.31996e-08
-1.55377e-07
1.33293e-08
3.18013e-07
4.2378e-08
-2.00347e-07
5.23135e-08
-2.78362e-08
-6.35993e-08
2.27556e-07
2.34968e-08
-1.82598e-07
5.51017e-08
-5.87839e-09
-2.30871e-07
2.18428e-08
3.00404e-07
2.85917e-07
6.19925e-08
-5.39911e-08
-6.36404e-08
-6.52825e-08
-2.75084e-08
-1.30706e-07
4.06355e-08
8.06368e-08
1.29604e-07
1.48888e-07
-1.11085e-07
1.11085e-07
3.38277e-07
1.30177e-07
-1.26319e-07
-8.78715e-08
1.42229e-07
8.48818e-08
1.31936e-07
8.16335e-08
5.01094e-08
1.51909e-07
2.41878e-08
3.42355e-08
9.00184e-09
-3.60158e-08
-1.04085e-07
-2.6224e-07
-5.77488e-08
2.56737e-07
-2.1839e-08
-2.64223e-09
4.76369e-08
-2.02858e-07
-3.74984e-08
1.58878e-07
-7.24539e-08
-7.96544e-08
2.08402e-07
8.04138e-08
-1.47352e-07
-1.15616e-07
-5.02176e-08
-1.45324e-07
1.30487e-08
3.04277e-07
4.15224e-08
-1.9091e-07
4.97681e-08
-2.44825e-08
-6.0276e-08
2.1546e-07
2.23672e-08
-1.7299e-07
4.98483e-08
-9.37675e-09
-2.18404e-07
2.48559e-08
2.93233e-07
2.76091e-07
5.8811e-08
-4.99281e-08
-6.17864e-08
-6.58225e-08
-2.4176e-08
-1.23832e-07
3.72872e-08
8.01613e-08
1.25403e-07
1.45058e-07
-9.85408e-08
1.11806e-07
3.25192e-07
1.26338e-07
-1.19207e-07
-8.14199e-08
1.39709e-07
8.38393e-08
1.31217e-07
8.28729e-08
4.70163e-08
1.45556e-07
2.70151e-08
3.4861e-08
9.63861e-09
-3.58066e-08
-1.00425e-07
-2.52104e-07
-5.88927e-08
2.46374e-07
-1.89127e-08
-5.5323e-09
4.40666e-08
-1.90343e-07
-3.66362e-08
1.48509e-07
-6.63839e-08
-7.56929e-08
1.95037e-07
7.9101e-08
-1.41253e-07
-1.15e-07
-4.69513e-08
-1.35529e-07
9.68498e-09
2.89311e-07
4.40144e-08
-1.81807e-07
4.59397e-08
-2.01164e-08
-5.91264e-08
2.02815e-07
2.45872e-08
-1.63576e-07
4.29413e-08
-1.02001e-08
-2.0538e-07
2.53391e-08
2.83625e-07
2.66557e-07
5.82267e-08
-4.52128e-08
-5.93607e-08
-6.57499e-08
-2.03404e-08
-1.18126e-07
3.33185e-08
7.97267e-08
1.2037e-07
1.43263e-07
-8.56865e-08
1.09108e-07
3.11557e-07
1.2491e-07
-1.09664e-07
-7.64715e-08
1.3622e-07
8.26898e-08
1.2968e-07
8.41834e-08
4.37728e-08
1.40476e-07
3.0638e-08
3.54226e-08
1.02605e-08
-3.57753e-08
-9.60757e-08
-2.41798e-07
-6.33862e-08
2.35709e-07
-1.48046e-08
-9.24861e-09
4.26031e-08
-1.77243e-07
-3.87364e-08
1.38208e-07
-5.88304e-08
-7.35807e-08
1.79556e-07
7.74604e-08
-1.33854e-07
-1.14007e-07
-4.35391e-08
-1.24147e-07
6.06492e-09
2.71878e-07
4.70724e-08
-1.71497e-07
4.11174e-08
-1.49638e-08
-5.784e-08
1.87758e-07
2.74995e-08
-1.52742e-07
3.50141e-08
-1.06038e-08
-1.9047e-07
2.56405e-08
2.72139e-07
2.55488e-07
5.76798e-08
-4.03553e-08
-5.62657e-08
-6.51361e-08
-1.62609e-08
-1.11371e-07
2.89175e-08
7.93123e-08
1.14819e-07
1.41061e-07
-7.13248e-08
1.05679e-07
2.96208e-07
1.23372e-07
-9.85765e-08
-7.09113e-08
1.32031e-07
8.15821e-08
1.27256e-07
8.57606e-08
4.05923e-08
1.34653e-07
3.47064e-08
3.59648e-08
1.09998e-08
-3.56967e-08
-9.13039e-08
-2.29535e-07
-6.83831e-08
2.23091e-07
-9.83205e-09
-1.41772e-08
4.09158e-08
-1.61758e-07
-4.11035e-08
1.26371e-07
-5.04012e-08
-7.1061e-08
1.62628e-07
7.53288e-08
-1.25485e-07
-1.12648e-07
-4.01576e-08
-1.11597e-07
2.66625e-09
2.52719e-07
5.03085e-08
-1.60362e-07
3.55305e-08
-9.35258e-09
-5.63096e-08
1.70968e-07
3.07429e-08
-1.40878e-07
2.66362e-08
-1.07151e-08
-1.74386e-07
2.57954e-08
2.59378e-07
2.43387e-07
5.70208e-08
-3.56958e-08
-5.25563e-08
-6.40515e-08
-1.21605e-08
-1.03578e-07
2.42922e-08
7.88777e-08
1.09069e-07
1.38348e-07
-5.61164e-08
1.01879e-07
2.79794e-07
1.21647e-07
-8.6609e-08
-6.49808e-08
1.27366e-07
8.05598e-08
1.24029e-07
8.76183e-08
3.76427e-08
1.28174e-07
3.8882e-08
3.65157e-08
1.19096e-08
-3.54234e-08
-8.62941e-08
-2.15708e-07
-7.34214e-08
2.08758e-07
-4.27416e-09
-1.93281e-08
3.88312e-08
-1.45098e-07
-4.332e-08
1.13477e-07
-4.16757e-08
-6.80793e-08
1.4512e-07
7.27481e-08
-1.16496e-07
-1.10952e-07
-3.70798e-08
-9.86703e-08
-3.19464e-10
2.32808e-07
5.36767e-08
-1.48792e-07
2.93772e-08
-3.69745e-09
-5.45423e-08
1.53885e-07
3.41427e-08
-1.28537e-07
1.83018e-08
-1.05429e-08
-1.5798e-07
2.56356e-08
2.45915e-07
2.31139e-07
5.64036e-08
-3.14786e-08
-4.84199e-08
-6.26087e-08
-8.38227e-09
-9.5024e-08
1.96864e-08
7.84036e-08
1.03506e-07
1.35273e-07
-4.08992e-08
9.77606e-08
2.63142e-07
1.20034e-07
-7.42808e-08
-5.90778e-08
1.22331e-07
7.95958e-08
1.20119e-07
8.95919e-08
3.51966e-08
1.21319e-07
4.28642e-08
3.70528e-08
1.29474e-08
-3.48978e-08
-8.127e-08
-2.00943e-07
-7.82167e-08
1.93366e-07
1.6793e-09
-2.41677e-08
3.62821e-08
-1.28487e-07
-4.51337e-08
1.00185e-07
-3.3165e-08
-6.47235e-08
1.27661e-07
6.96631e-08
-1.07174e-07
-1.089e-07
-3.4532e-08
-8.57968e-08
-2.7503e-09
2.12958e-07
5.70628e-08
-1.36984e-07
2.28872e-08
1.63617e-09
-5.2444e-08
1.37071e-07
3.74621e-08
-1.16135e-07
1.04102e-08
-1.02126e-08
-1.4185e-07
2.51774e-08
2.32143e-07
2.19163e-07
5.58765e-08
-2.77927e-08
-4.40388e-08
-6.08935e-08
-5.19092e-09
-8.59562e-08
1.52958e-08
7.78562e-08
9.84468e-08
1.31922e-07
-2.62317e-08
9.34056e-08
2.4679e-07
1.18699e-07
-6.19167e-08
-5.32512e-08
1.1697e-07
7.87559e-08
1.15609e-07
9.15218e-08
3.3482e-08
1.14281e-07
4.64496e-08
3.75474e-08
1.40342e-08
-3.41075e-08
-7.64487e-08
-1.85722e-07
-8.24209e-08
1.7728e-07
7.83267e-09
-2.83771e-08
3.31857e-08
-1.12504e-07
-4.63075e-08
8.69307e-08
-2.52761e-08
-6.09825e-08
1.10704e-07
6.60283e-08
-9.77374e-08
-1.06428e-07
-3.261e-08
-7.33744e-08
-4.57688e-09
1.93571e-07
6.02944e-08
-1.25029e-07
1.63104e-08
6.39082e-09
-4.99542e-08
1.20793e-07
4.03722e-08
-1.03951e-07
3.25247e-09
-9.83459e-09
-1.26361e-07
2.44986e-08
2.18293e-07
2.07602e-07
5.54766e-08
-2.46136e-08
-3.95575e-08
-5.8914e-08
-2.63925e-09
-7.66193e-08
1.12682e-08
7.71767e-08
9.40562e-08
1.28378e-07
-1.24306e-08
8.8959e-08
2.3101e-07
1.17451e-07
-4.96756e-08
-4.73624e-08
1.11371e-07
7.80501e-08
1.10613e-07
9.32387e-08
3.26175e-08
1.07235e-07
4.95347e-08
3.79901e-08
1.51004e-08
-3.30481e-08
-7.19783e-08
-1.70449e-07
-8.57588e-08
1.60788e-07
1.39592e-08
-3.17193e-08
2.9566e-08
-9.74495e-08
-4.67334e-08
7.406e-08
-1.82865e-08
-5.68718e-08
9.45803e-08
6.18471e-08
-8.83795e-08
-1.0347e-07
-3.13021e-08
-6.1736e-08
-5.79487e-09
1.74928e-07
6.31751e-08
-1.12987e-07
9.89059e-09
1.04068e-08
-4.70756e-08
1.05247e-07
4.26678e-08
-9.21425e-08
-2.98439e-09
-9.45795e-09
-1.11631e-07
2.36591e-08
2.04525e-07
1.96502e-07
5.52345e-08
-2.18687e-08
-3.51247e-08
-5.66259e-08
-7.50831e-10
-6.72421e-08
7.72455e-09
7.62877e-08
9.03735e-08
1.24726e-07
3.50952e-10
8.46589e-08
2.15907e-07
1.16191e-07
-3.76764e-08
-4.14691e-08
1.05631e-07
7.74609e-08
1.05303e-07
9.45698e-08
3.26202e-08
1.00346e-07
5.20776e-08
3.83576e-08
1.61007e-08
-3.17156e-08
-6.79137e-08
-1.55464e-07
-8.80567e-08
1.44167e-07
1.98095e-08
-3.40512e-08
2.55346e-08
-8.35352e-08
-4.64088e-08
6.18097e-08
-1.23558e-08
-5.24627e-08
7.95632e-08
5.71603e-08
-7.928e-08
-9.99972e-08
-3.05392e-08
-5.11e-08
-6.40528e-09
1.57223e-07
6.55309e-08
-1.00939e-07
3.84211e-09
1.35931e-08
-4.38524e-08
9.05936e-08
4.42517e-08
-8.08063e-08
-8.19808e-09
-9.09489e-09
-9.77468e-08
2.27027e-08
1.9098e-07
1.85873e-07
5.51488e-08
-1.94881e-08
-3.08684e-08
-5.39911e-08
5.14959e-10
-5.80138e-08
4.74944e-09
7.51284e-08
8.73626e-08
1.2103e-07
1.20377e-08
8.06794e-08
2.01539e-07
1.14876e-07
-2.60607e-08
-3.56067e-08
9.98441e-08
7.69712e-08
9.98265e-08
9.53699e-08
3.3373e-08
9.37628e-08
5.40686e-08
3.86373e-08
1.70108e-08
-3.01131e-08
-6.42667e-08
-1.41044e-07
-8.92282e-08
1.2763e-07
2.51483e-08
-3.53175e-08
2.12388e-08
-7.09186e-08
-4.53833e-08
5.03701e-08
-7.5495e-09
-4.78478e-08
6.5822e-08
5.20422e-08
-7.06022e-08
-9.6023e-08
-3.0215e-08
-4.15859e-08
-6.43909e-09
1.40594e-07
6.724e-08
-8.89983e-08
-1.66106e-09
1.59172e-08
-4.0347e-08
7.69798e-08
4.50847e-08
-7.00272e-08
-1.23487e-08
-8.7258e-09
-8.4803e-08
2.16921e-08
1.77785e-07
1.75699e-07
5.51841e-08
-1.74003e-08
-2.68694e-08
-5.10064e-08
1.22505e-09
-4.90892e-08
2.39092e-09
7.36701e-08
8.49433e-08
1.17334e-07
2.25966e-08
7.71135e-08
1.87952e-07
1.13467e-07
-1.49714e-08
-2.97611e-08
9.41199e-08
7.65586e-08
9.43296e-08
9.55489e-08
3.47369e-08
8.75993e-08
5.55201e-08
3.88347e-08
1.78198e-08
-2.82577e-08
-6.10168e-08
-1.27397e-07
-8.92617e-08
1.11393e-07
2.97831e-08
-3.55389e-08
1.68291e-08
-5.9707e-08
-4.37344e-08
3.99035e-08
-3.86233e-09
-4.31323e-08
5.34615e-08
4.65955e-08
-6.24809e-08
-9.15939e-08
-3.02116e-08
-3.32472e-08
-5.95626e-09
1.25141e-07
6.82457e-08
-7.73053e-08
-6.4883e-09
1.74034e-08
-3.66334e-08
6.45076e-08
4.5168e-08
-5.98817e-08
-1.54471e-08
-8.34373e-09
-7.2857e-08
2.07035e-08
1.65051e-07
1.65951e-07
5.5295e-08
-1.5512e-08
-2.31821e-08
-4.77021e-08
1.48409e-09
-4.06006e-08
6.73106e-10
7.19211e-08
8.30141e-08
1.13677e-07
3.20248e-08
7.40143e-08
1.75183e-07
1.11934e-07
-4.52418e-09
-2.39114e-08
8.8553e-08
7.61875e-08
8.89552e-08
9.50784e-08
3.65699e-08
8.19336e-08
5.64632e-08
3.89591e-08
1.85221e-08
-2.61815e-08
-5.81071e-08
-1.14686e-07
-8.82051e-08
9.56718e-08
3.35679e-08
-3.47976e-08
1.24484e-08
-4.99454e-08
-4.15618e-08
3.05256e-08
-1.23197e-09
-3.84293e-08
4.25216e-08
4.0941e-08
-5.50173e-08
-8.6781e-08
-3.04141e-08
-2.60933e-08
-5.03653e-09
1.1094e-07
6.85337e-08
-6.60004e-08
-1.05489e-08
1.81151e-08
-3.2795e-08
5.32349e-08
4.45306e-08
-5.04322e-08
-1.75426e-08
-7.94013e-09
-6.19245e-08
1.98026e-08
1.52865e-07
1.56596e-07
5.54447e-08
-1.37316e-08
-1.98417e-08
-4.41335e-08
1.41379e-09
-3.26587e-08
-4.01624e-10
6.99065e-08
8.14682e-08
1.10101e-07
4.03458e-08
7.14082e-08
1.63257e-07
1.10257e-07
5.1992e-09
-1.80498e-08
8.32197e-08
7.58126e-08
8.38314e-08
9.39842e-08
3.86982e-08
7.68083e-08
5.69432e-08
3.90186e-08
1.91144e-08
-2.39282e-08
-5.54566e-08
-1.0302e-07
-8.61549e-08
8.06771e-08
3.64069e-08
-3.32152e-08
8.22871e-09
-4.16155e-08
-3.89838e-08
2.22917e-08
4.51018e-10
-3.38506e-08
3.29873e-08
3.52059e-08
-4.82799e-08
-8.16765e-08
-3.07202e-08
-2.01027e-08
-3.76986e-09
9.80317e-08
6.81163e-08
-5.52129e-08
-1.37845e-08
1.81452e-08
-2.89175e-08
4.31772e-08
4.32091e-08
-4.17253e-08
-1.87126e-08
-7.50031e-09
-5.19924e-08
1.90323e-08
1.41288e-07
1.47611e-07
5.56021e-08