/*--------------------------------*- C++ -*----------------------------------*\
| =========                 |                                                 |
| \\      /  F ield         | OpenFOAM: The Open Source CFD Toolbox           |
|  \\    /   O peration     | Version:  2312                                  |
|   \\  /    A nd           | Website:  www.openfoam.com                      |
|    \\/     M anipulation  |                                                 |
\*---------------------------------------------------------------------------*/
FoamFile
{
    version     2.0;
    format      ascii;
    arch        "LSB;label=32;scalar=64";
    class       volScalarField;
    location    "800";
    object      pPrime2Mean;
}
// * * * * * * * * * * * * * * * * * * * * * * * * * * * * * * * * * * * * * //

dimensions      [0 4 -4 0 0 0 0];

internalField   nonuniform List<scalar> 
144000
(
6.60778e-16
5.03569e-16
7.58919e-15
1.71353e-14
5.87693e-15
5.80033e-16
6.62786e-15
1.1465e-14
1.90526e-14
6.84941e-15
3.53076e-15
7.68526e-16
2.42977e-15
1.29713e-14
7.50802e-15
1.51082e-14
4.6369e-15
6.92551e-15
2.41444e-14
1.69194e-14
4.88006e-14
1.72398e-14
1.48055e-14
3.97451e-16
5.88891e-15
1.74644e-14
2.38632e-15
1.58127e-15
1.82982e-14
4.28667e-15
4.30102e-15
2.61663e-15
5.01325e-16
4.50263e-15
1.03918e-14
1.74439e-14
5.10171e-15
2.32552e-16
8.82994e-15
9.23763e-15
1.32046e-15
1.09278e-14
4.5551e-15
9.16629e-15
2.45371e-15
2.22457e-14
1.63755e-14
1.08073e-14
7.49055e-15
9.21549e-15
1.37225e-14
1.06037e-14
9.46553e-15
1.91202e-14
7.42742e-15
1.95814e-14
9.35464e-15
1.95502e-15
1.82934e-15
2.46393e-16
6.44185e-16
4.77651e-16
7.24052e-15
1.32931e-14
5.33211e-15
6.21361e-16
4.55495e-15
1.07721e-14
1.4753e-14
4.62179e-15
3.26142e-15
7.68363e-16
2.3046e-15
9.39701e-15
5.23062e-15
1.1288e-14
2.56596e-15
6.40745e-15
1.89234e-14
1.43013e-14
4.11218e-14
1.31247e-14
1.12184e-14
3.1956e-16
4.0362e-15
1.33971e-14
1.99021e-15
9.39537e-16
1.43204e-14
3.93963e-15
4.19331e-15
2.55012e-15
4.57604e-16
2.61326e-15
9.75507e-15
1.35924e-14
4.56416e-15
2.57344e-16
6.32492e-15
6.6362e-15
1.19889e-15
7.96089e-15
4.12374e-15
6.34103e-15
1.26371e-15
1.72423e-14
1.24058e-14
1.00872e-14
7.40602e-15
8.83275e-15
1.03793e-14
9.6333e-15
6.5448e-15
1.46427e-14
4.93827e-15
1.50953e-14
6.3163e-15
1.72885e-15
1.75687e-15
2.32812e-16
6.02729e-16
4.40535e-16
6.37269e-15
1.10201e-14
4.24761e-15
6.96496e-16
3.21887e-15
9.0349e-15
1.19946e-14
3.11209e-15
2.42847e-15
6.92418e-16
2.00478e-15
7.19019e-15
3.54963e-15
8.03622e-15
1.63074e-15
4.93175e-15
1.51477e-14
1.0933e-14
3.3518e-14
1.07128e-14
8.53589e-15
2.52543e-16
2.7444e-15
1.07837e-14
1.34355e-15
7.06639e-16
1.18148e-14
3.39756e-15
3.87493e-15
2.37572e-15
3.46609e-16
1.60842e-15
8.18977e-15
1.14363e-14
3.54677e-15
3.345e-16
4.78188e-15
5.0925e-15
9.71292e-16
6.26367e-15
3.18292e-15
4.53439e-15
5.72947e-16
1.32583e-14
9.80691e-15
8.46495e-15
6.9973e-15
7.81039e-15
8.53886e-15
7.38304e-15
5.16458e-15
1.11839e-14
3.39751e-15
1.13123e-14
4.86667e-15
1.2175e-15
1.44165e-15
2.14925e-16
5.42625e-16
3.77389e-16
5.46511e-15
9.35949e-15
3.2325e-15
7.65839e-16
2.30886e-15
7.28988e-15
9.9492e-15
2.11589e-15
1.65745e-15
5.78196e-16
1.67989e-15
5.64479e-15
2.4323e-15
5.60551e-15
1.14741e-15
3.61627e-15
1.2195e-14
8.06252e-15
2.71979e-14
9.16599e-15
6.38023e-15
3.48896e-16
1.84511e-15
8.79424e-15
8.89608e-16
6.43406e-16
9.9333e-15
2.85192e-15
3.51107e-15
2.20854e-15
2.65938e-16
1.02056e-15
6.66318e-15
9.85121e-15
2.59883e-15
4.50779e-16
3.72592e-15
3.89413e-15
8.27641e-16
5.1103e-15
2.36715e-15
3.30267e-15
2.9319e-16
1.01957e-14
7.92436e-15
6.79644e-15
6.45806e-15
6.75957e-15
7.22927e-15
5.27421e-15
4.32364e-15
8.51135e-15
2.46466e-15
8.36248e-15
4.00002e-15
7.71447e-16
1.08765e-15
1.94027e-16
4.7553e-16
3.0542e-16
4.5874e-15
7.96107e-15
2.45348e-15
8.06851e-16
1.67874e-15
5.7867e-15
8.2341e-15
1.48758e-15
1.12136e-15
4.69944e-16
1.37142e-15
4.37832e-15
1.77553e-15
3.78327e-15
8.42968e-16
2.64837e-15
9.67193e-15
6.02026e-15
2.18521e-14
8.08086e-15
4.65694e-15
5.04029e-16
1.25875e-15
7.1073e-15
6.77618e-16
6.41101e-16
8.31378e-15
2.38458e-15
3.14798e-15
2.06269e-15
2.18126e-16
6.50536e-16
5.40304e-15
8.43422e-15
1.88385e-15
5.65606e-16
2.97976e-15
2.87954e-15
7.36637e-16
4.20248e-15
1.81701e-15
2.42972e-15
2.65663e-16
7.72768e-15
6.46891e-15
5.4271e-15
5.89063e-15
5.78852e-15
6.10663e-15
3.62158e-15
3.66143e-15
6.36312e-15
1.92027e-15
6.0239e-15
3.32795e-15
4.97982e-16
7.97053e-16
1.72611e-16
4.09959e-16
2.37671e-16
3.75382e-15
6.7467e-15
1.86429e-15
8.21429e-16
1.2449e-15
4.50684e-15
6.75515e-15
1.09258e-15
7.64922e-16
3.74308e-16
1.08699e-15
3.34138e-15
1.39607e-15
2.4333e-15
6.33261e-16
1.94444e-15
7.53785e-15
4.57951e-15
1.72228e-14
7.22578e-15
3.26574e-15
6.52718e-16
8.79178e-16
5.65043e-15
6.22618e-16
6.40546e-16
6.8932e-15
1.99768e-15
2.79351e-15
1.92531e-15
1.99865e-16
4.18467e-16
4.35827e-15
7.13111e-15
1.36995e-15
6.55729e-16
2.42821e-15
2.02175e-15
6.7206e-16
3.47261e-15
1.45707e-15
1.79274e-15
3.36069e-16
5.75677e-15
5.32554e-15
4.3332e-15
5.32119e-15
4.90541e-15
5.1151e-15
2.37523e-15
3.09221e-15
4.62779e-15
1.59461e-15
4.19447e-15
2.76331e-15
3.52952e-16
5.65958e-16
1.51522e-16
3.50352e-16
1.79295e-16
2.99795e-15
5.68663e-15
1.42385e-15
8.19445e-16
9.43313e-16
3.43241e-15
5.48145e-15
8.38205e-16
5.27072e-16
2.96143e-16
8.3522e-16
2.51729e-15
1.16274e-15
1.48545e-15
4.82266e-16
1.43323e-15
5.78941e-15
3.5297e-15
1.33702e-14
6.4878e-15
2.19707e-15
7.72521e-16
6.27173e-16
4.41361e-15
6.52532e-16
6.24533e-16
5.65795e-15
1.68037e-15
2.45349e-15
1.79195e-15
2.09806e-16
2.75367e-16
3.48921e-15
5.94451e-15
1.01904e-15
7.13021e-16
1.99541e-15
1.348e-15
6.28694e-16
2.88085e-15
1.2193e-15
1.34978e-15
4.27824e-16
4.25152e-15
4.40866e-15
3.45683e-15
4.76434e-15
4.12885e-15
4.24388e-15
1.45589e-15
2.58547e-15
3.27808e-15
1.38368e-15
2.81637e-15
2.27819e-15
2.84471e-16
3.91511e-16
1.31825e-16
2.97152e-16
1.32701e-16
2.34576e-15
4.76261e-15
1.10708e-15
8.04427e-16
7.31916e-16
2.55824e-15
4.39553e-15
6.71527e-16
3.68914e-16
2.36303e-16
6.22995e-16
1.87854e-15
1.00272e-15
8.66125e-16
3.73408e-16
1.06687e-15
4.39508e-15
2.75272e-15
1.02436e-14
5.80618e-15
1.42397e-15
8.51307e-16
4.60321e-16
3.38492e-15
7.20382e-16
5.9631e-16
4.5976e-15
1.42566e-15
2.13486e-15
1.66029e-15
2.44214e-16
1.92369e-16
2.77858e-15
4.88925e-15
8.01662e-16
7.32369e-16
1.64099e-15
8.66381e-16
6.01258e-16
2.39711e-15
1.06416e-15
1.07202e-15
5.09202e-16
3.15251e-15
3.66084e-15
2.7638e-15
4.22668e-15
3.46892e-15
3.48849e-15
8.16486e-16
2.12725e-15
2.26787e-15
1.22614e-15
1.81206e-15
1.85673e-15
2.57905e-16
2.66749e-16
1.14825e-16
2.49215e-16
9.69727e-17
1.80181e-15
3.95744e-15
8.89401e-16
7.76738e-16
5.84306e-16
1.87267e-15
3.48497e-15
5.60394e-16
2.63591e-16
1.92466e-16
4.51386e-16
1.39352e-15
8.77144e-16
4.89367e-16
2.93859e-16
8.08535e-16
3.30905e-15
2.17045e-15
7.76108e-15
5.14957e-15
8.9612e-16
8.82749e-16
3.53609e-16
2.55431e-15
7.93274e-16
5.63138e-16
3.703e-15
1.22509e-15
1.84397e-15
1.52817e-15
2.95824e-16
1.50484e-16
2.21063e-15
3.97659e-15
6.85426e-16
7.12767e-16
1.34561e-15
5.5815e-16
5.81523e-16
2.00125e-15
9.62435e-16
9.05844e-16
5.70617e-16
2.38332e-15
3.04426e-15
2.22507e-15
3.71047e-15
2.92056e-15
2.8435e-15
4.07018e-16
1.71198e-15
1.53767e-15
1.09177e-15
1.10848e-15
1.49088e-15
2.51047e-16
1.82351e-16
9.96482e-17
2.05533e-16
7.0698e-17
1.36051e-15
3.25689e-15
7.4522e-16
7.37967e-16
4.83112e-16
1.3544e-15
2.73176e-15
4.83844e-16
1.92665e-16
1.61073e-16
3.17107e-16
1.02934e-15
7.66983e-16
2.79404e-16
2.35693e-16
6.28639e-16
2.48095e-15
1.72845e-15
5.82838e-15
4.5096e-15
5.60408e-16
8.67518e-16
2.90211e-16
1.90013e-15
8.48994e-16
5.3003e-16
2.96091e-15
1.06777e-15
1.58456e-15
1.39528e-15
3.55496e-16
1.36051e-16
1.76666e-15
3.20742e-15
6.36695e-16
6.60922e-16
1.10106e-15
3.86761e-16
5.60253e-16
1.67859e-15
8.93337e-16
8.14302e-16
6.13296e-16
1.86185e-15
2.53455e-15
1.81343e-15
3.21968e-15
2.46985e-15
2.30116e-15
1.72619e-16
1.34058e-15
1.02899e-15
9.6581e-16
6.39715e-16
1.17637e-15
2.49795e-16
1.28635e-16
8.52744e-17
1.66195e-16
5.28953e-17
1.01297e-15
2.65178e-15
6.5134e-16
6.88998e-16
4.16149e-16
9.74433e-16
2.11463e-15
4.28405e-16
1.4418e-16
1.38426e-16
2.15693e-16
7.5802e-16
6.64664e-16
1.7637e-16
1.9432e-16
5.03875e-16
1.86141e-15
1.3892e-15
4.34885e-15
3.89325e-15
3.66618e-16
8.12106e-16
2.57595e-16
1.39523e-15
8.75504e-16
4.99275e-16
2.35493e-15
9.42621e-16
1.35799e-15
1.26296e-15
4.14185e-16
1.39332e-16
1.42336e-15
2.5735e-15
6.25552e-16
5.88968e-16
9.03473e-16
3.13725e-16
5.33452e-16
1.41809e-15
8.43205e-16
7.6744e-16
6.41916e-16
1.5165e-15
2.11608e-15
1.50311e-15
2.7614e-15
2.1015e-15
1.85203e-15
6.01097e-17
1.01717e-15
6.86989e-16
8.42545e-16
3.43866e-16
9.09812e-16
2.45905e-16
9.70728e-17
7.22258e-17
1.31711e-16
4.22834e-17
7.46771e-16
2.13464e-15
5.89402e-16
6.31934e-16
3.74078e-16
7.02259e-16
1.61444e-15
3.85523e-16
1.10501e-16
1.21322e-16
1.42394e-16
5.56852e-16
5.68345e-16
1.36917e-16
1.66499e-16
4.17302e-16
1.40526e-15
1.12635e-15
3.23249e-15
3.31303e-15
2.70473e-16
7.27233e-16
2.45803e-16
1.01537e-15
8.69897e-16
4.71694e-16
1.86728e-15
8.39979e-16
1.16302e-15
1.13349e-15
4.64734e-16
1.5321e-16
1.16003e-15
2.06161e-15
6.28602e-16
5.09855e-16
7.48584e-16
3.0351e-16
5.01422e-16
1.20951e-15
8.03327e-16
7.41979e-16
6.61084e-16
1.29056e-15
1.77773e-15
1.27095e-15
2.34346e-15
1.80097e-15
1.4853e-15
2.43085e-17
7.45661e-16
4.64237e-16
7.21958e-16
1.7083e-16
6.88195e-16
2.35971e-16
8.06985e-17
6.11541e-17
1.02371e-16
3.72311e-17
5.47759e-16
1.69802e-15
5.45715e-16
5.69936e-16
3.49128e-16
5.10849e-16
1.21492e-15
3.49668e-16
8.66236e-17
1.075e-16
9.22549e-17
4.08175e-16
4.78508e-16
1.30718e-16
1.49353e-16
3.5647e-16
1.07349e-15
9.2111e-16
2.40062e-15
2.78071e-15
2.35674e-16
6.24552e-16
2.46623e-16
7.36494e-16
8.35563e-16
4.46896e-16
1.48015e-15
7.52442e-16
9.96899e-16
1.00944e-15
5.02408e-16
1.72395e-16
9.58395e-16
1.65537e-15
6.30439e-16
4.34557e-16
6.30782e-16
3.2621e-16
4.67117e-16
1.04295e-15
7.69037e-16
7.25881e-16
6.73758e-16
1.14125e-15
1.50965e-15
1.09713e-15
1.97218e-15
1.55438e-15
1.1897e-15
3.08398e-17
5.27485e-16
3.23358e-16
6.06887e-16
7.96997e-17
5.08457e-16
2.19823e-16
7.39349e-17
5.22209e-17
7.81441e-17
3.60407e-17
4.02178e-16
1.33464e-15
5.10479e-16
5.0664e-16
3.34709e-16
3.78343e-16
9.02775e-16
3.17239e-16
6.93786e-17
9.57008e-17
6.02512e-17
2.9875e-16
3.96392e-16
1.38264e-16
1.40179e-16
3.12597e-16
8.34021e-16
7.59849e-16
1.78712e-15
2.30461e-15
2.34602e-16
5.15121e-16
2.53171e-16
5.36692e-16
7.78513e-16
4.24442e-16
1.17671e-15
6.74965e-16
8.5634e-16
8.93056e-16
5.251e-16
1.93258e-16
8.03426e-16
1.33745e-15
6.23014e-16
3.70294e-16
5.4349e-16
3.59884e-16
4.34538e-16
9.10072e-16
7.37866e-16
7.12319e-16
6.8135e-16
1.03873e-15
1.30166e-15
9.66028e-16
1.65053e-15
1.34981e-15
9.54228e-16
5.61182e-17
3.60124e-16
2.35608e-16
5.00867e-16
4.08496e-17
3.66583e-16
1.98804e-16
7.24448e-17
4.54286e-17
5.87537e-17
3.72829e-17
2.97691e-16
1.03743e-15
4.77542e-16
4.45373e-16
3.25473e-16
2.87942e-16
6.64397e-16
2.86107e-16
5.67685e-17
8.53311e-17
4.16143e-17
2.18664e-16
3.23449e-16
1.48131e-16
1.36456e-16
2.79816e-16
6.61569e-16
6.32518e-16
1.33817e-15
1.88875e-15
2.47832e-16
4.08707e-16
2.6001e-16
3.96724e-16
7.05993e-16
4.0361e-16
9.41483e-16
6.0463e-16
7.3796e-16
7.86046e-16
5.32731e-16
2.13236e-16
6.83215e-16
1.09121e-15
6.0499e-16
3.21199e-16
4.79714e-16
3.90426e-16
4.07228e-16
8.04062e-16
7.08415e-16
6.97768e-16
6.84344e-16
9.636e-16
1.14291e-15
8.65748e-16
1.37832e-15
1.17717e-15
7.68667e-16
8.56285e-17
2.38028e-16
1.80538e-16
4.06797e-16
3.18027e-17
2.57311e-16
1.74581e-16
7.30631e-17
4.05535e-17
4.38576e-17
3.98809e-17
2.23963e-16
7.99119e-16
4.43648e-16
3.8851e-16
3.17378e-16
2.27095e-16
4.85893e-16
2.55414e-16
4.75064e-17
7.61597e-17
3.2164e-17
1.60838e-16
2.60861e-16
1.54549e-16
1.36026e-16
2.54316e-16
5.3676e-16
5.31547e-16
1.01097e-15
1.53318e-15
2.6298e-16
3.12255e-16
2.63281e-16
3.00755e-16
6.25454e-16
3.83781e-16
7.60639e-16
5.401e-16
6.38504e-16
6.89534e-16
5.26704e-16
2.30471e-16
5.89146e-16
9.01586e-16
5.77169e-16
2.87889e-16
4.32998e-16
4.10729e-16
3.86956e-16
7.18921e-16
6.80067e-16
6.81223e-16
6.82843e-16
9.03552e-16
1.02255e-15
7.87605e-16
1.15267e-15
1.02892e-15
6.23913e-16
1.1162e-16
1.53569e-16
1.44626e-16
3.26237e-16
3.79663e-17
1.75359e-16
1.49105e-16
7.37275e-17
3.72019e-17
3.295e-17
4.30516e-17
1.72718e-16
6.12036e-16
4.07685e-16
3.37505e-16
3.07892e-16
1.86715e-16
3.55073e-16
2.25146e-16
4.07547e-17
6.81581e-17
2.85379e-17
1.19688e-16
2.08798e-16
1.55511e-16
1.37045e-16
2.33616e-16
4.4539e-16
4.5114e-16
7.72615e-16
1.23498e-15
2.73175e-16
2.29827e-16
2.60822e-16
2.36234e-16
5.43369e-16
3.63897e-16
6.22351e-16
4.80996e-16
5.54953e-16
6.04061e-16
5.09352e-16
2.4401e-16
5.14733e-16
7.55714e-16
5.42309e-16
2.68371e-16
3.97831e-16
4.18792e-16
3.73911e-16
6.49883e-16
6.52642e-16
6.62662e-16
6.77048e-16
8.52752e-16
9.30666e-16
7.25527e-16
9.68884e-16
8.99958e-16
5.12015e-16
1.309e-16
9.8456e-17
1.19795e-16
2.59246e-16
4.999e-17
1.15716e-16
1.24258e-16
7.33155e-17
3.49828e-17
2.54325e-17
4.62366e-17
1.37602e-16
4.6829e-16
3.69975e-16
2.9301e-16
2.95673e-16
1.60376e-16
2.61089e-16
1.95839e-16
3.59673e-17
6.1336e-17
2.82232e-17
9.09793e-17
1.67015e-16
1.51201e-16
1.38045e-16
2.16206e-16
3.77314e-16
3.86806e-16
5.98513e-16
9.89098e-16
2.75503e-16
1.63586e-16
2.51846e-16
1.93569e-16
4.64709e-16
3.43537e-16
5.16744e-16
4.27355e-16
4.84594e-16
5.29618e-16
4.83547e-16
2.53536e-16
4.55206e-16
6.43216e-16
5.03606e-16
2.59452e-16
3.70165e-16
4.15741e-16
3.67076e-16
5.93542e-16
6.26064e-16
6.42586e-16
6.67357e-16
8.07334e-16
8.58952e-16
6.75166e-16
8.21413e-16
7.8719e-16
4.26129e-16
1.43018e-16
6.49514e-17
1.01327e-16
2.04814e-16
6.2369e-17
7.38722e-17
1.01444e-16
7.14215e-17
3.34692e-17
2.05836e-17
4.9019e-17
1.1375e-16
3.60127e-16
3.31624e-16
2.55087e-16
2.80405e-16
1.43557e-16
1.94435e-16
1.68235e-16
3.27554e-17
5.56163e-17
2.9482e-17
7.15185e-17
1.34412e-16
1.42952e-16
1.37882e-16
2.01148e-16
3.2547e-16
3.3502e-16
4.70624e-16
7.89254e-16
2.69715e-16
1.13151e-16
2.3678e-16
1.6569e-16
3.92861e-16
3.22429e-16
4.35818e-16
3.79267e-16
4.25053e-16
4.65741e-16
4.52231e-16
2.58754e-16
4.07048e-16
5.55955e-16
4.64004e-16
2.57604e-16
3.47224e-16
4.0421e-16
3.6463e-16
5.47319e-16
6.0035e-16
6.21637e-16
6.54003e-16
7.65582e-16
8.00921e-16
6.33505e-16
7.04473e-16
6.88696e-16
3.60547e-16
1.48865e-16
4.67322e-17
8.65623e-17
1.61461e-16
7.22119e-17
4.58771e-17
8.14621e-17
6.81121e-17
3.22328e-17
1.76671e-17
5.10821e-17
9.75414e-17
2.80353e-16
2.94e-16
2.23321e-16
2.62449e-16
1.33051e-16
1.47771e-16
1.43001e-16
3.07842e-17
5.0835e-17
3.12498e-17
5.87869e-17
1.09929e-16
1.32436e-16
1.36006e-16
1.87753e-16
2.85025e-16
2.93056e-16
3.75948e-16
6.28727e-16
2.57065e-16
7.69918e-17
2.16749e-16
1.47493e-16
3.29759e-16
3.00607e-16
3.73302e-16
3.36694e-16
3.74306e-16
4.1159e-16
4.18145e-16
2.60229e-16
3.67496e-16
4.87715e-16
4.25767e-16
2.5957e-16
3.27254e-16
3.87299e-16
3.64519e-16
5.09129e-16
5.7551e-16
6.00364e-16
6.37753e-16
7.2674e-16
7.51953e-16
5.98397e-16
6.1257e-16
6.0313e-16
3.10625e-16
1.49807e-16
3.87266e-17
7.42055e-17
1.2762e-16
7.82995e-17
2.83425e-17
6.46179e-17
6.37356e-17
3.09439e-17
1.60363e-17
5.22111e-17
8.6381e-17
2.22501e-16
2.58393e-16
1.97004e-16
2.42573e-16
1.2654e-16
1.1544e-16
1.2064e-16
2.97554e-17
4.68267e-17
3.29557e-17
5.08421e-17
9.22228e-17
1.211e-16
1.32319e-16
1.75634e-16
2.52725e-16
2.58774e-16
3.05231e-16
5.00972e-16
2.39447e-16
5.28019e-17
1.93448e-16
1.35362e-16
2.76162e-16
2.78352e-16
3.24387e-16
2.99403e-16
3.30706e-16
3.66006e-16
3.83532e-16
2.5838e-16
3.34456e-16
4.33816e-16
3.90375e-16
2.62855e-16
3.09475e-16
3.67821e-16
3.64729e-16
4.77341e-16
5.51531e-16
5.79204e-16
6.1931e-16
6.90471e-16
7.08888e-16
5.68206e-16
5.40681e-16
5.29384e-16
2.72563e-16
1.47254e-16
3.70908e-17
6.37554e-17
1.01697e-16
8.04382e-17
1.8446e-17
5.08456e-17
5.87346e-17
2.94147e-17
1.51871e-17
5.23361e-17
7.84861e-17
1.81097e-16
2.25804e-16
1.75309e-16
2.21728e-16
1.22319e-16
9.33662e-17
1.01424e-16
2.94162e-17
4.34515e-17
3.43786e-17
4.6178e-17
7.98157e-17
1.10068e-16
1.27127e-16
1.64485e-16
2.26373e-16
2.3048e-16
2.51941e-16
4.00043e-16
2.18844e-16
3.80676e-17
1.68635e-16
1.26785e-16
2.31912e-16
2.55963e-16
2.85457e-16
2.67001e-16
2.93023e-16
3.2761e-16
3.50051e-16
2.53788e-16
3.06388e-16
3.90666e-16
3.58593e-16
2.65629e-16
2.93655e-16
3.47978e-16
3.63654e-16
4.50728e-16
5.28426e-16
5.58475e-16
5.9936e-16
6.56612e-16
6.69743e-16
5.41612e-16
4.84478e-16
4.66426e-16
2.43388e-16
1.42447e-16
3.90505e-17
5.49492e-17
8.20858e-17
7.90849e-17
1.38845e-17
3.98755e-17
5.3455e-17
2.7609e-17
1.47782e-17
5.15127e-17
7.26644e-17
1.51636e-16
1.96874e-16
1.5745e-16
2.00817e-16
1.19166e-16
7.85048e-17
8.54183e-17
2.95636e-17
4.05627e-17
3.54776e-17
4.36631e-17
7.13778e-17
1.00091e-16
1.20929e-16
1.54156e-16
2.0444e-16
2.06852e-16
2.11428e-16
3.20756e-16
1.97008e-16
3.03632e-17
1.43902e-16
1.20124e-16
1.96251e-16
2.33904e-16
2.53864e-16
2.39006e-16
2.60374e-16
2.94963e-16
3.18779e-16
2.4712e-16
2.8218e-16
3.5563e-16
3.30667e-16
2.66838e-16
2.79854e-16
3.29191e-16
3.60375e-16
4.28291e-16
5.06335e-16
5.38347e-16
5.78499e-16
6.24989e-16
6.33385e-16
5.17587e-16
4.40359e-16
4.13222e-16
2.20843e-16
1.36369e-16
4.27243e-17
4.77269e-17
6.73214e-17
7.50377e-17
1.27978e-17
3.13219e-17
4.81384e-17
2.56134e-17
1.46058e-17
4.98609e-17
6.81589e-17
1.30598e-16
1.71885e-16
1.42491e-16
1.80614e-16
1.16237e-16
6.87177e-17
7.24726e-17
3.00228e-17
3.80691e-17
3.63004e-17
4.24878e-17
6.58084e-17
9.15795e-17
1.14327e-16
1.44586e-16
1.85889e-16
1.86908e-16
1.80364e-16
2.58681e-16
1.75319e-16
2.7566e-17
1.20604e-16
1.14335e-16
1.68079e-16
2.12666e-16
2.2769e-16
2.14905e-16
2.31993e-16
2.668e-16
2.90241e-16
2.39056e-16
2.61052e-16
3.26684e-16
3.06494e-16
2.66055e-16
2.68143e-16
3.12135e-16
3.54596e-16
4.09223e-16
4.85305e-16
5.18899e-16
5.57275e-16
5.95422e-16
5.99245e-16
4.95359e-16
4.05428e-16
3.68616e-16
2.03252e-16
1.29746e-16
4.69501e-17
4.20008e-17
5.62073e-17
6.91877e-17
1.38146e-17
2.4769e-17
4.29802e-17
2.35995e-17
1.45635e-17
4.75431e-17
6.4498e-17
1.15341e-16
1.50819e-16
1.30078e-16
1.61701e-16
1.13003e-16
6.25006e-17
6.22833e-17
3.0678e-17
3.59144e-17
3.69072e-17
4.21433e-17
6.22004e-17
8.47059e-17
1.07837e-16
1.35729e-16
1.69994e-16
1.69939e-16
1.56338e-16
2.10153e-16
1.5475e-16
2.79603e-17
9.97115e-17
1.08827e-16
1.46158e-16
1.92679e-16
2.05584e-16
1.94195e-16
2.07206e-16
2.42137e-16
2.64594e-16
2.30213e-16
2.42489e-16
3.02318e-16
2.85781e-16
2.6328e-16
2.58453e-16
2.97007e-16
3.46526e-16
3.92828e-16
4.65338e-16
5.0015e-16
5.36129e-16
5.67762e-16
5.67113e-16
4.74341e-16
3.77419e-16
3.3148e-16
1.89347e-16
1.23101e-16
5.10414e-17
3.76676e-17
4.78186e-17
6.23349e-17
1.58895e-17
1.98203e-17
3.81337e-17
2.17513e-17
2.35012e-14
1.22117e-14
1.07696e-14
5.28417e-15
1.95577e-15
1.60242e-14
1.72231e-14
5.00925e-14
1.30454e-14
2.27307e-14
7.64939e-16
7.01505e-16
7.47404e-15
2.23567e-14
6.12277e-15
1.62291e-14
1.60385e-15
1.88229e-15
3.0965e-14
1.60761e-14
3.4245e-14
3.48379e-14
1.34729e-14
9.25514e-15
5.71201e-15
2.49188e-15
1.48178e-15
1.38864e-14
5.79193e-15
2.81204e-15
5.76605e-15
6.50996e-15
1.79514e-14
9.18204e-15
3.98562e-14
1.61154e-14
2.19378e-14
1.42962e-14
1.89693e-15
7.05788e-16
2.12322e-15
2.34556e-15
6.35608e-16
1.01937e-14
3.03193e-15
3.00388e-15
3.52996e-15
2.90115e-15
5.6492e-15
2.89e-14
1.79306e-14
3.32009e-14
1.07154e-15
1.12125e-16
4.59544e-15
1.67403e-14
6.23148e-15
1.56691e-14
3.02958e-15
5.63213e-15
1.84677e-14
8.81854e-15
1.00935e-14
5.27311e-15
1.9024e-15
1.20017e-14
1.44865e-14
4.22567e-14
9.51828e-15
1.8149e-14
6.97799e-16
6.21354e-16
5.28029e-15
1.74798e-14
3.88045e-15
1.23467e-14
1.31135e-15
1.10397e-15
2.49985e-14
1.3008e-14
3.26409e-14
2.87504e-14
1.06495e-14
8.74213e-15
5.50099e-15
2.49968e-15
1.38932e-15
1.0436e-14
5.29017e-15
2.7949e-15
5.39184e-15
4.34319e-15
1.33196e-14
7.15434e-15
3.29318e-14
1.21012e-14
2.03463e-14
1.07263e-14
1.78651e-15
6.92569e-16
2.07933e-15
2.24378e-15
6.6584e-16
7.55481e-15
2.82013e-15
2.91752e-15
3.41818e-15
2.91756e-15
5.43428e-15
2.34203e-14
1.44276e-14
2.7401e-14
9.35197e-16
9.95467e-17
2.88688e-15
1.24851e-14
4.16652e-15
1.17244e-14
2.54835e-15
3.47807e-15
1.45688e-14
6.65243e-15
8.38316e-15
5.09196e-15
1.70393e-15
9.31387e-15
1.08847e-14
3.44265e-14
7.02152e-15
1.48671e-14
6.96979e-16
4.4175e-16
3.85359e-15
1.33971e-14
2.50008e-15
9.72102e-15
8.21993e-16
6.196e-16
2.02637e-14
1.01166e-14
2.82939e-14
2.43614e-14
8.01843e-15
7.25692e-15
4.90016e-15
2.50002e-15
1.13325e-15
8.42328e-15
4.3583e-15
2.68977e-15
4.44113e-15
3.36812e-15
9.56702e-15
4.97373e-15
2.68622e-14
9.43973e-15
1.64204e-14
8.87762e-15
1.54529e-15
6.18746e-16
1.98261e-15
2.0739e-15
7.11106e-16
5.89053e-15
2.38932e-15
2.68906e-15
3.18931e-15
2.94013e-15
4.89487e-15
1.96067e-14
1.0686e-14
2.28897e-14
8.59078e-16
9.735e-17
1.93205e-15
9.09726e-15
2.66045e-15
8.98833e-15
1.6509e-15
2.37214e-15
1.13846e-14
5.15343e-15
6.62956e-15
4.82684e-15
1.51574e-15
7.31866e-15
7.81419e-15
2.78384e-14
5.36237e-15
1.21083e-14
7.20863e-16
3.06553e-16
2.87302e-15
1.01923e-14
1.71055e-15
7.65609e-15
5.09459e-16
3.32891e-16
1.63936e-14
7.71433e-15
2.37861e-14
2.08273e-14
5.90994e-15
5.77766e-15
4.21804e-15
2.45364e-15
9.27422e-16
6.95893e-15
3.4785e-15
2.52365e-15
3.56917e-15
2.84204e-15
6.75315e-15
3.26887e-15
2.18038e-14
7.5386e-15
1.26007e-14
7.63799e-15
1.32206e-15
5.54801e-16
1.84095e-15
1.89789e-15
7.81187e-16
4.70489e-15
1.98775e-15
2.41126e-15
2.91992e-15
2.91636e-15
4.33454e-15
1.65041e-14
7.73768e-15
1.89205e-14
8.6475e-16
1.29807e-16
1.34317e-15
6.54843e-15
1.70607e-15
6.86417e-15
9.70669e-16
1.70779e-15
8.67016e-15
4.06414e-15
5.13468e-15
4.50649e-15
1.34822e-15
5.65108e-15
5.65293e-15
2.21509e-14
4.33066e-15
9.6816e-15
7.44872e-16
2.13256e-16
2.20115e-15
7.53972e-15
1.2991e-15
5.92257e-15
3.72684e-16
2.04374e-16
1.30533e-14
5.88805e-15
1.97813e-14
1.76947e-14
4.38708e-15
4.61057e-15
3.57894e-15
2.35486e-15
7.75558e-16
5.72044e-15
2.80259e-15
2.33106e-15
2.90148e-15
2.49153e-15
4.60128e-15
2.152e-15
1.7509e-14
6.10906e-15
9.52211e-15
6.59112e-15
1.14081e-15
5.1176e-16
1.66549e-15
1.75265e-15
8.28619e-16
3.79966e-15
1.70214e-15
2.15698e-15
2.65208e-15
2.83375e-15
3.83521e-15
1.36909e-14
5.81734e-15
1.5283e-14
9.3529e-16
1.74273e-16
9.70312e-16
4.55873e-15
1.17628e-15
5.12421e-15
5.6407e-16
1.2594e-15
6.37387e-15
3.24599e-15
3.88465e-15
4.1459e-15
1.20134e-15
4.26918e-15
4.15964e-15
1.72548e-14
3.69689e-15
7.55482e-15
7.68015e-16
1.48307e-16
1.72459e-15
5.3745e-15
1.09072e-15
4.45205e-15
3.36964e-16
1.59021e-16
1.02004e-14
4.5351e-15
1.62728e-14
1.49444e-14
3.30733e-15
3.70597e-15
2.99491e-15
2.21585e-15
6.5995e-16
4.63989e-15
2.2962e-15
2.1225e-15
2.38283e-15
2.21998e-15
2.97106e-15
1.44002e-15
1.38727e-14
5.0376e-15
7.08272e-15
5.66697e-15
9.9433e-16
4.86305e-16
1.47692e-15
1.63603e-15
8.48244e-16
3.09492e-15
1.50461e-15
1.93166e-15
2.39377e-15
2.7023e-15
3.39662e-15
1.11312e-14
4.61455e-15
1.19479e-14
1.03967e-15
2.16131e-16
7.14482e-16
3.0452e-15
8.78739e-16
3.68617e-15
3.37891e-16
9.3822e-16
4.53049e-15
2.60253e-15
2.86163e-15
3.7596e-15
1.08031e-15
3.16775e-15
3.10253e-15
1.31647e-14
3.29944e-15
5.73422e-15
7.92706e-16
1.09727e-16
1.36574e-15
3.69606e-15
9.80628e-16
3.25193e-15
3.57128e-16
1.50591e-16
7.83779e-15
3.52193e-15
1.32275e-14
1.25798e-14
2.53099e-15
2.99482e-15
2.4797e-15
2.05156e-15
5.75194e-16
3.70273e-15
1.9173e-15
1.90865e-15
1.97861e-15
1.9889e-15
1.79531e-15
9.76526e-16
1.08622e-14
4.22942e-15
5.16131e-15
4.84845e-15
8.74373e-16
4.73703e-16
1.2909e-15
1.54114e-15
8.4648e-16
2.54025e-15
1.36329e-15
1.73454e-15
2.15296e-15
2.53469e-15
3.0158e-15
8.87498e-15
3.84385e-15
9.02616e-15
1.15438e-15
2.50399e-16
5.20815e-16
1.95799e-15
6.94231e-16
2.54923e-15
2.26222e-16
6.9523e-16
3.11983e-15
2.07583e-15
2.05176e-15
3.35828e-15
9.85493e-16
2.32553e-15
2.34448e-15
9.8792e-15
3.03336e-15
4.21679e-15
8.18303e-16
9.2782e-17
1.08182e-15
2.44855e-15
9.09551e-16
2.31052e-15
4.04951e-16
1.59657e-16
5.93536e-15
2.75721e-15
1.06233e-14
1.05566e-14
1.96986e-15
2.43082e-15
2.0419e-15
1.87183e-15
5.15871e-16
2.90699e-15
1.63337e-15
1.69713e-15
1.66794e-15
1.78205e-15
9.97437e-16
6.72996e-16
8.42142e-15
3.60575e-15
3.6814e-15
4.11603e-15
7.76267e-16
4.69762e-16
1.11821e-15
1.45991e-15
8.28338e-16
2.10403e-15
1.25851e-15
1.56432e-15
1.93462e-15
2.34499e-15
2.69163e-15
6.95475e-15
3.32336e-15
6.56199e-15
1.25945e-15
2.71708e-16
3.6787e-16
1.21706e-15
5.64728e-16
1.69117e-15
1.83826e-16
5.05351e-16
2.08416e-15
1.6338e-15
1.43124e-15
2.94895e-15
9.12666e-16
1.70534e-15
1.79562e-15
7.29714e-15
2.82448e-15
2.98444e-15
8.39445e-16
8.95666e-17
8.49496e-16
1.55751e-15
8.44295e-16
1.59742e-15
4.57303e-16
1.76063e-16
4.43756e-15
2.17769e-15
8.42831e-15
8.8248e-15
1.56525e-15
1.97807e-15
1.6806e-15
1.68137e-15
4.76556e-16
2.24987e-15
1.41636e-15
1.49254e-15
1.4294e-15
1.59229e-15
4.93523e-16
4.75471e-16
6.47399e-15
3.10945e-15
2.57408e-15
3.45802e-15
6.98889e-16
4.7077e-16
9.65852e-16
1.38311e-15
7.99373e-16
1.76342e-15
1.17649e-15
1.41826e-15
1.73983e-15
2.14202e-15
2.41774e-15
5.37535e-15
2.93392e-15
4.5683e-15
1.33587e-15
2.76831e-16
2.4938e-16
7.32677e-16
4.61803e-16
1.07184e-15
1.76003e-16
3.57317e-16
1.34862e-15
1.26031e-15
9.70174e-16
2.53909e-15
8.54464e-16
1.26244e-15
1.39303e-15
5.31157e-15
2.62519e-15
2.01831e-15
8.4797e-16
9.32404e-17
6.57337e-16
9.5159e-16
7.69037e-16
1.07521e-15
4.97117e-16
1.94033e-16
3.28504e-15
1.73587e-15
6.60706e-15
7.34397e-15
1.27426e-15
1.60938e-15
1.38839e-15
1.4847e-15
4.51461e-16
1.72307e-15
1.24375e-15
1.29768e-15
1.24415e-15
1.41718e-15
2.06673e-16
3.46079e-16
4.938e-15
2.70181e-15
1.77328e-15
2.86731e-15
6.4171e-16
4.74383e-16
8.37769e-16
1.30368e-15
7.65804e-16
1.49944e-15
1.10781e-15
1.29305e-15
1.56769e-15
1.93477e-15
2.18591e-15
4.11579e-15
2.60194e-15
3.02716e-15
1.36743e-15
2.67253e-16
1.63007e-16
4.29739e-16
3.72818e-16
6.46293e-16
1.78331e-16
2.45176e-16
8.46756e-16
9.47261e-16
6.39563e-16
2.14063e-15
8.04863e-16
9.53503e-16
1.09372e-15
3.8166e-15
2.41245e-15
1.29406e-15
8.36216e-16
9.86664e-17
5.00076e-16
5.60998e-16
6.8053e-16
7.06714e-16
5.14872e-16
2.1066e-16
2.4169e-15
1.39611e-15
5.12108e-15
6.07892e-15
1.06468e-15
1.30503e-15
1.15521e-15
1.28875e-15
4.35373e-16
1.31263e-15
1.09869e-15
1.116e-15
1.09704e-15
1.25625e-15
7.13998e-17
2.59647e-16
3.74265e-15
2.35666e-15
1.21709e-15
2.34117e-15
6.01844e-16
4.78655e-16
7.34111e-16
1.21839e-15
7.32375e-16
1.29574e-15
1.04659e-15
1.18572e-15
1.41659e-15
1.73166e-15
1.98557e-15
3.13706e-15
2.28989e-15
1.89037e-15
1.34518e-15
2.47281e-16
1.05562e-16
2.49801e-16
2.93717e-16
3.6972e-16
1.77353e-16
1.63598e-16
5.15658e-16
6.90535e-16
4.1163e-16
1.76705e-15
7.58938e-16
7.40399e-16
8.69174e-16
2.7157e-15
2.18023e-15
7.79939e-16
7.99803e-16
1.0375e-16
3.74362e-16
3.25637e-16
5.82876e-16
4.57521e-16
5.08142e-16
2.24374e-16
1.77555e-15
1.13216e-15
3.92904e-15
4.9999e-15
9.1249e-16
1.05112e-15
9.70532e-16
1.10107e-15
4.23758e-16
1.00131e-15
9.69975e-16
9.50797e-16
9.76717e-16
1.1097e-15
3.43997e-17
2.00277e-16
2.82465e-15
2.05724e-15
8.48952e-16
1.88018e-15
5.74896e-16
4.82017e-16
6.52893e-16
1.12763e-15
7.0232e-16
1.13844e-15
9.8966e-16
1.09328e-15
1.28451e-15
1.53968e-15
1.80688e-15
2.39333e-15
1.98507e-15
1.09865e-15
1.26914e-15
2.22989e-16
7.21678e-17
1.46996e-16
2.24586e-16
2.00629e-16
1.68412e-16
1.07603e-16
3.04847e-16
4.86655e-16
2.60612e-16
1.42929e-15
7.13247e-16
5.93208e-16
7.00161e-16
1.92101e-15
1.93224e-15
4.39855e-16
7.3848e-16
1.07948e-16
2.76927e-16
1.95185e-16
4.82988e-16
2.97456e-16
4.79806e-16
2.34402e-16
1.31032e-15
9.24979e-16
2.98809e-15
4.08291e-15
7.99924e-16
8.37623e-16
8.24509e-16
9.28104e-16
4.1333e-16
7.70656e-16
8.51605e-16
8.0453e-16
8.74852e-16
9.78046e-16
5.53051e-17
1.58487e-16
2.12803e-15
1.79331e-15
6.19339e-16
1.48502e-15
5.56119e-16
4.83099e-16
5.90582e-16
1.03473e-15
6.76861e-16
1.01573e-15
9.355e-16
1.01318e-15
1.16929e-15
1.36365e-15
1.64228e-15
1.84114e-15
1.68908e-15
5.84563e-16
1.1469e-15
1.99676e-16
5.66882e-17
9.05653e-17
1.6677e-16
1.03885e-16
1.52179e-16
7.211e-17
1.75518e-16
3.30892e-16
1.64552e-16
1.13357e-15
6.65499e-16
4.89769e-16
5.72958e-16
1.35744e-15
1.67654e-15
2.34655e-16
6.5616e-16
1.11724e-16
2.04114e-16
1.30582e-16
3.87844e-16
2.00923e-16
4.35794e-16
2.40444e-16
9.77994e-16
7.60917e-16
2.25609e-15
3.30858e-15
7.13724e-16
6.57861e-16
7.08452e-16
7.74313e-16
4.01944e-16
6.0287e-16
7.41255e-16
6.78166e-16
7.8549e-16
8.61434e-16
1.05321e-16
1.29136e-16
1.60514e-15
1.55874e-15
4.87374e-16
1.15528e-15
5.41075e-16
4.80826e-16
5.4329e-16
9.43431e-16
6.55627e-16
9.18686e-16
8.83789e-16
9.43212e-16
1.06878e-15
1.20639e-15
1.48661e-15
1.43629e-15
1.41025e-15
2.80245e-16
9.9221e-16
1.80848e-16
5.25945e-17
5.94345e-17
1.21037e-16
5.27088e-17
1.31661e-16
5.19407e-17
9.90624e-17
2.17151e-16
1.0608e-16
8.83348e-16
6.14659e-16
4.14919e-16
4.77312e-16
9.63776e-16
1.42426e-15
1.27498e-16
5.59921e-16
1.15397e-16
1.51845e-16
1.03842e-16
3.03402e-16
1.47169e-16
3.83083e-16
2.42335e-16
7.43326e-16
6.30184e-16
1.69418e-15
2.65997e-15
6.44235e-16
5.07508e-16
6.14943e-16
6.4168e-16
3.87925e-16
4.82095e-16
6.39058e-16
5.7149e-16
7.04648e-16
7.59227e-16
1.65039e-16
1.09636e-16
1.21657e-15
1.34993e-15
4.18702e-16
8.88144e-16
5.26151e-16
4.74915e-16
5.07258e-16
8.56772e-16
6.3754e-16
8.40485e-16
8.34653e-16
8.81587e-16
9.80955e-16
1.06885e-15
1.33718e-15
1.14288e-15
1.15757e-15
1.22863e-16
8.21404e-16
1.67913e-16
5.41606e-17
4.24423e-17
8.68606e-17
2.84296e-17
1.10165e-16
4.21489e-17
5.55158e-17
1.38488e-16
7.20877e-17
6.78118e-16
5.60921e-16
3.58645e-16
4.05276e-16
6.91942e-16
1.18581e-15
8.62606e-17
4.58234e-16
1.18919e-16
1.15866e-16
9.60901e-17
2.338e-16
1.20298e-16
3.28257e-16
2.40212e-16
5.78833e-16
5.25623e-16
1.26819e-15
2.12166e-15
5.84694e-16
3.83409e-16
5.37771e-16
5.30353e-16
3.70299e-16
3.95465e-16
5.46272e-16
4.83065e-16
6.29915e-16
6.70179e-16
2.22331e-16
9.86173e-17
9.30133e-16
1.16503e-15
3.89247e-16
6.79438e-16
5.08928e-16
4.65625e-16
4.79357e-16
7.77273e-16
6.21077e-16
7.75983e-16
7.88241e-16
8.26809e-16
9.03982e-16