/*--------------------------------*- C++ -*----------------------------------*\
| =========                 |                                                 |
| \\      /  F ield         | OpenFOAM: The Open Source CFD Toolbox           |
|  \\    /   O peration     | Version:  2312                                  |
|   \\  /    A nd           | Website:  www.openfoam.com                      |
|    \\/     M anipulation  |                                                 |
\*---------------------------------------------------------------------------*/
FoamFile
{
    version     2.0;
    format      ascii;
    arch        "LSB;label=32;scalar=64";
    class       volScalarField;
    location    "1000";
    object      k;
}
// * * * * * * * * * * * * * * * * * * * * * * * * * * * * * * * * * * * * * //

dimensions      [0 2 -2 0 0 0 0];

internalField   nonuniform List<scalar> 
144000
(
6.68246e-06
6.68147e-06
6.68441e-06
6.68146e-06
6.70814e-06
6.68195e-06
6.70991e-06
6.70594e-06
6.70852e-06
6.68407e-06
6.68313e-06
6.68268e-06
6.68489e-06
6.68319e-06
6.70789e-06
6.70656e-06
6.68249e-06
6.68411e-06
6.68389e-06
6.70782e-06
6.70596e-06
6.68423e-06
6.68376e-06
6.70951e-06
6.6841e-06
6.68251e-06
6.70754e-06
6.68337e-06
6.68246e-06
6.70554e-06
6.67914e-06
6.70957e-06
6.68416e-06
6.71002e-06
6.70661e-06
6.71015e-06
6.68625e-06
6.71075e-06
6.68537e-06
6.68497e-06
6.70965e-06
6.68062e-06
6.68519e-06
6.68355e-06
6.70994e-06
6.70702e-06
6.68308e-06
6.6866e-06
6.68305e-06
6.68474e-06
6.68127e-06
6.70581e-06
6.68149e-06
6.68665e-06
6.70698e-06
6.70821e-06
6.68239e-06
6.6848e-06
6.68181e-06
6.68126e-06
1.42603e-05
1.42593e-05
1.42633e-05
1.42622e-05
1.42436e-05
1.42552e-05
1.42458e-05
1.42355e-05
1.42346e-05
1.42528e-05
1.42599e-05
1.426e-05
1.42631e-05
1.42627e-05
1.42468e-05
1.42363e-05
1.42513e-05
1.42599e-05
1.42638e-05
1.42467e-05
1.42325e-05
1.42507e-05
1.42613e-05
1.42446e-05
1.42565e-05
1.42621e-05
1.42437e-05
1.42559e-05
1.42617e-05
1.42421e-05
1.42515e-05
1.42408e-05
1.42562e-05
1.42456e-05
1.4236e-05
1.42358e-05
1.42566e-05
1.42447e-05
1.42559e-05
1.42631e-05
1.42466e-05
1.42532e-05
1.42617e-05
1.42624e-05
1.42482e-05
1.4237e-05
1.42511e-05
1.42634e-05
1.42625e-05
1.42649e-05
1.42633e-05
1.4242e-05
1.42513e-05
1.42648e-05
1.42459e-05
1.42373e-05
1.42516e-05
1.42601e-05
1.4261e-05
1.42599e-05
1.7734e-05
1.77328e-05
1.77353e-05
1.77373e-05
1.77128e-05
1.77255e-05
1.77129e-05
1.77016e-05
1.76955e-05
1.77166e-05
1.77302e-05
1.77316e-05
1.77345e-05
1.7736e-05
1.77176e-05
1.77019e-05
1.7718e-05
1.77287e-05
1.77362e-05
1.7718e-05
1.76973e-05
1.77142e-05
1.77311e-05
1.77109e-05
1.77238e-05
1.77349e-05
1.77126e-05
1.77246e-05
1.77349e-05
1.77127e-05
1.77235e-05
1.77056e-05
1.77233e-05
1.77116e-05
1.77012e-05
1.76957e-05
1.77201e-05
1.77084e-05
1.77214e-05
1.77332e-05
1.77143e-05
1.77237e-05
1.77315e-05
1.77348e-05
1.77172e-05
1.77026e-05
1.77167e-05
1.77314e-05
1.77349e-05
1.77374e-05
1.77394e-05
1.77135e-05
1.77206e-05
1.77342e-05
1.77165e-05
1.77017e-05
1.77184e-05
1.77285e-05
1.77341e-05
1.77339e-05
1.93134e-05
1.93124e-05
1.9313e-05
1.93165e-05
1.92971e-05
1.93044e-05
1.92948e-05
1.9286e-05
1.92764e-05
1.92904e-05
1.93056e-05
1.93091e-05
1.93111e-05
1.93141e-05
1.93016e-05
1.92855e-05
1.92952e-05
1.93039e-05
1.93129e-05
1.9302e-05
1.9282e-05
1.929e-05
1.93062e-05
1.92919e-05
1.92994e-05
1.93122e-05
1.92957e-05
1.93018e-05
1.93127e-05
1.9297e-05
1.93044e-05
1.9288e-05
1.92995e-05
1.92921e-05
1.92845e-05
1.92755e-05
1.92933e-05
1.92869e-05
1.92958e-05
1.93083e-05
1.92955e-05
1.93023e-05
1.93076e-05
1.93124e-05
1.92998e-05
1.92857e-05
1.92935e-05
1.93051e-05
1.93118e-05
1.93138e-05
1.93188e-05
1.92997e-05
1.9301e-05
1.93093e-05
1.92998e-05
1.92844e-05
1.92954e-05
1.93036e-05
1.93116e-05
1.93126e-05
1.99488e-05
1.99484e-05
1.99474e-05
1.9951e-05
1.99382e-05
1.99412e-05
1.99344e-05
1.99292e-05
1.99189e-05
1.99254e-05
1.99378e-05
1.99429e-05
1.99443e-05
1.99479e-05
1.99414e-05
1.99282e-05
1.99323e-05
1.99374e-05
1.99455e-05
1.99406e-05
1.99266e-05
1.99281e-05
1.99384e-05
1.99307e-05
1.99342e-05
1.99448e-05
1.99356e-05
1.99378e-05
1.99461e-05
1.99374e-05
1.99424e-05
1.99298e-05
1.99352e-05
1.99307e-05
1.99265e-05
1.99172e-05
1.99273e-05
1.99243e-05
1.99295e-05
1.99403e-05
1.99336e-05
1.99383e-05
1.9941e-05
1.99463e-05
1.9939e-05
1.99278e-05
1.99307e-05
1.99372e-05
1.99446e-05
1.99463e-05
1.99523e-05
1.99416e-05
1.99396e-05
1.99428e-05
1.99388e-05
1.99269e-05
1.99322e-05
1.99371e-05
1.99448e-05
1.99467e-05
2.01015e-05
2.01019e-05
2.01004e-05
2.01032e-05
2.00956e-05
2.00965e-05
2.00916e-05
2.00888e-05
2.00806e-05
2.00823e-05
2.00892e-05
2.0095e-05
2.00961e-05
2.00995e-05
2.00966e-05
2.00882e-05
2.00891e-05
2.00911e-05
2.00965e-05
2.00951e-05
2.0088e-05
2.00858e-05
2.0091e-05
2.00874e-05
2.00886e-05
2.00958e-05
2.00919e-05
2.00925e-05
2.00979e-05
2.00938e-05
2.00977e-05
2.00893e-05
2.00907e-05
2.00874e-05
2.00855e-05
2.00782e-05
2.00826e-05
2.00808e-05
2.00837e-05
2.00913e-05
2.00886e-05
2.00924e-05
2.00937e-05
2.00981e-05
2.00945e-05
2.00872e-05
2.00878e-05
2.00899e-05
2.00958e-05
2.00973e-05
2.01028e-05
2.00985e-05
2.00961e-05
2.0096e-05
2.00945e-05
2.00869e-05
2.00888e-05
2.00908e-05
2.00962e-05
2.00984e-05
2.00026e-05
2.00039e-05
2.00024e-05
2.00043e-05
2.00002e-05
2.00003e-05
1.99966e-05
1.99953e-05
1.999e-05
1.99891e-05
1.99917e-05
1.99966e-05
1.99974e-05
2.00002e-05
1.99992e-05
1.9995e-05
1.99947e-05
1.99949e-05
1.99974e-05
1.99975e-05
1.99953e-05
1.99921e-05
1.99942e-05
1.99925e-05
1.99927e-05
1.99967e-05
1.99958e-05
1.9996e-05
1.99991e-05
1.99976e-05
2.00008e-05
1.99959e-05
1.99956e-05
1.99927e-05
1.9992e-05
1.99872e-05
1.99883e-05
1.99866e-05
1.9988e-05
1.99926e-05
1.99919e-05
1.99951e-05
1.99957e-05
1.9999e-05
1.99975e-05
1.99937e-05
1.99935e-05
1.99935e-05
1.99968e-05
1.99979e-05
2.00023e-05
2.00013e-05
2.00007e-05
1.99988e-05
1.99983e-05
1.99939e-05
1.99943e-05
1.99946e-05
1.99974e-05
1.99993e-05
1.97695e-05
1.97714e-05
1.97702e-05
1.97713e-05
1.97692e-05
1.97692e-05
1.97665e-05
1.97659e-05
1.97632e-05
1.97611e-05
1.97618e-05
1.97646e-05
1.97651e-05
1.97672e-05
1.9767e-05
1.97655e-05
1.97651e-05
1.97645e-05
1.97653e-05
1.97657e-05
1.97655e-05
1.97635e-05
1.97638e-05
1.97628e-05
1.97626e-05
1.97644e-05
1.97648e-05
1.97648e-05
1.97667e-05
1.97663e-05
1.97689e-05
1.97664e-05
1.97658e-05
1.97631e-05
1.9763e-05
1.97602e-05
1.97599e-05
1.97581e-05
1.97586e-05
1.97609e-05
1.97608e-05
1.97635e-05
1.97638e-05
1.97661e-05
1.97656e-05
1.97641e-05
1.9764e-05
1.97632e-05
1.97648e-05
1.97654e-05
1.97682e-05
1.97686e-05
1.97694e-05
1.97675e-05
1.97673e-05
1.97649e-05
1.97648e-05
1.97644e-05
1.97656e-05
1.97667e-05
1.94623e-05
1.94642e-05
1.94634e-05
1.9464e-05
1.94629e-05
1.9463e-05
1.94611e-05
1.94609e-05
1.94597e-05
1.94578e-05
1.94574e-05
1.94587e-05
1.94589e-05
1.94601e-05
1.94603e-05
1.946e-05
1.94599e-05
1.94593e-05
1.94593e-05
1.94594e-05
1.946e-05
1.94592e-05
1.94588e-05
1.94579e-05
1.94577e-05
1.94581e-05
1.94588e-05
1.94589e-05
1.94599e-05
1.94599e-05
1.9462e-05
1.9461e-05
1.94606e-05
1.94585e-05
1.94586e-05
1.94571e-05
1.94565e-05
1.94545e-05
1.94546e-05
1.94555e-05
1.94554e-05
1.94575e-05
1.94576e-05
1.94591e-05
1.9459e-05
1.94587e-05
1.9459e-05
1.94581e-05
1.94589e-05
1.9459e-05
1.94604e-05
1.94611e-05
1.94627e-05
1.94613e-05
1.94612e-05
1.94601e-05
1.946e-05
1.94594e-05
1.94597e-05
1.94603e-05
1.91118e-05
1.91132e-05
1.91127e-05
1.9113e-05
1.91124e-05
1.91126e-05
1.91113e-05
1.91112e-05
1.91108e-05
1.91097e-05
1.91088e-05
1.91094e-05
1.91092e-05
1.91097e-05
1.91099e-05
1.911e-05
1.91103e-05
1.91099e-05
1.91095e-05
1.91093e-05
1.91101e-05
1.91099e-05
1.91095e-05
1.91087e-05
1.91086e-05
1.91085e-05
1.91089e-05
1.91091e-05
1.91095e-05
1.91096e-05
1.91112e-05
1.91109e-05
1.91108e-05
1.91094e-05
1.91096e-05
1.91088e-05
1.91083e-05
1.91066e-05
1.91064e-05
1.91066e-05
1.91062e-05
1.91077e-05
1.91077e-05
1.91086e-05
1.91087e-05
1.91088e-05
1.91095e-05
1.91087e-05
1.91091e-05
1.9109e-05
1.91096e-05
1.91101e-05
1.91118e-05
1.91108e-05
1.91109e-05
1.91105e-05
1.91105e-05
1.91101e-05
1.911e-05
1.91103e-05
1.87337e-05
1.87345e-05
1.87342e-05
1.87343e-05
1.8734e-05
1.87342e-05
1.87332e-05
1.87333e-05
1.87332e-05
1.87327e-05
1.87318e-05
1.8732e-05
1.87317e-05
1.87319e-05
1.87318e-05
1.8732e-05
1.87324e-05
1.87322e-05
1.87319e-05
1.87314e-05
1.87321e-05
1.87321e-05
1.87319e-05
1.87313e-05
1.87314e-05
1.87311e-05
1.87312e-05
1.87313e-05
1.87314e-05
1.87315e-05
1.87327e-05
1.87326e-05
1.87328e-05
1.87319e-05
1.87321e-05
1.87318e-05
1.87314e-05
1.87302e-05
1.87299e-05
1.87297e-05
1.87291e-05
1.87301e-05
1.87301e-05
1.87306e-05
1.87306e-05
1.87308e-05
1.87317e-05
1.87312e-05
1.87314e-05
1.87312e-05
1.87314e-05
1.87317e-05
1.8733e-05
1.87324e-05
1.87325e-05
1.87325e-05
1.87326e-05
1.87324e-05
1.87322e-05
1.87324e-05
1.83363e-05
1.83367e-05
1.83364e-05
1.83364e-05
1.83361e-05
1.83363e-05
1.83357e-05
1.83358e-05
1.83358e-05
1.83356e-05
1.8335e-05
1.83351e-05
1.83348e-05
1.83347e-05
1.83345e-05
1.83347e-05
1.83351e-05
1.83349e-05
1.83347e-05
1.83342e-05
1.83347e-05
1.83348e-05
1.83347e-05
1.83343e-05
1.83344e-05
1.83342e-05
1.83341e-05
1.83342e-05
1.83341e-05
1.83342e-05
1.8335e-05
1.8335e-05
1.83352e-05
1.83346e-05
1.83349e-05
1.83348e-05
1.83346e-05
1.83337e-05
1.83335e-05
1.83333e-05
1.83326e-05
1.83333e-05
1.83332e-05
1.83334e-05
1.83334e-05
1.83336e-05
1.83343e-05
1.8334e-05
1.83341e-05
1.8334e-05
1.83341e-05
1.83341e-05
1.83351e-05
1.83347e-05
1.83348e-05
1.83349e-05
1.83351e-05
1.83351e-05
1.83349e-05
1.8335e-05
1.79241e-05
1.79243e-05
1.7924e-05
1.79239e-05
1.79236e-05
1.79238e-05
1.79234e-05
1.79235e-05
1.79235e-05
1.79235e-05
1.79232e-05
1.79233e-05
1.7923e-05
1.79228e-05
1.79226e-05
1.79226e-05
1.79229e-05
1.79228e-05
1.79227e-05
1.79222e-05
1.79226e-05
1.79228e-05
1.79227e-05
1.79224e-05
1.79226e-05
1.79224e-05
1.79222e-05
1.79223e-05
1.79221e-05
1.79221e-05
1.79227e-05
1.79227e-05
1.79228e-05
1.79225e-05
1.79228e-05
1.79227e-05
1.79227e-05
1.79221e-05
1.7922e-05
1.79218e-05
1.79212e-05
1.79217e-05
1.79216e-05
1.79216e-05
1.79216e-05
1.79217e-05
1.79222e-05
1.7922e-05
1.79221e-05
1.7922e-05
1.7922e-05
1.7922e-05
1.79227e-05
1.79224e-05
1.79224e-05
1.79225e-05
1.79228e-05
1.79228e-05
1.79228e-05
1.79228e-05
1.75e-05
1.75e-05
1.74998e-05
1.74997e-05
1.74993e-05
1.74995e-05
1.74991e-05
1.74993e-05
1.74993e-05
1.74993e-05
1.74992e-05
1.74993e-05
1.74991e-05
1.74989e-05
1.74986e-05
1.74987e-05
1.74989e-05
1.74988e-05
1.74987e-05
1.74983e-05
1.74986e-05
1.74987e-05
1.74987e-05
1.74985e-05
1.74986e-05
1.74985e-05
1.74984e-05
1.74984e-05
1.74982e-05
1.74982e-05
1.74985e-05
1.74985e-05
1.74987e-05
1.74984e-05
1.74987e-05
1.74987e-05
1.74987e-05
1.74984e-05
1.74983e-05
1.74982e-05
1.74977e-05
1.7498e-05
1.74979e-05
1.74979e-05
1.74978e-05
1.74978e-05
1.74983e-05
1.74981e-05
1.74982e-05
1.74981e-05
1.7498e-05
1.7498e-05
1.74985e-05
1.74983e-05
1.74982e-05
1.74983e-05
1.74986e-05
1.74986e-05
1.74986e-05
1.74987e-05
1.70657e-05
1.70657e-05
1.70655e-05
1.70653e-05
1.7065e-05
1.70651e-05
1.70648e-05
1.70649e-05
1.7065e-05
1.7065e-05
1.70649e-05
1.7065e-05
1.70649e-05
1.70648e-05
1.70645e-05
1.70645e-05
1.70647e-05
1.70647e-05
1.70645e-05
1.70642e-05
1.70644e-05
1.70646e-05
1.70646e-05
1.70644e-05
1.70645e-05
1.70645e-05
1.70643e-05
1.70643e-05
1.70642e-05
1.70641e-05
1.70644e-05
1.70643e-05
1.70644e-05
1.70642e-05
1.70644e-05
1.70644e-05
1.70645e-05
1.70643e-05
1.70643e-05
1.70643e-05
1.70639e-05
1.70641e-05
1.7064e-05
1.7064e-05
1.70638e-05
1.70639e-05
1.70642e-05
1.70641e-05
1.70641e-05
1.70641e-05
1.70639e-05
1.70639e-05
1.70643e-05
1.70641e-05
1.7064e-05
1.70641e-05
1.70643e-05
1.70643e-05
1.70643e-05
1.70644e-05
1.66226e-05
1.66226e-05
1.66224e-05
1.66222e-05
1.66219e-05
1.6622e-05
1.66218e-05
1.66218e-05
1.66219e-05
1.66219e-05
1.66219e-05
1.6622e-05
1.66219e-05
1.66218e-05
1.66216e-05
1.66216e-05
1.66217e-05
1.66217e-05
1.66216e-05
1.66213e-05
1.66215e-05
1.66216e-05
1.66216e-05
1.66215e-05
1.66216e-05
1.66215e-05
1.66214e-05
1.66214e-05
1.66213e-05
1.66212e-05
1.66214e-05
1.66213e-05
1.66214e-05
1.66212e-05
1.66214e-05
1.66214e-05
1.66215e-05
1.66213e-05
1.66214e-05
1.66214e-05
1.66211e-05
1.66213e-05
1.66213e-05
1.66212e-05
1.6621e-05
1.66211e-05
1.66213e-05
1.66212e-05
1.66213e-05
1.66212e-05
1.6621e-05
1.6621e-05
1.66213e-05
1.66212e-05
1.66211e-05
1.66211e-05
1.66213e-05
1.66213e-05
1.66213e-05
1.66213e-05
1.61718e-05
1.61718e-05
1.61717e-05
1.61715e-05
1.61712e-05
1.61712e-05
1.6171e-05
1.61711e-05
1.61711e-05
1.61711e-05
1.61711e-05
1.61712e-05
1.61712e-05
1.61711e-05
1.61709e-05
1.61709e-05
1.6171e-05
1.6171e-05
1.61709e-05
1.61707e-05
1.61708e-05
1.61709e-05
1.61709e-05
1.61709e-05
1.61709e-05
1.61709e-05
1.61708e-05
1.61708e-05
1.61707e-05
1.61705e-05
1.61707e-05
1.61707e-05
1.61707e-05
1.61706e-05
1.61707e-05
1.61707e-05
1.61708e-05
1.61707e-05
1.61707e-05
1.61707e-05
1.61706e-05
1.61707e-05
1.61707e-05
1.61706e-05
1.61705e-05
1.61705e-05
1.61707e-05
1.61707e-05
1.61707e-05
1.61705e-05
1.61704e-05
1.61704e-05
1.61706e-05
1.61705e-05
1.61704e-05
1.61705e-05
1.61706e-05
1.61706e-05
1.61706e-05
1.61706e-05
1.57144e-05
1.57144e-05
1.57143e-05
1.57141e-05
1.57139e-05
1.57138e-05
1.57137e-05
1.57137e-05
1.57137e-05
1.57137e-05
1.57137e-05
1.57138e-05
1.57138e-05
1.57137e-05
1.57136e-05
1.57136e-05
1.57137e-05
1.57137e-05
1.57136e-05
1.57134e-05
1.57135e-05
1.57136e-05
1.57136e-05
1.57136e-05
1.57136e-05
1.57136e-05
1.57135e-05
1.57135e-05
1.57134e-05
1.57133e-05
1.57134e-05
1.57134e-05
1.57134e-05
1.57133e-05
1.57134e-05
1.57134e-05
1.57134e-05
1.57134e-05
1.57134e-05
1.57134e-05
1.57133e-05
1.57134e-05
1.57134e-05
1.57134e-05
1.57133e-05
1.57133e-05
1.57135e-05
1.57134e-05
1.57134e-05
1.57133e-05
1.57132e-05
1.57131e-05
1.57133e-05
1.57133e-05
1.57132e-05
1.57132e-05
1.57133e-05
1.57133e-05
1.57133e-05
1.57133e-05
1.52515e-05
1.52515e-05
1.52514e-05
1.52512e-05
1.5251e-05
1.5251e-05
1.52508e-05
1.52508e-05
1.52509e-05
1.52509e-05
1.52509e-05
1.52509e-05
1.52509e-05
1.52508e-05
1.52507e-05
1.52507e-05
1.52508e-05
1.52508e-05
1.52507e-05
1.52506e-05
1.52507e-05
1.52508e-05
1.52508e-05
1.52507e-05
1.52508e-05
1.52508e-05
1.52507e-05
1.52506e-05
1.52505e-05
1.52504e-05
1.52505e-05
1.52505e-05
1.52506e-05
1.52505e-05
1.52505e-05
1.52505e-05
1.52506e-05
1.52505e-05
1.52506e-05
1.52506e-05
1.52505e-05
1.52506e-05
1.52506e-05
1.52506e-05
1.52505e-05
1.52505e-05
1.52507e-05
1.52506e-05
1.52506e-05
1.52505e-05
1.52504e-05
1.52503e-05
1.52505e-05
1.52505e-05
1.52504e-05
1.52504e-05
1.52505e-05
1.52505e-05
1.52505e-05
1.52505e-05
1.47843e-05
1.47843e-05
1.47842e-05
1.47841e-05
1.47839e-05
1.47838e-05
1.47837e-05
1.47837e-05
1.47837e-05
1.47837e-05
1.47837e-05
1.47838e-05
1.47838e-05
1.47837e-05
1.47836e-05
1.47836e-05
1.47837e-05
1.47837e-05
1.47836e-05
1.47835e-05
1.47836e-05
1.47836e-05
1.47836e-05
1.47836e-05
1.47837e-05
1.47836e-05
1.47836e-05
1.47835e-05
1.47834e-05
1.47833e-05
1.47834e-05
1.47834e-05
1.47835e-05
1.47834e-05
1.47834e-05
1.47834e-05
1.47835e-05
1.47834e-05
1.47834e-05
1.47835e-05
1.47834e-05
1.47835e-05
1.47835e-05
1.47835e-05
1.47834e-05
1.47834e-05
1.47836e-05
1.47836e-05
1.47835e-05
1.47834e-05
1.47833e-05
1.47833e-05
1.47834e-05
1.47834e-05
1.47833e-05
1.47834e-05
1.47834e-05
1.47834e-05
1.47834e-05
1.47834e-05
1.43145e-05
1.43145e-05
1.43144e-05
1.43143e-05
1.4314e-05
1.4314e-05
1.43139e-05
1.43139e-05
1.43139e-05
1.43139e-05
1.43139e-05
1.4314e-05
1.43139e-05
1.43139e-05
1.43138e-05
1.43138e-05
1.43139e-05
1.43138e-05
1.43138e-05
1.43137e-05
1.43138e-05
1.43138e-05
1.43138e-05
1.43138e-05
1.43139e-05
1.43138e-05
1.43138e-05
1.43138e-05
1.43137e-05
1.43136e-05
1.43136e-05
1.43136e-05
1.43137e-05
1.43136e-05
1.43136e-05
1.43136e-05
1.43136e-05
1.43136e-05
1.43136e-05
1.43137e-05
1.43136e-05
1.43137e-05
1.43137e-05
1.43137e-05
1.43137e-05
1.43137e-05
1.43138e-05
1.43138e-05
1.43138e-05
1.43137e-05
1.43136e-05
1.43135e-05
1.43137e-05
1.43136e-05
1.43136e-05
1.43136e-05
1.43136e-05
1.43136e-05
1.43136e-05
1.43136e-05
1.38442e-05
1.38441e-05
1.38441e-05
1.3844e-05
1.38438e-05
1.38438e-05
1.38436e-05
1.38436e-05
1.38436e-05
1.38436e-05
1.38436e-05
1.38437e-05
1.38437e-05
1.38436e-05
1.38436e-05
1.38435e-05
1.38436e-05
1.38436e-05
1.38436e-05
1.38435e-05
1.38435e-05
1.38436e-05
1.38436e-05
1.38436e-05
1.38436e-05
1.38436e-05
1.38435e-05
1.38435e-05
1.38434e-05
1.38433e-05
1.38434e-05
1.38434e-05
1.38434e-05
1.38434e-05
1.38434e-05
1.38434e-05
1.38434e-05
1.38434e-05
1.38434e-05
1.38434e-05
1.38434e-05
1.38434e-05
1.38434e-05
1.38435e-05
1.38435e-05
1.38435e-05
1.38435e-05
1.38435e-05
1.38435e-05
1.38435e-05
1.38434e-05
1.38433e-05
1.38434e-05
1.38434e-05
1.38434e-05
1.38434e-05
1.38434e-05
1.38434e-05
1.38434e-05
1.38434e-05
1.33767e-05
1.33767e-05
1.33766e-05
1.33766e-05
1.33764e-05
1.33764e-05
1.33763e-05
1.33762e-05
1.33763e-05
1.33763e-05
1.33763e-05
1.33763e-05
1.33763e-05
1.33763e-05
1.33762e-05
1.33762e-05
1.33762e-05
1.33762e-05
1.33762e-05
1.33761e-05
1.33762e-05
1.33762e-05
1.33762e-05
1.33762e-05
1.33762e-05
1.33762e-05
1.33762e-05
1.33761e-05
1.33761e-05
1.3376e-05
1.3376e-05
1.3376e-05
1.3376e-05
1.3376e-05
1.3376e-05
1.3376e-05
1.3376e-05
1.3376e-05
1.3376e-05
1.33761e-05
1.3376e-05
1.33761e-05
1.33761e-05
1.33761e-05
1.33761e-05
1.33761e-05
1.33762e-05
1.33762e-05
1.33761e-05
1.33761e-05
1.3376e-05
1.3376e-05
1.33761e-05
1.33761e-05
1.3376e-05
1.3376e-05
1.3376e-05
1.33761e-05
1.33761e-05
1.33761e-05
1.29175e-05
1.29175e-05
1.29175e-05
1.29174e-05
1.29173e-05
1.29172e-05
1.29171e-05
1.29171e-05
1.29171e-05
1.29171e-05
1.29171e-05
1.29172e-05
1.29172e-05
1.29171e-05
1.29171e-05
1.2917e-05
1.29171e-05
1.29171e-05
1.29171e-05
1.2917e-05
1.2917e-05
1.29171e-05
1.29171e-05
1.29171e-05
1.29171e-05
1.29171e-05
1.29171e-05
1.2917e-05
1.2917e-05
1.29169e-05
1.29169e-05
1.29169e-05
1.29169e-05
1.29169e-05
1.29169e-05
1.29169e-05
1.29169e-05
1.29169e-05
1.29169e-05
1.2917e-05
1.29169e-05
1.2917e-05
1.2917e-05
1.2917e-05
1.2917e-05
1.2917e-05
1.2917e-05
1.2917e-05
1.2917e-05
1.2917e-05
1.29169e-05
1.29169e-05
1.2917e-05
1.2917e-05
1.29169e-05
1.29169e-05
1.29169e-05
1.29169e-05
1.29169e-05
1.29169e-05
1.24757e-05
1.24757e-05
1.24756e-05
1.24756e-05
1.24754e-05
1.24754e-05
1.24754e-05
1.24753e-05
1.24753e-05
1.24753e-05
1.24753e-05
1.24754e-05
1.24754e-05
1.24753e-05
1.24753e-05
1.24753e-05
1.24753e-05
1.24753e-05
1.24753e-05
1.24752e-05
1.24753e-05
1.24753e-05
1.24753e-05
1.24753e-05
1.24753e-05
1.24753e-05
1.24753e-05
1.24752e-05
1.24752e-05
1.24751e-05
1.24751e-05
1.24751e-05
1.24752e-05
1.24751e-05
1.24751e-05
1.24752e-05
1.24752e-05
1.24751e-05
1.24751e-05
1.24752e-05
1.24752e-05
1.24752e-05
1.24752e-05
1.24752e-05
1.24752e-05
1.24752e-05
1.24752e-05
1.24752e-05
1.24752e-05
1.24752e-05
1.24752e-05
1.24751e-05
1.24752e-05
1.24752e-05
1.24752e-05
1.24752e-05
1.24752e-05
1.24752e-05
1.24752e-05
1.24752e-05
6.70812e-06
6.68247e-06
6.68542e-06
6.68104e-06
6.68232e-06
6.68154e-06
6.70768e-06
6.70658e-06
6.6869e-06
6.68381e-06
6.70952e-06
6.68342e-06
6.71018e-06
6.70769e-06
6.68609e-06
6.68489e-06
6.70908e-06
6.68489e-06
6.68429e-06
6.70904e-06
6.70596e-06
6.71082e-06
6.68432e-06
6.68504e-06
6.68334e-06
6.68058e-06
6.68277e-06
6.68069e-06
6.70853e-06
6.68024e-06
6.70739e-06
6.68298e-06
6.68343e-06
6.70786e-06
6.70867e-06
6.68501e-06
6.68762e-06
6.68151e-06
6.70978e-06
6.6801e-06
6.71197e-06
6.68182e-06
6.71123e-06
6.68045e-06
6.68266e-06
6.68204e-06
6.68103e-06
6.68126e-06
6.68325e-06
6.68454e-06
6.70607e-06
6.70853e-06
6.68291e-06
6.71063e-06
6.68353e-06
6.68655e-06
6.70904e-06
6.71077e-06
6.6853e-06
6.7104e-06
1.42377e-05
1.42514e-05
1.42635e-05
1.4262e-05
1.42609e-05
1.42615e-05
1.42461e-05
1.42323e-05
1.42537e-05
1.42629e-05
1.4245e-05
1.42572e-05
1.4247e-05
1.42358e-05
1.42543e-05
1.42637e-05
1.42447e-05
1.42573e-05
1.42644e-05
1.42482e-05
1.42346e-05
1.42357e-05
1.42535e-05
1.42617e-05
1.42634e-05
1.4261e-05
1.42613e-05
1.42606e-05
1.42444e-05
1.42538e-05
1.42401e-05
1.42525e-05
1.42618e-05
1.42449e-05
1.42352e-05
1.42516e-05
1.42659e-05
1.42626e-05
1.42457e-05
1.4254e-05
1.42443e-05
1.42547e-05
1.42454e-05
1.42534e-05
1.42591e-05
1.426e-05
1.42597e-05
1.42599e-05
1.42611e-05
1.42658e-05
1.42457e-05
1.42353e-05
1.42533e-05
1.4244e-05
1.42537e-05
1.4265e-05
1.42473e-05
1.42394e-05
1.42573e-05
1.42468e-05
1.77022e-05
1.77174e-05
1.77325e-05
1.7737e-05
1.77352e-05
1.77361e-05
1.77182e-05
1.76964e-05
1.77156e-05
1.77334e-05
1.77121e-05
1.77262e-05
1.77145e-05
1.76996e-05
1.77174e-05
1.77341e-05
1.77121e-05
1.77246e-05
1.77364e-05
1.77188e-05
1.77013e-05
1.76951e-05
1.77171e-05
1.77302e-05
1.77359e-05
1.77366e-05
1.77354e-05
1.77357e-05
1.77134e-05
1.77255e-05
1.77072e-05
1.77194e-05
1.7733e-05
1.77146e-05
1.7698e-05
1.77142e-05
1.77331e-05
1.77367e-05
1.77141e-05
1.77255e-05
1.77087e-05
1.77235e-05
1.771e-05
1.77233e-05
1.77302e-05
1.7733e-05
1.77336e-05
1.77342e-05
1.77337e-05
1.77387e-05
1.77189e-05
1.76991e-05
1.77199e-05
1.77081e-05
1.772e-05
1.77344e-05
1.77166e-05
1.77019e-05
1.77233e-05
1.77126e-05
1.92843e-05
1.92938e-05
1.93064e-05
1.93156e-05
1.93147e-05
1.93157e-05
1.93038e-05
1.92813e-05
1.92899e-05
1.93081e-05
1.92935e-05
1.93031e-05
1.92959e-05
1.92821e-05
1.92914e-05
1.93092e-05
1.92938e-05
1.93005e-05
1.93126e-05
1.93019e-05
1.92873e-05
1.92753e-05
1.92906e-05
1.93041e-05
1.93119e-05
1.93162e-05
1.93149e-05
1.93158e-05
1.92974e-05
1.93055e-05
1.92908e-05
1.92968e-05
1.93093e-05
1.92981e-05
1.92807e-05
1.9289e-05
1.93045e-05
1.93144e-05
1.92967e-05
1.93049e-05
1.92899e-05
1.93008e-05
1.929e-05
1.93008e-05
1.93074e-05
1.93114e-05
1.93126e-05
1.93141e-05
1.93124e-05
1.93161e-05
1.93046e-05
1.92828e-05
1.92966e-05
1.9288e-05
1.92957e-05
1.9309e-05
1.92989e-05
1.9283e-05
1.92981e-05
1.92923e-05
1.99253e-05
1.99302e-05
1.9938e-05
1.99486e-05
1.99494e-05
1.99508e-05
1.99443e-05
1.99271e-05
1.99277e-05
1.99394e-05
1.9932e-05
1.9938e-05
1.99343e-05
1.99246e-05
1.99276e-05
1.99404e-05
1.99326e-05
1.99356e-05
1.99446e-05
1.99401e-05
1.99315e-05
1.99179e-05
1.99256e-05
1.9936e-05
1.99433e-05
1.99503e-05
1.99499e-05
1.99514e-05
1.99385e-05
1.99428e-05
1.99328e-05
1.99344e-05
1.99424e-05
1.99374e-05
1.99241e-05
1.99263e-05
1.99342e-05
1.99468e-05
1.99358e-05
1.99414e-05
1.993e-05
1.99366e-05
1.99287e-05
1.99361e-05
1.99413e-05
1.99458e-05
1.99474e-05
1.99496e-05
1.99478e-05
1.99495e-05
1.99442e-05
1.99273e-05
1.99334e-05
1.99274e-05
1.99312e-05
1.99407e-05
1.99367e-05
1.99245e-05
1.99326e-05
1.99298e-05
2.0084e-05
2.00864e-05
2.009e-05
2.00986e-05
2.01012e-05
2.01031e-05
2.01001e-05
2.00903e-05
2.00853e-05
2.00916e-05
2.00883e-05
2.00918e-05
2.009e-05
2.00847e-05
2.00841e-05
2.00915e-05
2.00886e-05
2.00899e-05
2.00955e-05
2.00942e-05
2.00909e-05
2.00802e-05
2.00824e-05
2.00881e-05
2.00935e-05
2.01012e-05
2.01018e-05
2.01041e-05
2.0096e-05
2.00981e-05
2.0092e-05
2.00911e-05
2.0095e-05
2.00932e-05
2.00854e-05
2.00842e-05
2.00864e-05
2.00966e-05
2.00913e-05
2.00956e-05
2.00879e-05
2.00916e-05
2.00859e-05
2.00903e-05
2.00939e-05
2.00981e-05
2.00997e-05
2.01024e-05
2.01012e-05
2.01014e-05
2.00995e-05
2.00887e-05
2.009e-05
2.00853e-05
2.00869e-05
2.0092e-05
2.00912e-05
2.00839e-05
2.00872e-05
2.00855e-05
1.99904e-05
1.99918e-05
1.9993e-05
1.99981e-05
2.00014e-05
2.00039e-05
2.00028e-05
1.99988e-05
1.99923e-05
1.99947e-05
1.9993e-05
1.99951e-05
1.9994e-05
1.9992e-05
1.99898e-05
1.99935e-05
1.99928e-05
1.99934e-05
1.99965e-05
1.99964e-05
1.9996e-05
1.99898e-05
1.99893e-05
1.99911e-05
1.99943e-05
2.00008e-05
2.0002e-05
2.00051e-05
2.00005e-05
2.00015e-05
1.99983e-05
1.99964e-05
1.99977e-05
1.99972e-05
1.99934e-05
1.99913e-05
1.99903e-05
1.99966e-05
1.99946e-05
1.99982e-05
1.99935e-05
1.99957e-05
1.99915e-05
1.99941e-05
1.9996e-05
1.99994e-05
2.0001e-05
2.00037e-05
2.00034e-05
2.00026e-05
2.00021e-05
1.99964e-05
1.99958e-05
1.99916e-05
1.99921e-05
1.99938e-05
1.99943e-05
1.99905e-05
1.99915e-05
1.99902e-05
1.97612e-05
1.97624e-05
1.97624e-05
1.97648e-05
1.97677e-05
1.97703e-05
1.977e-05
1.97691e-05
1.97646e-05
1.97646e-05
1.97632e-05
1.97643e-05
1.97633e-05
1.9763e-05
1.97612e-05
1.97623e-05
1.97624e-05
1.97627e-05
1.97642e-05
1.97642e-05
1.97653e-05
1.97625e-05
1.9761e-05
1.97613e-05
1.97627e-05
1.97667e-05
1.97682e-05
1.97714e-05
1.97693e-05
1.977e-05
1.97684e-05
1.97668e-05
1.97667e-05
1.97664e-05
1.97648e-05
1.97635e-05
1.97606e-05
1.97642e-05
1.97634e-05
1.97664e-05
1.97636e-05
1.97652e-05
1.97622e-05
1.97637e-05
1.97646e-05
1.97668e-05
1.97682e-05
1.97704e-05
1.97709e-05
1.977e-05
1.97699e-05
1.97675e-05
1.97665e-05
1.97629e-05
1.9763e-05
1.97627e-05
1.97633e-05
1.97615e-05
1.97615e-05
1.97603e-05
1.94567e-05
1.94577e-05
1.94573e-05
1.94583e-05
1.946e-05
1.94624e-05
1.94624e-05
1.9463e-05
1.94607e-05
1.94599e-05
1.94583e-05
1.94589e-05
1.94579e-05
1.94583e-05
1.94573e-05
1.9457e-05
1.94572e-05
1.94573e-05
1.94579e-05
1.94579e-05
1.94593e-05
1.94583e-05
1.94571e-05
1.94568e-05
1.94572e-05
1.94593e-05
1.94605e-05
1.94633e-05
1.94626e-05
1.94633e-05
1.94626e-05
1.94619e-05
1.94609e-05
1.94608e-05
1.94602e-05
1.94596e-05
1.94567e-05
1.94584e-05
1.94578e-05
1.946e-05
1.94585e-05
1.94597e-05
1.94577e-05
1.94586e-05
1.94589e-05
1.94601e-05
1.94613e-05
1.94627e-05
1.94637e-05
1.94629e-05
1.9463e-05
1.94622e-05
1.94615e-05
1.94587e-05
1.94587e-05
1.94576e-05
1.94578e-05
1.94569e-05
1.94567e-05
1.94556e-05
1.91078e-05
1.91086e-05
1.91081e-05
1.91085e-05
1.91093e-05
1.9111e-05
1.91111e-05
1.91122e-05
1.91113e-05
1.91106e-05
1.91091e-05
1.91095e-05
1.91086e-05
1.91091e-05
1.91087e-05
1.91078e-05
1.91079e-05
1.91079e-05
1.9108e-05
1.91079e-05
1.9109e-05
1.91089e-05
1.91084e-05
1.91079e-05
1.91081e-05
1.91089e-05
1.91097e-05
1.91116e-05
1.91116e-05
1.91124e-05
1.91121e-05
1.9112e-05
1.91112e-05
1.91111e-05
1.91108e-05
1.91106e-05
1.91085e-05
1.91091e-05
1.91085e-05
1.91099e-05
1.9109e-05
1.911e-05
1.91087e-05
1.91093e-05
1.91094e-05
1.91098e-05
1.91108e-05
1.91115e-05
1.91126e-05
1.91121e-05
1.91122e-05
1.91121e-05
1.91118e-05
1.91099e-05
1.91098e-05
1.91087e-05
1.91085e-05
1.91079e-05
1.91077e-05
1.91067e-05
1.87308e-05
1.87313e-05
1.87308e-05
1.87309e-05
1.87312e-05
1.87322e-05
1.87323e-05
1.87334e-05
1.87332e-05
1.87327e-05
1.87317e-05
1.8732e-05
1.87312e-05
1.87316e-05
1.87314e-05
1.87306e-05
1.87306e-05
1.87305e-05
1.87304e-05
1.873e-05
1.87309e-05
1.8731e-05
1.8731e-05
1.87308e-05
1.87308e-05
1.87311e-05
1.87315e-05
1.87326e-05
1.87327e-05
1.87336e-05
1.87335e-05
1.87338e-05
1.87332e-05
1.87332e-05
1.8733e-05
1.87331e-05
1.87317e-05
1.87318e-05
1.87312e-05
1.87321e-05
1.87315e-05
1.87322e-05
1.87314e-05
1.87318e-05
1.87318e-05
1.8732e-05
1.87326e-05
1.8733e-05
1.87338e-05
1.87335e-05
1.87335e-05
1.87337e-05
1.87337e-05
1.87325e-05
1.87326e-05
1.87316e-05
1.87312e-05
1.87307e-05
1.87305e-05
1.87296e-05
1.83342e-05
1.83345e-05
1.8334e-05
1.83339e-05
1.8334e-05
1.83345e-05
1.83345e-05
1.83354e-05
1.83353e-05
1.83352e-05
1.83346e-05
1.83348e-05
1.83342e-05
1.83345e-05
1.83344e-05
1.83338e-05
1.83337e-05
1.83335e-05
1.83333e-05
1.83329e-05
1.83335e-05
1.83337e-05
1.83338e-05
1.83338e-05
1.83338e-05
1.83339e-05
1.83341e-05
1.83347e-05
1.83348e-05
1.83355e-05
1.83355e-05
1.83359e-05
1.83356e-05
1.83356e-05
1.83356e-05
1.83358e-05
1.83348e-05
1.83348e-05
1.83343e-05
1.83348e-05
1.83344e-05
1.83349e-05
1.83344e-05
1.83347e-05
1.83347e-05
1.83348e-05
1.83352e-05
1.83353e-05
1.83358e-05
1.83356e-05
1.83356e-05
1.83359e-05
1.8336e-05
1.83353e-05
1.83354e-05
1.83348e-05
1.83343e-05
1.83339e-05
1.83337e-05
1.8333e-05
1.79226e-05
1.79228e-05
1.79224e-05
1.79222e-05
1.79221e-05
1.79223e-05
1.79223e-05
1.79229e-05
1.79229e-05
1.79228e-05
1.79225e-05
1.79227e-05
1.79223e-05
1.79225e-05
1.79225e-05
1.7922e-05
1.7922e-05
1.79218e-05
1.79216e-05
1.79211e-05
1.79216e-05
1.79217e-05
1.79218e-05
1.79218e-05
1.79219e-05
1.79219e-05
1.7922e-05
1.79224e-05
1.79224e-05
1.7923e-05
1.7923e-05
1.79234e-05
1.79232e-05
1.79233e-05
1.79233e-05
1.79236e-05
1.79229e-05
1.79229e-05
1.79225e-05
1.79229e-05
1.79225e-05
1.79229e-05
1.79225e-05
1.79228e-05
1.79228e-05
1.79228e-05
1.7923e-05
1.79231e-05
1.79234e-05
1.79233e-05
1.79232e-05
1.79234e-05
1.79236e-05
1.79232e-05
1.79233e-05
1.7923e-05
1.79225e-05
1.79222e-05
1.7922e-05
1.79214e-05
1.7499e-05
1.7499e-05
1.74987e-05
1.74985e-05
1.74983e-05
1.74984e-05
1.74983e-05
1.74987e-05
1.74987e-05
1.74986e-05
1.74984e-05
1.74986e-05
1.74983e-05
1.74984e-05
1.74985e-05
1.74982e-05
1.74981e-05
1.74979e-05
1.74978e-05
1.74973e-05
1.74977e-05
1.74977e-05
1.74979e-05
1.74979e-05
1.7498e-05
1.7498e-05
1.7498e-05
1.74982e-05
1.74982e-05
1.74987e-05
1.74987e-05
1.7499e-05
1.74989e-05
1.7499e-05
1.7499e-05
1.74993e-05
1.74989e-05
1.74988e-05
1.74986e-05
1.74989e-05
1.74986e-05
1.74989e-05
1.74987e-05
1.74988e-05
1.74988e-05
1.74989e-05
1.7499e-05
1.7499e-05
1.74992e-05
1.74991e-05
1.74989e-05
1.74991e-05
1.74993e-05
1.7499e-05
1.74992e-05
1.7499e-05
1.74986e-05
1.74984e-05
1.74982e-05
1.74978e-05
1.7065e-05
1.70651e-05
1.70648e-05
1.70646e-05
1.70644e-05
1.70643e-05
1.70642e-05
1.70645e-05
1.70645e-05
1.70644e-05
1.70642e-05
1.70643e-05
1.70642e-05
1.70642e-05
1.70644e-05
1.70641e-05
1.7064e-05
1.70639e-05
1.70637e-05
1.70634e-05
1.70637e-05
1.70637e-05
1.70638e-05
1.70638e-05
1.70638e-05
1.70639e-05
1.70639e-05
1.70641e-05
1.7064e-05
1.70643e-05
1.70643e-05
1.70646e-05
1.70645e-05
1.70646e-05
1.70647e-05
1.70649e-05
1.70646e-05
1.70646e-05
1.70644e-05
1.70646e-05
1.70645e-05
1.70648e-05
1.70646e-05
1.70647e-05
1.70647e-05
1.70647e-05
1.70648e-05
1.70648e-05
1.70649e-05
1.70648e-05
1.70646e-05
1.70648e-05
1.7065e-05
1.70647e-05
1.70649e-05
1.70648e-05
1.70645e-05
1.70643e-05
1.70642e-05
1.70639e-05
1.66222e-05
1.66222e-05
1.6622e-05
1.66218e-05
1.66215e-05
1.66215e-05
1.66213e-05
1.66215e-05
1.66215e-05
1.66214e-05
1.66212e-05
1.66213e-05
1.66212e-05
1.66213e-05
1.66214e-05
1.66212e-05
1.66211e-05
1.6621e-05
1.66209e-05
1.66206e-05
1.66208e-05
1.66208e-05
1.66209e-05
1.66209e-05
1.66209e-05
1.66209e-05
1.6621e-05
1.66211e-05
1.6621e-05
1.66213e-05
1.66213e-05
1.66215e-05
1.66214e-05
1.66214e-05
1.66215e-05
1.66217e-05
1.66215e-05
1.66215e-05
1.66214e-05
1.66216e-05
1.66215e-05
1.66217e-05
1.66216e-05
1.66217e-05
1.66217e-05
1.66217e-05