/*--------------------------------*- C++ -*----------------------------------*\
| =========                 |                                                 |
| \\      /  F ield         | OpenFOAM: The Open Source CFD Toolbox           |
|  \\    /   O peration     | Version:  2312                                  |
|   \\  /    A nd           | Website:  www.openfoam.com                      |
|    \\/     M anipulation  |                                                 |
\*---------------------------------------------------------------------------*/
FoamFile
{
    version     2.0;
    format      ascii;
    arch        "LSB;label=32;scalar=64";
    class       volScalarField;
    location    "1000";
    object      k_0;
}
// * * * * * * * * * * * * * * * * * * * * * * * * * * * * * * * * * * * * * //

dimensions      [0 2 -2 0 0 0 0];

internalField   nonuniform List<scalar> 
144000
(
6.68331e-06
6.68232e-06
6.68526e-06
6.68231e-06
6.70899e-06
6.6828e-06
6.71077e-06
6.70679e-06
6.70938e-06
6.68492e-06
6.68398e-06
6.68353e-06
6.68574e-06
6.68404e-06
6.70874e-06
6.70742e-06
6.68334e-06
6.68496e-06
6.68474e-06
6.70867e-06
6.70681e-06
6.68508e-06
6.68461e-06
6.71036e-06
6.68495e-06
6.68336e-06
6.7084e-06
6.68422e-06
6.68331e-06
6.70639e-06
6.67999e-06
6.71043e-06
6.68501e-06
6.71087e-06
6.70746e-06
6.711e-06
6.6871e-06
6.71161e-06
6.68622e-06
6.68582e-06
6.71051e-06
6.68147e-06
6.68604e-06
6.6844e-06
6.7108e-06
6.70788e-06
6.68393e-06
6.68745e-06
6.6839e-06
6.68559e-06
6.68212e-06
6.70667e-06
6.68235e-06
6.6875e-06
6.70783e-06
6.70906e-06
6.68324e-06
6.68565e-06
6.68266e-06
6.68211e-06
1.4262e-05
1.4261e-05
1.4265e-05
1.42639e-05
1.42453e-05
1.42569e-05
1.42474e-05
1.42372e-05
1.42362e-05
1.42545e-05
1.42616e-05
1.42617e-05
1.42647e-05
1.42644e-05
1.42485e-05
1.42379e-05
1.4253e-05
1.42616e-05
1.42655e-05
1.42484e-05
1.42342e-05
1.42523e-05
1.4263e-05
1.42463e-05
1.42582e-05
1.42638e-05
1.42454e-05
1.42576e-05
1.42634e-05
1.42438e-05
1.42532e-05
1.42424e-05
1.42578e-05
1.42472e-05
1.42376e-05
1.42375e-05
1.42583e-05
1.42464e-05
1.42576e-05
1.42648e-05
1.42483e-05
1.42549e-05
1.42634e-05
1.42641e-05
1.42499e-05
1.42387e-05
1.42528e-05
1.42651e-05
1.42642e-05
1.42666e-05
1.4265e-05
1.42436e-05
1.4253e-05
1.42665e-05
1.42476e-05
1.4239e-05
1.42533e-05
1.42618e-05
1.42627e-05
1.42616e-05
1.7736e-05
1.77348e-05
1.77373e-05
1.77393e-05
1.77148e-05
1.77275e-05
1.77148e-05
1.77036e-05
1.76975e-05
1.77186e-05
1.77322e-05
1.77336e-05
1.77364e-05
1.7738e-05
1.77196e-05
1.77039e-05
1.77199e-05
1.77306e-05
1.77382e-05
1.772e-05
1.76993e-05
1.77162e-05
1.77331e-05
1.77129e-05
1.77258e-05
1.77369e-05
1.77146e-05
1.77266e-05
1.77369e-05
1.77146e-05
1.77255e-05
1.77075e-05
1.77253e-05
1.77136e-05
1.77032e-05
1.76977e-05
1.77221e-05
1.77104e-05
1.77234e-05
1.77351e-05
1.77163e-05
1.77257e-05
1.77335e-05
1.77367e-05
1.77192e-05
1.77046e-05
1.77187e-05
1.77333e-05
1.77368e-05
1.77394e-05
1.77414e-05
1.77155e-05
1.77226e-05
1.77362e-05
1.77184e-05
1.77037e-05
1.77204e-05
1.77305e-05
1.77361e-05
1.77359e-05
1.93155e-05
1.93145e-05
1.93151e-05
1.93186e-05
1.92992e-05
1.93064e-05
1.92969e-05
1.92881e-05
1.92785e-05
1.92925e-05
1.93077e-05
1.93112e-05
1.93132e-05
1.93162e-05
1.93037e-05
1.92876e-05
1.92973e-05
1.93059e-05
1.9315e-05
1.93041e-05
1.92841e-05
1.92921e-05
1.93083e-05
1.9294e-05
1.93015e-05
1.93143e-05
1.92978e-05
1.93039e-05
1.93148e-05
1.92991e-05
1.93064e-05
1.92901e-05
1.93016e-05
1.92942e-05
1.92865e-05
1.92776e-05
1.92954e-05
1.9289e-05
1.92978e-05
1.93104e-05
1.92976e-05
1.93044e-05
1.93097e-05
1.93145e-05
1.93019e-05
1.92878e-05
1.92956e-05
1.93072e-05
1.93138e-05
1.93159e-05
1.93209e-05
1.93018e-05
1.93031e-05
1.93114e-05
1.93019e-05
1.92865e-05
1.92975e-05
1.93057e-05
1.93137e-05
1.93147e-05
1.99509e-05
1.99505e-05
1.99495e-05
1.99531e-05
1.99403e-05
1.99433e-05
1.99366e-05
1.99313e-05
1.9921e-05
1.99275e-05
1.99399e-05
1.9945e-05
1.99464e-05
1.995e-05
1.99435e-05
1.99303e-05
1.99344e-05
1.99395e-05
1.99476e-05
1.99427e-05
1.99287e-05
1.99302e-05
1.99405e-05
1.99328e-05
1.99363e-05
1.99469e-05
1.99377e-05
1.99399e-05
1.99482e-05
1.99395e-05
1.99445e-05
1.99319e-05
1.99373e-05
1.99328e-05
1.99286e-05
1.99193e-05
1.99294e-05
1.99264e-05
1.99316e-05
1.99424e-05
1.99357e-05
1.99404e-05
1.99431e-05
1.99484e-05
1.99411e-05
1.99299e-05
1.99328e-05
1.99393e-05
1.99467e-05
1.99484e-05
1.99544e-05
1.99437e-05
1.99417e-05
1.99449e-05
1.99409e-05
1.9929e-05
1.99343e-05
1.99392e-05
1.99469e-05
1.99488e-05
2.01036e-05
2.01039e-05
2.01024e-05
2.01052e-05
2.00977e-05
2.00986e-05
2.00937e-05
2.00909e-05
2.00826e-05
2.00844e-05
2.00913e-05
2.00971e-05
2.00982e-05
2.01016e-05
2.00987e-05
2.00903e-05
2.00912e-05
2.00931e-05
2.00986e-05
2.00971e-05
2.00901e-05
2.00879e-05
2.00931e-05
2.00895e-05
2.00907e-05
2.00979e-05
2.0094e-05
2.00946e-05
2.00999e-05
2.00959e-05
2.00998e-05
2.00913e-05
2.00927e-05
2.00895e-05
2.00876e-05
2.00803e-05
2.00846e-05
2.00829e-05
2.00857e-05
2.00933e-05
2.00907e-05
2.00945e-05
2.00957e-05
2.01001e-05
2.00966e-05
2.00893e-05
2.00898e-05
2.0092e-05
2.00979e-05
2.00993e-05
2.01049e-05
2.01005e-05
2.00982e-05
2.00981e-05
2.00966e-05
2.0089e-05
2.00908e-05
2.00928e-05
2.00983e-05
2.01005e-05
2.00046e-05
2.00059e-05
2.00044e-05
2.00063e-05
2.00022e-05
2.00023e-05
1.99987e-05
1.99973e-05
1.9992e-05
1.99911e-05
1.99937e-05
1.99987e-05
1.99994e-05
2.00022e-05
2.00013e-05
1.99971e-05
1.99967e-05
1.99969e-05
1.99995e-05
1.99995e-05
1.99973e-05
1.99941e-05
1.99962e-05
1.99945e-05
1.99948e-05
1.99987e-05
1.99979e-05
1.9998e-05
2.00012e-05
1.99996e-05
2.00028e-05
1.99979e-05
1.99976e-05
1.99947e-05
1.9994e-05
1.99892e-05
1.99903e-05
1.99886e-05
1.999e-05
1.99946e-05
1.99939e-05
1.99972e-05
1.99977e-05
2.0001e-05
1.99996e-05
1.99957e-05
1.99955e-05
1.99956e-05
1.99988e-05
2e-05
2.00043e-05
2.00034e-05
2.00027e-05
2.00009e-05
2.00003e-05
1.99959e-05
1.99963e-05
1.99967e-05
1.99995e-05
2.00013e-05
1.97714e-05
1.97733e-05
1.97722e-05
1.97733e-05
1.97711e-05
1.97712e-05
1.97685e-05
1.97679e-05
1.97651e-05
1.97631e-05
1.97637e-05
1.97665e-05
1.97671e-05
1.97691e-05
1.9769e-05
1.97675e-05
1.97671e-05
1.97664e-05
1.97673e-05
1.97676e-05
1.97674e-05
1.97655e-05
1.97658e-05
1.97648e-05
1.97646e-05
1.97663e-05
1.97667e-05
1.97668e-05
1.97686e-05
1.97682e-05
1.97709e-05
1.97684e-05
1.97678e-05
1.97651e-05
1.9765e-05
1.97622e-05
1.97619e-05
1.976e-05
1.97606e-05
1.97629e-05
1.97628e-05
1.97655e-05
1.97658e-05
1.97681e-05
1.97676e-05
1.97661e-05
1.9766e-05
1.97651e-05
1.97668e-05
1.97674e-05
1.97701e-05
1.97705e-05
1.97714e-05
1.97695e-05
1.97693e-05
1.97669e-05
1.97668e-05
1.97664e-05
1.97675e-05
1.97687e-05
1.94642e-05
1.94661e-05
1.94653e-05
1.94659e-05
1.94648e-05
1.94649e-05
1.9463e-05
1.94628e-05
1.94616e-05
1.94597e-05
1.94593e-05
1.94606e-05
1.94608e-05
1.9462e-05
1.94622e-05
1.94619e-05
1.94618e-05
1.94612e-05
1.94612e-05
1.94613e-05
1.94619e-05
1.94611e-05
1.94607e-05
1.94598e-05
1.94596e-05
1.946e-05
1.94607e-05
1.94608e-05
1.94618e-05
1.94618e-05
1.94639e-05
1.94629e-05
1.94625e-05
1.94604e-05
1.94605e-05
1.9459e-05
1.94584e-05
1.94564e-05
1.94566e-05
1.94574e-05
1.94573e-05
1.94594e-05
1.94595e-05
1.9461e-05
1.9461e-05
1.94606e-05
1.9461e-05
1.946e-05
1.94608e-05
1.94609e-05
1.94623e-05
1.9463e-05
1.94646e-05
1.94632e-05
1.94631e-05
1.9462e-05
1.94619e-05
1.94613e-05
1.94616e-05
1.94622e-05
1.91136e-05
1.9115e-05
1.91145e-05
1.91148e-05
1.91143e-05
1.91144e-05
1.91131e-05
1.91131e-05
1.91126e-05
1.91115e-05
1.91106e-05
1.91112e-05
1.91111e-05
1.91116e-05
1.91117e-05
1.91119e-05
1.91121e-05
1.91117e-05
1.91114e-05
1.91111e-05
1.91119e-05
1.91117e-05
1.91113e-05
1.91105e-05
1.91105e-05
1.91104e-05
1.91108e-05
1.91109e-05
1.91114e-05
1.91115e-05
1.91131e-05
1.91127e-05
1.91127e-05
1.91113e-05
1.91114e-05
1.91107e-05
1.91101e-05
1.91085e-05
1.91083e-05
1.91084e-05
1.9108e-05
1.91095e-05
1.91096e-05
1.91104e-05
1.91105e-05
1.91107e-05
1.91113e-05
1.91106e-05
1.91109e-05
1.91108e-05
1.91115e-05
1.91119e-05
1.91136e-05
1.91127e-05
1.91127e-05
1.91123e-05
1.91123e-05
1.91119e-05
1.91118e-05
1.91121e-05
1.87355e-05
1.87363e-05
1.8736e-05
1.87361e-05
1.87357e-05
1.87359e-05
1.8735e-05
1.87351e-05
1.87349e-05
1.87345e-05
1.87336e-05
1.87338e-05
1.87335e-05
1.87337e-05
1.87336e-05
1.87338e-05
1.87342e-05
1.8734e-05
1.87336e-05
1.87332e-05
1.87339e-05
1.87339e-05
1.87337e-05
1.87331e-05
1.87331e-05
1.87329e-05
1.8733e-05
1.87331e-05
1.87332e-05
1.87333e-05
1.87345e-05
1.87344e-05
1.87345e-05
1.87337e-05
1.87339e-05
1.87335e-05
1.87332e-05
1.87319e-05
1.87317e-05
1.87315e-05
1.87309e-05
1.87319e-05
1.87319e-05
1.87323e-05
1.87324e-05
1.87326e-05
1.87334e-05
1.87329e-05
1.87331e-05
1.8733e-05
1.87332e-05
1.87334e-05
1.87348e-05
1.87342e-05
1.87343e-05
1.87343e-05
1.87344e-05
1.87342e-05
1.8734e-05
1.87341e-05
1.8338e-05
1.83384e-05
1.83381e-05
1.83381e-05
1.83378e-05
1.8338e-05
1.83374e-05
1.83375e-05
1.83375e-05
1.83373e-05
1.83367e-05
1.83368e-05
1.83365e-05
1.83364e-05
1.83362e-05
1.83364e-05
1.83367e-05
1.83366e-05
1.83364e-05
1.83359e-05
1.83363e-05
1.83365e-05
1.83364e-05
1.8336e-05
1.83361e-05
1.83359e-05
1.83358e-05
1.83359e-05
1.83358e-05
1.83359e-05
1.83367e-05
1.83366e-05
1.83368e-05
1.83363e-05
1.83366e-05
1.83365e-05
1.83363e-05
1.83354e-05
1.83352e-05
1.8335e-05
1.83343e-05
1.8335e-05
1.83349e-05
1.83351e-05
1.83351e-05
1.83352e-05
1.8336e-05
1.83357e-05
1.83358e-05
1.83356e-05
1.83358e-05
1.83358e-05
1.83368e-05
1.83364e-05
1.83365e-05
1.83366e-05
1.83368e-05
1.83367e-05
1.83366e-05
1.83367e-05
1.79258e-05
1.79259e-05
1.79256e-05
1.79255e-05
1.79252e-05
1.79254e-05
1.7925e-05
1.79251e-05
1.79251e-05
1.79251e-05
1.79248e-05
1.79249e-05
1.79246e-05
1.79245e-05
1.79242e-05
1.79243e-05
1.79246e-05
1.79245e-05
1.79243e-05
1.79238e-05
1.79242e-05
1.79244e-05
1.79243e-05
1.79241e-05
1.79242e-05
1.7924e-05
1.79239e-05
1.79239e-05
1.79238e-05
1.79237e-05
1.79243e-05
1.79243e-05
1.79245e-05
1.79241e-05
1.79244e-05
1.79244e-05
1.79243e-05
1.79237e-05
1.79237e-05
1.79235e-05
1.79228e-05
1.79233e-05
1.79232e-05
1.79232e-05
1.79232e-05
1.79233e-05
1.79238e-05
1.79236e-05
1.79238e-05
1.79236e-05
1.79236e-05
1.79236e-05
1.79243e-05
1.7924e-05
1.7924e-05
1.79241e-05
1.79244e-05
1.79244e-05
1.79244e-05
1.79245e-05
1.75015e-05
1.75015e-05
1.75013e-05
1.75012e-05
1.75009e-05
1.7501e-05
1.75007e-05
1.75008e-05
1.75008e-05
1.75008e-05
1.75007e-05
1.75008e-05
1.75006e-05
1.75005e-05
1.75002e-05
1.75002e-05
1.75004e-05
1.75004e-05
1.75002e-05
1.74998e-05
1.75001e-05
1.75003e-05
1.75002e-05
1.75001e-05
1.75002e-05
1.75e-05
1.74999e-05
1.74999e-05
1.74998e-05
1.74997e-05
1.75001e-05
1.75001e-05
1.75002e-05
1.74999e-05
1.75002e-05
1.75002e-05
1.75002e-05
1.74999e-05
1.74998e-05
1.74997e-05
1.74993e-05
1.74996e-05
1.74995e-05
1.74994e-05
1.74993e-05
1.74994e-05
1.74998e-05
1.74997e-05
1.74997e-05
1.74996e-05
1.74996e-05
1.74996e-05
1.75e-05
1.74998e-05
1.74998e-05
1.74999e-05
1.75001e-05
1.75001e-05
1.75002e-05
1.75002e-05
1.70671e-05
1.70671e-05
1.70669e-05
1.70668e-05
1.70665e-05
1.70665e-05
1.70663e-05
1.70664e-05
1.70664e-05
1.70664e-05
1.70664e-05
1.70665e-05
1.70664e-05
1.70662e-05
1.7066e-05
1.7066e-05
1.70662e-05
1.70661e-05
1.7066e-05
1.70657e-05
1.70659e-05
1.7066e-05
1.7066e-05
1.70659e-05
1.7066e-05
1.70659e-05
1.70657e-05
1.70658e-05
1.70656e-05
1.70655e-05
1.70658e-05
1.70658e-05
1.70659e-05
1.70657e-05
1.70659e-05
1.70659e-05
1.70659e-05
1.70657e-05
1.70657e-05
1.70657e-05
1.70654e-05
1.70656e-05
1.70655e-05
1.70654e-05
1.70653e-05
1.70653e-05
1.70657e-05
1.70655e-05
1.70656e-05
1.70655e-05
1.70654e-05
1.70654e-05
1.70657e-05
1.70656e-05
1.70655e-05
1.70656e-05
1.70657e-05
1.70658e-05
1.70658e-05
1.70658e-05
1.66239e-05
1.66239e-05
1.66238e-05
1.66236e-05
1.66233e-05
1.66234e-05
1.66231e-05
1.66232e-05
1.66232e-05
1.66232e-05
1.66232e-05
1.66233e-05
1.66232e-05
1.66231e-05
1.66229e-05
1.66229e-05
1.66231e-05
1.6623e-05
1.66229e-05
1.66227e-05
1.66228e-05
1.6623e-05
1.6623e-05
1.66229e-05
1.66229e-05
1.66229e-05
1.66228e-05
1.66228e-05
1.66227e-05
1.66225e-05
1.66227e-05
1.66227e-05
1.66228e-05
1.66226e-05
1.66228e-05
1.66228e-05
1.66228e-05
1.66227e-05
1.66227e-05
1.66227e-05
1.66225e-05
1.66227e-05
1.66226e-05
1.66225e-05
1.66224e-05
1.66224e-05
1.66227e-05
1.66226e-05
1.66226e-05
1.66225e-05
1.66224e-05
1.66224e-05
1.66227e-05
1.66225e-05
1.66224e-05
1.66225e-05
1.66226e-05
1.66226e-05
1.66227e-05
1.66227e-05
1.61731e-05
1.61731e-05
1.61729e-05
1.61728e-05
1.61725e-05
1.61725e-05
1.61723e-05
1.61723e-05
1.61724e-05
1.61724e-05
1.61724e-05
1.61725e-05
1.61724e-05
1.61723e-05
1.61722e-05
1.61722e-05
1.61723e-05
1.61723e-05
1.61722e-05
1.6172e-05
1.61721e-05
1.61722e-05
1.61722e-05
1.61721e-05
1.61722e-05
1.61722e-05
1.61721e-05
1.61721e-05
1.6172e-05
1.61718e-05
1.6172e-05
1.6172e-05
1.6172e-05
1.61719e-05
1.6172e-05
1.6172e-05
1.6172e-05
1.61719e-05
1.6172e-05
1.6172e-05
1.61718e-05
1.6172e-05
1.6172e-05
1.61719e-05
1.61718e-05
1.61718e-05
1.6172e-05
1.6172e-05
1.61719e-05
1.61718e-05
1.61717e-05
1.61717e-05
1.61719e-05
1.61718e-05
1.61717e-05
1.61718e-05
1.61719e-05
1.61719e-05
1.61719e-05
1.61719e-05
1.57156e-05
1.57156e-05
1.57155e-05
1.57153e-05
1.5715e-05
1.5715e-05
1.57149e-05
1.57149e-05
1.57149e-05
1.57149e-05
1.57149e-05
1.5715e-05
1.5715e-05
1.57149e-05
1.57148e-05
1.57147e-05
1.57149e-05
1.57148e-05
1.57148e-05
1.57146e-05
1.57147e-05
1.57148e-05
1.57148e-05
1.57148e-05
1.57148e-05
1.57148e-05
1.57147e-05
1.57147e-05
1.57145e-05
1.57144e-05
1.57146e-05
1.57146e-05
1.57146e-05
1.57145e-05
1.57146e-05
1.57146e-05
1.57146e-05
1.57146e-05
1.57146e-05
1.57146e-05
1.57145e-05
1.57146e-05
1.57146e-05
1.57146e-05
1.57145e-05
1.57145e-05
1.57147e-05
1.57146e-05
1.57146e-05
1.57145e-05
1.57144e-05
1.57143e-05
1.57145e-05
1.57145e-05
1.57144e-05
1.57144e-05
1.57145e-05
1.57145e-05
1.57145e-05
1.57145e-05
1.52526e-05
1.52526e-05
1.52525e-05
1.52523e-05
1.52521e-05
1.5252e-05
1.52519e-05
1.52519e-05
1.52519e-05
1.5252e-05
1.52519e-05
1.5252e-05
1.5252e-05
1.52519e-05
1.52518e-05
1.52518e-05
1.52519e-05
1.52519e-05
1.52518e-05
1.52517e-05
1.52518e-05
1.52519e-05
1.52518e-05
1.52518e-05
1.52519e-05
1.52518e-05
1.52518e-05
1.52517e-05
1.52516e-05
1.52515e-05
1.52516e-05
1.52516e-05
1.52517e-05
1.52516e-05
1.52516e-05
1.52516e-05
1.52517e-05
1.52516e-05
1.52516e-05
1.52516e-05
1.52516e-05
1.52517e-05
1.52517e-05
1.52516e-05
1.52516e-05
1.52516e-05
1.52518e-05
1.52517e-05
1.52517e-05
1.52516e-05
1.52515e-05
1.52514e-05
1.52516e-05
1.52516e-05
1.52515e-05
1.52515e-05
1.52516e-05
1.52516e-05
1.52516e-05
1.52516e-05
1.47853e-05
1.47853e-05
1.47852e-05
1.47851e-05
1.47848e-05
1.47848e-05
1.47847e-05
1.47847e-05
1.47847e-05
1.47847e-05
1.47847e-05
1.47848e-05
1.47848e-05
1.47847e-05
1.47846e-05
1.47846e-05
1.47847e-05
1.47847e-05
1.47846e-05
1.47845e-05
1.47846e-05
1.47846e-05
1.47846e-05
1.47846e-05
1.47846e-05
1.47846e-05
1.47846e-05
1.47845e-05
1.47844e-05
1.47843e-05
1.47844e-05
1.47844e-05
1.47844e-05
1.47844e-05
1.47844e-05
1.47844e-05
1.47844e-05
1.47844e-05
1.47844e-05
1.47844e-05
1.47844e-05
1.47845e-05
1.47845e-05
1.47844e-05
1.47844e-05
1.47844e-05
1.47846e-05
1.47845e-05
1.47845e-05
1.47844e-05
1.47843e-05
1.47843e-05
1.47844e-05
1.47844e-05
1.47843e-05
1.47843e-05
1.47844e-05
1.47844e-05
1.47844e-05
1.47844e-05
1.43154e-05
1.43154e-05
1.43153e-05
1.43152e-05
1.4315e-05
1.43149e-05
1.43148e-05
1.43148e-05
1.43148e-05
1.43148e-05
1.43148e-05
1.43149e-05
1.43148e-05
1.43148e-05
1.43147e-05
1.43147e-05
1.43148e-05
1.43148e-05
1.43147e-05
1.43146e-05
1.43147e-05
1.43147e-05
1.43147e-05
1.43147e-05
1.43148e-05
1.43147e-05
1.43147e-05
1.43147e-05
1.43146e-05
1.43145e-05
1.43145e-05
1.43145e-05
1.43146e-05
1.43145e-05
1.43145e-05
1.43145e-05
1.43145e-05
1.43145e-05
1.43145e-05
1.43146e-05
1.43145e-05
1.43146e-05
1.43146e-05
1.43146e-05
1.43146e-05
1.43146e-05
1.43147e-05
1.43147e-05
1.43147e-05
1.43146e-05
1.43145e-05
1.43144e-05
1.43146e-05
1.43145e-05
1.43145e-05
1.43145e-05
1.43145e-05
1.43145e-05
1.43145e-05
1.43146e-05
1.3845e-05
1.3845e-05
1.38449e-05
1.38448e-05
1.38446e-05
1.38446e-05
1.38444e-05
1.38444e-05
1.38444e-05
1.38444e-05
1.38444e-05
1.38445e-05
1.38445e-05
1.38445e-05
1.38444e-05
1.38443e-05
1.38444e-05
1.38444e-05
1.38444e-05
1.38443e-05
1.38443e-05
1.38444e-05
1.38444e-05
1.38444e-05
1.38444e-05
1.38444e-05
1.38444e-05
1.38443e-05
1.38442e-05
1.38441e-05
1.38442e-05
1.38442e-05
1.38442e-05
1.38442e-05
1.38442e-05
1.38442e-05
1.38442e-05
1.38442e-05
1.38442e-05
1.38442e-05
1.38442e-05
1.38443e-05
1.38443e-05
1.38443e-05
1.38443e-05
1.38443e-05
1.38444e-05
1.38444e-05
1.38443e-05
1.38443e-05
1.38442e-05
1.38441e-05
1.38442e-05
1.38442e-05
1.38442e-05
1.38442e-05
1.38442e-05
1.38442e-05
1.38442e-05
1.38442e-05
1.33774e-05
1.33774e-05
1.33774e-05
1.33773e-05
1.33771e-05
1.33771e-05
1.3377e-05
1.33769e-05
1.3377e-05
1.3377e-05
1.3377e-05
1.3377e-05
1.3377e-05
1.3377e-05
1.33769e-05
1.33769e-05
1.33769e-05
1.33769e-05
1.33769e-05
1.33769e-05
1.33769e-05
1.33769e-05
1.33769e-05
1.33769e-05
1.33769e-05
1.33769e-05
1.33769e-05
1.33769e-05
1.33768e-05
1.33767e-05
1.33767e-05
1.33767e-05
1.33768e-05
1.33767e-05
1.33767e-05
1.33767e-05
1.33768e-05
1.33767e-05
1.33767e-05
1.33768e-05
1.33767e-05
1.33768e-05
1.33768e-05
1.33768e-05
1.33768e-05
1.33768e-05
1.33769e-05
1.33769e-05
1.33769e-05
1.33768e-05
1.33768e-05
1.33767e-05
1.33768e-05
1.33768e-05
1.33767e-05
1.33767e-05
1.33768e-05
1.33768e-05
1.33768e-05
1.33768e-05
1.29182e-05
1.29181e-05
1.29181e-05
1.2918e-05
1.29179e-05
1.29178e-05
1.29178e-05
1.29177e-05
1.29177e-05
1.29177e-05
1.29177e-05
1.29178e-05
1.29178e-05
1.29178e-05
1.29177e-05
1.29177e-05
1.29177e-05
1.29177e-05
1.29177e-05
1.29176e-05
1.29177e-05
1.29177e-05
1.29177e-05
1.29177e-05
1.29177e-05
1.29177e-05
1.29177e-05
1.29176e-05
1.29176e-05
1.29175e-05
1.29175e-05
1.29175e-05
1.29176e-05
1.29175e-05
1.29175e-05
1.29176e-05
1.29176e-05
1.29175e-05
1.29175e-05
1.29176e-05
1.29176e-05
1.29176e-05
1.29176e-05
1.29176e-05
1.29176e-05
1.29176e-05
1.29177e-05
1.29177e-05
1.29176e-05
1.29176e-05
1.29176e-05
1.29175e-05
1.29176e-05
1.29176e-05
1.29175e-05
1.29176e-05
1.29176e-05
1.29176e-05
1.29176e-05
1.29176e-05
1.24762e-05
1.24762e-05
1.24762e-05
1.24761e-05
1.2476e-05
1.24759e-05
1.24759e-05
1.24758e-05
1.24759e-05
1.24759e-05
1.24759e-05
1.24759e-05
1.24759e-05
1.24759e-05
1.24758e-05
1.24758e-05
1.24758e-05
1.24758e-05
1.24758e-05
1.24758e-05
1.24758e-05
1.24758e-05
1.24758e-05
1.24758e-05
1.24758e-05
1.24758e-05
1.24758e-05
1.24758e-05
1.24757e-05
1.24756e-05
1.24757e-05
1.24757e-05
1.24757e-05
1.24757e-05
1.24757e-05
1.24757e-05
1.24757e-05
1.24757e-05
1.24757e-05
1.24757e-05
1.24757e-05
1.24757e-05
1.24757e-05
1.24757e-05
1.24757e-05
1.24757e-05
1.24758e-05
1.24758e-05
1.24758e-05
1.24757e-05
1.24757e-05
1.24757e-05
1.24757e-05
1.24757e-05
1.24757e-05
1.24757e-05
1.24757e-05
1.24757e-05
1.24757e-05
1.24757e-05
6.70897e-06
6.68333e-06
6.68627e-06
6.68189e-06
6.68317e-06
6.68239e-06
6.70853e-06
6.70743e-06
6.68775e-06
6.68466e-06
6.71038e-06
6.68427e-06
6.71103e-06
6.70855e-06
6.68694e-06
6.68574e-06
6.70993e-06
6.68574e-06
6.68514e-06
6.70989e-06
6.70681e-06
6.71168e-06
6.68517e-06
6.6859e-06
6.68419e-06
6.68143e-06
6.68362e-06
6.68154e-06
6.70938e-06
6.68109e-06
6.70824e-06
6.68383e-06
6.68428e-06
6.70871e-06
6.70952e-06
6.68586e-06
6.68847e-06
6.68236e-06
6.71063e-06
6.68095e-06
6.71282e-06
6.68267e-06
6.71208e-06
6.6813e-06
6.68351e-06
6.68289e-06
6.68188e-06
6.68211e-06
6.6841e-06
6.6854e-06
6.70693e-06
6.70938e-06
6.68376e-06
6.71148e-06
6.68438e-06
6.6874e-06
6.70989e-06
6.71162e-06
6.68616e-06
6.71126e-06
1.42394e-05
1.42531e-05
1.42651e-05
1.42636e-05
1.42626e-05
1.42632e-05
1.42478e-05
1.42339e-05
1.42554e-05
1.42646e-05
1.42467e-05
1.42589e-05
1.42487e-05
1.42375e-05
1.4256e-05
1.42654e-05
1.42464e-05
1.4259e-05
1.42661e-05
1.42499e-05
1.42362e-05
1.42374e-05
1.42552e-05
1.42634e-05
1.42651e-05
1.42627e-05
1.4263e-05
1.42623e-05
1.42461e-05
1.42555e-05
1.42418e-05
1.42542e-05
1.42635e-05
1.42465e-05
1.42369e-05
1.42533e-05
1.42675e-05
1.42643e-05
1.42474e-05
1.42556e-05
1.4246e-05
1.42564e-05
1.42471e-05
1.42551e-05
1.42608e-05
1.42617e-05
1.42613e-05
1.42616e-05
1.42628e-05
1.42675e-05
1.42474e-05
1.4237e-05
1.4255e-05
1.42457e-05
1.42554e-05
1.42666e-05
1.4249e-05
1.42411e-05
1.4259e-05
1.42484e-05
1.77042e-05
1.77194e-05
1.77345e-05
1.7739e-05
1.77372e-05
1.77381e-05
1.77201e-05
1.76983e-05
1.77175e-05
1.77353e-05
1.77141e-05
1.77282e-05
1.77165e-05
1.77016e-05
1.77193e-05
1.77361e-05
1.77141e-05
1.77266e-05
1.77384e-05
1.77208e-05
1.77033e-05
1.76971e-05
1.7719e-05
1.77321e-05
1.77379e-05
1.77386e-05
1.77374e-05
1.77377e-05
1.77154e-05
1.77275e-05
1.77092e-05
1.77214e-05
1.77349e-05
1.77165e-05
1.76999e-05
1.77162e-05
1.7735e-05
1.77387e-05
1.77161e-05
1.77275e-05
1.77107e-05
1.77255e-05
1.7712e-05
1.77253e-05
1.77322e-05
1.7735e-05
1.77356e-05
1.77362e-05
1.77357e-05
1.77407e-05
1.77209e-05
1.77011e-05
1.77219e-05
1.77101e-05
1.7722e-05
1.77364e-05
1.77186e-05
1.77039e-05
1.77253e-05
1.77146e-05
1.92864e-05
1.92959e-05
1.93085e-05
1.93177e-05
1.93168e-05
1.93178e-05
1.93059e-05
1.92833e-05
1.9292e-05
1.93102e-05
1.92956e-05
1.93052e-05
1.9298e-05
1.92842e-05
1.92935e-05
1.93112e-05
1.92959e-05
1.93026e-05
1.93146e-05
1.9304e-05
1.92893e-05
1.92774e-05
1.92927e-05
1.93062e-05
1.93139e-05
1.93183e-05
1.9317e-05
1.93179e-05
1.92995e-05
1.93076e-05
1.92929e-05
1.92988e-05
1.93114e-05
1.93001e-05
1.92827e-05
1.92911e-05
1.93066e-05
1.93165e-05
1.92988e-05
1.9307e-05
1.92919e-05
1.93029e-05
1.9292e-05
1.93029e-05
1.93095e-05
1.93135e-05
1.93147e-05
1.93161e-05
1.93145e-05
1.93182e-05
1.93067e-05
1.92849e-05
1.92987e-05
1.92901e-05
1.92978e-05
1.93111e-05
1.9301e-05
1.92851e-05
1.93002e-05
1.92944e-05
1.99274e-05
1.99323e-05
1.99401e-05
1.99507e-05
1.99515e-05
1.99529e-05
1.99464e-05
1.99292e-05
1.99298e-05
1.99415e-05
1.99341e-05
1.99401e-05
1.99364e-05
1.99267e-05
1.99297e-05
1.99425e-05
1.99347e-05
1.99377e-05
1.99467e-05
1.99422e-05
1.99336e-05
1.992e-05
1.99277e-05
1.99381e-05
1.99454e-05
1.99524e-05
1.9952e-05
1.99535e-05
1.99406e-05
1.99449e-05
1.99349e-05
1.99365e-05
1.99445e-05
1.99395e-05
1.99262e-05
1.99284e-05
1.99363e-05
1.99489e-05
1.99379e-05
1.99435e-05
1.99321e-05
1.99387e-05
1.99308e-05
1.99382e-05
1.99434e-05
1.99479e-05
1.99495e-05
1.99517e-05
1.99499e-05
1.99516e-05
1.99463e-05
1.99294e-05
1.99355e-05
1.99295e-05
1.99333e-05
1.99428e-05
1.99388e-05
1.99266e-05
1.99347e-05
1.99319e-05
2.00861e-05
2.00885e-05
2.00921e-05
2.01007e-05
2.01033e-05
2.01052e-05
2.01022e-05
2.00924e-05
2.00873e-05
2.00936e-05
2.00903e-05
2.00939e-05
2.00921e-05
2.00868e-05
2.00862e-05
2.00935e-05
2.00907e-05
2.00919e-05
2.00975e-05
2.00963e-05
2.0093e-05
2.00822e-05
2.00845e-05
2.00901e-05
2.00956e-05
2.01033e-05
2.01039e-05
2.01062e-05
2.00981e-05
2.01001e-05
2.00941e-05
2.00932e-05
2.00971e-05
2.00953e-05
2.00875e-05
2.00863e-05
2.00885e-05
2.00986e-05
2.00934e-05
2.00977e-05
2.009e-05
2.00937e-05
2.00879e-05
2.00924e-05
2.00959e-05
2.01001e-05
2.01018e-05
2.01045e-05
2.01033e-05
2.01035e-05
2.01015e-05
2.00908e-05
2.00921e-05
2.00874e-05
2.0089e-05
2.0094e-05
2.00933e-05
2.0086e-05
2.00893e-05
2.00875e-05
1.99925e-05
1.99939e-05
1.9995e-05
2.00001e-05
2.00035e-05
2.00059e-05
2.00048e-05
2.00009e-05
1.99943e-05
1.99968e-05
1.9995e-05
1.99971e-05
1.9996e-05
1.9994e-05
1.99918e-05
1.99955e-05
1.99948e-05
1.99954e-05
1.99985e-05
1.99984e-05
1.9998e-05
1.99919e-05
1.99913e-05
1.99932e-05
1.99963e-05
2.00028e-05
2.00041e-05
2.00071e-05
2.00026e-05
2.00036e-05
2.00003e-05
1.99984e-05
1.99997e-05
1.99992e-05
1.99954e-05
1.99934e-05
1.99923e-05
1.99986e-05
1.99966e-05
2.00003e-05
1.99955e-05
1.99977e-05
1.99935e-05
1.99961e-05
1.9998e-05
2.00014e-05
2.0003e-05
2.00057e-05
2.00054e-05
2.00047e-05
2.00041e-05
1.99984e-05
1.99978e-05
1.99936e-05
1.99941e-05
1.99958e-05
1.99964e-05
1.99926e-05
1.99935e-05
1.99922e-05
1.97632e-05
1.97644e-05
1.97644e-05
1.97668e-05
1.97696e-05
1.97723e-05
1.9772e-05
1.97711e-05
1.97666e-05
1.97666e-05
1.97652e-05
1.97663e-05
1.97652e-05
1.9765e-05
1.97632e-05
1.97643e-05
1.97643e-05
1.97646e-05
1.97661e-05
1.97662e-05
1.97673e-05
1.97644e-05
1.97629e-05
1.97633e-05
1.97646e-05
1.97687e-05
1.97702e-05
1.97734e-05
1.97713e-05
1.9772e-05
1.97704e-05
1.97688e-05
1.97686e-05
1.97684e-05
1.97668e-05
1.97655e-05
1.97626e-05
1.97662e-05
1.97654e-05
1.97684e-05
1.97656e-05
1.97672e-05
1.97642e-05
1.97657e-05
1.97666e-05
1.97688e-05
1.97702e-05
1.97724e-05
1.97728e-05
1.97719e-05
1.97719e-05
1.97695e-05
1.97685e-05
1.97648e-05
1.97649e-05
1.97647e-05
1.97653e-05
1.97634e-05
1.97635e-05
1.97623e-05
1.94586e-05
1.94596e-05
1.94592e-05
1.94602e-05
1.94619e-05
1.94643e-05
1.94643e-05
1.94649e-05
1.94626e-05
1.94619e-05
1.94602e-05
1.94608e-05
1.94598e-05
1.94602e-05
1.94592e-05
1.94589e-05
1.94591e-05
1.94592e-05
1.94598e-05
1.94598e-05
1.94612e-05
1.94602e-05
1.9459e-05
1.94587e-05
1.94592e-05
1.94612e-05
1.94624e-05
1.94652e-05
1.94645e-05
1.94652e-05
1.94645e-05
1.94638e-05
1.94628e-05
1.94628e-05
1.94621e-05
1.94615e-05
1.94586e-05
1.94603e-05
1.94597e-05
1.94619e-05
1.94604e-05
1.94616e-05
1.94596e-05
1.94605e-05
1.94608e-05
1.9462e-05
1.94632e-05
1.94646e-05
1.94656e-05
1.94648e-05
1.94649e-05
1.94641e-05
1.94634e-05
1.94606e-05
1.94606e-05
1.94595e-05
1.94597e-05
1.94588e-05
1.94586e-05
1.94575e-05
1.91097e-05
1.91104e-05
1.91099e-05
1.91103e-05
1.91111e-05
1.91128e-05
1.91129e-05
1.91141e-05
1.91131e-05
1.91124e-05
1.9111e-05
1.91113e-05
1.91104e-05
1.91109e-05
1.91105e-05
1.91096e-05
1.91097e-05
1.91097e-05
1.91099e-05
1.91097e-05
1.91109e-05
1.91107e-05
1.91102e-05
1.91098e-05
1.91099e-05
1.91108e-05
1.91115e-05
1.91135e-05
1.91134e-05
1.91142e-05
1.91139e-05
1.91138e-05
1.91131e-05
1.9113e-05
1.91126e-05
1.91125e-05
1.91103e-05
1.91109e-05
1.91103e-05
1.91118e-05
1.91108e-05
1.91118e-05
1.91105e-05
1.91111e-05
1.91112e-05
1.91117e-05
1.91126e-05
1.91134e-05
1.91145e-05
1.91139e-05
1.9114e-05
1.91139e-05
1.91136e-05
1.91118e-05
1.91117e-05
1.91105e-05
1.91104e-05
1.91098e-05
1.91095e-05
1.91085e-05
1.87326e-05
1.87331e-05
1.87326e-05
1.87327e-05
1.8733e-05
1.87339e-05
1.8734e-05
1.87352e-05
1.87349e-05
1.87345e-05
1.87335e-05
1.87337e-05
1.8733e-05
1.87333e-05
1.87332e-05
1.87324e-05
1.87324e-05
1.87323e-05
1.87321e-05
1.87318e-05
1.87327e-05
1.87328e-05
1.87328e-05
1.87325e-05
1.87325e-05
1.87328e-05
1.87332e-05
1.87344e-05
1.87345e-05
1.87354e-05
1.87353e-05
1.87355e-05
1.8735e-05
1.87349e-05
1.87348e-05
1.87349e-05
1.87334e-05
1.87335e-05
1.87329e-05
1.87338e-05
1.87332e-05
1.8734e-05
1.87331e-05
1.87336e-05
1.87336e-05
1.87338e-05
1.87344e-05
1.87347e-05
1.87356e-05
1.87353e-05
1.87353e-05
1.87355e-05
1.87355e-05
1.87343e-05
1.87343e-05
1.87334e-05
1.8733e-05
1.87325e-05
1.87323e-05
1.87314e-05
1.83359e-05
1.83361e-05
1.83357e-05
1.83356e-05
1.83357e-05
1.83361e-05
1.83361e-05
1.83371e-05
1.8337e-05
1.83369e-05
1.83363e-05
1.83364e-05
1.83359e-05
1.83361e-05
1.83361e-05
1.83355e-05
1.83354e-05
1.83352e-05
1.8335e-05
1.83346e-05
1.83352e-05
1.83354e-05
1.83355e-05
1.83354e-05
1.83355e-05
1.83356e-05
1.83358e-05
1.83364e-05
1.83364e-05
1.83372e-05
1.83372e-05
1.83376e-05
1.83373e-05
1.83373e-05
1.83373e-05
1.83375e-05
1.83365e-05
1.83365e-05
1.8336e-05
1.83365e-05
1.83361e-05
1.83366e-05
1.83361e-05
1.83364e-05
1.83364e-05
1.83365e-05
1.83368e-05
1.8337e-05
1.83375e-05
1.83373e-05
1.83373e-05
1.83376e-05
1.83377e-05
1.8337e-05
1.83371e-05
1.83365e-05
1.8336e-05
1.83356e-05
1.83354e-05
1.83347e-05
1.79242e-05
1.79244e-05
1.7924e-05
1.79238e-05
1.79237e-05
1.79239e-05
1.79239e-05
1.79245e-05
1.79245e-05
1.79244e-05
1.79241e-05
1.79243e-05
1.79239e-05
1.79241e-05
1.79241e-05
1.79236e-05
1.79236e-05
1.79234e-05
1.79232e-05
1.79227e-05
1.79232e-05
1.79233e-05
1.79235e-05
1.79234e-05
1.79235e-05
1.79235e-05
1.79236e-05
1.7924e-05
1.7924e-05
1.79246e-05
1.79246e-05
1.7925e-05
1.79248e-05
1.79249e-05
1.7925e-05
1.79252e-05
1.79245e-05
1.79245e-05
1.79241e-05
1.79245e-05
1.79241e-05
1.79245e-05
1.79241e-05
1.79244e-05
1.79244e-05
1.79244e-05
1.79247e-05
1.79247e-05
1.7925e-05
1.79249e-05
1.79248e-05
1.7925e-05
1.79252e-05
1.79248e-05
1.7925e-05
1.79246e-05
1.79241e-05
1.79238e-05
1.79236e-05
1.7923e-05
1.75005e-05
1.75006e-05
1.75002e-05
1.75e-05
1.74999e-05
1.74999e-05
1.74998e-05
1.75002e-05
1.75002e-05
1.75001e-05
1.74999e-05
1.75001e-05
1.74999e-05
1.75e-05
1.75e-05
1.74997e-05
1.74996e-05
1.74995e-05
1.74993e-05
1.74989e-05
1.74992e-05
1.74993e-05
1.74994e-05
1.74994e-05
1.74995e-05
1.74995e-05
1.74996e-05
1.74998e-05
1.74997e-05
1.75002e-05
1.75002e-05
1.75005e-05
1.75004e-05
1.75005e-05
1.75006e-05
1.75008e-05
1.75004e-05
1.75004e-05
1.75001e-05
1.75004e-05
1.75002e-05
1.75005e-05
1.75002e-05
1.75004e-05
1.75004e-05
1.75004e-05
1.75005e-05
1.75006e-05
1.75007e-05
1.75006e-05
1.75005e-05
1.75006e-05
1.75009e-05
1.75005e-05
1.75007e-05
1.75005e-05
1.75001e-05
1.74999e-05
1.74998e-05
1.74993e-05
1.70665e-05
1.70665e-05
1.70663e-05
1.7066e-05
1.70658e-05
1.70658e-05
1.70656e-05
1.70659e-05
1.70659e-05
1.70658e-05
1.70656e-05
1.70658e-05
1.70656e-05
1.70657e-05
1.70658e-05
1.70655e-05
1.70655e-05
1.70654e-05
1.70652e-05
1.70648e-05
1.70651e-05
1.70651e-05
1.70652e-05
1.70652e-05
1.70653e-05
1.70653e-05
1.70653e-05
1.70655e-05
1.70654e-05
1.70658e-05
1.70658e-05
1.70661e-05
1.7066e-05
1.7066e-05
1.70661e-05
1.70663e-05
1.7066e-05
1.7066e-05
1.70659e-05
1.70661e-05
1.7066e-05
1.70662e-05
1.7066e-05
1.70661e-05
1.70661e-05
1.70661e-05
1.70663e-05
1.70663e-05
1.70664e-05
1.70663e-05
1.70661e-05
1.70662e-05
1.70664e-05
1.70662e-05
1.70664e-05
1.70662e-05
1.70659e-05
1.70658e-05
1.70657e-05
1.70653e-05
1.66236e-05
1.66236e-05
1.66234e-05
1.66231e-05
1.66229e-05
1.66228e-05
1.66227e-05
1.66229e-05
1.66229e-05
1.66227e-05
1.66226e-05
1.66227e-05
1.66226e-05
1.66226e-05
1.66227e-05
1.66225e-05
1.66225e-05
1.66224e-05
1.66222e-05
1.66219e-05
1.66221e-05
1.66222e-05
1.66222e-05
1.66222e-05
1.66223e-05
1.66223e-05
1.66223e-05
1.66224e-05
1.66224e-05
1.66227e-05
1.66226e-05
1.66229e-05
1.66228e-05
1.66228e-05
1.66229e-05
1.66231e-05
1.66229e-05
1.66228e-05
1.66227e-05
1.66229e-05
1.66229e-05
1.66231e-05