/*--------------------------------*- C++ -*----------------------------------*\
| =========                 |                                                 |
| \\      /  F ield         | OpenFOAM: The Open Source CFD Toolbox           |
|  \\    /   O peration     | Version:  2312                                  |
|   \\  /    A nd           | Website:  www.openfoam.com                      |
|    \\/     M anipulation  |                                                 |
\*---------------------------------------------------------------------------*/
FoamFile
{
    version     2.0;
    format      ascii;
    arch        "LSB;label=32;scalar=64";
    class       volScalarField;
    location    "1000";
    object      nut;
}
// * * * * * * * * * * * * * * * * * * * * * * * * * * * * * * * * * * * * * //

dimensions      [0 2 -1 0 0 0 0];

internalField   nonuniform List<scalar> 
144000
(
7.25971e-06
7.25917e-06
7.26076e-06
7.25916e-06
7.27364e-06
7.25943e-06
7.2746e-06
7.27245e-06
7.27385e-06
7.26058e-06
7.26007e-06
7.25982e-06
7.26103e-06
7.2601e-06
7.2735e-06
7.27279e-06
7.25972e-06
7.2606e-06
7.26048e-06
7.27347e-06
7.27246e-06
7.26067e-06
7.26041e-06
7.27438e-06
7.2606e-06
7.25973e-06
7.27332e-06
7.2602e-06
7.2597e-06
7.27223e-06
7.2579e-06
7.27442e-06
7.26063e-06
7.27466e-06
7.27281e-06
7.27473e-06
7.26176e-06
7.27506e-06
7.26128e-06
7.26107e-06
7.27446e-06
7.25871e-06
7.26119e-06
7.26029e-06
7.27462e-06
7.27303e-06
7.26004e-06
7.26195e-06
7.26002e-06
7.26094e-06
7.25906e-06
7.27238e-06
7.25918e-06
7.26198e-06
7.27301e-06
7.27368e-06
7.25967e-06
7.26097e-06
7.25935e-06
7.25905e-06
1.06051e-05
1.06047e-05
1.06062e-05
1.06058e-05
1.05989e-05
1.06032e-05
1.05997e-05
1.05959e-05
1.05955e-05
1.06023e-05
1.0605e-05
1.0605e-05
1.06061e-05
1.0606e-05
1.06001e-05
1.05962e-05
1.06018e-05
1.0605e-05
1.06064e-05
1.06e-05
1.05948e-05
1.06015e-05
1.06055e-05
1.05993e-05
1.06037e-05
1.06058e-05
1.05989e-05
1.06035e-05
1.06056e-05
1.05983e-05
1.06018e-05
1.05978e-05
1.06036e-05
1.05996e-05
1.05961e-05
1.0596e-05
1.06037e-05
1.05993e-05
1.06035e-05
1.06061e-05
1.06e-05
1.06025e-05
1.06056e-05
1.06059e-05
1.06006e-05
1.05965e-05
1.06017e-05
1.06063e-05
1.06059e-05
1.06068e-05
1.06062e-05
1.05983e-05
1.06018e-05
1.06068e-05
1.05997e-05
1.05966e-05
1.06019e-05
1.0605e-05
1.06054e-05
1.0605e-05
1.18264e-05
1.1826e-05
1.18269e-05
1.18275e-05
1.18194e-05
1.18236e-05
1.18194e-05
1.18156e-05
1.18136e-05
1.18206e-05
1.18252e-05
1.18257e-05
1.18266e-05
1.18271e-05
1.1821e-05
1.18157e-05
1.18211e-05
1.18247e-05
1.18272e-05
1.18211e-05
1.18142e-05
1.18198e-05
1.18255e-05
1.18187e-05
1.1823e-05
1.18268e-05
1.18193e-05
1.18233e-05
1.18267e-05
1.18193e-05
1.18229e-05
1.1817e-05
1.18229e-05
1.1819e-05
1.18155e-05
1.18137e-05
1.18218e-05
1.18179e-05
1.18222e-05
1.18262e-05
1.18199e-05
1.1823e-05
1.18256e-05
1.18267e-05
1.18208e-05
1.1816e-05
1.18207e-05
1.18256e-05
1.18267e-05
1.18276e-05
1.18282e-05
1.18196e-05
1.1822e-05
1.18265e-05
1.18206e-05
1.18157e-05
1.18212e-05
1.18246e-05
1.18265e-05
1.18264e-05
1.23419e-05
1.23415e-05
1.23417e-05
1.23428e-05
1.23366e-05
1.2339e-05
1.23359e-05
1.23331e-05
1.233e-05
1.23345e-05
1.23394e-05
1.23405e-05
1.23411e-05
1.23421e-05
1.23381e-05
1.23329e-05
1.2336e-05
1.23388e-05
1.23417e-05
1.23382e-05
1.23318e-05
1.23344e-05
1.23396e-05
1.2335e-05
1.23374e-05
1.23415e-05
1.23362e-05
1.23381e-05
1.23416e-05
1.23366e-05
1.2339e-05
1.23337e-05
1.23374e-05
1.2335e-05
1.23326e-05
1.23297e-05
1.23354e-05
1.23334e-05
1.23362e-05
1.23402e-05
1.23361e-05
1.23383e-05
1.234e-05
1.23415e-05
1.23375e-05
1.2333e-05
1.23355e-05
1.23392e-05
1.23413e-05
1.2342e-05
1.23436e-05
1.23375e-05
1.23379e-05
1.23405e-05
1.23375e-05
1.23326e-05
1.23361e-05
1.23387e-05
1.23413e-05
1.23416e-05
1.25432e-05
1.25431e-05
1.25428e-05
1.25439e-05
1.25399e-05
1.25408e-05
1.25387e-05
1.25371e-05
1.25338e-05
1.25359e-05
1.25398e-05
1.25414e-05
1.25418e-05
1.25429e-05
1.25409e-05
1.25367e-05
1.2538e-05
1.25396e-05
1.25422e-05
1.25406e-05
1.25363e-05
1.25367e-05
1.254e-05
1.25375e-05
1.25386e-05
1.2542e-05
1.25391e-05
1.25398e-05
1.25424e-05
1.25396e-05
1.25412e-05
1.25373e-05
1.25389e-05
1.25375e-05
1.25362e-05
1.25333e-05
1.25365e-05
1.25355e-05
1.25372e-05
1.25405e-05
1.25384e-05
1.25399e-05
1.25408e-05
1.25424e-05
1.25401e-05
1.25366e-05
1.25375e-05
1.25396e-05
1.25419e-05
1.25425e-05
1.25443e-05
1.2541e-05
1.25403e-05
1.25413e-05
1.25401e-05
1.25363e-05
1.2538e-05
1.25395e-05
1.2542e-05
1.25426e-05
1.25911e-05
1.25913e-05
1.25908e-05
1.25917e-05
1.25893e-05
1.25896e-05
1.2588e-05
1.25872e-05
1.25846e-05
1.25851e-05
1.25873e-05
1.25891e-05
1.25894e-05
1.25905e-05
1.25896e-05
1.2587e-05
1.25873e-05
1.25879e-05
1.25896e-05
1.25891e-05
1.25869e-05
1.25862e-05
1.25879e-05
1.25867e-05
1.25871e-05
1.25894e-05
1.25881e-05
1.25883e-05
1.259e-05
1.25887e-05
1.25899e-05
1.25873e-05
1.25877e-05
1.25867e-05
1.25861e-05
1.25838e-05
1.25852e-05
1.25847e-05
1.25856e-05
1.25879e-05
1.25871e-05
1.25883e-05
1.25887e-05
1.25901e-05
1.2589e-05
1.25867e-05
1.25868e-05
1.25875e-05
1.25893e-05
1.25898e-05
1.25916e-05
1.25902e-05
1.25895e-05
1.25894e-05
1.2589e-05
1.25866e-05
1.25871e-05
1.25878e-05
1.25895e-05
1.25902e-05
1.25601e-05
1.25605e-05
1.25601e-05
1.25606e-05
1.25594e-05
1.25594e-05
1.25583e-05
1.25578e-05
1.25562e-05
1.25559e-05
1.25567e-05
1.25583e-05
1.25585e-05
1.25594e-05
1.25591e-05
1.25577e-05
1.25576e-05
1.25577e-05
1.25585e-05
1.25585e-05
1.25578e-05
1.25568e-05
1.25575e-05
1.25569e-05
1.2557e-05
1.25583e-05
1.2558e-05
1.2558e-05
1.2559e-05
1.25586e-05
1.25596e-05
1.2558e-05
1.25579e-05
1.2557e-05
1.25568e-05
1.25553e-05
1.25556e-05
1.25551e-05
1.25555e-05
1.2557e-05
1.25568e-05
1.25578e-05
1.2558e-05
1.2559e-05
1.25585e-05
1.25573e-05
1.25573e-05
1.25573e-05
1.25583e-05
1.25587e-05
1.256e-05
1.25597e-05
1.25595e-05
1.25589e-05
1.25588e-05
1.25574e-05
1.25575e-05
1.25576e-05
1.25585e-05
1.25591e-05
1.24867e-05
1.24873e-05
1.2487e-05
1.24873e-05
1.24866e-05
1.24866e-05
1.24858e-05
1.24856e-05
1.24847e-05
1.24841e-05
1.24843e-05
1.24852e-05
1.24853e-05
1.2486e-05
1.24859e-05
1.24855e-05
1.24853e-05
1.24851e-05
1.24854e-05
1.24855e-05
1.24855e-05
1.24848e-05
1.24849e-05
1.24846e-05
1.24845e-05
1.24851e-05
1.24852e-05
1.24853e-05
1.24858e-05
1.24857e-05
1.24865e-05
1.24858e-05
1.24856e-05
1.24847e-05
1.24847e-05
1.24838e-05
1.24837e-05
1.24831e-05
1.24833e-05
1.2484e-05
1.2484e-05
1.24848e-05
1.24849e-05
1.24857e-05
1.24855e-05
1.2485e-05
1.2485e-05
1.24847e-05
1.24853e-05
1.24854e-05
1.24863e-05
1.24864e-05
1.24867e-05
1.24861e-05
1.2486e-05
1.24853e-05
1.24853e-05
1.24851e-05
1.24855e-05
1.24859e-05
1.23893e-05
1.23899e-05
1.23897e-05
1.23899e-05
1.23895e-05
1.23896e-05
1.23889e-05
1.23889e-05
1.23885e-05
1.23879e-05
1.23878e-05
1.23882e-05
1.23882e-05
1.23886e-05
1.23887e-05
1.23886e-05
1.23886e-05
1.23884e-05
1.23884e-05
1.23884e-05
1.23886e-05
1.23883e-05
1.23882e-05
1.23879e-05
1.23879e-05
1.2388e-05
1.23882e-05
1.23883e-05
1.23886e-05
1.23886e-05
1.23892e-05
1.23889e-05
1.23888e-05
1.23881e-05
1.23882e-05
1.23877e-05
1.23875e-05
1.23869e-05
1.23869e-05
1.23872e-05
1.23871e-05
1.23878e-05
1.23878e-05
1.23883e-05
1.23883e-05
1.23882e-05
1.23883e-05
1.2388e-05
1.23882e-05
1.23883e-05
1.23887e-05
1.23889e-05
1.23895e-05
1.2389e-05
1.2389e-05
1.23886e-05
1.23886e-05
1.23884e-05
1.23885e-05
1.23887e-05
1.22773e-05
1.22777e-05
1.22776e-05
1.22776e-05
1.22775e-05
1.22775e-05
1.22771e-05
1.22771e-05
1.22769e-05
1.22766e-05
1.22763e-05
1.22765e-05
1.22764e-05
1.22766e-05
1.22766e-05
1.22767e-05
1.22768e-05
1.22766e-05
1.22765e-05
1.22765e-05
1.22767e-05
1.22766e-05
1.22765e-05
1.22763e-05
1.22762e-05
1.22762e-05
1.22763e-05
1.22764e-05
1.22765e-05
1.22766e-05
1.22771e-05
1.2277e-05
1.22769e-05
1.22765e-05
1.22766e-05
1.22763e-05
1.22761e-05
1.22756e-05
1.22755e-05
1.22756e-05
1.22755e-05
1.22759e-05
1.2276e-05
1.22762e-05
1.22763e-05
1.22763e-05
1.22765e-05
1.22763e-05
1.22764e-05
1.22764e-05
1.22766e-05
1.22767e-05
1.22773e-05
1.22769e-05
1.2277e-05
1.22768e-05
1.22768e-05
1.22767e-05
1.22767e-05
1.22768e-05
1.21552e-05
1.21555e-05
1.21554e-05
1.21554e-05
1.21553e-05
1.21554e-05
1.21551e-05
1.21551e-05
1.2155e-05
1.21549e-05
1.21546e-05
1.21547e-05
1.21546e-05
1.21546e-05
1.21546e-05
1.21547e-05
1.21548e-05
1.21547e-05
1.21546e-05
1.21545e-05
1.21547e-05
1.21547e-05
1.21546e-05
1.21544e-05
1.21545e-05
1.21544e-05
1.21544e-05
1.21544e-05
1.21545e-05
1.21545e-05
1.21549e-05
1.21549e-05
1.21549e-05
1.21546e-05
1.21547e-05
1.21546e-05
1.21545e-05
1.21541e-05
1.2154e-05
1.21539e-05
1.21537e-05
1.21541e-05
1.21541e-05
1.21542e-05
1.21542e-05
1.21543e-05
1.21545e-05
1.21544e-05
1.21545e-05
1.21544e-05
1.21545e-05
1.21546e-05
1.2155e-05
1.21548e-05
1.21548e-05
1.21548e-05
1.21549e-05
1.21548e-05
1.21547e-05
1.21548e-05
1.20256e-05
1.20257e-05
1.20256e-05
1.20256e-05
1.20255e-05
1.20256e-05
1.20254e-05
1.20254e-05
1.20254e-05
1.20254e-05
1.20252e-05
1.20252e-05
1.20251e-05
1.20251e-05
1.2025e-05
1.20251e-05
1.20252e-05
1.20251e-05
1.20251e-05
1.20249e-05
1.20251e-05
1.20251e-05
1.20251e-05
1.2025e-05
1.2025e-05
1.20249e-05
1.20249e-05
1.20249e-05
1.20249e-05
1.20249e-05
1.20252e-05
1.20252e-05
1.20252e-05
1.2025e-05
1.20251e-05
1.20251e-05
1.2025e-05
1.20247e-05
1.20247e-05
1.20246e-05
1.20244e-05
1.20246e-05
1.20246e-05
1.20246e-05
1.20246e-05
1.20247e-05
1.20249e-05
1.20248e-05
1.20249e-05
1.20248e-05
1.20249e-05
1.20249e-05
1.20252e-05
1.20251e-05
1.20251e-05
1.20251e-05
1.20252e-05
1.20252e-05
1.20251e-05
1.20252e-05
1.18897e-05
1.18897e-05
1.18896e-05
1.18896e-05
1.18895e-05
1.18896e-05
1.18894e-05
1.18895e-05
1.18895e-05
1.18895e-05
1.18894e-05
1.18894e-05
1.18893e-05
1.18892e-05
1.18892e-05
1.18892e-05
1.18893e-05
1.18892e-05
1.18892e-05
1.1889e-05
1.18892e-05
1.18892e-05
1.18892e-05
1.18891e-05
1.18891e-05
1.18891e-05
1.1889e-05
1.18891e-05
1.1889e-05
1.1889e-05
1.18892e-05
1.18892e-05
1.18892e-05
1.18891e-05
1.18892e-05
1.18892e-05
1.18892e-05
1.1889e-05
1.1889e-05
1.18889e-05
1.18887e-05
1.18889e-05
1.18888e-05
1.18888e-05
1.18888e-05
1.18888e-05
1.1889e-05
1.1889e-05
1.1889e-05
1.1889e-05
1.1889e-05
1.1889e-05
1.18892e-05
1.18891e-05
1.18891e-05
1.18891e-05
1.18892e-05
1.18892e-05
1.18892e-05
1.18892e-05
1.17482e-05
1.17482e-05
1.17481e-05
1.1748e-05
1.17479e-05
1.1748e-05
1.17479e-05
1.17479e-05
1.17479e-05
1.17479e-05
1.17479e-05
1.17479e-05
1.17478e-05
1.17478e-05
1.17477e-05
1.17477e-05
1.17478e-05
1.17478e-05
1.17477e-05
1.17476e-05
1.17477e-05
1.17477e-05
1.17477e-05
1.17477e-05
1.17477e-05
1.17477e-05
1.17476e-05
1.17476e-05
1.17476e-05
1.17475e-05
1.17477e-05
1.17477e-05
1.17477e-05
1.17476e-05
1.17477e-05
1.17477e-05
1.17477e-05
1.17476e-05
1.17476e-05
1.17476e-05
1.17474e-05
1.17475e-05
1.17475e-05
1.17475e-05
1.17474e-05
1.17474e-05
1.17476e-05
1.17475e-05
1.17476e-05
1.17475e-05
1.17475e-05
1.17475e-05
1.17477e-05
1.17476e-05
1.17476e-05
1.17476e-05
1.17477e-05
1.17477e-05
1.17477e-05
1.17477e-05
1.16015e-05
1.16015e-05
1.16014e-05
1.16013e-05
1.16012e-05
1.16013e-05
1.16012e-05
1.16012e-05
1.16012e-05
1.16012e-05
1.16012e-05
1.16012e-05
1.16012e-05
1.16012e-05
1.16011e-05
1.16011e-05
1.16011e-05
1.16011e-05
1.16011e-05
1.1601e-05
1.1601e-05
1.16011e-05
1.16011e-05
1.1601e-05
1.16011e-05
1.1601e-05
1.1601e-05
1.1601e-05
1.1601e-05
1.16009e-05
1.1601e-05
1.1601e-05
1.1601e-05
1.1601e-05
1.1601e-05
1.1601e-05
1.1601e-05
1.1601e-05
1.1601e-05
1.1601e-05
1.16009e-05
1.16009e-05
1.16009e-05
1.16009e-05
1.16008e-05
1.16008e-05
1.1601e-05
1.16009e-05
1.16009e-05
1.16009e-05
1.16009e-05
1.16009e-05
1.1601e-05
1.16009e-05
1.16009e-05
1.16009e-05
1.1601e-05
1.1601e-05
1.1601e-05
1.1601e-05
1.14499e-05
1.14499e-05
1.14498e-05
1.14497e-05
1.14496e-05
1.14497e-05
1.14496e-05
1.14496e-05
1.14496e-05
1.14496e-05
1.14496e-05
1.14496e-05
1.14496e-05
1.14496e-05
1.14495e-05
1.14495e-05
1.14496e-05
1.14495e-05
1.14495e-05
1.14494e-05
1.14495e-05
1.14495e-05
1.14495e-05
1.14495e-05
1.14495e-05
1.14495e-05
1.14494e-05
1.14495e-05
1.14494e-05
1.14494e-05
1.14494e-05
1.14494e-05
1.14495e-05
1.14494e-05
1.14494e-05
1.14494e-05
1.14495e-05
1.14494e-05
1.14494e-05
1.14494e-05
1.14494e-05
1.14494e-05
1.14494e-05
1.14494e-05
1.14493e-05
1.14493e-05
1.14494e-05
1.14494e-05
1.14494e-05
1.14494e-05
1.14493e-05
1.14493e-05
1.14494e-05
1.14494e-05
1.14493e-05
1.14494e-05
1.14494e-05
1.14494e-05
1.14494e-05
1.14494e-05
1.12935e-05
1.12935e-05
1.12935e-05
1.12934e-05
1.12933e-05
1.12933e-05
1.12933e-05
1.12933e-05
1.12933e-05
1.12933e-05
1.12933e-05
1.12933e-05
1.12933e-05
1.12933e-05
1.12932e-05
1.12932e-05
1.12933e-05
1.12933e-05
1.12932e-05
1.12932e-05
1.12932e-05
1.12932e-05
1.12932e-05
1.12932e-05
1.12932e-05
1.12932e-05
1.12932e-05
1.12932e-05
1.12931e-05
1.12931e-05
1.12932e-05
1.12931e-05
1.12932e-05
1.12931e-05
1.12932e-05
1.12932e-05
1.12932e-05
1.12931e-05
1.12932e-05
1.12932e-05
1.12931e-05
1.12932e-05
1.12931e-05
1.12931e-05
1.12931e-05
1.12931e-05
1.12932e-05
1.12931e-05
1.12931e-05
1.12931e-05
1.12931e-05
1.1293e-05
1.12931e-05
1.12931e-05
1.12931e-05
1.12931e-05
1.12931e-05
1.12931e-05
1.12931e-05
1.12931e-05
1.11327e-05
1.11327e-05
1.11326e-05
1.11326e-05
1.11325e-05
1.11325e-05
1.11324e-05
1.11324e-05
1.11324e-05
1.11324e-05
1.11324e-05
1.11325e-05
1.11325e-05
1.11324e-05
1.11324e-05
1.11324e-05
1.11324e-05
1.11324e-05
1.11324e-05
1.11323e-05
1.11324e-05
1.11324e-05
1.11324e-05
1.11324e-05
1.11324e-05
1.11324e-05
1.11324e-05
1.11324e-05
1.11323e-05
1.11323e-05
1.11323e-05
1.11323e-05
1.11323e-05
1.11323e-05
1.11323e-05
1.11323e-05
1.11323e-05
1.11323e-05
1.11323e-05
1.11323e-05
1.11323e-05
1.11323e-05
1.11323e-05
1.11323e-05
1.11323e-05
1.11323e-05
1.11324e-05
1.11323e-05
1.11323e-05
1.11323e-05
1.11322e-05
1.11322e-05
1.11323e-05
1.11323e-05
1.11322e-05
1.11323e-05
1.11323e-05
1.11323e-05
1.11323e-05
1.11323e-05
1.09675e-05
1.09675e-05
1.09674e-05
1.09674e-05
1.09673e-05
1.09673e-05
1.09672e-05
1.09672e-05
1.09673e-05
1.09673e-05
1.09673e-05
1.09673e-05
1.09673e-05
1.09672e-05
1.09672e-05
1.09672e-05
1.09672e-05
1.09672e-05
1.09672e-05
1.09672e-05
1.09672e-05
1.09672e-05
1.09672e-05
1.09672e-05
1.09672e-05
1.09672e-05
1.09672e-05
1.09672e-05
1.09671e-05
1.09671e-05
1.09671e-05
1.09671e-05
1.09672e-05
1.09671e-05
1.09671e-05
1.09671e-05
1.09672e-05
1.09671e-05
1.09671e-05
1.09671e-05
1.09671e-05
1.09672e-05
1.09672e-05
1.09671e-05
1.09671e-05
1.09671e-05
1.09672e-05
1.09672e-05
1.09672e-05
1.09671e-05
1.09671e-05
1.09671e-05
1.09671e-05
1.09671e-05
1.09671e-05
1.09671e-05
1.09671e-05
1.09671e-05
1.09671e-05
1.09671e-05
1.07982e-05
1.07982e-05
1.07982e-05
1.07981e-05
1.0798e-05
1.0798e-05
1.0798e-05
1.0798e-05
1.0798e-05
1.0798e-05
1.0798e-05
1.0798e-05
1.0798e-05
1.0798e-05
1.07979e-05
1.07979e-05
1.0798e-05
1.0798e-05
1.07979e-05
1.07979e-05
1.07979e-05
1.0798e-05
1.0798e-05
1.07979e-05
1.0798e-05
1.0798e-05
1.07979e-05
1.07979e-05
1.07979e-05
1.07978e-05
1.07979e-05
1.07979e-05
1.07979e-05
1.07979e-05
1.07979e-05
1.07979e-05
1.07979e-05
1.07979e-05
1.07979e-05
1.07979e-05
1.07979e-05
1.07979e-05
1.07979e-05
1.07979e-05
1.07979e-05
1.07979e-05
1.07979e-05
1.07979e-05
1.07979e-05
1.07979e-05
1.07978e-05
1.07978e-05
1.07979e-05
1.07979e-05
1.07978e-05
1.07978e-05
1.07979e-05
1.07979e-05
1.07979e-05
1.07979e-05
1.06252e-05
1.06252e-05
1.06252e-05
1.06252e-05
1.06251e-05
1.06251e-05
1.0625e-05
1.0625e-05
1.0625e-05
1.0625e-05
1.0625e-05
1.0625e-05
1.0625e-05
1.0625e-05
1.0625e-05
1.0625e-05
1.0625e-05
1.0625e-05
1.0625e-05
1.0625e-05
1.0625e-05
1.0625e-05
1.0625e-05
1.0625e-05
1.0625e-05
1.0625e-05
1.0625e-05
1.0625e-05
1.06249e-05
1.06249e-05
1.06249e-05
1.06249e-05
1.06249e-05
1.06249e-05
1.06249e-05
1.06249e-05
1.06249e-05
1.06249e-05
1.06249e-05
1.06249e-05
1.06249e-05
1.06249e-05
1.06249e-05
1.06249e-05
1.06249e-05
1.06249e-05
1.0625e-05
1.0625e-05
1.0625e-05
1.06249e-05
1.06249e-05
1.06249e-05
1.06249e-05
1.06249e-05
1.06249e-05
1.06249e-05
1.06249e-05
1.06249e-05
1.06249e-05
1.06249e-05
1.04492e-05
1.04492e-05
1.04492e-05
1.04492e-05
1.04491e-05
1.04491e-05
1.0449e-05
1.0449e-05
1.0449e-05
1.0449e-05
1.0449e-05
1.0449e-05
1.0449e-05
1.0449e-05
1.0449e-05
1.0449e-05
1.0449e-05
1.0449e-05
1.0449e-05
1.0449e-05
1.0449e-05
1.0449e-05
1.0449e-05
1.0449e-05
1.0449e-05
1.0449e-05
1.0449e-05
1.0449e-05
1.04489e-05
1.04489e-05
1.04489e-05
1.04489e-05
1.04489e-05
1.04489e-05
1.04489e-05
1.04489e-05
1.04489e-05
1.04489e-05
1.04489e-05
1.04489e-05
1.04489e-05
1.0449e-05
1.0449e-05
1.0449e-05
1.0449e-05
1.0449e-05
1.0449e-05
1.0449e-05
1.0449e-05
1.0449e-05
1.04489e-05
1.04489e-05
1.04489e-05
1.04489e-05
1.04489e-05
1.04489e-05
1.04489e-05
1.04489e-05
1.04489e-05
1.04489e-05
1.02713e-05
1.02713e-05
1.02713e-05
1.02712e-05
1.02712e-05
1.02712e-05
1.02711e-05
1.02711e-05
1.02711e-05
1.02711e-05
1.02711e-05
1.02711e-05
1.02711e-05
1.02711e-05
1.02711e-05
1.02711e-05
1.02711e-05
1.02711e-05
1.02711e-05
1.02711e-05
1.02711e-05
1.02711e-05
1.02711e-05
1.02711e-05
1.02711e-05
1.02711e-05
1.02711e-05
1.02711e-05
1.02711e-05
1.0271e-05
1.0271e-05
1.0271e-05
1.0271e-05
1.0271e-05
1.0271e-05
1.0271e-05
1.0271e-05
1.0271e-05
1.0271e-05
1.02711e-05
1.0271e-05
1.02711e-05
1.02711e-05
1.02711e-05
1.02711e-05
1.02711e-05
1.02711e-05
1.02711e-05
1.02711e-05
1.02711e-05
1.0271e-05
1.0271e-05
1.02711e-05
1.0271e-05
1.0271e-05
1.0271e-05
1.0271e-05
1.0271e-05
1.0271e-05
1.02711e-05
1.00935e-05
1.00935e-05
1.00934e-05
1.00934e-05
1.00934e-05
1.00934e-05
1.00933e-05
1.00933e-05
1.00933e-05
1.00933e-05
1.00933e-05
1.00933e-05
1.00933e-05
1.00933e-05
1.00933e-05
1.00933e-05
1.00933e-05
1.00933e-05
1.00933e-05
1.00933e-05
1.00933e-05
1.00933e-05
1.00933e-05
1.00933e-05
1.00933e-05
1.00933e-05
1.00933e-05
1.00933e-05
1.00932e-05
1.00932e-05
1.00932e-05
1.00932e-05
1.00932e-05
1.00932e-05
1.00932e-05
1.00932e-05
1.00932e-05
1.00932e-05
1.00932e-05
1.00932e-05
1.00932e-05
1.00933e-05
1.00932e-05
1.00933e-05
1.00933e-05
1.00933e-05
1.00933e-05
1.00933e-05
1.00933e-05
1.00933e-05
1.00932e-05
1.00932e-05
1.00932e-05
1.00932e-05
1.00932e-05
1.00932e-05
1.00932e-05
1.00932e-05
1.00932e-05
1.00932e-05
9.91934e-06
9.91934e-06
9.91932e-06
9.9193e-06
9.91925e-06
9.91924e-06
9.91921e-06
9.9192e-06
9.9192e-06
9.9192e-06
9.9192e-06
9.91921e-06
9.91921e-06
9.91921e-06
9.91919e-06
9.91918e-06
9.91919e-06
9.91919e-06
9.91918e-06
9.91917e-06
9.91917e-06
9.91919e-06
9.91919e-06
9.91918e-06
9.91919e-06
9.91919e-06
9.91918e-06
9.91917e-06
9.91915e-06
9.91912e-06
9.91913e-06
9.91913e-06
9.91913e-06
9.91913e-06
9.91912e-06
9.91913e-06
9.91913e-06
9.91913e-06
9.91913e-06
9.91914e-06
9.91913e-06
9.91915e-06
9.91915e-06
9.91914e-06
9.91915e-06
9.91915e-06
9.91917e-06
9.91917e-06
9.91917e-06
9.91916e-06
9.91914e-06
9.91912e-06
9.91914e-06
9.91914e-06
9.91914e-06
9.91914e-06
9.91914e-06
9.91914e-06
9.91914e-06
9.91914e-06
7.27363e-06
7.25971e-06
7.26131e-06
7.25893e-06
7.25963e-06
7.2592e-06
7.27339e-06
7.27279e-06
7.26212e-06
7.26044e-06
7.27439e-06
7.26023e-06
7.27475e-06
7.2734e-06
7.26168e-06
7.26103e-06
7.27415e-06
7.26103e-06
7.2607e-06
7.27413e-06
7.27246e-06
7.2751e-06
7.26071e-06
7.26111e-06
7.26018e-06
7.25868e-06
7.25987e-06
7.25874e-06
7.27385e-06
7.2585e-06
7.27323e-06
7.25998e-06
7.26023e-06
7.27349e-06
7.27393e-06
7.26109e-06
7.26251e-06
7.25919e-06
7.27453e-06
7.25842e-06
7.27572e-06
7.25936e-06
7.27531e-06
7.25861e-06
7.25982e-06
7.25947e-06
7.25893e-06
7.25905e-06
7.26013e-06
7.26084e-06
7.27252e-06
7.27385e-06
7.25995e-06
7.27499e-06
7.26029e-06
7.26193e-06
7.27413e-06
7.27506e-06
7.26125e-06
7.27487e-06
1.05967e-05
1.06018e-05
1.06063e-05
1.06057e-05
1.06053e-05
1.06055e-05
1.05998e-05
1.05947e-05
1.06027e-05
1.06061e-05
1.05994e-05
1.06039e-05
1.06002e-05
1.0596e-05
1.06029e-05
1.06064e-05
1.05993e-05
1.0604e-05
1.06066e-05
1.06006e-05
1.05955e-05
1.05959e-05
1.06026e-05
1.06056e-05
1.06063e-05
1.06054e-05
1.06055e-05
1.06052e-05
1.05992e-05
1.06027e-05
1.05976e-05
1.06022e-05
1.06057e-05
1.05994e-05
1.05958e-05
1.06019e-05
1.06072e-05
1.0606e-05
1.05997e-05
1.06027e-05
1.05992e-05
1.0603e-05
1.05996e-05
1.06025e-05
1.06047e-05
1.0605e-05
1.06049e-05
1.0605e-05
1.06054e-05
1.06071e-05
1.05997e-05
1.05958e-05
1.06025e-05
1.0599e-05
1.06026e-05
1.06068e-05
1.06003e-05
1.05973e-05
1.0604e-05
1.06001e-05
1.18158e-05
1.18209e-05
1.18259e-05
1.18275e-05
1.18268e-05
1.18271e-05
1.18212e-05
1.18139e-05
1.18203e-05
1.18262e-05
1.18191e-05
1.18239e-05
1.18199e-05
1.1815e-05
1.18209e-05
1.18265e-05
1.18191e-05
1.18233e-05
1.18273e-05
1.18214e-05
1.18155e-05
1.18135e-05
1.18208e-05
1.18252e-05
1.18271e-05
1.18273e-05
1.18269e-05
1.1827e-05
1.18196e-05
1.18236e-05
1.18175e-05
1.18216e-05
1.18261e-05
1.182e-05
1.18144e-05
1.18198e-05
1.18261e-05
1.18273e-05
1.18198e-05
1.18236e-05
1.1818e-05
1.18229e-05
1.18184e-05
1.18229e-05
1.18252e-05
1.18261e-05
1.18263e-05
1.18265e-05
1.18263e-05
1.1828e-05
1.18214e-05
1.18148e-05
1.18218e-05
1.18178e-05
1.18218e-05
1.18266e-05
1.18206e-05
1.18157e-05
1.18229e-05
1.18193e-05
1.23325e-05
1.23356e-05
1.23396e-05
1.23426e-05
1.23423e-05
1.23426e-05
1.23388e-05
1.23316e-05
1.23343e-05
1.23402e-05
1.23355e-05
1.23386e-05
1.23363e-05
1.23318e-05
1.23348e-05
1.23405e-05
1.23356e-05
1.23377e-05
1.23416e-05
1.23382e-05
1.23335e-05
1.23297e-05
1.23346e-05
1.23389e-05
1.23414e-05
1.23428e-05
1.23423e-05
1.23426e-05
1.23367e-05
1.23393e-05
1.23346e-05
1.23365e-05
1.23405e-05
1.23369e-05
1.23314e-05
1.23341e-05
1.2339e-05
1.23422e-05
1.23365e-05
1.23391e-05
1.23343e-05
1.23378e-05
1.23344e-05
1.23378e-05
1.23399e-05
1.23412e-05
1.23416e-05
1.23421e-05
1.23415e-05
1.23427e-05
1.2339e-05
1.23321e-05
1.23365e-05
1.23337e-05
1.23362e-05
1.23405e-05
1.23372e-05
1.23321e-05
1.2337e-05
1.23351e-05
1.25358e-05
1.25374e-05
1.25398e-05
1.25432e-05
1.25434e-05
1.25438e-05
1.25418e-05
1.25364e-05
1.25366e-05
1.25403e-05
1.2538e-05
1.25398e-05
1.25387e-05
1.25356e-05
1.25365e-05
1.25406e-05
1.25381e-05
1.25391e-05
1.25419e-05
1.25405e-05
1.25378e-05
1.25335e-05
1.25359e-05
1.25392e-05
1.25415e-05
1.25437e-05
1.25436e-05
1.2544e-05
1.254e-05
1.25413e-05
1.25382e-05
1.25387e-05
1.25412e-05
1.25396e-05
1.25355e-05
1.25362e-05
1.25386e-05
1.25426e-05
1.25391e-05
1.25409e-05
1.25373e-05
1.25394e-05
1.25369e-05
1.25392e-05
1.25409e-05
1.25423e-05
1.25428e-05
1.25435e-05
1.25429e-05
1.25434e-05
1.25418e-05
1.25365e-05
1.25384e-05
1.25365e-05
1.25377e-05
1.25407e-05
1.25394e-05
1.25356e-05
1.25381e-05
1.25373e-05
1.25857e-05
1.25864e-05
1.25876e-05
1.25902e-05
1.2591e-05
1.25916e-05
1.25907e-05
1.25876e-05
1.25861e-05
1.2588e-05
1.2587e-05
1.25881e-05
1.25875e-05
1.25859e-05
1.25857e-05
1.2588e-05
1.25871e-05
1.25875e-05
1.25893e-05
1.25889e-05
1.25878e-05
1.25845e-05
1.25852e-05
1.25869e-05
1.25886e-05
1.2591e-05
1.25912e-05
1.2592e-05
1.25894e-05
1.25901e-05
1.25882e-05
1.25879e-05
1.25891e-05
1.25885e-05
1.25861e-05
1.25857e-05
1.25864e-05
1.25896e-05
1.25879e-05
1.25893e-05
1.25869e-05
1.2588e-05
1.25862e-05
1.25876e-05
1.25887e-05
1.25901e-05
1.25906e-05
1.25914e-05
1.25911e-05
1.25911e-05
1.25905e-05
1.25871e-05
1.25875e-05
1.25861e-05
1.25866e-05
1.25882e-05
1.25879e-05
1.25856e-05
1.25867e-05
1.25861e-05
1.25563e-05
1.25567e-05
1.25571e-05
1.25587e-05
1.25598e-05
1.25605e-05
1.25602e-05
1.25589e-05
1.25569e-05
1.25577e-05
1.25571e-05
1.25578e-05
1.25574e-05
1.25568e-05
1.25561e-05
1.25573e-05
1.2557e-05
1.25572e-05
1.25582e-05
1.25582e-05
1.25581e-05
1.25561e-05
1.25559e-05
1.25565e-05
1.25575e-05
1.25596e-05
1.256e-05
1.25609e-05
1.25595e-05
1.25598e-05
1.25588e-05
1.25582e-05
1.25586e-05
1.25584e-05
1.25572e-05
1.25566e-05
1.25563e-05
1.25582e-05
1.25576e-05
1.25588e-05
1.25573e-05
1.2558e-05
1.25566e-05
1.25574e-05
1.25581e-05
1.25591e-05
1.25596e-05
1.25605e-05
1.25604e-05
1.25601e-05
1.256e-05
1.25582e-05
1.2558e-05
1.25567e-05
1.25568e-05
1.25574e-05
1.25575e-05
1.25563e-05
1.25566e-05
1.25562e-05
1.24841e-05
1.24845e-05
1.24845e-05
1.24853e-05
1.24861e-05
1.2487e-05
1.24869e-05
1.24866e-05
1.24852e-05
1.24852e-05
1.24847e-05
1.24851e-05
1.24848e-05
1.24847e-05
1.24841e-05
1.24845e-05
1.24845e-05
1.24846e-05
1.2485e-05
1.24851e-05
1.24854e-05
1.24845e-05
1.2484e-05
1.24841e-05
1.24846e-05
1.24859e-05
1.24863e-05
1.24873e-05
1.24867e-05
1.24869e-05
1.24864e-05
1.24859e-05
1.24858e-05
1.24858e-05
1.24853e-05
1.24848e-05
1.24839e-05
1.24851e-05
1.24848e-05
1.24857e-05
1.24849e-05
1.24854e-05
1.24844e-05
1.24849e-05
1.24852e-05
1.24859e-05
1.24863e-05
1.2487e-05
1.24872e-05
1.24869e-05
1.24869e-05
1.24861e-05
1.24858e-05
1.24846e-05
1.24847e-05
1.24846e-05
1.24848e-05
1.24842e-05
1.24842e-05
1.24838e-05
1.23875e-05
1.23879e-05
1.23877e-05
1.23881e-05
1.23886e-05
1.23894e-05
1.23894e-05
1.23895e-05
1.23888e-05
1.23886e-05
1.2388e-05
1.23883e-05
1.23879e-05
1.23881e-05
1.23877e-05
1.23877e-05
1.23877e-05
1.23877e-05
1.23879e-05
1.23879e-05
1.23884e-05
1.2388e-05
1.23877e-05
1.23876e-05
1.23877e-05
1.23884e-05
1.23888e-05
1.23896e-05
1.23894e-05
1.23896e-05
1.23894e-05
1.23892e-05
1.23889e-05
1.23889e-05
1.23887e-05
1.23885e-05
1.23876e-05
1.23881e-05
1.23879e-05
1.23886e-05
1.23881e-05
1.23885e-05
1.23879e-05
1.23881e-05
1.23883e-05
1.23886e-05
1.2389e-05
1.23895e-05
1.23898e-05
1.23895e-05
1.23896e-05
1.23893e-05
1.23891e-05
1.23882e-05
1.23882e-05
1.23878e-05
1.23879e-05
1.23876e-05
1.23876e-05
1.23872e-05
1.2276e-05
1.22762e-05
1.22761e-05
1.22762e-05
1.22764e-05
1.2277e-05
1.2277e-05
1.22774e-05
1.22771e-05
1.22769e-05
1.22764e-05
1.22765e-05
1.22762e-05
1.22764e-05
1.22763e-05
1.2276e-05
1.2276e-05
1.2276e-05
1.2276e-05
1.2276e-05
1.22764e-05
1.22763e-05
1.22762e-05
1.2276e-05
1.22761e-05
1.22763e-05
1.22766e-05
1.22772e-05
1.22772e-05
1.22775e-05
1.22774e-05
1.22773e-05
1.22771e-05
1.2277e-05
1.22769e-05
1.22769e-05
1.22762e-05
1.22764e-05
1.22762e-05
1.22767e-05
1.22764e-05
1.22767e-05
1.22763e-05
1.22764e-05
1.22765e-05
1.22766e-05
1.22769e-05
1.22772e-05
1.22775e-05
1.22774e-05
1.22774e-05
1.22774e-05
1.22773e-05
1.22767e-05
1.22766e-05
1.22763e-05
1.22762e-05
1.2276e-05
1.22759e-05
1.22756e-05
1.21543e-05
1.21544e-05
1.21543e-05
1.21543e-05
1.21544e-05
1.21547e-05
1.21547e-05
1.21551e-05
1.2155e-05
1.21549e-05
1.21546e-05
1.21546e-05
1.21544e-05
1.21545e-05
1.21545e-05
1.21542e-05
1.21542e-05
1.21542e-05
1.21541e-05
1.2154e-05
1.21543e-05
1.21543e-05
1.21543e-05
1.21543e-05
1.21543e-05
1.21544e-05
1.21545e-05
1.21549e-05
1.21549e-05
1.21552e-05
1.21552e-05
1.21552e-05
1.21551e-05
1.2155e-05
1.2155e-05
1.2155e-05
1.21546e-05
1.21546e-05
1.21544e-05
1.21547e-05
1.21545e-05
1.21547e-05
1.21545e-05
1.21546e-05
1.21546e-05
1.21547e-05
1.21549e-05
1.2155e-05
1.21552e-05
1.21551e-05
1.21552e-05
1.21552e-05
1.21552e-05
1.21548e-05
1.21548e-05
1.21545e-05
1.21544e-05
1.21542e-05
1.21542e-05
1.21539e-05
1.20249e-05
1.2025e-05
1.20248e-05
1.20248e-05
1.20248e-05
1.2025e-05
1.2025e-05
1.20253e-05
1.20253e-05
1.20252e-05
1.2025e-05
1.20251e-05
1.20249e-05
1.2025e-05
1.2025e-05
1.20248e-05
1.20248e-05
1.20247e-05
1.20246e-05
1.20245e-05
1.20247e-05
1.20247e-05
1.20248e-05
1.20248e-05
1.20248e-05
1.20248e-05
1.20249e-05
1.20251e-05
1.20251e-05
1.20253e-05
1.20253e-05
1.20255e-05
1.20254e-05
1.20254e-05
1.20254e-05
1.20254e-05
1.20251e-05
1.20251e-05
1.20249e-05
1.20251e-05
1.2025e-05
1.20251e-05
1.2025e-05
1.20251e-05
1.20251e-05
1.20251e-05
1.20252e-05
1.20253e-05
1.20254e-05
1.20254e-05
1.20254e-05
1.20255e-05
1.20255e-05
1.20253e-05
1.20253e-05
1.20251e-05
1.20249e-05
1.20248e-05
1.20247e-05
1.20245e-05
1.18892e-05
1.18892e-05
1.18891e-05
1.1889e-05
1.1889e-05
1.18891e-05
1.1889e-05
1.18893e-05
1.18893e-05
1.18892e-05
1.18891e-05
1.18892e-05
1.18891e-05
1.18891e-05
1.18891e-05
1.1889e-05
1.18889e-05
1.18889e-05
1.18888e-05
1.18887e-05
1.18888e-05
1.18888e-05
1.18889e-05
1.18889e-05
1.18889e-05
1.18889e-05
1.1889e-05
1.18891e-05
1.18891e-05
1.18893e-05
1.18893e-05
1.18894e-05
1.18894e-05
1.18894e-05
1.18894e-05
1.18895e-05
1.18893e-05
1.18893e-05
1.18891e-05
1.18892e-05
1.18891e-05
1.18893e-05
1.18891e-05
1.18892e-05
1.18892e-05
1.18892e-05
1.18893e-05
1.18893e-05
1.18894e-05
1.18894e-05
1.18894e-05
1.18894e-05
1.18895e-05
1.18893e-05
1.18894e-05
1.18893e-05
1.18891e-05
1.1889e-05
1.1889e-05
1.18888e-05
1.17478e-05
1.17478e-05
1.17477e-05
1.17477e-05
1.17476e-05
1.17476e-05
1.17476e-05
1.17477e-05
1.17477e-05
1.17477e-05
1.17476e-05
1.17477e-05
1.17476e-05
1.17476e-05
1.17477e-05
1.17475e-05
1.17475e-05
1.17475e-05
1.17474e-05
1.17473e-05
1.17474e-05
1.17474e-05
1.17474e-05
1.17474e-05
1.17475e-05
1.17475e-05
1.17475e-05
1.17476e-05
1.17476e-05
1.17477e-05
1.17477e-05
1.17478e-05
1.17478e-05
1.17478e-05
1.17478e-05
1.17479e-05
1.17478e-05
1.17478e-05
1.17477e-05
1.17478e-05
1.17477e-05
1.17478e-05
1.17477e-05
1.17478e-05
1.17478e-05
1.17478e-05
1.17478e-05
1.17478e-05
1.17479e-05
1.17478e-05
1.17478e-05
1.17478e-05
1.17479e-05
1.17478e-05
1.17479e-05
1.17478e-05
1.17477e-05
1.17476e-05
1.17476e-05
1.17474e-05
1.16012e-05
1.16012e-05
1.16012e-05
1.16011e-05
1.1601e-05
1.1601e-05
1.16009e-05
1.1601e-05
1.1601e-05
1.1601e-05
1.1601e-05
1.1601e-05
1.16009e-05
1.1601e-05
1.1601e-05
1.16009e-05
1.16009e-05
1.16009e-05
1.16008e-05
1.16007e-05
1.16008e-05
1.16008e-05
1.16008e-05
1.16008e-05
1.16008e-05
1.16008e-05
1.16009e-05
1.16009e-05
1.16009e-05
1.1601e-05
1.1601e-05
1.16011e-05
1.16011e-05
1.16011e-05
1.16011e-05
1.16012e-05
1.16011e-05
1.16011e-05
1.1601e-05
1.16011e-05
1.16011e-05
1.16011e-05
1.16011e-05
1.16011e-05
1.16011e-05
1.16011e-05
1.16012e-05
1.16012e-05
1.16012e-05
1.16012e-05
1.16011e-05
1.16011e-05
1.16012e-05
1.16011e-05
1.16012e-05
1.16012e-05
1.1601e-05
1.1601e-05
1.1601e-05
1.16008e-05
1.14497e-05
1.14497e-05
1.14497e-05
1.14496e-05
1.14495e-05
1.14495e-05
1.14494e-05
1.14495e-05
1.14495e-05
1.14494e-05
1.14494e-05
1.14494e-05
1.14494e-05
1.14494e-05
1.14494e-05
1.14494e-05
1.14494e-05
1.14493e-05
1.14493e-05
1.14492e-05
1.14492e-05
1.14492e-05
1.14493e-05
1.14493e-05
1.14493e-05
1.14493e-05
1.14493e-05
1.14493e-05
1.14493e-05
1.14494e-05
1.14494e-05
1.14495e-05
1.14495e-05
1.14495e-05
1.14495e-05
1.14496e-05
1.14495e-05
1.14495e-05
1.14494e-05
1.14495e-05
1.14495e-05
1.14496e-05
1.14495e-05
1.14495e-05
1.14496e-05
1.14496e-05
1.14496e-05
1.14496e-05
1.14496e-05
1.14496e-05
1.14495e-05