/*--------------------------------*- C++ -*----------------------------------*\
| =========                 |                                                 |
| \\      /  F ield         | OpenFOAM: The Open Source CFD Toolbox           |
|  \\    /   O peration     | Version:  2312                                  |
|   \\  /    A nd           | Website:  www.openfoam.com                      |
|    \\/     M anipulation  |                                                 |
\*---------------------------------------------------------------------------*/
FoamFile
{
    version     2.0;
    format      ascii;
    arch        "LSB;label=32;scalar=64";
    class       volScalarField;
    location    "1000";
    object      p;
}
// * * * * * * * * * * * * * * * * * * * * * * * * * * * * * * * * * * * * * //

dimensions      [0 2 -2 0 0 0 0];

internalField   nonuniform List<scalar> 
144000
(
2.90816e-10
-1.38653e-08
-9.08476e-08
-1.19879e-07
3.59949e-08
-1.5076e-08
-3.97161e-08
1.21822e-07
1.45053e-07
3.58393e-08
-6.15701e-09
-3.7879e-09
-5.87576e-08
-9.15865e-08
-1.91669e-08
1.16331e-07
4.87129e-08
-6.37425e-08
-1.242e-07
5.71922e-09
2.08258e-07
9.90847e-08
-6.91366e-08
4.1406e-08
3.72907e-08
-1.07289e-07
3.87945e-08
-7.16287e-09
-1.10585e-07
6.58827e-08
7.06856e-08
7.1622e-08
1.17761e-08
9.55248e-09
1.65583e-07
1.78796e-07
1.50429e-08
3.34228e-08
1.04555e-07
-7.0183e-08
7.94921e-08
1.23113e-07
1.46764e-09
-3.38941e-08
7.19353e-09
1.74632e-07
9.10255e-08
-5.50493e-08
-4.93671e-08
-8.66277e-08
-1.14965e-07
8.98153e-08
6.09988e-08
-1.46211e-07
-2.69958e-08
1.20946e-07
4.91075e-08
-2.50387e-08
-2.46558e-08
-1.67714e-08
3.51409e-10
-1.34542e-08
-8.98352e-08
-1.09317e-07
3.47745e-08
-1.44723e-08
-2.94815e-08
1.20282e-07
1.33248e-07
2.57049e-08
-4.98397e-09
-3.35125e-09
-5.80493e-08
-7.94159e-08
-1.00597e-08
1.0338e-07
3.83483e-08
-6.18896e-08
-1.12375e-07
1.41893e-08
1.94828e-07
9.01338e-08
-5.63203e-08
4.00445e-08
2.73315e-08
-9.50015e-08
3.73809e-08
-1.74092e-08
-9.90342e-08
6.49793e-08
7.05121e-08
7.14933e-08
1.23341e-08
2.00641e-08
1.63958e-07
1.6795e-07
1.63695e-08
3.23294e-08
9.46427e-08
-5.80219e-08
7.80648e-08
1.12293e-07
2.90126e-09
-2.15613e-08
1.6199e-08
1.61704e-07
8.10581e-08
-5.38921e-08
-4.89226e-08
-8.55966e-08
-1.04311e-07
8.79591e-08
5.08677e-08
-1.33349e-07
-1.79385e-08
1.07731e-07
3.87573e-08
-2.4083e-08
-2.41727e-08
-1.68687e-08
1.75438e-10
-1.30125e-08
-8.80234e-08
-1.05738e-07
3.2952e-08
-1.33278e-08
-2.61688e-08
1.17557e-07
1.28078e-07
2.29489e-08
-3.22164e-09
-2.74795e-09
-5.68723e-08
-7.37689e-08
-8.47878e-09
9.65055e-08
3.51765e-08
-5.86215e-08
-1.068e-07
1.48765e-08
1.87281e-07
8.86274e-08
-5.04644e-08
3.76174e-08
2.48744e-08
-8.97123e-08
3.51197e-08
-2.01239e-08
-9.42567e-08
6.36629e-08
7.00495e-08
7.13896e-08
1.34405e-08
2.35994e-08
1.61132e-07
1.63902e-07
1.84007e-08
3.08068e-08
9.21461e-08
-5.26516e-08
7.55471e-08
1.08366e-07
5.44636e-09
-1.56924e-08
1.76357e-08
1.54755e-07
7.82478e-08
-5.20751e-08
-4.83134e-08
-8.35799e-08
-1.00824e-07
8.48234e-08
4.80797e-08
-1.2687e-07
-1.62577e-08
1.00955e-07
3.55605e-08
-2.26103e-08
-2.34223e-08
-1.69627e-08
-1.47281e-10
-1.28096e-08
-8.55524e-08
-1.02957e-07
3.05698e-08
-1.17174e-08
-2.39493e-08
1.1337e-07
1.23578e-07
2.19572e-08
-1.22179e-09
-2.04649e-09
-5.51771e-08
-6.9108e-08
-8.73114e-09
8.96822e-08
3.33842e-08
-5.45818e-08
-1.01374e-07
1.38353e-08
1.79414e-07
8.86519e-08
-4.50667e-08
3.4543e-08
2.38881e-08
-8.49835e-08
3.20233e-08
-2.09745e-08
-9.00108e-08
6.18704e-08
6.94696e-08
7.12527e-08
1.53582e-08
2.60264e-08
1.57186e-07
1.60527e-07
2.08493e-08
2.91958e-08
9.08617e-08
-4.75087e-08
7.21564e-08
1.05422e-07
8.68721e-09
-1.05007e-08
1.74395e-08
1.47597e-07
7.6782e-08
-4.96884e-08
-4.7791e-08
-8.08085e-08
-9.80764e-08
8.04251e-08
4.70019e-08
-1.20349e-07
-1.64622e-08
9.44418e-08
3.37999e-08
-2.08766e-08
-2.25527e-08
-1.68954e-08
-5.46474e-10
-1.28208e-08
-8.24444e-08
-9.97555e-08
2.78432e-08
-9.77127e-09
-2.1682e-08
1.08173e-07
1.18649e-07
2.1314e-08
9.13106e-10
-1.157e-09
-5.29788e-08
-6.4212e-08
-9.45824e-09
8.20072e-08
3.16234e-08
-4.99725e-08
-9.49375e-08
1.25251e-08
1.70372e-07
8.87214e-08
-3.91455e-08
3.09723e-08
2.30513e-08
-7.97799e-08
2.82644e-08
-2.12032e-08
-8.52843e-08
5.9674e-08
6.88002e-08
7.10602e-08
1.80931e-08
2.84569e-08
1.51654e-07
1.56577e-07
2.38447e-08
2.75293e-08
8.95357e-08
-4.15791e-08
6.80649e-08
1.02197e-07
1.23708e-08
-4.85753e-09
1.70345e-08
1.3931e-07
7.53184e-08
-4.67896e-08
-4.73122e-08
-7.73395e-08
-9.48354e-08
7.47051e-08
4.58845e-08
-1.12634e-07
-1.72011e-08
8.70835e-08
3.21196e-08
-1.89868e-08
-2.15976e-08
-1.6639e-08
-9.78105e-10
-1.29699e-08
-7.88012e-08
-9.62022e-08
2.47467e-08
-7.6405e-09
-1.94333e-08
1.02341e-07
1.13446e-07
2.08367e-08
3.01901e-09
-3.0533e-11
-5.03631e-08
-5.87864e-08
-1.0436e-08
7.38348e-08
2.98251e-08
-4.50224e-08
-8.78031e-08
1.11726e-08
1.60678e-07
8.86944e-08
-3.29253e-08
2.71232e-08
2.2269e-08
-7.42787e-08
2.41575e-08
-2.08948e-08
-8.02569e-08
5.71973e-08
6.80522e-08
7.08259e-08
2.11321e-08
3.08185e-08
1.45492e-07
1.5209e-07
2.74104e-08
2.58554e-08
8.8126e-08
-3.50549e-08
6.35539e-08
9.87109e-08
1.61418e-08
1.09054e-09
1.66299e-08
1.30216e-07
7.37655e-08
-4.35176e-08
-4.68297e-08
-7.33125e-08
-9.11686e-08
6.81639e-08
4.47236e-08
-1.04246e-07
-1.82745e-08
7.90752e-08
3.04025e-08
-1.70601e-08
-2.05456e-08
-1.62177e-08
-1.41399e-09
-1.31885e-08
-7.47887e-08
-9.24474e-08
2.13618e-08
-5.44192e-09
-1.73e-08
9.6115e-08
1.08176e-07
2.04944e-08
4.91166e-09
1.30244e-09
-4.74628e-08
-5.34702e-08
-1.15736e-08
6.55659e-08
2.79871e-08
-3.99812e-08
-8.03398e-08
9.89578e-09
1.50632e-07
8.83971e-08
-2.66847e-08
2.32356e-08
2.15199e-08
-6.87112e-08
1.99747e-08
-2.0083e-08
-7.51102e-08
5.45351e-08
6.72255e-08
7.05693e-08
2.43379e-08
3.30241e-08
1.39022e-07
1.47194e-07
3.13659e-08
2.42782e-08
8.66375e-08
-2.81343e-08
5.88761e-08
9.51519e-08
1.98519e-08
7.07432e-09
1.63428e-08
1.20741e-07
7.21305e-08
-4.0006e-08
-4.63309e-08
-6.89473e-08
-8.72168e-08
6.12355e-08
4.35435e-08
-9.57035e-08
-1.95358e-08
7.11048e-08
2.86565e-08
-1.51979e-08
-1.94361e-08
-1.56943e-08
-1.84589e-09
-1.34242e-08
-7.05688e-08
-8.85623e-08
1.78491e-08
-3.28695e-09
-1.52738e-08
8.96752e-08
1.02903e-07
2.02648e-08
6.47899e-09
2.76723e-09
-4.44076e-08
-4.84685e-08
-1.26994e-08
5.74671e-08
2.62952e-08
-3.50293e-08
-7.27838e-08
8.79323e-09
1.40542e-07
8.77472e-08
-2.05786e-08
1.94964e-08
2.07403e-08
-6.31896e-08
1.5899e-08
-1.88676e-08
-6.99006e-08
5.17524e-08
6.63045e-08
7.02946e-08
2.76622e-08
3.51052e-08
1.32443e-07
1.41968e-07
3.55084e-08
2.29032e-08
8.50202e-08
-2.08603e-08
5.42511e-08
9.1571e-08
2.33639e-08
1.29434e-08
1.6293e-08
1.11196e-07
7.03728e-08
-3.63347e-08
-4.57961e-08
-6.44598e-08
-8.30579e-08
5.41169e-08
4.22928e-08
-8.72626e-08
-2.08695e-08
6.34172e-08
2.68676e-08
-1.34528e-08
-1.8317e-08
-1.51424e-08
-2.2797e-09
-1.36416e-08
-6.6268e-08
-8.45961e-08
1.4335e-08
-1.23356e-09
-1.33242e-08
8.31483e-08
9.76437e-08
2.01447e-08
7.68867e-09
4.29288e-09
-4.12832e-08
-4.38177e-08
-1.36861e-08
4.97317e-08
2.46101e-08
-3.02789e-08
-6.52872e-08
7.90788e-09
1.3064e-07
8.67353e-08
-1.47278e-08
1.6021e-08
1.989e-08
-5.77584e-08
1.20372e-08
-1.73539e-08
-6.46597e-08
4.89037e-08
6.52698e-08
6.99851e-08
3.10516e-08
3.71884e-08
1.25872e-07
1.36501e-07
3.96676e-08
2.17831e-08
8.32117e-08
-1.34543e-08
4.9829e-08
8.79881e-08
2.6558e-08
1.83668e-08
1.6546e-08
1.01823e-07
6.84603e-08
-3.25489e-08
-4.51882e-08
-6.00128e-08
-7.87581e-08
4.70078e-08
4.09184e-08
-7.90677e-08
-2.20859e-08
5.60806e-08
2.50372e-08
-1.18396e-08
-1.72141e-08
-1.46122e-08
-2.72127e-09
-1.38194e-08
-6.19801e-08
-8.05949e-08
1.09005e-08
6.72069e-10
-1.14327e-08
7.66348e-08
9.24481e-08
2.01338e-08
8.55696e-09
5.82638e-09
-3.81362e-08
-3.95322e-08
-1.44678e-08
4.24893e-08
2.29627e-08
-2.58041e-08
-5.79803e-08
7.25002e-09
1.21082e-07
8.53731e-08
-9.1929e-09
1.2875e-08
1.89759e-08
-5.24369e-08
8.45177e-09
-1.56394e-08
-5.94408e-08
4.60482e-08
6.41121e-08
6.96118e-08
3.44359e-08
3.91772e-08
1.19417e-07
1.30894e-07
4.37068e-08
2.09487e-08
8.11897e-08
-6.45809e-09
4.57212e-08
8.44355e-08
2.93681e-08
2.32543e-08
1.71138e-08
9.27836e-08
6.63824e-08
-2.86895e-08
-4.44658e-08
-5.57138e-08
-7.43793e-08
4.00665e-08
3.93797e-08
-7.12192e-08
-2.3117e-08
4.90957e-08
2.31989e-08
-1.03586e-08
-1.61359e-08
-1.41192e-08
-3.17011e-09
-1.39439e-08
-5.77748e-08
-7.65985e-08
7.59947e-09
2.39014e-09
-9.59241e-09
7.02326e-08
8.73893e-08
2.02237e-08
9.12668e-09
7.32168e-09
-3.49901e-08
-3.56172e-08
-1.5014e-08
3.58083e-08
2.13422e-08
-2.16543e-08
-5.09767e-08
6.81935e-09
1.11969e-07
8.36783e-08
-4.01741e-09
1.01109e-08
1.80279e-08
-4.72756e-08
5.18619e-09
-1.38148e-08
-5.42956e-08
4.32503e-08
6.2835e-08
6.91476e-08
3.77297e-08
4.10251e-08
1.1325e-07
1.25233e-07
4.75191e-08
2.0486e-08
7.89622e-08
4.71826e-10
4.20345e-08
8.09507e-08
3.17784e-08
2.7547e-08
1.79744e-08
8.42366e-08
6.41344e-08
-2.48048e-08
-4.35899e-08
-5.1635e-08
-6.99772e-08
3.34041e-08
3.76494e-08
-6.37905e-08
-2.39519e-08
4.26012e-08
2.13907e-08
-9.0069e-09
-1.50842e-08
-1.36582e-08
-3.6209e-09
-1.40046e-08
-5.37029e-08
-7.26379e-08
4.47038e-09
3.88694e-09
-7.80214e-09
6.4037e-08
8.24993e-08
2.03912e-08
9.44165e-09
8.73519e-09
-3.18598e-08
-3.20646e-08
-1.53153e-08
2.97181e-08
1.9737e-08
-1.78532e-08
-4.43362e-08
6.61018e-09
1.03366e-07
8.16756e-08
7.70016e-10
7.76551e-09
1.70521e-08
-4.23242e-08
2.27753e-09
-1.19573e-08
-4.9253e-08
4.05678e-08
6.14553e-08
6.85742e-08
4.0855e-08
4.27435e-08
1.07454e-07
1.19584e-07
5.10202e-08
2.04285e-08
7.65382e-08
7.14288e-09
3.88512e-08
7.75661e-08
3.37991e-08
3.12185e-08
1.90892e-08
7.62767e-08
6.1713e-08
-2.09493e-08
-4.25281e-08
-4.78266e-08
-6.56021e-08
2.71188e-08
3.57159e-08
-5.6834e-08
-2.45833e-08
3.62479e-08
1.96264e-08
-7.77691e-09
-1.40596e-08
-1.32185e-08
-4.06635e-09
-1.39937e-08
-4.97982e-08
-6.87363e-08
1.54192e-09
5.13744e-09
-6.06376e-09
5.81222e-08
7.78468e-08
2.06102e-08
9.53745e-09
1.00268e-08
-2.87577e-08
-2.88539e-08
-1.5377e-08
2.42277e-08
1.81436e-08
-1.44158e-08
-3.80981e-08
6.61033e-09
9.5314e-08
7.93993e-08
5.15314e-09
5.85506e-09
1.60443e-08
-3.76044e-08
-2.18463e-10
-1.01254e-08
-4.43316e-08
3.80336e-08
6.00015e-08
6.78832e-08
4.37556e-08
4.43415e-08
1.02071e-07
1.14005e-07
5.41414e-08
2.07694e-08
7.39456e-08
1.34622e-08
3.62219e-08
7.43082e-08
3.54505e-08
3.42703e-08
2.04079e-08
6.89627e-08
5.91226e-08
-1.718e-08
-4.12564e-08
-4.43196e-08
-6.12986e-08
2.12872e-08
3.35837e-08
-5.03843e-08
-2.49955e-08
3.05841e-08
1.78975e-08
-6.68162e-09
-1.3065e-08
-1.27893e-08
-4.4974e-09
-1.39077e-08
-4.60813e-08
-6.49095e-08
-1.16317e-09
6.12812e-09
-4.38272e-09
5.25344e-08
7.29333e-08
2.08602e-08
9.45378e-09
1.11595e-08
-2.56982e-08
-2.59545e-08
-1.52131e-08
1.93342e-08
1.65627e-08
-1.13466e-08
-3.22867e-08
6.79992e-09
8.78336e-08
7.68924e-08
9.12517e-09
4.37717e-09
1.50064e-08
-3.31289e-08
-2.30235e-09
-8.35746e-09
-3.95503e-08
3.5654e-08
5.85089e-08
6.70765e-08
4.63983e-08
4.58165e-08
9.71137e-08
1.08548e-07
5.6822e-08
2.14785e-08
7.12241e-08
1.93505e-08
3.41621e-08
7.11974e-08
3.67702e-08
3.67237e-08
2.18714e-08
6.23306e-08
5.6379e-08
-1.35516e-08
-3.97632e-08
-4.11266e-08
-5.71055e-08
1.59609e-08
3.12721e-08
-4.44616e-08
-2.5183e-08
2.50924e-08
1.61815e-08
-5.74024e-09
-1.21094e-08
-1.23557e-08
-4.90671e-09
-1.37494e-08
-4.2567e-08
-6.11671e-08
-3.62546e-09
6.86007e-09
-2.76946e-09
4.73077e-08
6.81434e-08
2.11275e-08
9.24052e-09
1.21003e-08
-2.26988e-08
-2.33321e-08
-1.48346e-08
1.50183e-08
1.49985e-08
-8.64958e-09
-2.69148e-08
7.15152e-09
8.09245e-08
7.4204e-08
1.26859e-08
3.31543e-09
1.39494e-08
-2.89133e-08
-3.98423e-09
-6.67463e-09
-3.49255e-08
3.34546e-08
5.70093e-08
6.61618e-08
4.87631e-08
4.71676e-08
9.25773e-08
1.0326e-07
5.89987e-08
2.25153e-08
6.84223e-08
2.47551e-08
3.26584e-08
6.82362e-08
3.78205e-08
3.862e-08
2.34149e-08
5.63949e-08
5.35088e-08
-1.01138e-08
-3.80523e-08
-3.825e-08
-5.3053e-08
1.11696e-08
2.88123e-08
-3.90756e-08
-2.51457e-08
2.03218e-08
1.44946e-08
-4.96569e-09
-1.12109e-08
-1.20835e-08
-5.29347e-09
-1.3531e-08
-3.92665e-08
-5.75136e-08
-5.82911e-09
7.3488e-09
-1.23971e-09
4.24626e-08
6.34605e-08
2.1396e-08
8.93906e-09
1.28273e-08
-1.97811e-08
-2.09367e-08
-1.42422e-08
1.12565e-08
1.34598e-08
-6.29717e-09
-2.19836e-08
7.63312e-09
7.45821e-08
7.13835e-08
1.584e-08
2.64355e-09
1.28909e-08
-2.4971e-08
-5.28239e-09
-5.08889e-09
-3.04701e-08
3.1459e-08
5.55272e-08
6.51501e-08
5.08401e-08
4.84078e-08
8.84452e-08
9.81864e-08
6.09854e-08
2.38954e-08
6.55935e-08
2.96346e-08
3.1677e-08
6.54366e-08
3.8657e-08
4.0022e-08
2.49738e-08
5.11265e-08
5.05456e-08
-6.91066e-09
-3.61417e-08
-3.56724e-08
-4.91638e-08
6.92518e-09
2.62457e-08
-3.42292e-08
-2.49006e-08
1.59856e-08
1.28431e-08
-4.34406e-09
-1.03856e-08
-1.18268e-08
-5.66111e-09
-1.32731e-08
-3.61932e-08
-5.39504e-08
-7.7649e-09
7.61406e-09
1.89315e-10
3.80102e-08
5.88954e-08
2.16441e-08
8.58863e-09
1.3337e-08
-1.697e-08
-1.87396e-08
-1.34619e-08
8.02433e-09
1.19597e-08
-4.30215e-09
-1.74877e-08
8.21201e-09
6.87935e-08
6.84776e-08
1.85968e-08
2.32842e-09
1.1853e-08
-2.131e-08
-6.21481e-09
-3.60833e-09
-2.61942e-08
2.96828e-08
5.40814e-08
6.40546e-08
5.2624e-08
4.95232e-08
8.46949e-08
9.33574e-08
6.23804e-08
2.53998e-08
6.27894e-08
3.39612e-08
3.11719e-08
6.28123e-08
3.93177e-08
4.09865e-08
2.64907e-08
4.65829e-08
4.75305e-08
-3.97928e-09
-3.40592e-08
-3.33646e-08
-4.54538e-08
3.22422e-09
2.36236e-08
-2.99157e-08
-2.44693e-08
1.20936e-08
1.12309e-08
-3.86718e-09
-9.6446e-09
-1.15707e-08
-6.00183e-09
-1.29982e-08
-3.33471e-08
-5.04808e-08
-9.43247e-09
7.67274e-09
1.5041e-09
3.39621e-08
5.44542e-08
2.18432e-08
8.22646e-09
1.36286e-08
-1.42908e-08
-1.67174e-08
-1.2661e-08
5.29807e-09
1.05157e-08
-2.58953e-09
-1.34253e-08
8.85771e-09
6.3537e-08
6.55295e-08
2.09702e-08
2.33198e-09
1.08589e-08
-1.79321e-08
-6.80628e-09
-2.24033e-09
-2.21055e-08
2.81347e-08
5.26868e-08
6.28906e-08
5.41145e-08
5.05062e-08
8.13022e-08
8.8804e-08
6.33117e-08
2.71184e-08
6.00572e-08
3.77217e-08
3.10865e-08
6.03671e-08
3.98401e-08
4.1574e-08
2.79162e-08
4.26338e-08
4.45107e-08
-1.34502e-09
-3.18386e-08
-3.12937e-08
-4.19349e-08
5.04035e-11
2.10012e-08
-2.60813e-08
-2.38821e-08
8.62616e-09
9.66002e-09
-3.50943e-09
-8.9912e-09
-1.13134e-08
-6.31835e-09
-1.27247e-08
-3.0721e-08
-4.71111e-08
-1.08388e-08
7.54028e-09
2.69542e-09
3.0325e-08
5.01612e-08
2.19612e-08
7.88399e-09
1.37098e-08
-1.17665e-08
-1.48478e-08
-1.17178e-08
3.05216e-09
9.14458e-09
-1.14141e-09
-9.78953e-09
9.5429e-09
5.87845e-08
6.25786e-08
2.29792e-08
2.61267e-09
9.92889e-09
-1.48341e-08
-7.08648e-09
-9.89498e-10
-1.82104e-08
2.68181e-08
5.13548e-08
6.16748e-08
5.5316e-08
5.14679e-08
7.82397e-08
8.45537e-08
6.38161e-08
2.89556e-08
5.74373e-08
4.0916e-08
3.13574e-08
5.80947e-08
4.02593e-08
4.18467e-08
2.92123e-08
3.93177e-08
4.15372e-08
9.87605e-10
-2.95161e-08
-2.94172e-08
-3.8617e-08
-2.62323e-09
1.84265e-08
-2.27106e-08
-2.31714e-08
5.55272e-09
8.13412e-09
-3.30536e-09
-8.42134e-09
-1.10357e-08
-6.61776e-09
-1.24655e-08
-2.83074e-08
-4.38497e-08
-1.19945e-08
7.24093e-09
3.75576e-09
2.70959e-08
4.60456e-08
2.19773e-08
7.58423e-09
1.3598e-08
-9.41737e-09
-1.3113e-08
-1.06794e-08
1.25705e-09
7.86105e-09
6.59662e-11
-6.56699e-09
1.0243e-08
5.45034e-08
5.96596e-08
2.46477e-08
3.12966e-09
9.08134e-09
-1.20099e-08
-7.08616e-09
1.5367e-10
-1.45153e-08
2.57295e-08
5.00933e-08
6.04243e-08
5.62347e-08
5.22782e-08
7.5472e-08
8.06257e-08
6.39341e-08
3.08572e-08
5.49638e-08
4.35556e-08
3.19212e-08
5.60002e-08
4.06017e-08
4.18657e-08
3.0347e-08
3.65165e-08
3.86574e-08
3.01366e-09
-2.71275e-08
-2.76935e-08
-3.55069e-08
-4.83272e-09
1.59364e-08
-1.97768e-08
-2.23634e-08
2.83943e-09
6.65804e-09
-3.21129e-09
-7.92889e-09
-1.07288e-08
-6.89521e-09
-1.22289e-08
-2.60996e-08
-4.07053e-08
-1.29119e-08
6.80363e-09
4.67735e-09
2.4256e-08
4.21262e-08
2.18802e-08
7.34078e-09
1.33121e-08
-7.25939e-09
-1.14986e-08
-9.57349e-09
-1.20319e-10
6.67736e-09
1.0581e-09
-3.73811e-09
1.09357e-08
5.06577e-08
5.68028e-08
2.60007e-08
3.85634e-09
8.33368e-09
-9.44967e-09
-6.83566e-09
1.17204e-09
-1.10269e-08
2.48602e-08
4.89081e-08
5.91577e-08
5.68827e-08
5.29501e-08
7.29712e-08
7.70299e-08
6.37104e-08
3.27654e-08
5.26639e-08
4.56619e-08
3.27171e-08
5.40875e-08
4.08856e-08
4.16888e-08
3.13052e-08
3.42115e-08
3.59105e-08
4.73353e-09
-2.47075e-08
-2.60859e-08
-3.26073e-08
-6.62233e-09
1.35558e-08
-1.72409e-08
-2.14757e-08
4.49653e-10
5.23327e-09
-3.21739e-09
-7.50995e-09
-1.03921e-08
-7.14739e-09
-1.20183e-08
-2.40895e-08
-3.7686e-08
-1.36059e-08
6.25769e-09
5.45527e-09
2.17792e-08
3.83232e-08
2.16628e-08
7.15901e-09
1.28747e-08
-5.30359e-09
-9.99316e-09
-8.42402e-09
-1.11561e-09
5.60485e-09
1.86136e-09
-1.27755e-09
1.16015e-08
4.72072e-08
5.40336e-08
2.70629e-08
4.72497e-09
7.70348e-09
-7.1394e-09
-6.36445e-09
2.1078e-09
-7.75036e-09
2.41947e-08
4.78024e-08
5.78959e-08
5.72792e-08
5.34899e-08
7.07088e-08
7.37663e-08
6.31924e-08
3.46319e-08
5.05572e-08
4.72647e-08
3.36873e-08
5.23541e-08
4.11211e-08
4.13709e-08
3.20826e-08
3.23383e-08
3.33277e-08
6.15935e-09
-2.22902e-08
-2.45643e-08
-2.99164e-08
-8.04115e-09
1.12958e-08
-1.50592e-08
-2.05292e-08
-1.64768e-09
3.85647e-09
-3.29654e-09
-7.16376e-09
-1.00294e-08
-7.36909e-09
-1.18328e-08
-2.2268e-08
-3.47987e-08
-1.40939e-08
5.5519e-09
6.08917e-09
1.9643e-08
3.47592e-08
2.1322e-08
7.03834e-09
1.23129e-08
-3.55471e-09
-8.58956e-09
-7.25564e-09
-1.76615e-09
4.656e-09
2.50258e-09
8.46308e-10
1.22292e-08
4.41084e-08
5.13713e-08
2.78635e-08
5.7109e-09
7.19546e-09
-5.06212e-09
-5.70274e-09
2.97059e-09
-4.68734e-09
2.37103e-08
4.67729e-08
5.66628e-08
5.74491e-08
5.3903e-08
6.86557e-08
7.0829e-08
6.24306e-08
3.64201e-08
4.86556e-08
4.84009e-08
3.47758e-08
5.0792e-08
4.13068e-08
4.09614e-08
3.26824e-08
3.08383e-08
3.09345e-08
7.31813e-09
-1.99082e-08
-2.31053e-08
-2.74294e-08
-9.13834e-09
9.17514e-09
-1.31891e-08
-1.95493e-08
-3.47606e-09
2.53625e-09
-3.46387e-09
-6.8925e-09
-9.65032e-09
-7.55338e-09
-1.16689e-08
-2.06244e-08
-3.20475e-08
-1.43934e-08
4.89263e-09
6.58415e-09
1.78211e-08
3.14452e-08
2.0861e-08
6.97424e-09
1.16558e-08
-2.01e-09
-7.28428e-09
-6.09428e-09
-2.11738e-09
3.84573e-09
3.00863e-09
2.6696e-09
1.2814e-08
4.13163e-08
4.88322e-08
2.8435e-08
6.77901e-09
6.81066e-09
-3.19885e-09
-4.88148e-09
3.77209e-09
-1.83489e-09
2.33795e-08
4.58037e-08
5.54821e-08
5.74228e-08
5.41954e-08
6.67819e-08
6.81951e-08
6.14771e-08
3.80585e-08
4.69644e-08
4.91149e-08
3.59278e-08
4.93906e-08
4.14469e-08
4.05014e-08
3.31144e-08
2.96528e-08
2.87476e-08
8.23293e-09
-1.7588e-08
-2.16918e-08
-2.51378e-08
-9.96075e-09
7.20095e-09
-1.15887e-08
-1.85513e-08
-5.057e-09
1.27723e-09
-3.72997e-09
-6.69979e-09
-9.27018e-09
-7.69559e-09
-1.15223e-08
-1.91481e-08
-2.94341e-08
-1.45265e-08
4.15958e-09
6.95043e-09
1.62836e-08
2.83844e-08
2.02889e-08
6.96101e-09
1.09304e-08
-6.62904e-10
-6.076e-09
-4.97216e-09
-2.2224e-09
3.18894e-09
3.40369e-09
4.2271e-09
1.33509e-08
3.87881e-08
4.64091e-08
2.88098e-08
7.89885e-09
6.54673e-09
-1.52971e-09
-3.93078e-09
4.52441e-09
8.14931e-10
2.31766e-08
4.4887e-08
5.43711e-08
5.72336e-08
5.43754e-08
6.50595e-08
6.58442e-08
6.03607e-08
3.96257e-08
4.54846e-08
4.94614e-08
3.70926e-08
4.81371e-08
4.15462e-08
4.00214e-08
3.33936e-08
2.87141e-08
2.67736e-08
8.92919e-09
-1.5349e-08
-2.03132e-08
-2.30288e-08
-1.05498e-08
5.37459e-09
-1.02175e-08
-1.75468e-08
-6.41288e-09
8.00205e-11
-3.97952e-09
-6.58337e-09
-8.90692e-09
1.39761e-07
5.41928e-08
-9.2134e-08
-6.58115e-08
-3.13689e-08
-1.05844e-07
-5.89949e-09
1.89556e-07
2.32421e-08
-1.26916e-07
3.74733e-08
-1.91609e-08
-4.77682e-08
1.45782e-07
1.70289e-08
-1.20047e-07
3.53698e-08
7.63412e-09
-1.42012e-07
5.99281e-09
1.72846e-07
1.75056e-07
5.14544e-08
-2.34443e-08
-3.09436e-08
-3.15807e-08
-9.56401e-09
-8.37734e-08
3.07603e-08
4.97617e-08
7.97603e-08
1.05613e-07
-6.62147e-08
6.84442e-08
2.13661e-07
8.89704e-08
-6.32686e-08
-4.69651e-08
9.63252e-08
5.95006e-08
8.85565e-08
5.5685e-08
3.75109e-08
1.12378e-07
1.99866e-08
2.55275e-08
1.2249e-08
-1.30372e-08
-5.49442e-08
-1.61384e-07
-3.98401e-08
1.59113e-07
-2.149e-08
1.3583e-09
3.81828e-08
-1.35953e-07
-3.28897e-08
1.02374e-07
-4.53748e-08
-5.94509e-08
1.2705e-07
4.46198e-08
-9.07761e-08
-6.57557e-08
-3.05245e-08
-9.40403e-08
2.41201e-09
1.76208e-07
1.43409e-08
-1.14706e-07
3.67769e-08
-1.82358e-08
-3.81386e-08
1.32792e-07
7.76214e-09
-1.07757e-07
3.39727e-08
-2.30804e-09
-1.29525e-07
1.51776e-08
1.70887e-07
1.63441e-07
4.18848e-08
-2.2237e-08
-3.02425e-08
-3.15837e-08
-8.64763e-09
-7.27805e-08
2.95263e-08
4.96063e-08
7.85115e-08
9.54874e-08
-5.3212e-08
7.70644e-08
2.00841e-07
7.9118e-08
-6.13215e-08
-3.60416e-08
9.56582e-08
5.93572e-08
8.83186e-08
5.61823e-08
3.66196e-08
1.01702e-07
2.08423e-08
2.58793e-08
1.26526e-08
-1.2773e-08
-5.39938e-08
-1.49594e-07
-3.18497e-08
1.46703e-07
-2.06105e-08
4.29202e-10
2.81287e-08
-1.23072e-07
-2.39845e-08
9.00855e-08
-4.36169e-08
-4.97037e-08
1.203e-07
4.2278e-08
-8.86234e-08
-6.56079e-08
-2.8978e-08
-8.85187e-08
3.00654e-09
1.69029e-07
1.30292e-08
-1.09512e-07
3.57179e-08
-1.66779e-08
-3.58197e-08
1.26417e-07
6.32424e-09
-1.02503e-07
3.15946e-08
-4.77077e-09
-1.22893e-07
1.73695e-08
1.67524e-07
1.57989e-07
3.94715e-08
-2.0255e-08
-2.92954e-08
-3.19327e-08
-7.00486e-09
-6.87018e-08
2.78958e-08
4.93269e-08
7.64688e-08
9.28937e-08
-4.65662e-08
7.82089e-08
1.9384e-07
7.64816e-08
-5.80247e-08
-3.21609e-08
9.45743e-08
5.87638e-08
8.80371e-08
5.68261e-08
3.50641e-08
9.79601e-08
2.21495e-08
2.6243e-08
1.30421e-08
-1.25871e-08
-5.21585e-08
-1.44118e-07
-3.15942e-08
1.41128e-07
-1.92941e-08
-9.64227e-10
2.56747e-08
-1.16393e-07
-2.27065e-08
8.44529e-08
-4.06845e-08
-4.71714e-08
1.13336e-07
4.1262e-08
-8.57577e-08
-6.53597e-08
-2.72688e-08
-8.33382e-08
1.85027e-09
1.61522e-07
1.36586e-08
-1.04785e-07
3.39866e-08
-1.45888e-08
-3.48463e-08
1.20031e-07
6.85764e-09
-9.76129e-08
2.83616e-08
-5.69162e-09
-1.16158e-07
1.81092e-08
1.63072e-07
1.52939e-07
3.85625e-08
-1.79897e-08
-2.81623e-08
-3.19432e-08
-5.08713e-09
-6.545e-08
2.60146e-08
4.91384e-08
7.40354e-08
9.15511e-08
-3.99709e-08
7.74198e-08
1.8681e-07
7.53122e-08
-5.35569e-08
-2.93097e-08
9.30262e-08
5.81371e-08
8.73818e-08
5.74923e-08
3.34103e-08
9.4979e-08
2.38643e-08
2.65274e-08
1.33655e-08
-1.25529e-08
-4.99477e-08
-1.38792e-07
-3.33143e-08
1.35693e-07
-1.7393e-08
-2.74459e-09
2.4539e-08
-1.09679e-07
-2.31978e-08
7.90975e-08
-3.70346e-08
-4.58262e-08
1.05223e-07
4.02268e-08
-8.2202e-08
-6.4958e-08
-2.54318e-08
-7.7354e-08
3.85013e-10
1.52821e-07
1.47664e-08
-9.95456e-08
3.17092e-08
-1.20046e-08
-3.39632e-08
1.12594e-07
7.96636e-09
-9.20551e-08
2.44499e-08
-6.2999e-09
-1.08468e-07
1.8705e-08
1.57601e-07
1.47136e-07
3.77942e-08
-1.5574e-08
-2.67231e-08
-3.17263e-08
-2.97228e-09
-6.17816e-08
2.38814e-08
4.90275e-08
7.12682e-08
9.01232e-08
-3.25924e-08
7.61122e-08
1.78926e-07
7.41988e-08
-4.81993e-08
-2.62643e-08
9.1072e-08
5.75054e-08
8.63062e-08
5.82929e-08
3.17124e-08
9.16861e-08
2.59129e-08
2.67828e-08
1.37013e-08
-1.25559e-08
-4.746e-08
-1.32496e-07
-3.54835e-08
1.29367e-07
-1.49889e-08
-5.25463e-09
2.3465e-08
-1.01794e-07
-2.40632e-08
7.29691e-08
-3.28125e-08
-4.44038e-08
9.63014e-08
3.90964e-08
-7.80951e-08
-6.43984e-08
-2.35158e-08
-7.07407e-08
-1.16422e-09
1.4319e-07
1.61338e-08
-9.399e-08
2.90057e-08
-9.05358e-09
-3.31372e-08
1.03978e-07
9.47505e-09
-8.60202e-08
2.01442e-08
-6.6493e-09
-1.00115e-07
1.91872e-08
1.51377e-07
1.40697e-07
3.69999e-08
-1.31515e-08
-2.49503e-08
-3.12975e-08
-7.53955e-10
-5.76955e-08
2.15767e-08
4.89644e-08
6.82895e-08
8.85452e-08
-2.47251e-08
7.44841e-08
1.70482e-07
7.30621e-08
-4.22787e-08
-2.3043e-08
8.88307e-08
5.69584e-08
8.48051e-08
5.92965e-08
3.00303e-08
8.81325e-08
2.81394e-08
2.70399e-08
1.40959e-08
-1.25151e-08
-4.4784e-08
-1.25413e-07
-3.78921e-08
1.22321e-07
-1.22333e-08
-8.1344e-09
2.23974e-08
-9.30152e-08
-2.51111e-08
6.62849e-08
-2.8289e-08
-4.28784e-08
8.70056e-08
3.78781e-08
-7.36207e-08
-6.37068e-08
-2.16572e-08
-6.38613e-08
-2.65746e-09
1.33116e-07
1.76966e-08
-8.83258e-08
2.5961e-08
-5.92752e-09
-3.23538e-08
9.51339e-08
1.12806e-08
-7.97596e-08
1.57238e-08
-6.75276e-09
-9.15351e-08
1.94776e-08
1.4472e-07
1.34093e-07
3.62745e-08
-1.0884e-08
-2.29118e-08
-3.07023e-08
1.4038e-09
-5.32845e-08
1.92234e-08
4.8939e-08
6.52974e-08
8.68505e-08
-1.67854e-08
7.26048e-08
1.61904e-07
7.20183e-08
-3.61063e-08
-1.98942e-08
8.63846e-08
5.6399e-08
8.29304e-08
6.04221e-08
2.85039e-08
8.44206e-08
3.03755e-08
2.72965e-08
1.45496e-08
-1.2389e-08
-4.20416e-08
-1.17833e-07
-4.03945e-08
1.14762e-07
-9.22487e-09
-1.10346e-08
2.12798e-08
-8.41005e-08
-2.61726e-08
5.93574e-08
-2.37371e-08
-4.12774e-08
7.76297e-08
3.65219e-08
-6.89271e-08
-6.28963e-08
-1.99928e-08
-5.69166e-08
-3.96592e-09
1.22982e-07
1.93874e-08
-8.26427e-08
2.26561e-08
-2.81018e-09
-3.15219e-08
8.63832e-08
1.32606e-08
-7.34461e-08
1.14089e-08
-6.69555e-09
-8.30478e-08
1.95833e-08
1.37876e-07
1.27598e-07
3.56081e-08
-8.87084e-09
-2.06978e-08
-2.99933e-08
3.30987e-09
-4.86107e-08
1.69195e-08
4.89411e-08
6.24766e-08
8.50417e-08
-9.06355e-09
7.05322e-08
1.53485e-07
7.11993e-08
-2.98956e-08
-1.68765e-08
8.37694e-08
5.57265e-08
8.07112e-08
6.16101e-08
2.72718e-08
8.05998e-08
3.24939e-08
2.75389e-08
1.50384e-08
-1.21646e-08
-3.93475e-08
-1.09963e-07
-4.27934e-08
1.06909e-07
-6.03239e-09
-1.37883e-08
1.99991e-08
-7.53824e-08
-2.7058e-08
5.23927e-08
-1.93832e-08
-3.95672e-08
6.83821e-08
3.49813e-08
-6.4115e-08
-6.19525e-08
-1.86111e-08
-5.00652e-08
-5.03183e-09
1.13039e-07
2.11332e-08
-7.69711e-08
1.91769e-08
1.5876e-10
-3.05763e-08
7.78363e-08
1.52346e-08
-6.72082e-08
7.35165e-09
-6.55162e-09
-7.4905e-08
1.95364e-08
1.3099e-07
1.21355e-07
3.49959e-08
-7.13768e-09
-1.8374e-08
-2.9192e-08
4.93525e-09
-4.37578e-08
1.47275e-08
4.89473e-08
5.99494e-08
8.31402e-08
-1.73892e-09
6.82263e-08
1.45383e-07
7.05479e-08
-2.37404e-08
-1.38571e-08
8.10228e-08
5.51489e-08
7.81935e-08
6.2794e-08
2.64221e-08
7.67239e-08
3.44216e-08
2.77626e-08
1.55294e-08
-1.18429e-08
-3.67941e-08
-1.01967e-07
-4.49307e-08
9.88411e-08
-2.7274e-09
-1.62729e-08
1.84973e-08
-6.70145e-08
-2.76581e-08
4.55276e-08
-1.53835e-08
-3.77244e-08
5.94373e-08
3.32317e-08
-5.92638e-08
-6.08461e-08
-1.75502e-08
-4.34749e-08
-5.85217e-09
1.03406e-07
2.28081e-08
-7.13144e-08
1.56152e-08
2.87997e-09
-2.94874e-08
6.95643e-08
1.7076e-08
-6.11223e-08
3.65472e-09
-6.3521e-09
-6.71364e-08
1.93523e-08
1.24141e-07
1.15399e-07
3.4458e-08
-5.6704e-09
-1.60008e-08
-2.8285e-08
6.23835e-09
-3.88224e-08
1.27009e-08
4.89219e-08
5.77735e-08
8.11841e-08
5.10098e-09
6.58496e-08
1.37662e-07
6.9987e-08
-1.76753e-08
-1.08962e-08
7.8167e-08
5.46513e-08
7.54431e-08
6.38928e-08
2.60009e-08
7.28585e-08
3.61234e-08
2.79807e-08
1.59926e-08
-1.14258e-08
-3.44433e-08
-9.39932e-08
-4.66993e-08
9.06862e-08
6.05936e-10
-1.83859e-08
1.67756e-08
-5.91027e-08
-2.79372e-08
3.88972e-08
-1.18336e-08
-3.57477e-08
5.09345e-08
3.12663e-08
-5.44487e-08
-5.95485e-08
-1.68109e-08
-3.72784e-08
-6.40849e-09
9.41792e-08
2.46678e-08
-6.56679e-08
1.2064e-08
5.28079e-09
-2.82437e-08
6.1628e-08
1.87065e-08
-5.52242e-08
3.80276e-10
-6.10945e-09
-5.97648e-08
1.90305e-08
1.17382e-07
1.09745e-07
3.4016e-08
-4.45078e-09
-1.36497e-08
-2.72426e-08
7.20369e-09
-3.38883e-08
1.08845e-08
4.8824e-08
5.59632e-08
7.92079e-08
1.14262e-08
6.35102e-08
1.30334e-07
6.9499e-08
-1.17385e-08
-8.03974e-09
7.52304e-08
5.4236e-08
7.25184e-08
6.48231e-08
2.60166e-08
6.90721e-08
3.75817e-08
2.81667e-08
1.641e-08
-1.09099e-08
-3.23148e-08
-8.617e-08
-4.80261e-08
8.25109e-08
3.87591e-09
-2.00546e-08
1.48674e-08
-5.18409e-08
-2.78996e-08
3.25784e-08
-8.78531e-09
-3.36508e-08
4.29741e-08
2.90911e-08
-4.97418e-08
-5.80404e-08
-1.63684e-08
-3.15593e-08
-6.7018e-09
8.54096e-08
2.62862e-08
-6.00344e-08
8.60803e-09
7.31066e-09
-2.68427e-08
5.40799e-08
2.00706e-08
-4.95326e-08
-2.43812e-09
-5.83506e-09
-5.28349e-08
1.85743e-08
1.1076e-07
1.04405e-07
3.36758e-08
-3.45994e-09
-1.13705e-08
-2.60387e-08
7.84936e-09
-2.90231e-08
9.30595e-09
4.86103e-08
5.45069e-08
7.7236e-08
1.72292e-08
6.12539e-08
1.23396e-07
6.90677e-08
-5.98099e-09
-5.27582e-09
7.22596e-08
5.39025e-08
6.948e-08
6.55114e-08
2.64152e-08
6.54283e-08
3.87873e-08
2.83153e-08
1.67752e-08
-1.02901e-08
-3.04252e-08
-7.86043e-08
-4.88663e-08
7.43721e-08
6.99432e-09
-2.12367e-08
1.28184e-08
-4.48601e-08
-2.75611e-08
2.66321e-08
-6.25865e-09
-3.14578e-08
3.56249e-08
2.6724e-08
-4.52105e-08
-5.63182e-08
-1.61837e-08
-2.63637e-08
-6.7325e-09
7.71331e-08
2.75371e-08
-5.44314e-08
5.32261e-09
8.94008e-09
-2.52908e-08
4.69651e-08
2.11278e-08
-4.40643e-08
-4.78584e-09
-5.52821e-09
-4.63722e-08
1.80188e-08
1.04311e-07
9.93539e-08
3.34236e-08
-2.66882e-09
-9.19983e-09
-2.4662e-08
8.18429e-09
-2.42857e-08
7.98405e-09
4.82602e-08
5.3374e-08
7.52862e-08
2.25105e-08
5.91169e-08
1.16845e-07
6.86685e-08
-4.5612e-10
-2.57471e-09
6.92965e-08
5.3644e-08
6.63929e-08
6.59031e-08
2.71538e-08
6.19795e-08
3.97387e-08
2.84311e-08
1.70877e-08
-9.56462e-09
-2.87674e-08
-7.13816e-08
-4.91988e-08
6.63345e-08
9.87985e-09
-2.19185e-08
1.06723e-08
-3.87494e-08
-2.69445e-08
2.11245e-08
-4.25005e-09
-2.9201e-08
2.89384e-08
2.41945e-08
-4.09133e-08
-5.439e-08
-1.62114e-08
-2.17161e-08
-6.51789e-09
6.93854e-08
2.88749e-08
-4.88914e-08
2.26839e-09
1.016e-08
-2.36039e-08
4.03192e-08
2.18543e-08
-3.88366e-08
-6.66353e-09
-5.19353e-09
-4.03784e-08
1.74166e-08
9.80614e-08
9.45603e-08
3.32412e-08
-2.02706e-09
-7.17164e-09
-2.31151e-08
8.26622e-09
-1.97311e-08
6.93398e-09
4.77708e-08
5.25226e-08
7.33715e-08
2.72702e-08
5.71355e-08
1.10678e-07
6.82795e-08
4.73901e-09
8.68197e-11
6.63732e-08
5.34459e-08
6.33241e-08
6.59673e-08
2.8173e-08
5.87637e-08
4.04429e-08
2.85193e-08
1.73491e-08
-8.73786e-09
-2.73204e-08
-6.45684e-08
-4.90234e-08
5.84684e-08
1.2459e-08
-2.21179e-08
8.48439e-09
-3.30061e-08
-2.60753e-08
1.61075e-08
-2.73729e-09
-2.692e-08
2.29321e-08
2.15434e-08
-3.68937e-08
-5.22749e-08
-1.64059e-08
-1.76303e-08
-6.08405e-09
6.21885e-08
2.98835e-08
-4.34542e-08
-5.09325e-10
1.09788e-08
-2.18057e-08
3.41679e-08
2.22405e-08
-3.38655e-08
-8.08435e-09
-4.83578e-09
-3.48426e-08
1.68006e-08
9.20426e-08
8.99933e-08
3.31218e-08