/*--------------------------------*- C++ -*----------------------------------*\
| =========                 |                                                 |
| \\      /  F ield         | OpenFOAM: The Open Source CFD Toolbox           |
|  \\    /   O peration     | Version:  2312                                  |
|   \\  /    A nd           | Website:  www.openfoam.com                      |
|    \\/     M anipulation  |                                                 |
\*---------------------------------------------------------------------------*/
FoamFile
{
    version     2.0;
    format      ascii;
    arch        "LSB;label=32;scalar=64";
    class       volScalarField;
    location    "1000";
    object      pMean;
}
// * * * * * * * * * * * * * * * * * * * * * * * * * * * * * * * * * * * * * //

dimensions      [0 2 -2 0 0 0 0];

internalField   nonuniform List<scalar> 
144000
(
1.03386e-08
-1.63316e-08
-1.40849e-07
-1.82515e-07
6.20078e-08
-1.51219e-08
-5.72128e-08
1.90247e-07
2.27016e-07
5.72068e-08
-1.30102e-08
-3.94208e-09
-8.72244e-08
-1.45187e-07
-3.03456e-08
1.80288e-07
7.55766e-08
-1.04132e-07
-1.96247e-07
1.35584e-08
3.32153e-07
1.5605e-07
-1.16115e-07
5.80723e-08
5.28927e-08
-1.75607e-07
5.19124e-08
-1.36238e-08
-1.79103e-07
9.17791e-08
1.05793e-07
1.05447e-07
1.1273e-08
3.52187e-09
2.41304e-07
2.612e-07
6.33092e-09
3.73553e-08
1.48718e-07
-1.1465e-07
1.09376e-07
1.78169e-07
-9.6598e-09
-6.63952e-08
5.76618e-09
2.60898e-07
1.35617e-07
-8.94339e-08
-8.87251e-08
-1.43281e-07
-1.78757e-07
1.4009e-07
1.02314e-07
-2.2589e-07
-4.61945e-08
1.91321e-07
8.30335e-08
-3.42052e-08
-4.00218e-08
-2.34208e-08
1.04685e-08
-1.58579e-08
-1.39108e-07
-1.66843e-07
5.99392e-08
-1.40068e-08
-4.19859e-08
1.87541e-07
2.09378e-07
4.23331e-08
-1.11812e-08
-3.23599e-09
-8.60267e-08
-1.27387e-07
-1.70662e-08
1.60785e-07
6.02669e-08
-1.0103e-07
-1.78383e-07
2.588e-08
3.11792e-07
1.42976e-07
-9.69238e-08
5.57722e-08
3.82348e-08
-1.57277e-07
4.95184e-08
-2.85852e-08
-1.61955e-07
9.02208e-08
1.05598e-07
1.05313e-07
1.22995e-08
1.91278e-08
2.38456e-07
2.45117e-07
8.70579e-09
3.55941e-08
1.34148e-07
-9.65289e-08
1.06835e-07
1.62071e-07
-7.2212e-09
-4.78003e-08
1.89465e-08
2.41333e-07
1.21045e-07
-8.75834e-08
-8.81592e-08
-1.41474e-07
-1.6295e-07
1.36841e-07
8.76313e-08
-2.06503e-07
-3.29882e-08
1.71485e-07
6.78197e-08
-3.26829e-08
-3.94367e-08
-2.346e-08
1.02127e-08
-1.5447e-08
-1.35692e-07
-1.61367e-07
5.63517e-08
-1.17688e-08
-3.69528e-08
1.82062e-07
2.00984e-07
3.88602e-08
-7.9321e-09
-2.18899e-09
-8.37848e-08
-1.18603e-07
-1.56534e-08
1.49145e-07
5.57799e-08
-9.49123e-08
-1.68879e-07
2.5893e-08
2.98627e-07
1.41477e-07
-8.712e-08
5.1076e-08
3.49252e-08
-1.48561e-07
4.50205e-08
-3.2059e-08
-1.54172e-07
8.76787e-08
1.04788e-07
1.05074e-07
1.45923e-08
2.44923e-08
2.3274e-07
2.38823e-07
1.26397e-08
3.28566e-08
1.30725e-07
-8.76618e-08
1.01956e-07
1.55945e-07
-2.38647e-09
-3.81595e-08
2.02178e-08
2.29393e-07
1.17216e-07
-8.41189e-08
-8.72125e-08
-1.37656e-07
-1.57511e-07
1.3058e-07
8.38842e-08
-1.95395e-07
-3.13405e-08
1.60086e-07
6.33733e-08
-2.98754e-08
-3.8067e-08
-2.34141e-08
9.71882e-09
-1.53931e-08
-1.31095e-07
-1.57018e-07
5.17067e-08
-8.7707e-09
-3.35592e-08
1.74185e-07
1.93384e-07
3.81182e-08
-4.16615e-09
-8.98069e-10
-8.05866e-08
-1.11041e-07
-1.71401e-08
1.37291e-07
5.33186e-08
-8.73548e-08
-1.59237e-07
2.3163e-08
2.84573e-07
1.42309e-07
-7.77269e-08
4.52216e-08
3.38748e-08
-1.40455e-07
3.90232e-08
-3.25876e-08
-1.46974e-07
8.42815e-08
1.0366e-07
1.04715e-07
1.84371e-08
2.81887e-08
2.24756e-07
2.33339e-07
1.74323e-08
2.9965e-08
1.29114e-07
-7.88598e-08
9.56258e-08
1.51184e-07
3.60258e-09
-2.93545e-08
1.89783e-08
2.16789e-07
1.15302e-07
-7.95097e-08
-8.62559e-08
-1.32495e-07
-1.53053e-07
1.21916e-07
8.19697e-08
-1.83871e-07
-3.26553e-08
1.48682e-07
6.10362e-08
-2.64954e-08
-3.6391e-08
-2.3097e-08
9.09628e-09
-1.55999e-08
-1.25434e-07
-1.51832e-07
4.65185e-08
-5.31541e-09
-2.99651e-08
1.64778e-07
1.84932e-07
3.7681e-08
-2.79588e-10
7.5907e-10
-7.65305e-08
-1.02659e-07
-1.90923e-08
1.24032e-07
5.06753e-08
-7.89759e-08
-1.47918e-07
2.02521e-08
2.68612e-07
1.42952e-07
-6.7341e-08
3.86768e-08
3.28588e-08
-1.31419e-07
3.20999e-08
-3.22493e-08
-1.38833e-07
8.02379e-08
1.02299e-07
1.04245e-07
2.33251e-08
3.20063e-08
2.15153e-07
2.26686e-07
2.32413e-08
2.70503e-08
1.27182e-07
-6.86249e-08
8.83827e-08
1.45776e-07
1.00821e-08
-1.97297e-08
1.77289e-08
2.02283e-07
1.13074e-07
-7.40577e-08
-8.52472e-08
-1.26218e-07
-1.47597e-07
1.11266e-07
7.98144e-08
-1.70326e-07
-3.45984e-08
1.35581e-07
5.85586e-08
-2.29156e-08
-3.44929e-08
-2.24856e-08
8.39025e-09
-1.59208e-08
-1.189e-07
-1.45932e-07
4.07154e-08
-1.66111e-09
-2.62606e-08
1.54401e-07
1.75898e-07
3.72587e-08
3.37388e-09
2.81017e-09
-7.17948e-08
-9.35193e-08
-2.11451e-08
1.09962e-07
4.77765e-08
-7.0225e-08
-1.35454e-07
1.7543e-08
2.51338e-07
1.43064e-07
-5.63809e-08
3.18608e-08
3.16935e-08
-1.2178e-07
2.4817e-08
-3.12078e-08
-1.30031e-07
7.57524e-08
1.00728e-07
1.03696e-07
2.86041e-08
3.58536e-08
2.04648e-07
2.18936e-07
2.99227e-08
2.42283e-08
1.2482e-07
-5.72983e-08
8.06857e-08
1.39826e-07
1.65554e-08
-9.59444e-09
1.68318e-08
1.86503e-07
1.1039e-07
-6.80391e-08
-8.41243e-08
-1.19131e-07
-1.41268e-07
9.95537e-08
7.73919e-08
-1.55771e-07
-3.67905e-08
1.21654e-07
5.57679e-08
-1.93856e-08
-3.23834e-08
-2.16434e-08
7.61438e-09
-1.62515e-08
-1.11781e-07
-1.39613e-07
3.45046e-08
1.99768e-09
-2.26172e-08
1.43469e-07
1.66628e-07
3.68933e-08
6.50993e-09
5.13528e-09
-6.66237e-08
-8.45381e-08
-2.31747e-08
9.58362e-08
4.46651e-08
-6.14914e-08
-1.22525e-07
1.51554e-08
2.33664e-07
1.42466e-07
-4.53524e-08
2.51746e-08
3.0372e-08
-1.1195e-07
1.76081e-08
-2.95058e-08
-1.2088e-07
7.09851e-08
9.89375e-08
1.03085e-07
3.41004e-08
3.95856e-08
1.93744e-07
2.10366e-07
3.71044e-08
2.17093e-08
1.22065e-07
-4.52491e-08
7.29484e-08
1.33666e-07
2.27932e-08
5.41142e-10
1.64083e-08
1.70259e-07
1.07321e-07
-6.16648e-08
-8.28536e-08
-1.1164e-07
-1.34375e-07
8.73292e-08
7.47707e-08
-1.41032e-07
-3.90108e-08
1.07863e-07
5.27417e-08
-1.60608e-08
-3.01536e-08
-2.06867e-08
6.75951e-09
-1.65341e-08
-1.04362e-07
-1.33033e-07
2.81752e-08
5.47849e-09
-1.90461e-08
1.32303e-07
1.57257e-07
3.66254e-08
9.00818e-09
7.57393e-09
-6.12417e-08
-7.60389e-08
-2.49521e-08
8.21948e-08
4.14332e-08
-5.30572e-08
-1.09581e-07
1.31846e-08
2.16051e-07
1.41103e-07
-3.45612e-08
1.89304e-08
2.88376e-08
-1.02131e-07
1.07633e-08
-2.73038e-08
-1.11528e-07
6.60766e-08
9.69061e-08
1.02395e-07
3.9709e-08
4.32323e-08
1.82787e-07
2.01196e-07
4.44124e-08
1.96834e-08
1.18878e-07
-3.28924e-08
6.55573e-08
1.27421e-07
2.8546e-08
1.01828e-08
1.6573e-08
1.5415e-07
1.03856e-07
-5.50737e-08
-8.13736e-08
-1.04106e-07
-1.27126e-07
7.50042e-08
7.18894e-08
-1.26556e-07
-4.10276e-08
9.45564e-08
4.95181e-08
-1.30138e-08
-2.7885e-08
-1.97133e-08
5.81232e-09
-1.6736e-08
-9.68586e-08
-1.26282e-07
2.19434e-08
8.65946e-09
-1.55236e-08
1.21154e-07
1.4788e-07
3.64737e-08
1.08776e-08
1.00011e-08
-5.57928e-08
-6.81168e-08
-2.631e-08
6.93852e-08
3.82267e-08
-4.5105e-08
-9.69103e-08
1.16694e-08
1.98901e-07
1.38981e-07
-2.42509e-08
1.33303e-08
2.70762e-08
-9.24463e-08
4.46742e-09
-2.47923e-08
-1.02111e-07
6.11646e-08
9.46288e-08
1.01582e-07
4.53058e-08
4.68199e-08
1.72014e-07
1.91648e-07
5.15326e-08
1.824e-08
1.15207e-07
-2.06282e-08
5.88007e-08
1.21167e-07
3.36388e-08
1.89365e-08
1.73615e-08
1.38609e-07
9.99778e-08
-4.83779e-08
-7.95997e-08
-9.67779e-08
-1.1968e-07
6.29475e-08
6.86726e-08
-1.1262e-07
-4.26077e-08
8.1862e-08
4.61524e-08
-1.02674e-08
-2.56257e-08
-1.8777e-08
4.77232e-09
-1.68433e-08
-8.94322e-08
-1.19436e-07
1.59548e-08
1.1455e-08
-1.20488e-08
1.10241e-07
1.3861e-07
3.64309e-08
1.21889e-08
1.23236e-08
-5.0355e-08
-6.08106e-08
-2.71737e-08
5.76003e-08
3.50643e-08
-3.77468e-08
-8.47129e-08
1.06108e-08
1.82486e-07
1.36128e-07
-1.45382e-08
8.49498e-09
2.514e-08
-8.30197e-08
-1.15765e-09
-2.21452e-08
-9.27798e-08
5.6381e-08
9.21322e-08
1.006e-07
5.07426e-08
5.02422e-08
1.61661e-07
1.81936e-07
5.82186e-08
1.7485e-08
1.11075e-07
-8.71941e-09
5.28608e-08
1.1499e-07
3.79988e-08
2.66426e-08
1.87273e-08
1.23951e-07
9.56979e-08
-4.16941e-08
-7.74637e-08
-8.98066e-08
-1.12168e-07
5.14376e-08
6.50768e-08
-9.94271e-08
-4.36938e-08
6.98283e-08
4.27209e-08
-7.82516e-09
-2.34029e-08
-1.78904e-08
3.65785e-09
-1.68572e-08
-8.22038e-08
-1.1256e-07
1.03101e-08
1.37961e-08
-8.64001e-09
9.97592e-08
1.29531e-07
3.64721e-08
1.30292e-08
1.44581e-08
-4.49779e-08
-5.41315e-08
-2.75319e-08
4.69352e-08
3.19398e-08
-3.10461e-08
-7.31738e-08
9.9886e-09
1.66983e-07
1.32601e-07
-5.52203e-09
4.50684e-09
2.30894e-08
-7.39518e-08
-6.03006e-09
-1.95021e-08
-8.36492e-08
5.18409e-08
8.94669e-08
9.94168e-08
5.58651e-08
5.34322e-08
1.51959e-07
1.72235e-07
6.42869e-08
1.74918e-08
1.06564e-07
2.59866e-09
4.78778e-08
1.08979e-07
4.16289e-08
3.3229e-08
2.05747e-08
1.10396e-07
9.10483e-08
-3.51481e-08
-7.49277e-08
-8.32855e-08
-1.04703e-07
4.06837e-08
6.10982e-08
-8.71274e-08
-4.42816e-08
5.86079e-08
3.92765e-08
-5.69527e-09
-2.12372e-08
-1.70375e-08
2.49719e-09
-1.67868e-08
-7.52625e-08
-1.05706e-07
5.08288e-09
1.5637e-08
-5.32683e-09
8.98635e-08
1.20679e-07
3.65605e-08
1.34815e-08
1.6331e-08
-3.97046e-08
-4.8064e-08
-2.74079e-08
3.74295e-08
2.88617e-08
-2.50412e-08
-6.24025e-08
9.76996e-09
1.52503e-07
1.28483e-07
2.72447e-09
1.40103e-09
2.09585e-08
-6.5341e-08
-1.00805e-08
-1.69585e-08
-7.47924e-08
4.76274e-08
8.66959e-08
9.80199e-08
6.05542e-08
5.63833e-08
1.43023e-07
1.62685e-07
6.96057e-08
1.82468e-08
1.01762e-07
1.31353e-08
4.39313e-08
1.0321e-07
4.45741e-08
3.86933e-08
2.27848e-08
9.80754e-08
8.6078e-08
-2.88621e-08
-7.19822e-08
-7.72673e-08
-9.73793e-08
3.08376e-08
5.67704e-08
-7.58184e-08
-4.43775e-08
4.82879e-08
3.58384e-08
-3.89271e-09
-1.91531e-08
-1.62037e-08
1.3219e-09
-1.66486e-08
-6.86717e-08
-9.89173e-08
3.2831e-10
1.69606e-08
-2.14428e-09
8.06582e-08
1.1206e-07
3.666e-08
1.36266e-08
1.78845e-08
-3.45787e-08
-4.25693e-08
-2.68428e-08
2.90839e-08
2.58497e-08
-1.97329e-08
-5.24592e-08
9.90845e-09
1.3911e-07
1.23874e-07
1.01551e-08
-8.33055e-10
1.87801e-08
-5.72514e-08
-1.32852e-08
-1.45685e-08
-6.62633e-08
4.37917e-08
8.38852e-08
9.64169e-08
6.47347e-08
5.90919e-08
1.34888e-07
1.53408e-07
7.40886e-08
1.9675e-08
9.67706e-08
2.27491e-08
4.10306e-08
9.77389e-08
4.69002e-08
4.30828e-08
2.52275e-08
8.70561e-08
8.08583e-08
-2.29419e-08
-6.86459e-08
-7.17685e-08
-9.02758e-08
2.19919e-08
5.21596e-08
-6.55605e-08
-4.40017e-08
3.89043e-08
3.24104e-08
-2.43203e-09
-1.71839e-08
-1.53851e-08
1.61219e-10
-1.64657e-08
-6.24775e-08
-9.2227e-08
-3.91199e-09
1.77805e-08
8.67776e-10
7.22021e-08
1.03684e-07
3.67384e-08
1.35455e-08
1.90818e-08
-2.96447e-08
-3.75941e-08
-2.58827e-08
2.18693e-08
2.29243e-08
-1.51082e-08
-4.33695e-08
1.03463e-08
1.26827e-07
1.18888e-07
1.67486e-08
-2.24125e-09
1.65998e-08
-4.97281e-08
-1.56787e-08
-1.23546e-08
-5.81047e-08
4.03725e-08
8.10942e-08
9.46287e-08
6.83691e-08
6.15505e-08
1.27541e-07
1.44506e-07
7.76937e-08
2.1676e-08
9.17044e-08
3.135e-08
3.91232e-08
9.2597e-08
4.87058e-08
4.64831e-08
2.77723e-08
7.73525e-08
7.54785e-08
-1.74729e-08
-6.49637e-08
-6.6779e-08
-8.34537e-08
1.41879e-08
4.73545e-08
-5.63759e-08
-4.31922e-08
3.04652e-08
2.90135e-08
-1.3095e-09
-1.53679e-08
-1.45856e-08
-9.60843e-10
-1.62655e-08
-5.67136e-08
-8.56653e-08
-7.60954e-09
1.81389e-08
3.66643e-09
6.45225e-08
9.55772e-08
3.67652e-08
1.3314e-08
1.99082e-08
-2.4948e-08
-3.30782e-08
-2.45657e-08
1.57328e-08
2.01058e-08
-1.11472e-08
-3.51325e-08
1.10202e-08
1.15646e-07
1.13637e-07
2.25041e-08
-2.89559e-09
1.44728e-08
-4.28024e-08
-1.73157e-08
-1.03193e-08
-5.03499e-08
3.73967e-08
7.83701e-08
9.26836e-08
7.14466e-08
6.37616e-08
1.20942e-07
1.36066e-07
8.04195e-08
2.41405e-08
8.66798e-08
3.88843e-08
3.81129e-08
8.78052e-08
5.00941e-08
4.90041e-08
3.02989e-08
6.89361e-08
7.0037e-08
-1.25187e-08
-6.10019e-08
-6.22639e-08
-7.69573e-08
7.42505e-09
4.2457e-08
-4.8252e-08
-4.20037e-08
2.29591e-08
2.56846e-08
-5.0281e-10
-1.374e-08
-1.38067e-08
-2.02557e-09
-1.60744e-08
-5.1401e-08
-7.92621e-08
-1.07514e-08
1.80894e-08
6.21077e-09
5.76247e-08
8.77826e-08
3.67091e-08
1.29988e-08
2.03698e-08
-2.05321e-08
-2.89582e-08
-2.29531e-08
1.06112e-08
1.74186e-08
-7.79208e-09
-2.77317e-08
1.18675e-08
1.05539e-07
1.08228e-07
2.74387e-08
-2.88309e-09
1.24567e-08
-3.64874e-08
-1.82596e-08
-8.45712e-09
-4.30239e-08
3.48736e-08
7.57487e-08
9.06148e-08
7.39733e-08
6.5731e-08
1.15037e-07
1.28156e-07
8.23003e-08
2.69478e-08
8.18038e-08
4.53321e-08
3.78784e-08
8.33861e-08
5.11485e-08
5.07635e-08
3.27048e-08
6.17457e-08
6.46348e-08
-8.12101e-09
-5.68382e-08
-5.81667e-08
-7.0817e-08
1.67017e-09
3.75729e-08
-4.11486e-08
-4.05028e-08
1.63568e-08
2.24477e-08
2.09855e-11
-1.23212e-08
-1.30381e-08
-3.01585e-09
-1.59123e-08
-4.65481e-08
-7.30481e-08
-1.33426e-08
1.76886e-08
8.46895e-09
5.14993e-08
8.03448e-08
3.6538e-08
1.26557e-08
2.04882e-08
-1.64357e-08
-2.51946e-08
-2.1113e-08
6.43435e-09
1.48926e-08
-4.98809e-09
-2.11428e-08
1.28301e-08
9.64546e-08
1.0276e-07
3.15846e-08
-2.2972e-09
1.06061e-08
-3.07796e-08
-1.85823e-08
-6.75808e-09
-3.61432e-08
3.27972e-08
7.32562e-08
8.84589e-08
7.59662e-08
6.74505e-08
1.09763e-07
1.20823e-07
8.33982e-08
2.99735e-08
7.71674e-08
5.07052e-08
3.82871e-08
7.93497e-08
5.1937e-08
5.18801e-08
3.49106e-08
5.56935e-08
5.93691e-08
-4.297e-09
-5.25524e-08
-5.44236e-08
-6.50527e-08
-3.13522e-09
3.27994e-08
-3.49979e-08
-3.8763e-08
1.06082e-08
1.93194e-08
2.84426e-10
-1.11158e-08
-1.2268e-08
-3.91818e-09
-1.57882e-08
-4.21475e-08
-6.70555e-08
-1.54053e-08
1.69885e-08
1.04218e-08
4.61233e-08
7.33043e-08
3.6222e-08
1.23293e-08
2.02958e-08
-1.26894e-08
-2.17533e-08
-1.91042e-08
3.12775e-09
1.25592e-08
-2.6711e-09
-1.53335e-08
1.38556e-08
8.83286e-08
9.73172e-08
3.49865e-08
-1.24256e-09
8.96729e-09
-2.56601e-08
-1.83627e-08
-5.21015e-09
-2.97174e-08
3.11487e-08
7.091e-08
8.62536e-08
7.74516e-08
6.89237e-08
1.05057e-07
1.14095e-07
8.37963e-08
3.31032e-08
7.28417e-08
5.5043e-08
3.92012e-08
7.56926e-08
5.25209e-08
5.24718e-08
3.68585e-08
5.06727e-08
5.43291e-08
-1.04126e-09
-4.82208e-08
-5.09688e-08
-5.96754e-08
-7.06796e-09
2.82148e-08
-2.97217e-08
-3.68548e-08
5.64862e-09
1.63131e-08
3.14454e-10
-1.01143e-08
-1.15016e-08
-4.72695e-09
-1.57e-08
-3.81852e-08
-6.13159e-08
-1.6973e-08
1.60433e-08
1.20612e-08
4.146e-08
6.66967e-08
3.5736e-08
1.20534e-08
1.98372e-08
-9.31312e-09
-1.86091e-08
-1.69908e-08
6.1294e-10
1.04477e-08
-7.77774e-10
-1.02622e-08
1.48984e-08
8.10845e-08
9.19726e-08
3.77e-08
1.86359e-10
7.57099e-09
-2.10989e-08
-1.76808e-08
-3.79212e-09
-2.37493e-08
2.98984e-08
6.87188e-08
8.40368e-08
7.84634e-08
7.01531e-08
1.00855e-07
1.07984e-07
8.3589e-08
3.62348e-08
6.88786e-08
5.84053e-08
4.04858e-08
7.24099e-08
5.2949e-08
5.265e-08
3.85128e-08
4.65649e-08
4.95888e-08
1.66887e-09
-4.39128e-08
-4.77419e-08
-5.4689e-08
-1.02158e-08
2.38765e-08
-2.52452e-08
-3.48384e-08
1.40713e-09
1.34415e-08
1.47135e-10
-9.30047e-09
-1.07382e-08
-5.43722e-09
-1.5638e-08
-3.46425e-08
-5.58576e-08
-1.80846e-08
1.49119e-08
1.33873e-08
3.74579e-08
6.05432e-08
3.50691e-08
1.18493e-08
1.91625e-08
-6.31574e-09
-1.57426e-08
-1.48297e-08
-1.19292e-09
8.5834e-09
7.52496e-10
-5.87744e-09
1.59213e-08
7.4641e-08
8.67844e-08
3.97874e-08
1.89661e-09
6.4402e-09
-1.70578e-08
-1.66137e-08
-2.47934e-09
-1.82362e-08
2.9007e-08
6.66828e-08
8.18455e-08
7.90423e-08
7.11397e-08
9.70979e-08
1.02482e-07
8.28758e-08
3.92787e-08
6.53134e-08
6.08699e-08
4.20204e-08
6.94948e-08
5.32558e-08
5.25164e-08
3.98572e-08
4.32492e-08
4.52048e-08
3.86846e-09
-3.96896e-08
-4.4694e-08
-5.00895e-08
-1.26717e-08
1.98211e-08
-2.14818e-08
-3.27622e-08
-2.18836e-09
1.07141e-08
-1.78137e-10
-8.65658e-09
-9.99199e-09
-6.04436e-09
-1.55878e-08
-3.14968e-08
-5.07036e-08
-1.87822e-08
1.36515e-08
1.44072e-08
3.40544e-08
5.48604e-08
3.42285e-08
1.17226e-08
1.83226e-08
-3.69538e-09
-1.31365e-08
-1.26717e-08
-2.37666e-09
6.98597e-09
1.97691e-09
-2.12108e-09
1.68954e-08
6.89144e-08
8.17974e-08
4.13142e-08
3.8001e-09
5.58957e-09
-1.34934e-08
-1.52341e-08
-1.24753e-09
-1.31703e-08
2.84289e-08
6.47955e-08
7.9714e-08
7.92359e-08
7.18923e-08
9.37293e-08
9.75693e-08
8.1756e-08
4.21556e-08
6.21646e-08
6.25273e-08
4.36931e-08
6.69299e-08
5.34632e-08
5.21625e-08
4.0896e-08
4.06096e-08
4.12145e-08
5.60524e-09
-3.56031e-08
-4.17884e-08
-4.58652e-08
-1.45295e-08
1.60689e-08
-1.83409e-08
-3.06669e-08
-5.20505e-09
8.13831e-09
-6.23106e-10
-8.16696e-09
-9.2844e-09
-6.54736e-09
-1.5533e-08
-2.87216e-08
-4.58713e-08
-1.91101e-08
1.23146e-08
1.51352e-08
3.11832e-08
4.9661e-08
3.32277e-08
1.16683e-08
1.73682e-08
-1.44018e-09
-1.07754e-08
-1.05633e-08
-3.0279e-09
5.66878e-09
2.95126e-09
1.06983e-09
1.78003e-08
6.38218e-08
7.70435e-08
4.23486e-08
5.81899e-09
5.0211e-09
-1.03582e-08
-1.36097e-08
-7.25736e-11
-8.53854e-09
2.81151e-08
6.30448e-08
7.76722e-08
7.90986e-08
7.24239e-08
9.06945e-08
9.32089e-08
8.03258e-08
4.48118e-08
5.94372e-08
6.34761e-08
4.54067e-08
6.4688e-08
5.35817e-08
5.16675e-08
4.16462e-08
3.8534e-08
3.76383e-08
6.93616e-09
-3.16949e-08
-3.89991e-08
-4.1999e-08
-1.58788e-08
1.26318e-08
-1.57379e-08
-2.85904e-08
-7.69994e-09
5.72215e-09
-1.1531e-09
-7.81604e-09
-8.6387e-09
-6.9482e-09
-1.54579e-08
-2.62872e-08
-4.13715e-08
-1.9116e-08
1.0946e-08
1.55927e-08
2.87769e-08
4.49456e-08
3.20871e-08
1.16768e-08
1.63454e-08
4.70516e-10
-8.6451e-09
-8.54646e-09
-3.23664e-09
4.64072e-09
3.7296e-09
3.75984e-09
1.8623e-08
5.92846e-08
7.2543e-08
4.29602e-08
7.89064e-09
4.72335e-09
-7.60309e-09
-1.18024e-08
1.06505e-09
-4.32204e-09
2.8017e-08
6.1414e-08
7.57426e-08
7.86878e-08
7.27509e-08
8.79426e-08
8.93564e-08
7.86759e-08
4.72076e-08
5.71219e-08
6.38203e-08
4.70762e-08
6.2737e-08
5.36181e-08
5.10952e-08
4.21344e-08
3.69181e-08
3.44806e-08
7.92039e-09
-2.79956e-08
-3.63098e-08
-3.84694e-08
-1.68014e-08
9.51326e-09
-1.3594e-08
-2.65634e-08
-9.72556e-09
3.47395e-09
-1.73715e-09
-7.58646e-09
-8.07715e-09
-7.25214e-09
-1.53495e-08
-2.4163e-08
-3.72074e-08
-1.88492e-08
9.58045e-09
1.58078e-08
2.67681e-08
4.07031e-08
3.08332e-08
1.17359e-08
1.52941e-08
2.0649e-09
-6.7313e-09
-6.65517e-09
-3.09e-09
3.90103e-09
4.36101e-09
6.01144e-09
1.93543e-08
5.52311e-08
6.83054e-08
4.32171e-08
9.96138e-09
4.67785e-09
-5.17828e-09
-9.86871e-09
2.18106e-09
-4.9626e-10
2.80903e-08
5.9887e-08
7.3937e-08
7.80607e-08
7.28925e-08
8.54276e-08
8.59601e-08
7.68868e-08
4.93203e-08
5.51985e-08
6.36651e-08
4.86323e-08
6.10433e-08
5.35829e-08
5.04923e-08
4.23935e-08
3.56693e-08
3.17323e-08
8.61671e-09
-2.45244e-08
-3.37119e-08
-3.52509e-08
-1.73701e-08
6.70527e-09
-1.18366e-08
-2.46054e-08
-1.13332e-08
1.39582e-09
-2.34664e-09
-7.45727e-09
-7.61802e-09
-7.46783e-09
-1.51976e-08
-2.23194e-08
-3.33753e-08
-1.83571e-08
8.24451e-09
1.58125e-08
2.50931e-08
3.69125e-08
2.94952e-08
1.18364e-08
1.42463e-08
3.37395e-09
-5.01842e-09
-4.91967e-09
-2.66548e-09
3.43635e-09
4.88928e-09
7.88226e-09
1.99899e-08
5.15977e-08
6.43312e-08
4.31829e-08
1.19911e-08
4.86061e-09
-3.03749e-09
-7.85802e-09
3.28638e-09
2.96873e-09
2.82977e-08
5.84514e-08
7.22565e-08
7.72692e-08
7.28723e-08
8.31097e-08
8.29677e-08
7.50261e-08
5.11427e-08
5.36379e-08
6.31076e-08
5.00244e-08
5.95733e-08
5.34842e-08
4.98885e-08
4.24605e-08
3.47094e-08
2.93735e-08
9.08151e-09
-2.12908e-08
-3.12032e-08
-3.23164e-08
-1.76466e-08
4.19386e-09
-1.04003e-08
-2.27261e-08
-1.25728e-08
-5.15073e-10
-2.95572e-09
-7.40385e-09
-7.27414e-09
2.22632e-07
9.07998e-08
-1.42206e-07
-1.0615e-07
-5.00452e-08
-1.61341e-07
-6.52168e-10
3.11453e-07
5.01867e-08
-2.01962e-07
5.09288e-08
-2.73653e-08
-7.26649e-08
2.29513e-07
3.42041e-08
-1.864e-07
5.38947e-08
9.7981e-09
-2.3019e-07
7.34578e-09
2.79447e-07
2.80464e-07
7.26488e-08
-4.94916e-08
-5.80052e-08
-5.84414e-08
-2.51777e-08
-1.35813e-07
4.078e-08
7.52479e-08
1.22287e-07
1.54012e-07
-1.19374e-07
9.23097e-08
3.3177e-07
1.35251e-07
-1.16879e-07
-9.3831e-08
1.34953e-07
8.05773e-08
1.24406e-07
7.63412e-08
4.93946e-08
1.58711e-07
2.25297e-08
3.25131e-08
9.49405e-09
-3.16255e-08
-9.59316e-08
-2.58378e-07
-6.41047e-08
2.54825e-07
-2.2691e-08
-1.32584e-10
5.904e-08
-2.06923e-07
-4.76478e-08
1.64543e-07
-6.96919e-08
-8.81904e-08
2.03429e-07
7.66459e-08
-1.40052e-07
-1.06173e-07
-4.86571e-08
-1.43526e-07
1.14809e-08
2.91377e-07
3.72951e-08
-1.83834e-07
4.96997e-08
-2.57264e-08
-5.84912e-08
2.09956e-07
2.08273e-08
-1.68096e-07
5.14675e-08
-4.86081e-09
-2.11319e-07
2.09173e-08
2.76181e-07
2.63038e-07
5.85429e-08
-4.76099e-08
-5.69735e-08
-5.85983e-08
-2.36225e-08
-1.19448e-07
3.88227e-08
7.5054e-08
1.20215e-07
1.39104e-07
-9.97823e-08
1.04948e-07
3.12437e-07
1.20744e-07
-1.13674e-07
-7.76849e-08
1.3378e-07
8.03987e-08
1.24038e-07
7.71842e-08
4.78928e-08
1.42791e-07
2.39162e-08
3.29949e-08
1.0045e-08
-3.12634e-08
-9.42651e-08
-2.40591e-07
-5.2543e-08
2.36247e-07
-2.1199e-08
-1.68834e-09
4.42669e-08
-1.87483e-07
-3.46885e-08
1.46084e-07
-6.67336e-08
-7.37606e-08
1.91951e-07
7.34161e-08
-1.36001e-07
-1.05904e-07
-4.59486e-08
-1.34339e-07
1.13705e-08
2.78899e-07
3.63497e-08
-1.7521e-07
4.74402e-08
-2.27169e-08
-5.53592e-08
1.98952e-07
1.96345e-08
-1.59323e-07
4.6766e-08
-8.16354e-09
-1.99968e-07
2.3776e-08
2.69742e-07
2.54049e-07
5.55046e-08
-4.39447e-08
-5.52934e-08
-5.91023e-08
-2.06127e-08
-1.13107e-07
3.58043e-08
7.4616e-08
1.16428e-07
1.35509e-07
-8.8367e-08
1.05753e-07
3.00518e-07
1.17134e-07
-1.07295e-07
-7.17231e-08
1.31536e-07
7.94417e-08
1.23403e-07
7.83097e-08
4.50924e-08
1.36936e-07
2.64525e-08
3.35703e-08
1.06343e-08
-3.10584e-08
-9.09543e-08
-2.31347e-07
-5.3417e-08
2.268e-07
-1.85872e-08
-4.29306e-09
4.09086e-08
-1.76085e-07
-3.37441e-08
1.36622e-07
-6.12654e-08
-7.00728e-08
1.79811e-07
7.21605e-08
-1.30523e-07
-1.0536e-07
-4.29789e-08
-1.25425e-07
8.43116e-09
2.65364e-07
3.84848e-08
-1.66947e-07
4.40146e-08
-1.87862e-08
-5.42438e-08
1.87503e-07
2.15294e-08
-1.50777e-07
4.05627e-08
-9.00777e-09
-1.88146e-07
2.4311e-08
2.61124e-07
2.45372e-07
5.48548e-08
-3.96985e-08
-5.31161e-08
-5.90457e-08
-1.71428e-08
-1.07869e-07
3.22363e-08
7.42292e-08
1.11892e-07
1.33799e-07
-7.67101e-08
1.03424e-07
2.88151e-07
1.15756e-07
-9.87258e-08
-6.71743e-08
1.28421e-07
7.83921e-08
1.22036e-07
7.9497e-08
4.2151e-08
1.32256e-07
2.97106e-08
3.40788e-08
1.11984e-08
-3.10267e-08
-8.70129e-08
-2.21995e-07
-5.73784e-08
2.17137e-07
-1.49106e-08
-7.64051e-09
3.95071e-08
-1.64208e-07
-3.55352e-08
1.27267e-07
-5.44594e-08
-6.81089e-08
1.65736e-07
7.06369e-08
-1.2386e-07
-1.04481e-07
-3.98659e-08
-1.15074e-07
5.22425e-09
2.49604e-07
4.11714e-08
-1.57609e-07
3.96796e-08
-1.41233e-08
-5.3036e-08
1.739e-07
2.4096e-08
-1.40953e-07
3.34023e-08
-9.45279e-09
-1.74615e-07
2.46718e-08
2.50792e-07
2.35311e-07
5.42621e-08
-3.5308e-08
-5.03386e-08
-5.85083e-08
-1.3437e-08
-1.01704e-07
2.82698e-08
7.38744e-08
1.06873e-07
1.31744e-07
-6.36832e-08
1.00404e-07
2.74237e-07
1.143e-07
-8.87356e-08
-6.20929e-08
1.2466e-07
7.7376e-08
1.19871e-07
8.09266e-08
3.92511e-08
1.26915e-07
3.33942e-08
3.4566e-08
1.18595e-08
-3.09647e-08
-8.26768e-08
-2.10873e-07
-6.18346e-08
2.05722e-07
-1.04396e-08
-1.21152e-08
3.79375e-08
-1.50174e-07
-3.76155e-08
1.16521e-07
-4.68344e-08
-6.58013e-08
1.50335e-07
6.86989e-08
-1.16306e-07
-1.03277e-07
-3.67616e-08
-1.03655e-07
2.17919e-09
2.32269e-07
4.40546e-08
-1.47544e-07
3.46438e-08
-9.01774e-09
-5.16429e-08
1.58665e-07
2.70086e-08
-1.30205e-07
2.57998e-08
-9.61163e-09
-1.60007e-07
2.48925e-08
2.39282e-07
2.24289e-07
5.35733e-08
-3.10757e-08
-4.7e-08
-5.75499e-08
-9.69352e-09
-9.4618e-08
2.40883e-08
7.35131e-08
1.01652e-07
1.29248e-07
-4.98762e-08
9.70214e-08
2.59354e-07
1.1269e-07
-7.79254e-08
-5.66779e-08
1.20459e-07
7.64265e-08
1.16975e-07
8.26224e-08
3.65397e-08
1.20994e-07
3.71998e-08
3.50609e-08
1.26696e-08
-3.07375e-08
-7.81116e-08
-1.98336e-07
-6.63723e-08
1.92783e-07
-5.42777e-09
-1.68413e-08
3.60487e-08
-1.35015e-07
-3.96108e-08
1.04813e-07
-3.8911e-08
-6.3101e-08
1.34393e-07
6.63816e-08
-1.08181e-07
-1.01776e-07
-3.39134e-08
-9.18799e-08
-5.21948e-10
2.1424e-07
4.70854e-08
-1.37107e-07
2.90833e-08
-3.84155e-09
-5.00673e-08
1.43151e-07
3.01062e-08
-1.19028e-07
1.82083e-08
-9.49388e-09
-1.45092e-07
2.48217e-08
2.27123e-07
2.13118e-07
5.29316e-08
-2.72308e-08
-4.32647e-08
-5.62702e-08
-6.22148e-09
-8.68548e-08
1.99125e-08
7.31277e-08
9.65783e-08
1.26436e-07
-3.60469e-08
9.33324e-08
2.44254e-07
1.11188e-07
-6.67751e-08
-5.12984e-08
1.1592e-07
7.55199e-08
1.13455e-07
8.44362e-08
3.42644e-08
1.14737e-07
4.08514e-08
3.55448e-08
1.35947e-08
-3.02902e-08
-7.35218e-08
-1.84942e-07
-7.07334e-08
1.78889e-07
-4.64521e-11
-2.13212e-08
3.37749e-08
-1.19868e-07
-4.1284e-08
9.27352e-08
-3.11544e-08
-6.0084e-08
1.18472e-07
6.36306e-08
-9.9743e-08
-9.99648e-08
-3.15309e-08
-8.01335e-08
-2.73961e-09
1.96247e-07
5.01601e-08
-1.26474e-07
2.31991e-08
1.07436e-09
-4.82151e-08
1.2787e-07
3.31744e-08
-1.0779e-07
1.09924e-08
-9.21743e-09
-1.30421e-07
2.44735e-08
2.14677e-07
2.02189e-07
5.23739e-08
-2.38646e-08
-3.92974e-08
-5.47488e-08
-3.27211e-09
-7.86247e-08
1.59192e-08
7.2689e-08
9.19448e-08
1.2338e-07
-2.2703e-08
8.94133e-08
2.29427e-07
1.09956e-07
-5.55882e-08
-4.60049e-08
1.11085e-07
7.47197e-08
1.09382e-07
8.62278e-08
3.26369e-08
1.08311e-07
4.41603e-08
3.59918e-08
1.45664e-08
-2.96104e-08
-6.91048e-08
-1.71125e-07
-7.45984e-08
1.64377e-07
5.53378e-09
-2.52653e-08
3.10268e-08
-1.05264e-07
-4.24066e-08
8.06792e-08
-2.39373e-08
-5.67349e-08
1.02981e-07
6.03998e-08
-9.11892e-08
-9.77888e-08
-2.97089e-08
-6.87682e-08
-4.42289e-09
1.78658e-07
5.31287e-08
-1.15724e-07
1.72093e-08
5.49478e-09
-4.60248e-08
1.1306e-07
3.59119e-08
-9.67433e-08
4.41739e-09
-8.88572e-09
-1.16334e-07
2.39169e-08
2.0216e-07
1.91643e-07
5.19293e-08
-2.09626e-08
-3.52272e-08
-5.29966e-08
-8.93748e-10
-7.01419e-08
1.22396e-08
7.2145e-08
8.79086e-08
1.20149e-07
-1.01347e-08
8.53791e-08
2.15122e-07
1.08828e-07
-4.45107e-08
-4.06703e-08
1.06032e-07
7.4043e-08
1.0486e-07
8.78475e-08
3.17707e-08
1.01867e-07
4.70283e-08
3.63937e-08
1.5522e-08
-2.86949e-08
-6.49988e-08
-1.57239e-07
-7.77143e-08
1.49494e-07
1.11164e-08
-2.84581e-08
2.78121e-08
-9.14752e-08
-4.28699e-08
6.89514e-08
-1.75143e-08
-5.30612e-08
8.82188e-08
5.66871e-08
-8.26898e-08
-9.51902e-08
-2.84457e-08
-5.80855e-08
-5.56768e-09
1.61731e-07
5.5818e-08
-1.04906e-07
1.13285e-08
9.27112e-09
-4.34923e-08
9.88945e-08
3.81285e-08
-8.60271e-08
-1.34544e-09
-8.5443e-09
-1.02934e-07
2.32027e-08
1.89716e-07
1.81526e-07
5.16267e-08
-1.84633e-08
-3.11861e-08
-5.09748e-08
8.86087e-10
-6.16097e-08
8.98214e-09
7.14258e-08
8.45126e-08
1.16821e-07
1.51731e-09
8.14478e-08
2.01438e-07
1.07708e-07
-3.36447e-08
-3.53422e-08
1.00843e-07
7.34762e-08
1.00038e-07
8.91398e-08
3.16916e-08
9.55512e-08
4.94149e-08
3.67339e-08
1.64191e-08
-2.75407e-08
-6.12602e-08
-1.43589e-07
-7.99197e-08
1.34488e-07
1.64841e-08
-3.07633e-08
2.42209e-08
-7.86927e-08
-4.26651e-08
5.77687e-08
-1.20332e-08
-4.912e-08
7.44356e-08
5.25236e-08
-7.44051e-08
-9.21379e-08
-2.76858e-08
-4.82881e-08
-6.17079e-09
1.45639e-07
5.80717e-08
-9.40847e-08
5.74785e-09
1.23155e-08
-4.06508e-08
8.55125e-08
3.97302e-08
-7.57279e-08
-6.20098e-09
-8.20578e-09
-9.02934e-08
2.23663e-08
1.77467e-07
1.71847e-07
5.14695e-08
-1.6307e-08
-2.72914e-08
-4.86466e-08
2.09699e-09
-5.31971e-08
6.22379e-09
7.04745e-08
8.17308e-08
1.13454e-07
1.21866e-08
7.77809e-08
1.88421e-07
1.06558e-07
-2.31119e-08
-3.00584e-08
9.56001e-08
7.30053e-08
9.50461e-08
8.99709e-08
3.2304e-08
8.94965e-08
5.13085e-08
3.69969e-08
1.72345e-08
-2.61495e-08
-5.79021e-08
-1.30422e-07
-8.11304e-08
1.19544e-07
2.14291e-08
-3.21215e-08
2.03783e-08
-6.70582e-08
-4.18329e-08
4.72999e-08
-7.55676e-09
-4.49883e-08
6.17873e-08
4.79705e-08
-6.64808e-08
-8.86398e-08
-2.73388e-08
-3.94886e-08
-6.25726e-09
1.30503e-07
5.97743e-08
-8.33502e-08
6.24671e-10
1.45913e-08
-3.75499e-08
7.30439e-08
4.06741e-08
-6.5917e-08
-1.01101e-08
-7.85633e-09
-7.84969e-08
2.14589e-08
1.65527e-07
1.62596e-07
5.14305e-08
-1.44324e-08
-2.36182e-08
-4.60041e-08
2.79634e-09
-4.50423e-08
4.00889e-09
6.92586e-08
7.94959e-08
1.10088e-07
2.18449e-08
7.4463e-08
1.7611e-07
1.05345e-07
-1.30377e-08
-2.48056e-08
9.04004e-08
7.26121e-08
9.00151e-08
9.02532e-08
3.34851e-08
8.38085e-08
5.27172e-08
3.71864e-08
1.79583e-08
-2.45337e-08
-5.49119e-08
-1.17929e-07
-8.13278e-08
1.04847e-07
2.57785e-08
-3.25405e-08
1.64137e-08
-5.66713e-08
-4.0439e-08
3.76871e-08
-4.08509e-09
-4.07557e-08
5.03714e-08
4.31138e-08
-5.90393e-08
-8.47324e-08
-2.73017e-08
-3.17395e-08
-5.87515e-09
1.16413e-07
6.08673e-08
-7.28201e-08
-3.92066e-09
1.61121e-08
-3.42505e-08
6.15801e-08
4.09532e-08
-5.66596e-08
-1.30783e-08
-7.49004e-09
-6.75955e-08
2.05491e-08
1.53991e-07
1.53743e-07
5.14696e-08
-1.27581e-08
-2.02176e-08
-4.30692e-08
3.07024e-09
-3.72635e-08
2.36089e-09
6.77817e-08
7.77203e-08
1.06758e-07
3.04895e-08
7.15444e-08
1.64533e-07
1.04038e-07
-3.52545e-09
-1.9561e-08
8.53285e-08
7.22668e-08
8.50727e-08
8.99528e-08
3.51122e-08
7.85601e-08
5.36657e-08
3.73106e-08
1.8586e-08
-2.27189e-08
-5.22422e-08
-1.06257e-07
-8.05459e-08
9.05838e-08
2.93983e-08
-3.20835e-08
1.24513e-08
-4.75788e-08
-3.85674e-08
2.9038e-08
-1.56743e-09
-3.65196e-08
4.0232e-08
3.80566e-08
-5.21735e-08
-8.04743e-08
-2.74731e-08
-2.50534e-08
-5.09208e-09
1.03433e-07
6.13331e-08
-6.26134e-08
-7.80319e-09
1.6927e-08
-3.08228e-08
5.11751e-08
4.05864e-08
-4.80096e-08
-1.5145e-08
-7.10096e-09
-5.76021e-08
1.97003e-08
1.42935e-07
1.45257e-07
5.15543e-08
-1.12001e-08
-1.71251e-08
-3.98873e-08
3.02834e-09
-2.9961e-08
1.2849e-09
6.60626e-08
7.63095e-08
1.03499e-07
3.81393e-08
6.90537e-08
1.53709e-07
1.02617e-07
5.35128e-09
-1.43137e-08
8.04521e-08
7.19301e-08
8.03355e-08
8.90843e-08
3.70329e-08
7.37934e-08
5.41919e-08
3.73772e-08
1.91151e-08
-2.0741e-08
-4.98237e-08
-9.55068e-08
-7.88621e-08
7.69371e-08
3.21958e-08
-3.08526e-08
8.60737e-09
-3.97716e-08
-3.63185e-08
2.14074e-08
8.8526e-11
-3.23776e-08
3.13594e-08
3.29097e-08
-4.59474e-08
-7.59435e-08
-2.77617e-08
-1.94161e-08
-3.98551e-09
9.16029e-08
6.1177e-08
-5.28425e-08
-1.09662e-08
1.71123e-08
-2.73408e-08
4.18467e-08
3.96012e-08
-4.00079e-08
-1.63751e-08
-6.67831e-09
-4.85043e-08
1.89538e-08
1.32414e-07
1.37114e-07
5.16582e-08