/*--------------------------------*- C++ -*----------------------------------*\
| =========                 |                                                 |
| \\      /  F ield         | OpenFOAM: The Open Source CFD Toolbox           |
|  \\    /   O peration     | Version:  2312                                  |
|   \\  /    A nd           | Website:  www.openfoam.com                      |
|    \\/     M anipulation  |                                                 |
\*---------------------------------------------------------------------------*/
FoamFile
{
    version     2.0;
    format      ascii;
    arch        "LSB;label=32;scalar=64";
    class       volScalarField;
    location    "1000";
    object      pPrime2Mean;
}
// * * * * * * * * * * * * * * * * * * * * * * * * * * * * * * * * * * * * * //

dimensions      [0 4 -4 0 0 0 0];

internalField   nonuniform List<scalar> 
144000
(
5.47051e-16
4.064e-16
6.64608e-15
1.45965e-14
4.83782e-15
4.65029e-16
5.37991e-15
1.01511e-14
1.66529e-14
5.56638e-15
2.84124e-15
6.16251e-16
2.14027e-15
1.10681e-14
6.04463e-15
1.29305e-14
3.84495e-15
5.93439e-15
2.05091e-14
1.3545e-14
4.23141e-14
1.44592e-14
1.23693e-14
3.67277e-16
4.75469e-15
1.50423e-14
1.93882e-15
1.27898e-15
1.57071e-14
3.5585e-15
3.68741e-15
2.32146e-15
4.02573e-16
3.61446e-15
9.54774e-15
1.53842e-14
4.10652e-15
1.87755e-16
7.45595e-15
7.85547e-15
1.22849e-15
9.35833e-15
3.68192e-15
7.59471e-15
1.96596e-15
1.93524e-14
1.3501e-14
8.93048e-15
6.36317e-15
8.11948e-15
1.19147e-14
8.98946e-15
7.88692e-15
1.67582e-14
6.03973e-15
1.67022e-14
7.71765e-15
1.58857e-15
1.52605e-15
2.11477e-16
5.34061e-16
3.85578e-16
6.35084e-15
1.13857e-14
4.3928e-15
4.97881e-16
3.68597e-15
9.56266e-15
1.30153e-14
3.748e-15
2.62341e-15
6.15929e-16
2.03366e-15
8.07103e-15
4.20263e-15
9.70526e-15
2.13977e-15
5.49699e-15
1.61445e-14
1.14644e-14
3.58095e-14
1.1071e-14
9.37167e-15
2.9897e-16
3.24854e-15
1.16111e-14
1.61715e-15
7.86569e-16
1.23602e-14
3.27396e-15
3.60093e-15
2.26818e-15
3.6724e-16
2.09234e-15
8.99957e-15
1.21233e-14
3.67184e-15
2.07056e-16
5.37026e-15
5.66148e-15
1.11776e-15
6.86807e-15
3.33129e-15
5.24819e-15
1.01186e-15
1.51137e-14
1.02435e-14
8.34356e-15
6.29341e-15
7.79345e-15
9.09805e-15
8.1841e-15
5.47825e-15
1.29512e-14
4.01386e-15
1.29231e-14
5.22254e-15
1.40511e-15
1.46734e-15
2.00398e-16
5.00588e-16
3.55947e-16
5.62123e-15
9.51912e-15
3.50704e-15
5.57933e-16
2.60732e-15
8.09417e-15
1.07047e-14
2.53568e-15
1.95236e-15
5.54925e-16
1.78005e-15
6.23446e-15
2.85852e-15
6.99189e-15
1.38036e-15
4.26629e-15
1.30095e-14
8.76679e-15
2.94462e-14
9.142e-15
7.15469e-15
2.32478e-16
2.2118e-15
9.42607e-15
1.09047e-15
6.04501e-16
1.02723e-14
2.82781e-15
3.34104e-15
2.12665e-15
2.77982e-16
1.28744e-15
7.65723e-15
1.03243e-14
2.85072e-15
2.68319e-16
4.12072e-15
4.36697e-15
9.08816e-16
5.46495e-15
2.56761e-15
3.75894e-15
4.59182e-16
1.17604e-14
8.14763e-15
7.02044e-15
5.96031e-15
6.93025e-15
7.57445e-15
6.32154e-15
4.35901e-15
1.00342e-14
2.78158e-15
9.77411e-15
4.04797e-15
9.9057e-16
1.21064e-15
1.85582e-16
4.51836e-16
3.05681e-16
4.85016e-15
8.15201e-15
2.67376e-15
6.14108e-16
1.87339e-15
6.59856e-15
8.97284e-15
1.74041e-15
1.33126e-15
4.63353e-16
1.50166e-15
4.9373e-15
1.96991e-15
4.94022e-15
9.88097e-16
3.15705e-15
1.05322e-14
6.46394e-15
2.4098e-14
7.9232e-15
5.36542e-15
2.9694e-16
1.49214e-15
7.74661e-15
7.18588e-16
5.52003e-16
8.68903e-15
2.37598e-15
3.04189e-15
1.98965e-15
2.14044e-16
8.17301e-16
6.31685e-15
8.98856e-15
2.0857e-15
3.61572e-16
3.2707e-15
3.35174e-15
7.64031e-16
4.50638e-15
1.90488e-15
2.73743e-15
2.35268e-16
9.14196e-15
6.6343e-15
5.65348e-15
5.521e-15
6.0318e-15
6.48327e-15
4.55671e-15
3.67928e-15
7.74454e-15
2.04391e-15
7.2949e-15
3.34803e-15
6.28108e-16
9.21767e-16
1.68e-16
3.97296e-16
2.48442e-16
4.0967e-15
6.98599e-15
2.03006e-15
6.48651e-16
1.36334e-15
5.28981e-15
7.49744e-15
1.23916e-15
8.99531e-16
3.76732e-16
1.23353e-15
3.8575e-15
1.45033e-15
3.37698e-15
7.37449e-16
2.32807e-15
8.39052e-15
4.82522e-15
1.95153e-14
7.06849e-15
3.92301e-15
4.1141e-16
1.02239e-15
6.30364e-15
5.43796e-16
5.46968e-16
7.30802e-15
1.98593e-15
2.74142e-15
1.86897e-15
1.78405e-16
5.22228e-16
5.18382e-15
7.77106e-15
1.50901e-15
4.54366e-16
2.66407e-15
2.48131e-15
6.63595e-16
3.73904e-15
1.45797e-15
2.00606e-15
2.13517e-16
6.99184e-15
5.45761e-15
4.52391e-15
5.05746e-15
5.19045e-15
5.5308e-15
3.15492e-15
3.13887e-15
5.86447e-15
1.61826e-15
5.29801e-15
2.80138e-15
4.04851e-16
6.8304e-16
1.49702e-16
3.43798e-16
1.94545e-16
3.3753e-15
5.96082e-15
1.53942e-15
6.63082e-16
1.01064e-15
4.16034e-15
6.20829e-15
9.23553e-16
6.13e-16
3.00549e-16
9.83575e-16
2.96403e-15
1.15237e-15
2.20088e-15
5.61346e-16
1.71631e-15
6.56105e-15
3.66936e-15
1.55018e-14
6.38739e-15
2.75215e-15
5.24696e-16
7.17364e-16
5.04474e-15
4.99076e-16
5.42644e-16
6.08324e-15
1.66058e-15
2.44622e-15
1.75456e-15
1.68685e-16
3.38495e-16
4.22621e-15
6.63164e-15
1.09681e-15
5.2793e-16
2.20785e-15
1.73938e-15
5.88533e-16
3.11132e-15
1.16674e-15
1.46941e-15
2.70142e-16
5.24568e-15
4.52511e-15
3.61543e-15
4.59045e-15
4.41778e-15
4.67517e-15
2.086e-15
2.66941e-15
4.32207e-15
1.36737e-15
3.7203e-15
2.33797e-15
2.85764e-16
4.91642e-16
1.31531e-16
2.94866e-16
1.48044e-16
2.7162e-15
5.05691e-15
1.17046e-15
6.65097e-16
7.6453e-16
3.20129e-15
5.0857e-15
7.19932e-16
4.22385e-16
2.38786e-16
7.60444e-16
2.24814e-15
9.70652e-16
1.36255e-15
4.31618e-16
1.26631e-15
5.05025e-15
2.82746e-15
1.21336e-14
5.78973e-15
1.84897e-15
6.18777e-16
5.13837e-16
3.96707e-15
5.26481e-16
5.25468e-16
5.00833e-15
1.39209e-15
2.16099e-15
1.64285e-15
1.83908e-16
2.26959e-16
3.41747e-15
5.579e-15
8.19482e-16
5.75395e-16
1.8423e-15
1.15242e-15
5.35616e-16
2.59461e-15
9.76393e-16
1.09592e-15
3.43642e-16
3.89048e-15
3.76985e-15
2.8832e-15
4.13139e-15
3.73332e-15
3.913e-15
1.28925e-15
2.2476e-15
3.1047e-15
1.20725e-15
2.52075e-15
1.93658e-15
2.29193e-16
3.45741e-16
1.14519e-16
2.5083e-16
1.10849e-16
2.14292e-15
4.26212e-15
9.04068e-16
6.57147e-16
5.91514e-16
2.41207e-15
4.11833e-15
5.86362e-16
2.96058e-16
1.92087e-16
5.70838e-16
1.68895e-15
8.46381e-16
8.05451e-16
3.35964e-16
9.40092e-16
3.83744e-15
2.20466e-15
9.37584e-15
5.22776e-15
1.19323e-15
6.83152e-16
3.78049e-16
3.06345e-15
5.87468e-16
4.98481e-16
4.07798e-15
1.17558e-15
1.8914e-15
1.53171e-15
2.20955e-16
1.64585e-16
2.74696e-15
4.63074e-15
6.53348e-16
5.92212e-16
1.53584e-15
7.31327e-16
5.00754e-16
2.16646e-15
8.54512e-16
8.62951e-16
4.08579e-16
2.88444e-15
3.14692e-15
2.30085e-15
3.68503e-15
3.14798e-15
3.2444e-15
7.29529e-16
1.86264e-15
2.17918e-15
1.08733e-15
1.63791e-15
1.58539e-15
2.07154e-16
2.40026e-16
9.97743e-17
2.108e-16
8.22298e-17
1.66079e-15
3.56397e-15
7.20771e-16
6.39026e-16
4.70556e-16
1.78544e-15
3.2985e-15
4.97269e-16
2.12174e-16
1.58468e-16
4.16184e-16
1.26098e-15
7.47995e-16
4.59559e-16
2.64644e-16
7.07736e-16
2.88732e-15
1.73817e-15
7.16674e-15
4.67703e-15
7.44618e-16
7.11582e-16
2.90248e-16
2.32735e-15
6.54423e-16
4.67939e-16
3.28741e-15
1.0047e-15
1.64297e-15
1.41909e-15
2.73572e-16
1.35998e-16
2.20385e-15
3.80046e-15
5.71548e-16
5.7723e-16
1.2738e-15
4.61406e-16
4.76691e-16
1.8117e-15
7.76738e-16
7.25719e-16
4.57404e-16
2.16749e-15
2.6269e-15
1.84586e-15
3.25266e-15
2.65884e-15
2.66739e-15
3.67185e-16
1.51036e-15
1.49867e-15
9.82935e-16
1.01246e-15
1.27873e-15
2.01593e-16
1.67184e-16
8.65986e-17
1.74051e-16
6.10726e-17
1.26617e-15
2.95187e-15
5.99831e-16
6.11536e-16
3.87833e-16
1.30534e-15
2.61334e-15
4.35829e-16
1.55795e-16
1.34902e-16
2.94024e-16
9.37103e-16
6.60109e-16
2.61384e-16
2.11299e-16
5.44604e-16
2.15899e-15
1.38424e-15
5.43124e-15
4.13188e-15
4.59457e-16
7.03363e-16
2.37255e-16
1.7426e-15
7.08173e-16
4.38121e-16
2.62767e-15
8.70827e-16
1.41934e-15
1.30461e-15
3.33686e-16
1.30019e-16
1.77408e-15
3.09208e-15
5.45705e-16
5.35509e-16
1.05094e-15
3.12514e-16
4.54853e-16
1.5193e-15
7.25548e-16
6.52645e-16
4.91338e-16
1.67247e-15
2.19127e-15
1.4969e-15
2.83743e-15
2.25477e-15
2.17721e-15
1.57064e-16
1.19208e-15
1.01544e-15
8.82215e-16
5.90257e-16
1.01371e-15
2.00971e-16
1.19547e-16
7.41599e-17
1.40771e-16
4.66264e-17
9.52255e-16
2.41913e-15
5.22145e-16
5.74976e-16
3.33615e-16
9.48383e-16
2.04603e-15
3.91158e-16
1.17272e-16
1.18222e-16
2.008e-16
6.93928e-16
5.76774e-16
1.59898e-16
1.72315e-16
4.30884e-16
1.61183e-15
1.1127e-15
4.09011e-15
3.59952e-15
2.9604e-16
6.62618e-16
2.09244e-16
1.28728e-15
7.37789e-16
4.10917e-16
2.08613e-15
7.64882e-16
1.2223e-15
1.18934e-15
3.93126e-16
1.38622e-16
1.43811e-15
2.50089e-15
5.5024e-16
4.76846e-16
8.65774e-16
2.51718e-16
4.30884e-16
1.28085e-15
6.89371e-16
6.17825e-16
5.14374e-16
1.33859e-15
1.82866e-15
1.2334e-15
2.44554e-15
1.92311e-15
1.76713e-15
5.45019e-17
9.12005e-16
6.83526e-16
7.80659e-16
3.20225e-16
7.87883e-16
1.98454e-16
9.03377e-17
6.28469e-17
1.11481e-16
3.79082e-17
7.09028e-16
1.96024e-15
4.7234e-16
5.30764e-16
3.00377e-16
6.88985e-16
1.58096e-15
3.5632e-16
9.04798e-17
1.05658e-16
1.32638e-16
5.12238e-16
4.96803e-16
1.17483e-16
1.45171e-16
3.51942e-16
1.20792e-15
9.0242e-16
3.06829e-15
3.09198e-15
2.17177e-16
5.9719e-16
1.98398e-16
9.41467e-16
7.3984e-16
3.86906e-16
1.64836e-15
6.78753e-16
1.05143e-15
1.07534e-15
4.45296e-16
1.55847e-16
1.17789e-15
2.01731e-15
5.64895e-16
4.11954e-16
7.16232e-16
2.48143e-16
4.04124e-16
1.08826e-15
6.60852e-16
6.01111e-16
5.30372e-16
1.11668e-15
1.53134e-15
1.0365e-15
2.08418e-15
1.65149e-15
1.42886e-15
2.07859e-17
6.74275e-16
4.62242e-16
6.78553e-16
1.59905e-16
5.98949e-16
1.91097e-16
7.40023e-17
5.31712e-17
8.65e-17
3.36585e-17
5.24824e-16
1.56956e-15
4.38734e-16
4.81354e-16
2.81757e-16
5.03878e-16
1.20475e-15
3.26835e-16
7.14409e-17
9.52496e-17
8.54043e-17
3.7692e-16
4.20939e-16
1.07297e-16
1.27587e-16
2.96744e-16
9.1395e-16
7.38321e-16
2.29918e-15
2.62078e-15
1.91996e-16
5.16062e-16
1.98243e-16
6.85054e-16
7.16577e-16
3.65643e-16
1.29956e-15
6.06128e-16
9.04865e-16
9.64949e-16
4.85704e-16
1.7721e-16
9.7696e-16
1.62852e-15
5.76144e-16
3.50076e-16
5.98793e-16
2.75145e-16
3.76368e-16
9.33402e-16
6.36103e-16
5.9184e-16
5.41736e-16
9.68831e-16
1.29252e-15
8.89745e-16
1.75955e-15
1.42792e-15
1.15336e-15
2.59169e-17
4.80988e-16
3.188e-16
5.78719e-16
7.37098e-17
4.44646e-16
1.78613e-16
6.60706e-17
4.52691e-17
6.58547e-17
3.25633e-17
3.88171e-16
1.24149e-15
4.12784e-16
4.29775e-16
2.7226e-16
3.73841e-16
9.06803e-16
2.9975e-16
5.76575e-17
8.59326e-17
5.4817e-17
2.76535e-16
3.50524e-16
1.11628e-16
1.1735e-16
2.57392e-16
7.02158e-16
6.09505e-16
1.72606e-15
2.19449e-15
1.96671e-16
4.28085e-16
2.03285e-16
4.99455e-16
6.72659e-16
3.46642e-16
1.02546e-15
5.42603e-16
7.80135e-16
8.60301e-16
5.12165e-16
1.99597e-16
8.21459e-16
1.32038e-15
5.76846e-16
2.97438e-16
5.08839e-16
3.12697e-16
3.50569e-16
8.09204e-16
6.132e-16
5.83988e-16
5.49502e-16
8.67797e-16
1.10488e-15
7.79871e-16
1.47521e-15
1.24203e-15
9.31548e-16
4.8898e-17
3.30867e-16
2.27409e-16
4.84683e-16
3.59574e-17
3.22049e-16
1.62015e-16
6.30163e-17
3.91449e-17
4.93453e-17
3.35142e-17
2.88619e-16
9.70503e-16
3.88953e-16
3.78939e-16
2.67323e-16
2.83826e-16
6.75784e-16
2.73268e-16
4.75601e-17
7.72746e-17
3.67194e-17
2.02431e-16
2.8704e-16
1.19749e-16
1.12345e-16
2.28493e-16
5.50387e-16
5.0793e-16
1.3023e-15
1.81786e-15
2.14166e-16
3.41335e-16
2.09097e-16
3.68043e-16
6.14041e-16
3.29219e-16
8.12745e-16
4.85485e-16
6.74557e-16
7.63083e-16
5.2435e-16
2.20812e-16
7.00214e-16
1.07888e-15
5.65772e-16
2.57705e-16
4.41057e-16
3.47488e-16
3.29529e-16
7.09851e-16
5.91093e-16
5.74512e-16
5.53862e-16
7.95326e-16
9.60202e-16
6.96637e-16
1.23204e-15
1.08484e-15
7.54783e-16
7.64819e-17
2.19892e-16
1.69201e-16
3.99453e-16
2.63031e-17
2.26988e-16
1.42651e-16
6.22e-17
3.46749e-17
3.66988e-17
3.56683e-17
2.1727e-16
7.50894e-16
3.64155e-16
3.3102e-16
2.6341e-16
2.22381e-16
5.00047e-16
2.46635e-16
4.01478e-17
6.91959e-17
2.73802e-17
1.48437e-16
2.3187e-16
1.2592e-16
1.10717e-16
2.06466e-16
4.41524e-16
4.27537e-16
9.90297e-16
1.49211e-15
2.33384e-16
2.61766e-16
2.12443e-16
2.76915e-16
5.47031e-16
3.128e-16
6.49365e-16
4.33431e-16
5.85492e-16
6.74499e-16
5.23298e-16
2.39161e-16
6.04966e-16
8.91039e-16
5.43573e-16
2.31475e-16
3.90225e-16
3.72398e-16
3.14716e-16
6.30119e-16
5.69354e-16
5.62568e-16
5.54671e-16
7.39449e-16
8.49898e-16
6.32441e-16
1.02848e-15
9.49584e-16
6.15253e-16
1.01345e-16
1.42041e-16
1.31286e-16
3.24939e-16
3.15962e-17
1.55205e-16
1.22099e-16
6.18422e-17
3.1485e-17
2.74896e-17
3.83983e-17
1.66829e-16
5.76529e-16
3.37185e-16
2.87449e-16
2.58218e-16
1.81031e-16
3.69024e-16
2.19828e-16
3.47683e-17
6.17913e-17
2.37157e-17
1.09646e-16
1.85414e-16
1.27816e-16
1.10845e-16
1.88967e-16
3.62861e-16
3.63678e-16
7.60774e-16
1.21568e-15
2.47974e-16
1.93059e-16
2.11397e-16
2.14904e-16
4.77308e-16
2.96474e-16
5.2489e-16
3.85959e-16
5.10446e-16
5.95251e-16
5.10958e-16
2.53787e-16
5.29406e-16
7.45446e-16
5.13215e-16
2.17294e-16
3.5164e-16
3.84999e-16
3.06322e-16
5.65711e-16
5.47953e-16
5.48267e-16
5.51879e-16
6.93896e-16
7.65802e-16
5.81913e-16
8.61201e-16
8.31602e-16
5.06047e-16
1.20263e-16
9.04551e-17
1.05586e-16
2.61717e-16
4.31063e-17
1.02607e-16
1.0191e-16
6.0927e-17
2.92945e-17
2.11914e-17
4.124e-17
1.31633e-16
4.40952e-16
3.0814e-16
2.48988e-16
2.50452e-16
1.53649e-16
2.73259e-16
1.9333e-16
3.09928e-17
5.52092e-17
2.33551e-17
8.23135e-17
1.47747e-16
1.2519e-16
1.11395e-16
1.74504e-16
3.05197e-16
3.12733e-16
5.91555e-16
9.8499e-16
2.5507e-16
1.37362e-16
2.05136e-16
1.73369e-16
4.09382e-16
2.79848e-16
4.30497e-16
3.43001e-16
4.47133e-16
5.25549e-16
4.8985e-16
2.6439e-16
4.68811e-16
6.32632e-16
4.77853e-16
2.12396e-16
3.21638e-16
3.85903e-16
3.03492e-16
5.13476e-16
5.26924e-16
5.32196e-16
5.45637e-16
6.54564e-16
7.0083e-16
5.41217e-16
7.25912e-16
7.27965e-16
4.21142e-16
1.32568e-16
5.8525e-17
8.72663e-17
2.09297e-16
5.55476e-17
6.54608e-17
8.3265e-17
5.90373e-17
2.77745e-17
1.71823e-17
4.38312e-17
1.07297e-16
3.37684e-16
2.77868e-16
2.15899e-16
2.39709e-16
1.35842e-16
2.04156e-16
1.67846e-16
2.85135e-17
4.95158e-17
2.4608e-17
6.35838e-17
1.18018e-16
1.18959e-16
1.11296e-16
1.62159e-16
2.62066e-16
2.71852e-16
4.66171e-16
7.9516e-16
2.54211e-16
9.46723e-17
1.93838e-16
1.45862e-16
3.46452e-16
2.62645e-16
3.58944e-16
3.04589e-16
3.93508e-16
4.65185e-16
4.6264e-16
2.70627e-16
4.19679e-16
5.44967e-16
4.40502e-16
2.13711e-16
2.97532e-16
3.77338e-16
3.04631e-16
4.71034e-16
5.06341e-16
5.15056e-16
5.36031e-16
6.19322e-16
6.49215e-16
5.0772e-16
6.17923e-16
6.36903e-16
3.55432e-16
1.38915e-16
4.07239e-17
7.33423e-17
1.66662e-16
6.60177e-17
4.0458e-17
6.68784e-17
5.6161e-17
2.65893e-17
1.48243e-17
4.58808e-17
9.05023e-17
2.60584e-16
2.47522e-16
1.88001e-16
2.26203e-16
1.24467e-16
1.54922e-16
1.44039e-16
2.7063e-17
4.46726e-17
2.63988e-17
5.11895e-17
9.5462e-17
1.1047e-16
1.09962e-16
1.51277e-16
2.29009e-16
2.3882e-16
3.7259e-16
6.4073e-16
2.4635e-16
6.39659e-17
1.78292e-16
1.27677e-16
2.90484e-16
2.4486e-16
3.04469e-16
2.70684e-16
3.47789e-16
4.13595e-16
4.31893e-16
2.73061e-16
3.79307e-16
4.76465e-16
4.03599e-16
2.18319e-16
2.77473e-16
3.62192e-16
3.07893e-16
4.36388e-16
4.86248e-16
4.97452e-16
5.23664e-16
5.87172e-16
6.06683e-16
4.79579e-16
5.32636e-16
5.57231e-16
3.04707e-16
1.40479e-16
3.25438e-17
6.22145e-17
1.32633e-16
7.31743e-17
2.47273e-17
5.30411e-17
5.25334e-17
2.54646e-17
1.35541e-17
4.71713e-17
7.88176e-17
2.04028e-16
2.18246e-16
1.6481e-16
2.10553e-16
1.17269e-16
1.20243e-16
1.22472e-16
2.63957e-17
4.06064e-17
2.81242e-17
4.33573e-17
7.90049e-17
1.00984e-16
1.07197e-16
1.41486e-16
2.03017e-16
2.11901e-16
3.02146e-16
5.16216e-16
2.33108e-16
4.3495e-17
1.59795e-16
1.15454e-16
2.42411e-16
2.26717e-16
2.62598e-16
2.41103e-16
3.08493e-16
3.69897e-16
3.99794e-16
2.72072e-16
3.45575e-16
4.22534e-16
3.68861e-16
2.23933e-16
2.60447e-16
3.43281e-16
3.11392e-16
4.07925e-16
4.66654e-16
4.79867e-16
5.09125e-16
5.57529e-16
5.70183e-16
4.55431e-16
4.65739e-16
4.88021e-16
2.6548e-16
1.38535e-16
3.05129e-17
5.31335e-17
1.05977e-16
7.66437e-17
1.58537e-17
4.17322e-17
4.84806e-17
2.42227e-17
1.29329e-17
4.76006e-17
7.05363e-17
1.63163e-16
1.90992e-16
1.45697e-16
1.93582e-16
1.12583e-16
9.62225e-17
1.03516e-16
2.62981e-17
3.72289e-17
2.95286e-17
3.8693e-17
6.74078e-17
9.15461e-17
1.03164e-16
1.3251e-16
1.82067e-16
1.89723e-16
2.48655e-16
4.16517e-16
2.16281e-16
3.12214e-17
1.39768e-16
1.06842e-16
2.02333e-16
2.08424e-16
2.29931e-16
2.15532e-16
2.74473e-16
3.32958e-16
3.68056e-16
2.682e-16
3.16899e-16
3.79587e-16
3.37302e-16
2.28849e-16
2.45955e-16
3.22977e-16
3.13558e-16
3.84409e-16
4.47579e-16
4.6265e-16
4.93026e-16
5.30091e-16
5.37696e-16
4.34202e-16
4.13417e-16
4.28433e-16
2.34991e-16
1.34238e-16
3.20713e-17
4.56784e-17
8.53592e-17
7.66911e-17
1.18404e-17
3.27505e-17
4.42597e-17
2.27986e-17
1.26642e-17
4.71745e-17
6.44876e-17
1.33918e-16
1.66429e-16
1.30072e-16
1.76106e-16
1.09202e-16
7.97669e-17
8.73559e-17
2.65969e-17
3.44129e-17
3.05515e-17
3.61334e-17
5.95097e-17
8.28953e-17
9.82191e-17
1.24209e-16
1.64775e-16
1.71206e-16
2.07694e-16
3.37101e-16
1.97526e-16
2.5136e-17
1.19535e-16
1.00286e-16
1.69768e-16
1.90355e-16
2.03956e-16
1.93582e-16
2.4491e-16
3.01512e-16
3.37872e-16
2.62079e-16
2.92127e-16
3.44916e-16
3.09382e-16
2.3205e-16
2.33807e-16
3.02991e-16
3.13394e-16
3.64845e-16
4.29181e-16
4.45982e-16
4.75931e-16
5.04605e-16
5.07984e-16
4.15071e-16
3.72429e-16
3.77632e-16
2.11115e-16
1.2852e-16
3.54363e-17
3.96747e-17
6.95102e-17
7.39531e-17
1.10454e-17
2.5793e-17
4.00455e-17
2.12283e-17
1.25736e-17
4.59622e-17
5.9906e-17
1.1304e-16
1.44932e-16
1.17032e-16
1.58861e-16
1.06278e-16
6.86976e-17
7.39727e-17
2.71414e-17
3.20591e-17
3.12373e-17
3.49048e-17
5.43131e-17
7.54551e-17
9.28484e-17
1.16525e-16
1.50211e-16
1.55546e-16
1.76084e-16
2.74028e-16
1.78203e-16
2.34262e-17
1.00262e-16
9.47803e-17
1.43886e-16
1.72916e-16
1.82845e-16
1.74834e-16
2.1916e-16
2.74372e-16
3.09903e-16
2.54371e-16
2.70452e-16
3.16498e-16
2.85157e-16
2.33115e-16
2.23879e-16
2.84327e-16
3.10487e-16
3.48431e-16
4.11534e-16
4.29939e-16
4.58367e-16
4.80854e-16
4.80364e-16
3.97415e-16
3.40127e-16
3.34676e-16
1.92244e-16
1.22092e-16
3.947e-17
3.49799e-17
5.73513e-17
6.92076e-17
1.22385e-17
2.05369e-17
3.59744e-17
1.96278e-17
1.2573e-17
4.40783e-17
5.62983e-17
9.80329e-17
1.26607e-16
1.06332e-16
1.42426e-16
1.03261e-16
6.14543e-17
6.31795e-17
2.78325e-17
3.0091e-17
3.16567e-17
3.45055e-17
5.09773e-17
6.94186e-17
8.75046e-17
1.0942e-16
1.37741e-16
1.4217e-16
1.51509e-16
2.2398e-16
1.5932e-16
2.4593e-17
8.28192e-17
8.97376e-17
1.23682e-16
1.56473e-16
1.65306e-16
1.58878e-16
1.96621e-16
2.5058e-16
2.8443e-16
2.45703e-16
2.51327e-16
2.92753e-16
2.64448e-16
2.31972e-16
2.15986e-16
2.67427e-16
3.04927e-16
3.34488e-16
3.94658e-16
4.14527e-16
4.40766e-16
4.58682e-16
4.54518e-16
3.80753e-16
3.14415e-16
2.9863e-16
1.77158e-16
1.15474e-16
4.34759e-17
3.14721e-17
4.80226e-17
6.3191e-17
1.44703e-17
1.65881e-17
3.2152e-17
1.81388e-17
2.02613e-14
1.00447e-14
9.19218e-15
4.60667e-15
1.65267e-15
1.35247e-14
1.37828e-14
4.32631e-14
1.05821e-14
1.94686e-14
6.42794e-16
5.82747e-16
6.13274e-15
1.93535e-14
4.95198e-15
1.39984e-14
1.34443e-15
1.50687e-15
2.65475e-14
1.28618e-14
2.98072e-14
3.0225e-14
1.08607e-14
7.57606e-15
4.75243e-15
2.17114e-15
1.25133e-15
1.17373e-14
4.65002e-15
2.37565e-15
4.98148e-15
5.6853e-15
1.50226e-14
7.45472e-15
3.48866e-14
1.3337e-14
1.82213e-14
1.19587e-14
1.81259e-15
6.4621e-16
1.95135e-15
1.95367e-15
5.31488e-16
8.58482e-15
2.42633e-15
2.40969e-15
2.82931e-15
2.41291e-15
4.91962e-15
2.52501e-14
1.44916e-14
2.8489e-14
8.60638e-16
9.3138e-17
3.75735e-15
1.45391e-14
5.04257e-15
1.33482e-14
2.56875e-15
4.70236e-15
1.6011e-14
7.2635e-15
8.63348e-15
4.59933e-15
1.60529e-15
1.01648e-14
1.16036e-14
3.66478e-14
7.7188e-15
1.56122e-14
5.86371e-16
5.15667e-16
4.32958e-15
1.52257e-14
3.13385e-15
1.07208e-14
1.10313e-15
8.88323e-16
2.15309e-14
1.04107e-14
2.8464e-14
2.5098e-14
8.56811e-15
7.15744e-15
4.57946e-15
2.17936e-15
1.1726e-15
8.85709e-15
4.24602e-15
2.36155e-15
4.66743e-15
3.85898e-15
1.11678e-14
5.8753e-15
2.90214e-14
1.00383e-14
1.69178e-14
8.99709e-15
1.71611e-15
6.35346e-16
1.91428e-15
1.87513e-15
5.53048e-16
6.37783e-15
2.25711e-15
2.34091e-15
2.7396e-15
2.42518e-15
4.73433e-15
2.06144e-14
1.16514e-14
2.36034e-14
7.50715e-16
8.41072e-17
2.35575e-15
1.0936e-14
3.3656e-15
1.00357e-14
2.17049e-15
2.92238e-15
1.27396e-14
5.51872e-15
7.22341e-15
4.45215e-15
1.43686e-15
7.93532e-15
8.71971e-15
3.01218e-14
5.72509e-15
1.28818e-14
5.80055e-16
3.66642e-16
3.18054e-15
1.18103e-14
2.03092e-15
8.52613e-15
6.96793e-16
5.02575e-16
1.75734e-14
8.09884e-15
2.48467e-14
2.14364e-14
6.45937e-15
5.94958e-15
4.08963e-15
2.18157e-15
9.58122e-16
7.20002e-15
3.49617e-15
2.27578e-15
3.87645e-15
3.06073e-15
8.06864e-15
4.12666e-15
2.39298e-14
7.89199e-15
1.3705e-14
7.47912e-15
1.50474e-15
5.73242e-16
1.83158e-15
1.74335e-15
5.844e-16
5.01106e-15
1.91343e-15
2.15865e-15
2.55611e-15
2.44307e-15
4.27589e-15
1.7412e-14
8.66976e-15
1.98473e-14
6.88596e-16
8.48551e-17
1.58635e-15
8.09308e-15
2.16262e-15
7.75731e-15
1.42641e-15
2.02501e-15
1.0037e-14
4.31633e-15
5.7657e-15
4.23454e-15
1.27652e-15
6.26466e-15
6.25834e-15
2.45685e-14
4.41307e-15
1.0572e-14
5.923e-16
2.53085e-16
2.39474e-15
9.09418e-15
1.40683e-15
6.78223e-15
4.31375e-16
2.73006e-16
1.43055e-14
6.17657e-15
2.10581e-14
1.84606e-14
4.77433e-15
4.74458e-15
3.53127e-15
2.1436e-15
7.83565e-16
5.98918e-15
2.78821e-15
2.14077e-15
3.14409e-15
2.63336e-15
5.72574e-15
2.74544e-15
1.96389e-14
6.3674e-15
1.05603e-14
6.45704e-15
1.3023e-15
5.18601e-16
1.70774e-15
1.6071e-15
6.36164e-16
4.03552e-15
1.59436e-15
1.93697e-15
2.34015e-15
2.42407e-15
3.79732e-15
1.47751e-14
6.33555e-15
1.6519e-14
6.92742e-16
1.15025e-16
1.11368e-15
5.92036e-15
1.40666e-15
5.97145e-15
8.53807e-16
1.48694e-15
7.70188e-15
3.43845e-15
4.50869e-15
3.96946e-15
1.13334e-15
4.85149e-15
4.52588e-15
1.97089e-14
3.6047e-15
8.51868e-15
6.04938e-16
1.74189e-16
1.85419e-15
6.80219e-15
1.08661e-15
5.29587e-15
3.09696e-16
1.69802e-16
1.14505e-14
4.71507e-15
1.76517e-14
1.57876e-14
3.55727e-15
3.79116e-15
3.00452e-15
2.0605e-15
6.53067e-16
4.95138e-15
2.24447e-15
1.98409e-15
2.57496e-15
2.34187e-15
3.91544e-15
1.834e-15
1.59424e-14
5.21775e-15
8.00606e-15
5.58481e-15
1.13125e-15
4.81037e-16
1.55176e-15
1.49655e-15
6.70771e-16
3.28049e-15
1.36933e-15
1.73414e-15
2.12532e-15
2.35735e-15
3.36699e-15
1.23486e-14
4.82646e-15
1.34356e-14
7.50593e-16
1.5727e-16
8.12538e-16
4.18549e-15
9.90515e-16
4.48865e-15
5.02955e-16
1.11912e-15
5.7051e-15
2.7735e-15
3.44603e-15
3.66929e-15
1.00798e-15
3.66885e-15
3.32936e-15
1.548e-14
3.11487e-15
6.7028e-15
6.18315e-16
1.19848e-16
1.46773e-15
4.90698e-15
9.29356e-16
4.01904e-15
2.73507e-16
1.33087e-16
8.98963e-15
3.63222e-15
1.4637e-14
1.34175e-14
2.69429e-15
3.05095e-15
2.52025e-15
1.94266e-15
5.53021e-16
4.03414e-15
1.83783e-15
1.81407e-15
2.1275e-15
2.10867e-15
2.53338e-15
1.24745e-15
1.27732e-14
4.35234e-15
5.96872e-15
4.81017e-15
9.87506e-16
4.58198e-16
1.38177e-15
1.40963e-15
6.84129e-16
2.68339e-15
1.21575e-15
1.55453e-15
1.91803e-15
2.25046e-15
2.98618e-15
1.01149e-14
3.89149e-15
1.05815e-14
8.37927e-16
1.98494e-16
6.03357e-16
2.84439e-15
7.58862e-16
3.25031e-15
3.01668e-16
8.50636e-16
4.0861e-15
2.24503e-15
2.56712e-15
3.34579e-15
9.0512e-16
2.71972e-15
2.48289e-15
1.19138e-14
2.81429e-15
5.13517e-15
6.35255e-16
8.86168e-17
1.17363e-15
3.41956e-15
8.50684e-16
2.96487e-15
2.86857e-16
1.25868e-16
6.93655e-15
2.82107e-15
1.19978e-14
1.13658e-14
2.0739e-15
2.46882e-15
2.09088e-15
1.80285e-15
4.79545e-16
3.23019e-15
1.53475e-15
1.63921e-15
1.77599e-15
1.90487e-15
1.53115e-15
8.60667e-16
1.01204e-14
3.69784e-15
4.35524e-15
4.12166e-15
8.65092e-16
4.46182e-16
1.21154e-15
1.34021e-15
6.81314e-16
2.20665e-15
1.1076e-15
1.39747e-15
1.72475e-15
2.11345e-15
2.65382e-15
8.12644e-15
3.30021e-15
8.0614e-15
9.36273e-16
2.33594e-16
4.42591e-16
1.86496e-15
6.15515e-16
2.26241e-15
1.979e-16
6.43188e-16
2.83483e-15
1.8071e-15
1.86344e-15
3.00727e-15
8.2518e-16
1.9897e-15
1.87629e-15
9.02298e-15
2.61828e-15
3.81678e-15
6.55767e-16
7.62408e-17
9.37914e-16
2.29906e-15
8.02195e-16
2.12846e-15
3.26417e-16
1.32674e-16
5.27264e-15
2.20862e-15
9.72187e-15
9.60042e-15
1.62584e-15
2.00715e-15
1.72424e-15
1.64937e-15
4.28136e-16
2.5416e-15
1.30895e-15
1.46545e-15
1.50453e-15
1.71889e-15
8.48449e-16
6.0313e-16
7.94633e-15
3.19166e-15
3.10611e-15
3.50367e-15
7.60705e-16
4.41761e-16
1.05075e-15
1.28103e-15
6.66171e-16
1.8269e-15
1.02855e-15
1.26188e-15
1.54953e-15
1.95767e-15
2.37004e-15
6.41834e-15
2.90462e-15
5.9175e-15
1.02955e-15
2.56974e-16
3.13725e-16
1.18458e-15
5.13506e-16
1.51019e-15
1.5496e-16
4.77335e-16
1.90703e-15
1.4346e-15
1.31761e-15
2.65893e-15
7.64552e-16
1.45004e-15
1.43729e-15
6.72952e-15
2.46604e-15
2.73526e-15
6.75517e-16
7.56198e-17
7.42272e-16
1.48656e-15
7.56034e-16
1.48716e-15
3.72351e-16
1.4543e-16
3.95387e-15
1.74438e-15
7.78648e-15
8.08113e-15
1.30341e-15
1.63655e-15
1.42027e-15
1.48603e-15
3.94143e-16
1.96867e-15
1.13756e-15
1.29625e-15
1.29573e-15
1.546e-15
4.16576e-16
4.32586e-16
6.1918e-15
2.78632e-15
2.16671e-15
2.94634e-15
6.74248e-16
4.41644e-16
9.0616e-16
1.22376e-15
6.43005e-16
1.52706e-15
9.67106e-16
1.14555e-15
1.39328e-15
1.7902e-15
2.13003e-15
5.0003e-15
2.60718e-15
4.1666e-15
1.10187e-15
2.64891e-16
2.12583e-16
7.3003e-16
4.30005e-16
9.62726e-16
1.43902e-16
3.44799e-16
1.24173e-15
1.11558e-15
9.06653e-16
2.30674e-15
7.16956e-16
1.06409e-15
1.11533e-15
4.94786e-15
2.31786e-15
1.87712e-15
6.87372e-16
8.0509e-17
5.78128e-16
9.23952e-16
6.9868e-16
1.01106e-15
4.09501e-16
1.59534e-16
2.93207e-15
1.3904e-15
6.16547e-15
6.77473e-15
1.07235e-15
1.33466e-15
1.17354e-15
1.31636e-15
3.72597e-16
1.50624e-15
1.00203e-15
1.13363e-15
1.13373e-15
1.38495e-15
1.71449e-16
3.19027e-16
4.79048e-15
2.45062e-15
1.48435e-15
2.44476e-15
6.06123e-16
4.43835e-16
7.82153e-16
1.16191e-15
6.16737e-16
1.29253e-15
9.15401e-16
1.04573e-15
1.25527e-15
1.61831e-15
1.92676e-15
3.85855e-15
2.3476e-15
2.79797e-15
1.13903e-15
2.57931e-16
1.38072e-16
4.38611e-16
3.55168e-16
5.83156e-16
1.43786e-16
2.41675e-16
7.83441e-16
8.44615e-16
6.07671e-16
1.96077e-15
6.77204e-16
7.95222e-16
8.75897e-16
3.59177e-15
2.15368e-15
1.22437e-15
6.84227e-16
8.62232e-17
4.41943e-16
5.53202e-16
6.27235e-16
6.6974e-16
4.28897e-16
1.72648e-16
2.15708e-15
1.1182e-15
4.82954e-15
5.65224e-15
9.06769e-16
1.08527e-15
9.76106e-16
1.1461e-15
3.59021e-16
1.14376e-15
8.88346e-16
9.80368e-16
1.00551e-15
1.23582e-15
5.78855e-17
2.42214e-16
3.68477e-15
2.16335e-15
1.00913e-15
1.9968e-15
5.54537e-16
4.4667e-16
6.79693e-16
1.09235e-15
5.91127e-16
1.11036e-15
8.68552e-16
9.60088e-16
1.13418e-15
1.44894e-15
1.75142e-15
2.96257e-15
2.09543e-15
1.77518e-15
1.13232e-15
2.39571e-16
8.81644e-17
2.60505e-16
2.86242e-16
3.34243e-16
1.42581e-16
1.64399e-16
4.78446e-16
6.19533e-16
3.98152e-16
1.63284e-15
6.4099e-16
6.10669e-16
6.96169e-16
2.58132e-15
1.96831e-15
7.52633e-16
6.61471e-16
9.0795e-17
3.31647e-16
3.2351e-16
5.4515e-16
4.34722e-16
4.27589e-16
1.83469e-16
1.58074e-15
9.068e-16
3.74637e-15
4.68883e-15
7.87231e-16
8.76891e-16
8.1946e-16
9.81792e-16
3.49594e-16
8.67364e-16
7.87151e-16
8.39409e-16
9.01057e-16
1.099e-15
3.04741e-17
1.89192e-16
2.82282e-15
1.91095e-15
6.9477e-16
1.60308e-15
5.16229e-16
4.48756e-16
5.97727e-16
1.01532e-15
5.68792e-16
9.6915e-16
8.23965e-16
8.86241e-16
1.02839e-15
1.28798e-15
1.59551e-15
2.27472e-15
1.84106e-15
1.05152e-15
1.08032e-15
2.15236e-16
5.91649e-17
1.55361e-16
2.23948e-16
1.80885e-16
1.35622e-16
1.09465e-16
2.82827e-16
4.38582e-16
2.5673e-16
1.33287e-15
6.05218e-16
4.8439e-16
5.60851e-16
1.84287e-15
1.76486e-15
4.33344e-16
6.1789e-16
9.37923e-17
2.45099e-16
1.91392e-16
4.58487e-16
2.80558e-16
4.07305e-16
1.91371e-16
1.16013e-15
7.40927e-16
2.88168e-15
3.86445e-15
6.99354e-16
7.01193e-16
6.95505e-16
8.29162e-16
3.4144e-16
6.61849e-16
6.9338e-16
7.13079e-16
8.12958e-16
9.75154e-16
5.43887e-17
1.52047e-16
2.15815e-15
1.68533e-15
5.00101e-16
1.26441e-15
4.87422e-16
4.48819e-16
5.33678e-16
9.33903e-16
5.50671e-16
8.58993e-16
7.8052e-16
8.22161e-16
9.36157e-16
1.13964e-15
1.45232e-15
1.75846e-15
1.58712e-15
5.72295e-16
9.8793e-16
1.90078e-16
4.60779e-17
9.57826e-17
1.70109e-16
9.26738e-17
1.22885e-16
7.30443e-17
1.62109e-16
2.9874e-16
1.64812e-16
1.06704e-15
5.67748e-16
3.96854e-16
4.59072e-16
1.31256e-15
1.54981e-15
2.34521e-16
5.55826e-16
9.57886e-17
1.79677e-16
1.22344e-16
3.7354e-16
1.85227e-16
3.72628e-16
1.96095e-16
8.58195e-16
6.09617e-16
2.20105e-15
3.16301e-15
6.32403e-16
5.52677e-16
5.97024e-16
6.92385e-16
3.32696e-16
5.12165e-16
6.05084e-16
6.02539e-16
7.35818e-16
8.64666e-16
1.04475e-16
1.26326e-16
1.65066e-15
1.48178e-15
3.90682e-16
9.80723e-16
4.64402e-16
4.45818e-16
4.84404e-16
8.51807e-16
5.36292e-16
7.72167e-16
7.38127e-16
7.66098e-16
8.55729e-16
1.0065e-15
1.31711e-15
1.37601e-15
1.34212e-15
2.81136e-16
8.65569e-16
1.67864e-16
4.33583e-17
6.18992e-17
1.26057e-16
4.59977e-17
1.06545e-16
5.09794e-17
9.05558e-17
1.95541e-16
1.07416e-16
8.39188e-16
5.27495e-16
3.34523e-16
3.82726e-16
9.37419e-16
1.33312e-15
1.25317e-16
4.80456e-16
9.73446e-17
1.32233e-16
9.10218e-17
2.95826e-16
1.30503e-16
3.29307e-16
1.97482e-16
6.44335e-16
5.05008e-16
1.67194e-15
2.57049e-15
5.78493e-16
4.2783e-16
5.17808e-16
5.73516e-16
3.21881e-16
4.0464e-16
5.22446e-16
5.08044e-16
6.65929e-16
7.67189e-16
1.63531e-16
1.0968e-16
1.26668e-15
1.29773e-15
3.36952e-16
7.50038e-16
4.43987e-16
4.39398e-16
4.46654e-16
7.72159e-16
5.24586e-16
7.02683e-16
6.97098e-16
7.16621e-16
7.85482e-16
8.89599e-16
1.18713e-15
1.09587e-15
1.11534e-15
1.24676e-16
7.26317e-16
1.50646e-16
4.59612e-17
4.31415e-17
9.19339e-17
2.40846e-17
8.92407e-17
3.90943e-17
4.99016e-17
1.23506e-16
7.30112e-17
6.49771e-16
4.84376e-16
2.88369e-16
3.25504e-16
6.75115e-16
1.12437e-15
7.82047e-17
3.9851e-16
9.87317e-17
9.93147e-17
7.98742e-17
2.29724e-16
1.02102e-16
2.82994e-16
1.95616e-16
4.94361e-16
4.21354e-16
1.26536e-15
2.07414e-15
5.32057e-16
3.2417e-16
4.52638e-16
4.73016e-16
3.08075e-16
3.27972e-16
4.46674e-16
4.28815e-16
6.0095e-16
6.81761e-16
2.20595e-16
1.00804e-16
9.78275e-16
1.13206e-15
3.18343e-16
5.6928e-16
4.23886e-16
4.29704e-16
4.17569e-16
6.97698e-16
5.14126e-16
6.45912e-16
6.57769e-16
6.72529e-16
7.23924e-16