/*--------------------------------*- C++ -*----------------------------------*\
| =========                 |                                                 |
| \\      /  F ield         | OpenFOAM: The Open Source CFD Toolbox           |
|  \\    /   O peration     | Version:  2312                                  |
|   \\  /    A nd           | Website:  www.openfoam.com                      |
|    \\/     M anipulation  |                                                 |
\*---------------------------------------------------------------------------*/
FoamFile
{
    version     2.0;
    format      ascii;
    arch        "LSB;label=32;scalar=64";
    class       volScalarField;
    location    "560";
    object      nut;
}
// * * * * * * * * * * * * * * * * * * * * * * * * * * * * * * * * * * * * * //

dimensions      [0 2 -1 0 0 0 0];

internalField   nonuniform List<scalar> 
144000
(
2.62774e-28
4.68121e-29
1.52327e-29
5.27592e-28
1.29841e-28
7.62964e-32
4.9488e-29
1.1743e-29
3.31254e-29
2.05585e-29
3.02744e-29
2.25551e-29
3.30172e-29
2.77517e-29
3.06321e-29
2.48312e-29
3.58348e-29
3.67289e-29
3.57005e-29
3.32138e-29
4.07175e-29
4.14167e-29
4.2119e-29
4.05385e-29
4.10096e-29
4.08701e-29
4.60961e-29
4.58661e-29
4.67182e-29
4.47424e-29
4.28639e-29
4.05002e-29
4.78755e-29
4.67551e-29
4.39562e-29
3.89343e-29
3.61761e-29
3.24917e-29
3.19782e-29
2.50056e-29
2.47768e-29
1.70529e-29
3.44028e-29
2.33753e-29
1.95753e-29
1.55247e-29
8.02305e-30
4.00352e-30
1.24323e-30
2.88621e-31
1.30776e-31
2.33002e-30
1.88309e-29
6.33668e-29
3.1109e-28
1.1937e-28
1.49604e-27
8.80483e-26
1.49325e-25
1.39737e-26
7.49116e-26
3.74676e-27
2.76176e-27
5.32821e-27
9.51087e-29
2.43532e-30
9.20711e-29
3.15378e-29
4.74953e-29
6.39856e-29
4.53283e-29
6.17468e-29
5.42271e-29
7.08634e-29
5.607e-29
5.73778e-29
6.41517e-29
8.60313e-29
7.02366e-29
7.05217e-29
7.78514e-29
9.16797e-29
8.2211e-29
8.65844e-29
7.99637e-29
8.55958e-29
8.86592e-29
9.75058e-29
9.09949e-29
9.23213e-29
8.41581e-29
8.04553e-29
9.03803e-29
9.56984e-29
8.51565e-29
7.46621e-29
6.90417e-29
6.0419e-29
6.04009e-29
5.02696e-29
4.95081e-29
4.08459e-29
7.40363e-29
3.40772e-29
4.18085e-29
2.75473e-29
1.72041e-29
5.30549e-30
2.61733e-30
2.15683e-31
1.49814e-31
9.08652e-30
3.24637e-29
1.94683e-28
5.44514e-28
5.61836e-28
1.87327e-27
2.09701e-25
8.71512e-25
9.07323e-27
2.29825e-25
2.24157e-26
1.74834e-26
5.60303e-27
3.59365e-28
1.98608e-30
1.2147e-28
5.0823e-29
6.70828e-29
8.37033e-29
7.09707e-29
7.79087e-29
8.45664e-29
9.04124e-29
8.41042e-29
7.74597e-29
9.66728e-29
1.12116e-28
1.03712e-28
9.59765e-29
1.14063e-28
1.22336e-28
1.18861e-28
1.17826e-28
1.14245e-28
1.18489e-28
1.26162e-28
1.32601e-28
1.286e-28
1.2644e-28
1.17198e-28
1.13135e-28
1.25857e-28
1.29296e-28
1.17654e-28
1.02181e-28
9.50887e-29
8.41818e-29
8.50092e-29
7.17899e-29
7.63743e-29
5.79239e-29
1.11012e-28
4.25954e-29
6.49213e-29
3.66393e-29
2.47581e-29
7.86176e-30
3.69012e-30
5.18052e-31
2.97295e-31
9.25106e-30
5.34161e-29
2.30213e-28
8.05589e-28
4.91078e-28
6.28057e-27
3.54737e-25
9.13656e-25
7.26419e-26
9.63522e-25
2.42488e-25
6.63331e-26
2.4416e-26
3.82347e-28
3.39779e-30
1.22293e-28
5.79227e-29
6.88929e-29
8.32369e-29
7.42443e-29
7.65678e-29
8.83686e-29
8.92419e-29
8.76931e-29
7.59383e-29
9.93301e-29
1.1134e-28
1.06739e-28
9.40052e-29
1.17148e-28
1.20384e-28
1.22133e-28
1.15348e-28
1.16848e-28
1.16422e-28
1.27678e-28
1.31212e-28
1.30174e-28
1.24033e-28
1.18575e-28
1.11016e-28
1.25939e-28
1.28161e-28
1.18098e-28
1.00722e-28
9.68046e-29
8.45898e-29
8.94351e-29
7.51329e-29
8.1342e-29
6.9546e-29
1.08079e-28
4.1859e-29
7.36314e-29
3.51656e-29
2.83399e-29
7.59711e-30
4.93192e-30
7.85729e-31
1.27241e-31
9.96192e-30
4.42469e-29
2.1691e-28
6.82825e-28
4.27833e-28
7.98087e-27
5.31949e-25
1.32987e-24
3.98416e-25
2.04254e-24
1.23173e-24
1.14615e-25
8.44492e-26
8.56505e-28
8.42602e-30
1.35749e-28
6.93308e-29
6.98563e-29
8.86727e-29
7.31907e-29
8.06762e-29
8.9179e-29
9.26883e-29
8.88548e-29
7.71795e-29
1.00851e-28
1.14666e-28
1.08114e-28
9.40653e-29
1.1991e-28
1.21295e-28
1.24685e-28
1.14668e-28
1.19216e-28
1.15886e-28
1.30285e-28
1.31821e-28
1.32021e-28
1.23895e-28
1.20571e-28
1.10704e-28
1.28788e-28
1.30732e-28
1.20559e-28
1.02975e-28
1.01034e-28
8.90052e-29
9.58731e-29
8.00214e-29
8.50228e-29
7.12604e-29
1.00821e-28
4.85514e-29
8.10329e-29
3.64577e-29
3.20661e-29
8.36069e-30
6.85842e-30
1.53018e-30
6.33155e-32
9.98653e-30
3.51621e-29
1.98184e-28
5.37299e-28
3.2675e-28
1.15325e-26
8.62078e-25
1.80423e-24
1.67921e-24
3.03386e-24
3.82687e-24
1.31632e-25
2.12389e-25
2.26201e-27
2.27263e-29
1.64741e-28
8.41612e-29
7.62545e-29
9.60825e-29
7.38622e-29
8.65243e-29
9.19336e-29
9.86655e-29
9.14696e-29
8.10488e-29
1.05527e-28
1.21758e-28
1.11433e-28
9.78698e-29
1.25849e-28
1.26711e-28
1.30226e-28
1.17896e-28
1.25044e-28
1.19553e-28
1.37416e-28
1.37174e-28
1.38531e-28
1.28268e-28
1.27038e-28
1.15322e-28
1.38174e-28
1.39241e-28
1.28865e-28
1.10608e-28
1.10572e-28
9.83639e-29
1.05528e-28
8.55895e-29
8.63436e-29
7.95989e-29
1.00912e-28
6.19248e-29
9.03999e-29
4.20158e-29
3.71918e-29
1.09238e-29
1.02313e-29
3.37037e-30
1.81662e-31
1.00517e-29
2.65751e-29
1.73395e-28
3.82106e-28
2.10738e-28
1.70361e-26
1.39194e-24
2.28918e-24
4.87824e-24
3.681e-24
9.00859e-24
1.14728e-25
4.3605e-25
5.6477e-27
5.12374e-29
2.07196e-28
1.01343e-28
8.72387e-29
1.02614e-28
7.70806e-29
9.13577e-29
9.69753e-29
1.04418e-28
9.52958e-29
8.57701e-29
1.12774e-28
1.29817e-28
1.15969e-28
1.03522e-28
1.33787e-28
1.34084e-28
1.36968e-28
1.2309e-28
1.32715e-28
1.25863e-28
1.47474e-28
1.44802e-28
1.47475e-28
1.35295e-28
1.36413e-28
1.23566e-28
1.52117e-28
1.51019e-28
1.40796e-28
1.21392e-28
1.23788e-28
1.10954e-28
1.17457e-28
9.2308e-29
8.87237e-29
8.28639e-29
1.04368e-28
8.28418e-29
1.03869e-28
5.18085e-29
4.44483e-29
1.62469e-29
1.64763e-29
7.86037e-30
1.1574e-30
1.1109e-29
2.10712e-29
1.41914e-28
2.46128e-28
1.27294e-28
2.2968e-26
2.15222e-24
2.96694e-24
1.10086e-23
3.83442e-24
1.74568e-23
7.82007e-26
7.70063e-25
1.26789e-26
9.44127e-29
2.62191e-28
1.19424e-28
1.0068e-28
1.0916e-28
8.1853e-29
9.51509e-29
1.03616e-28
1.09675e-28
1.0021e-28
9.05644e-29
1.21566e-28
1.37876e-28
1.21277e-28
1.09706e-28
1.42792e-28
1.42439e-28
1.44288e-28
1.29362e-28
1.4161e-28
1.33641e-28
1.58698e-28
1.54044e-28
1.58107e-28
1.43912e-28
1.47863e-28
1.33941e-28
1.68717e-28
1.65159e-28
1.55371e-28
1.34604e-28
1.40557e-28
1.26878e-28
1.32435e-28
1.00655e-28
9.31706e-29
9.30549e-29
1.09392e-28
1.10431e-28
1.23662e-28
6.71025e-29
5.55051e-29
2.64714e-29
2.83362e-29
1.86359e-29
5.77824e-30
1.75407e-29
2.45842e-29
1.21547e-28
1.82104e-28
1.79001e-28
2.92041e-26
3.17201e-24
3.94106e-24
2.04543e-23
3.64988e-24
2.98199e-23
4.18998e-26
1.22669e-24
2.64962e-26
1.5645e-28
3.35053e-28
1.34668e-28
1.15155e-28
1.16686e-28
8.74505e-29
9.85825e-29
1.11868e-28
1.1458e-28
1.06084e-28
9.56786e-29
1.32512e-28
1.45787e-28
1.27444e-28
1.16308e-28
1.53682e-28
1.51335e-28
1.52162e-28
1.36645e-28
1.51726e-28
1.42769e-28
1.7194e-28
1.64499e-28
1.69801e-28
1.54323e-28
1.61184e-28
1.46527e-28
1.88654e-28
1.81664e-28
1.72538e-28
1.51231e-28
1.62443e-28
1.48655e-28
1.55136e-28
1.17161e-28
1.09186e-28
1.15369e-28
1.06493e-28
1.50054e-28
1.53717e-28
9.08721e-29
7.31512e-29
4.56393e-29
5.20597e-29
4.34656e-29
2.2112e-29
4.12974e-29
5.57281e-29
1.49765e-28
2.94713e-28
7.0734e-28
3.39311e-26
4.48642e-24
5.78099e-24
3.34782e-23
3.23179e-24
4.61645e-23
2.40981e-26
1.78602e-24
5.15217e-26
2.4374e-28
4.33367e-28
1.46152e-28
1.29979e-28
1.25862e-28
9.35642e-29
1.02118e-28
1.21424e-28
1.19456e-28
1.13301e-28
1.00938e-28
1.45113e-28
1.53562e-28
1.34792e-28
1.23136e-28
1.66134e-28
1.60613e-28
1.61227e-28
1.44606e-28
1.6351e-28
1.5298e-28
1.86397e-28
1.7628e-28
1.83211e-28
1.66138e-28
1.76739e-28
1.6124e-28
2.11302e-28
2.01213e-28
1.93563e-28
1.72434e-28
1.92e-28
1.79829e-28
1.90853e-28
1.50225e-28
1.5993e-28
1.15586e-28
9.16284e-29
2.03551e-28
1.98673e-28
1.28468e-28
1.02267e-28
8.13495e-29
9.98853e-29
9.78551e-29
7.10259e-29
1.14103e-28
1.7654e-28
3.26518e-28
9.27321e-28
2.91592e-27
3.79104e-26
6.14804e-24
8.90095e-24
4.94293e-23
2.98406e-24
6.65711e-23
2.91836e-26
2.42808e-24
9.40311e-26
3.79123e-28
5.76177e-28
1.5176e-28
1.43948e-28
1.37213e-28
9.99546e-29
1.05866e-28
1.32346e-28
1.24374e-28
1.21434e-28
1.06693e-28
1.59673e-28
1.6115e-28
1.43127e-28
1.30344e-28
1.80687e-28
1.69882e-28
1.7134e-28
1.53241e-28
1.76874e-28
1.64217e-28
2.03053e-28
1.88794e-28
1.98054e-28
1.79642e-28
1.94638e-28
1.78532e-28
2.37896e-28
2.23917e-28
2.1893e-28
1.99237e-28
2.3055e-28
2.21156e-28
2.38781e-28
1.96333e-28
2.10867e-28
1.37234e-28
9.65322e-29
2.45075e-28
2.81893e-28
1.82262e-28
1.51857e-28
1.44884e-28
1.90465e-28
2.12025e-28
1.98085e-28
3.14669e-28
5.44925e-28
9.25284e-28
3.00793e-27
9.26896e-27
3.96846e-26
8.30062e-24
1.47857e-23
6.76387e-23
2.91268e-24
9.06316e-23
9.16387e-26
3.12002e-24
1.62136e-25
6.26629e-28
7.59417e-28
1.49567e-28
1.57054e-28
1.51889e-28
1.0585e-28
1.10511e-28
1.43594e-28
1.30163e-28
1.30161e-28
1.13067e-28
1.75117e-28
1.69025e-28
1.52141e-28
1.38025e-28
1.96426e-28
1.79431e-28
1.82524e-28
1.62525e-28
1.91979e-28
1.76315e-28
2.20706e-28
2.0237e-28
2.15144e-28
1.94627e-28
2.15359e-28
1.98258e-28
2.68041e-28
2.50504e-28
2.49707e-28
2.32338e-28
2.79446e-28
2.72882e-28
2.98252e-28
2.63788e-28
2.99448e-28
1.97216e-28
9.81957e-29
2.85992e-28
4.11633e-28
2.61301e-28
2.35835e-28
2.54577e-28
3.52685e-28
4.38807e-28
4.90874e-28
7.97748e-28
1.48021e-27
2.52979e-27
8.30392e-27
2.36736e-26
4.14414e-26
1.12173e-23
2.4155e-23
8.65199e-23
3.68152e-24
1.17844e-22
2.49539e-25
3.82633e-24
2.61985e-25
1.14149e-27
1.02132e-27
1.33442e-28
1.70835e-28
1.6955e-28
1.11238e-28
1.1591e-28
1.55249e-28
1.36839e-28
1.38636e-28
1.20383e-28
1.91892e-28
1.77073e-28
1.61324e-28
1.46405e-28
2.13902e-28
1.89098e-28
1.94157e-28
1.72816e-28
2.08342e-28
1.89238e-28
2.40757e-28
2.16745e-28
2.33729e-28
2.11811e-28
2.3884e-28
2.20882e-28
3.0415e-28
2.81858e-28
2.87927e-28
2.77346e-28
3.51452e-28
3.62736e-28
4.44904e-28
5.64204e-28
1.13991e-27
5.81009e-28
1.13793e-29
5.20748e-28
4.88329e-28
4.21883e-28
3.5796e-28
4.51384e-28
6.44177e-28
8.61936e-28
1.09106e-27
1.82957e-27
3.51259e-27
6.11688e-27
1.93781e-26
5.05599e-26
4.16791e-26
1.51626e-23
4.04133e-23
1.04515e-22
5.68768e-24
1.49574e-22
5.56791e-25
4.57873e-24
3.9889e-25
2.27794e-27
1.35017e-27
1.07262e-28
1.84708e-28
1.90722e-28
1.1617e-28
1.21855e-28
1.67177e-28
1.44161e-28
1.47645e-28
1.28334e-28
2.08753e-28
1.85604e-28
1.7096e-28
1.55477e-28
2.31855e-28
1.99237e-28
2.06677e-28
1.83866e-28
2.26296e-28
2.03061e-28
2.61754e-28
2.32579e-28
2.54642e-28
2.3084e-28
2.65866e-28
2.46613e-28
3.45015e-28
3.19272e-28
3.35655e-28
3.36224e-28
4.52806e-28
5.03092e-28
7.27561e-28
1.34278e-27
2.37689e-27
8.15115e-29
2.1645e-29
6.22494e-28
5.91e-28
6.88634e-28
5.39835e-28
7.7848e-28
1.14396e-27
1.60288e-27
2.21747e-27
3.78983e-27
7.4085e-27
1.30169e-26
3.9554e-26
9.48434e-26
4.18772e-26
2.05489e-23
6.53861e-23
1.2066e-22
1.03593e-23
1.84154e-22
9.92951e-25
5.39728e-24
5.68931e-25
4.70885e-27
1.74116e-27
7.65091e-29
1.99689e-28
2.14067e-28
1.21491e-28
1.27292e-28
1.80712e-28
1.51222e-28
1.57246e-28
1.36716e-28
2.26821e-28
1.93944e-28
1.81029e-28
1.65154e-28
2.51248e-28
2.09319e-28
2.19927e-28
1.95897e-28
2.45494e-28
2.17849e-28
2.84946e-28
2.49402e-28
2.77291e-28
2.52246e-28
2.9566e-28
2.75127e-28
3.89861e-28
3.57616e-28
3.81717e-28
3.8554e-28
5.1786e-28
5.41721e-28
7.48446e-28
1.27889e-27
8.63273e-29
1.94286e-27
3.93876e-27
7.9585e-29
1.33244e-27
8.47507e-28
9.11284e-28
1.22784e-27
1.97604e-27
2.80684e-27
4.14916e-27
7.1758e-27
1.40607e-26
2.48054e-26
7.18544e-26
1.59731e-25
4.14583e-26
2.78795e-23
1.04165e-22
1.32138e-22
1.78344e-23
2.204e-22
1.68746e-24
6.48229e-24
7.69294e-25
9.56917e-27
2.13741e-27
4.89449e-29
2.14419e-28
2.42067e-28
1.25589e-28
1.33489e-28
1.94388e-28
1.58974e-28
1.67373e-28
1.4562e-28
2.44627e-28
2.02838e-28
1.91438e-28
1.75596e-28
2.7073e-28
2.19981e-28
2.34146e-28
2.08867e-28
2.66261e-28
2.33708e-28
3.08538e-28
2.67867e-28
3.02817e-28
2.75748e-28
3.29187e-28
3.07176e-28
4.39838e-28
4.04301e-28
4.43327e-28
4.64108e-28
6.61174e-28
7.62726e-28
1.43217e-27
3.82803e-27
8.05776e-27
6.91756e-27
5.23349e-31
2.04069e-28
1.56758e-27
1.33642e-27
1.37025e-27
1.93994e-27
3.21621e-27
4.65757e-27
7.1998e-27
1.24628e-26
2.43505e-26
4.26466e-26
1.18236e-25
2.44035e-25
4.50179e-26
3.8197e-23
1.56315e-22
1.38727e-22
3.22242e-23
2.59657e-22
2.41076e-24
7.84133e-24
9.80077e-25
1.82429e-26
2.56263e-27
2.94959e-29
2.33595e-28
2.72377e-28
1.28787e-28
1.4014e-28
2.0873e-28
1.67329e-28
1.76951e-28
1.55244e-28
2.63626e-28
2.1168e-28
2.01802e-28
1.86812e-28
2.91731e-28
2.30804e-28
2.48619e-28
2.23336e-28
2.87806e-28
2.50505e-28
3.34592e-28
2.87566e-28
3.29819e-28
3.02459e-28
3.65763e-28
3.43477e-28
4.99562e-28
4.61969e-28
5.27217e-28
5.90131e-28
9.29257e-28
1.29226e-27
3.33344e-27
1.32922e-26
1.17486e-25
2.55246e-28
2.0161e-26
1.03526e-27
1.35878e-27
2.27195e-27
1.85395e-27
3.05023e-27
4.92636e-27
7.345e-27
1.15737e-26
2.01e-26
3.87331e-26
6.71322e-26
1.78364e-25
3.43036e-25
5.31409e-26
5.22158e-23
2.30193e-22
1.39227e-22
5.62406e-23
3.10355e-22
3.00703e-24
9.78247e-24
1.18022e-24
3.45009e-26
2.7638e-27
2.16297e-29
2.55705e-28
3.06419e-28
1.30175e-28
1.48028e-28
2.22836e-28
1.76437e-28
1.86907e-28
1.65517e-28
2.81822e-28
2.21383e-28
2.12533e-28
1.99024e-28
3.12357e-28
2.42586e-28
2.63938e-28
2.38875e-28
3.10626e-28
2.68377e-28
3.61144e-28
3.09215e-28
3.58691e-28
3.30806e-28
4.0454e-28
3.80104e-28
5.55249e-28
5.09222e-28
5.79816e-28
6.33377e-28
9.31742e-28
1.09848e-27
2.09606e-27
5.2215e-27
1.27095e-26
8.19548e-27
1.72792e-30
2.43222e-28
3.10102e-27
2.51295e-27
2.82155e-27
4.36018e-27
7.34092e-27
1.0852e-26
1.74968e-26
3.00914e-26
5.7201e-26
9.74671e-26
2.50587e-25
4.51806e-25
7.0677e-26
7.05636e-23
3.25161e-22
1.36214e-22
9.49445e-23
3.67549e-22
3.32073e-24
1.2437e-23
1.32506e-24
6.13665e-26
2.75606e-27
2.89626e-29
2.92916e-28
3.36088e-28
1.32227e-28
1.55059e-28
2.394e-28
1.84546e-28
1.97734e-28
1.75891e-28
3.01356e-28
2.30597e-28
2.23849e-28
2.11855e-28
3.34256e-28
2.54289e-28
2.80031e-28
2.55628e-28
3.34222e-28
2.87259e-28
3.89761e-28
3.32105e-28
3.88885e-28
3.62048e-28
4.45183e-28
4.19796e-28
6.15334e-28
5.59586e-28
6.36325e-28
6.83706e-28
9.47898e-28
9.68942e-28
1.23935e-27
1.53655e-27
1.9995e-29
3.4822e-27
4.20076e-27
8.02072e-28
3.88585e-27
3.26581e-27
3.87116e-27
6.15248e-27
1.02866e-26
1.52877e-26
2.47308e-26
4.23222e-26
7.84003e-26
1.31954e-25
3.28597e-25
5.60929e-25
1.00257e-25
9.36224e-23
4.45964e-22
1.27062e-22
1.46657e-22
4.3379e-22
3.46137e-24
1.6353e-23
1.40246e-24
1.02025e-25
2.42151e-27
5.51164e-29
3.44418e-28
3.6449e-28
1.32496e-28
1.63831e-28
2.55935e-28
1.93158e-28
2.09611e-28
1.86938e-28
3.19833e-28
2.40692e-28
2.35827e-28
2.2579e-28
3.55311e-28
2.66869e-28
2.97304e-28
2.73439e-28
3.59032e-28
3.0748e-28
4.17931e-28
3.56856e-28
4.219e-28
3.95438e-28
4.89276e-28
4.63987e-28
6.80679e-28
6.24013e-28
7.23091e-28
7.98821e-28
1.15459e-27
1.28074e-27
1.79319e-27
2.62977e-27
3.06433e-27
1.76939e-28
7.75148e-29
4.07702e-27
3.63953e-27
4.38491e-27
5.06406e-27
8.29428e-27
1.36664e-26
2.02216e-26
3.28686e-26
5.51569e-26
1.00702e-25
1.65953e-25
4.04813e-25
6.55629e-25
1.59061e-25
1.22205e-22
5.79653e-22
1.14477e-22
2.19295e-22
5.02221e-22
3.25361e-24
2.14115e-23
1.3774e-24
1.56337e-25
1.88102e-27
1.07512e-28
4.22409e-28
3.87118e-28
1.3116e-28
1.74881e-28
2.7154e-28
2.02985e-28
2.20413e-28
1.9915e-28
3.38044e-28
2.5115e-28
2.47306e-28
2.40822e-28
3.76344e-28
2.79989e-28
3.14235e-28
2.93026e-28
3.83281e-28
3.28556e-28
4.46956e-28
3.82469e-28
4.54518e-28
4.30634e-28
5.31702e-28
5.06665e-28
7.40113e-28
6.74787e-28
7.77377e-28
8.49812e-28
1.1811e-27
1.23338e-27
1.51022e-27
1.73597e-27
2.63661e-27
1.85222e-27
6.06385e-28
3.98661e-27
5.4943e-27
4.90737e-27
6.72455e-27
1.04028e-26
1.73485e-26
2.50995e-26
4.09692e-26
6.69366e-26
1.2126e-25
1.94534e-25
4.68648e-25
7.20361e-25
2.55328e-25
1.56085e-22
7.3048e-22
9.69788e-23
3.12432e-22
5.7654e-22
2.81722e-24
2.78367e-23
1.25538e-24
2.22765e-25
1.26186e-27
1.82138e-28
5.30966e-28
4.04591e-28
1.2739e-28
1.8963e-28
2.83806e-28
2.14972e-28
2.29585e-28
2.1269e-28
3.53826e-28
2.63185e-28
2.58048e-28
2.57029e-28
3.95623e-28
2.94445e-28
3.30312e-28
3.13731e-28
4.06274e-28
3.50099e-28
4.74803e-28
4.09207e-28
4.85657e-28
4.66363e-28
5.72298e-28
5.47773e-28
7.95414e-28
7.215e-28
8.21568e-28
8.86966e-28
1.16765e-27
1.13465e-27
1.17067e-27
9.60501e-28
9.44895e-28
1.07718e-27
2.25731e-27
4.73378e-27
6.43086e-27
5.91296e-27
8.17258e-27
1.26653e-26
2.07977e-26
2.96953e-26
4.79789e-26
7.65101e-26
1.35559e-25
2.11424e-25
5.03782e-25
7.34436e-25
4.18165e-25
1.94567e-22
8.83502e-22
7.94151e-23
4.25571e-22
6.46721e-22
2.31313e-24
3.51586e-23
1.04985e-24
2.94475e-25
7.99364e-28
2.89999e-28
7.0255e-28
4.03939e-28
1.26112e-28
2.01321e-28
2.99242e-28
2.23664e-28
2.39751e-28
2.23845e-28
3.70884e-28
2.73235e-28
2.68611e-28
2.71587e-28
4.15194e-28
3.07021e-28
3.45646e-28
3.33063e-28
4.27024e-28
3.70046e-28
5.01094e-28
4.34293e-28
5.13196e-28
5.0055e-28
6.07151e-28
5.86149e-28
8.45928e-28
7.65296e-28
8.62518e-28
9.34116e-28
1.18959e-27
1.13805e-27
1.14253e-27
8.8005e-28
7.37927e-28
1.47127e-27
3.26684e-27
6.0769e-27
6.71549e-27
6.82339e-27
9.50854e-27
1.46462e-26
2.34881e-26
3.31944e-26
5.21857e-26
8.18739e-26
1.39047e-25
2.12127e-25
4.98386e-25
6.98591e-25
6.52891e-25
2.32765e-22
1.01563e-21
6.35393e-23
5.58862e-22
7.28826e-22
1.95537e-24
4.39867e-23
8.07842e-25
3.67172e-25
5.61002e-28
4.67638e-28
1.00274e-27
3.76264e-28
1.31852e-28
2.0279e-28
3.26514e-28
2.23061e-28
2.5934e-28
2.26755e-28
3.9138e-28
2.7848e-28
2.83564e-28
2.80178e-28
4.35935e-28
3.1561e-28
3.64296e-28
3.47624e-28
4.49057e-28
3.86586e-28
5.23309e-28
4.57189e-28
5.39309e-28
5.30126e-28
6.37401e-28
6.18624e-28
8.78066e-28
8.02659e-28
8.8702e-28
9.63267e-28
1.18374e-27
1.12815e-27
1.12525e-27
8.9243e-28
7.17784e-28
1.87438e-27
4.40634e-27
6.7455e-27
7.07726e-27
7.50653e-27
1.04917e-26
1.60637e-26
2.47142e-26
3.48654e-26
5.24187e-26
8.14305e-26
1.31248e-25
1.98357e-25
4.61619e-25
6.51001e-25
9.14202e-25
2.65327e-22
1.12281e-21
5.62478e-23
7.06888e-22
8.38001e-22
1.81242e-24
5.56348e-23
5.73989e-25
4.5779e-25
5.08839e-28
7.19467e-28
1.53694e-27
3.54387e-28
1.35127e-28
2.17644e-28
3.60327e-28
2.33323e-28
2.80361e-28
2.41497e-28
4.24412e-28
2.95499e-28
3.01784e-28
3.02081e-28
4.68783e-28
3.35875e-28
3.88496e-28
3.75226e-28
4.80958e-28
4.15876e-28
5.61309e-28
4.93297e-28
5.76865e-28
5.7509e-28
6.80368e-28
6.66991e-28
9.3602e-28
8.55122e-28
9.23554e-28
1.00828e-27
1.20625e-27
1.14421e-27
1.15883e-27
9.61614e-28
8.01407e-28
2.29635e-27
5.63313e-27
7.05984e-27
7.51928e-27
8.10308e-27
1.13382e-26
1.69781e-26
2.54076e-26
3.49034e-26
5.07615e-26
7.67628e-26
1.19048e-25
1.75825e-25
4.1561e-25
5.92602e-25
1.26327e-24
3.0304e-22
1.23085e-21
5.75374e-23
3.33725e-28
4.62384e-29
1.52963e-29
5.32017e-28
1.15391e-28
1.61019e-31
4.47031e-29
1.33878e-29
3.08245e-29
2.16502e-29
2.9325e-29
2.28578e-29
3.27055e-29
2.7585e-29
3.11186e-29
2.43363e-29
3.64253e-29
3.59265e-29
3.63892e-29
3.26735e-29
4.1354e-29
4.12016e-29
4.27825e-29
4.05423e-29
4.2318e-29
4.10045e-29
4.74377e-29
4.72116e-29
4.79052e-29
4.71277e-29
4.48288e-29
4.35635e-29
5.08392e-29
5.15625e-29
4.84147e-29
4.50103e-29
4.24959e-29
4.02098e-29
3.97477e-29
3.43449e-29
2.88662e-29
2.22751e-29
2.4919e-29
2.39092e-29
1.83168e-29
1.6842e-29
7.32614e-30
4.38259e-30
1.0972e-30
3.41096e-31
1.48245e-31
2.16148e-30
1.93827e-29
6.12602e-29
3.16734e-28
1.22628e-28
1.4601e-27
8.93358e-26
1.53891e-25
1.36486e-26
7.79511e-26
3.80944e-27
2.76834e-27
5.31219e-27
8.27423e-29
2.99388e-30
8.46453e-29
3.52312e-29
4.36633e-29
6.75372e-29
4.31042e-29
6.37224e-29
5.25154e-29
7.21372e-29
5.5434e-29
5.79515e-29
6.38861e-29
8.63987e-29
7.00029e-29
7.13895e-29
7.8008e-29
9.31515e-29
8.28696e-29
8.82292e-29
8.23506e-29
8.74832e-29
9.18762e-29
1.01805e-28
9.44007e-29
9.88935e-29
8.9467e-29
8.86047e-29
9.81809e-29
1.08376e-28
9.65505e-29
8.9628e-29
8.4135e-29
7.82313e-29
7.78562e-29
7.08912e-29
5.91297e-29
5.52505e-29
4.94559e-29
3.99616e-29
3.69394e-29
3.10292e-29
1.51078e-29
6.17876e-30
2.15606e-30
2.96024e-31
2.09927e-31
8.06127e-30
3.48904e-29
1.85623e-28
5.62019e-28
5.73341e-28
1.82809e-27
2.12288e-25
8.89754e-25
8.84979e-27
2.3154e-25
2.24464e-26
1.73888e-26
5.55206e-27
3.3294e-28
2.28704e-30
1.12243e-28
5.58881e-29
6.18445e-29
8.82688e-29
6.75549e-29
8.08018e-29
8.1511e-29
9.28303e-29
8.25055e-29
7.9117e-29
9.56827e-29
1.14071e-28
1.02519e-28
9.88695e-29
1.1338e-28
1.26674e-28
1.19018e-28
1.22269e-28
1.17347e-28
1.23301e-28
1.30993e-28
1.4105e-28
1.34179e-28
1.38131e-28
1.25896e-28
1.27359e-28
1.38774e-28
1.50329e-28
1.35985e-28
1.26445e-28
1.185e-28
1.12182e-28
1.11545e-28
1.03133e-28
9.12039e-29
8.18892e-29
6.61635e-29
5.70545e-29
5.33473e-29
4.33064e-29
2.075e-29
9.58409e-30
2.82297e-30
7.12668e-31
4.57732e-31
7.86489e-30
5.88304e-29
2.1467e-28
8.43696e-28
4.91685e-28
6.2297e-27
3.5782e-25
9.30926e-25
7.17709e-26
9.67654e-25
2.42012e-25
6.61873e-26
2.42402e-26
3.53792e-28
3.63449e-30
1.13657e-28
6.28894e-29
6.39073e-29
8.78205e-29
7.06973e-29
7.99046e-29
8.47631e-29
9.25202e-29
8.54876e-29
7.88327e-29
9.80147e-29
1.14694e-28
1.05103e-28
9.87907e-29
1.15847e-28
1.2728e-28
1.21475e-28
1.22541e-28
1.19697e-28
1.24196e-28
1.32831e-28
1.42796e-28
1.36355e-28
1.39002e-28
1.28466e-28
1.28597e-28
1.40624e-28
1.53104e-28
1.38349e-28
1.28257e-28
1.22161e-28
1.15269e-28
1.18221e-28
1.09212e-28
1.00751e-28
8.54218e-29
6.32024e-29
5.93339e-29
5.67028e-29
4.39122e-29
2.27451e-29
9.76118e-30
3.62268e-30
1.05781e-30
2.4346e-31
8.37762e-30
4.95981e-29
1.99785e-28
7.19936e-28
4.22498e-28
7.97499e-27
5.33173e-25
1.35652e-24
3.96275e-25
2.05036e-24
1.231e-24
1.1459e-25
8.40129e-26
8.09809e-28
8.38817e-30
1.26866e-28
7.46795e-29
6.52523e-29
9.38036e-29
6.96943e-29
8.47693e-29
8.52429e-29
9.71356e-29
8.62848e-29
8.1494e-29
9.93355e-29
1.19399e-28
1.06543e-28
1.00539e-28
1.18445e-28
1.3047e-28
1.23534e-28
1.24695e-28
1.21826e-28
1.26659e-28
1.35708e-28
1.46264e-28
1.38594e-28
1.41969e-28
1.31058e-28
1.31122e-28
1.44221e-28
1.58694e-28
1.41219e-28
1.32669e-28
1.26583e-28
1.213e-28
1.25921e-28
1.16567e-28
1.0868e-28
8.52239e-29
6.19908e-29
6.42798e-29
6.03733e-29
4.72703e-29
2.49094e-29
1.11258e-29
4.92924e-30
1.99709e-30
1.21702e-31
8.26712e-30
3.99323e-29
1.80873e-28
5.71739e-28
3.18178e-28
1.15845e-26
8.61926e-25
1.8443e-24
1.67644e-24
3.04333e-24
3.8262e-24
1.31833e-25
2.11422e-25
2.18932e-27
2.19947e-29
1.54275e-28
9.03939e-29
7.16256e-29
1.0224e-28
7.02812e-29
9.15895e-29
8.77597e-29
1.04516e-28
8.87136e-29
8.69194e-29
1.03869e-28
1.27972e-28
1.10267e-28
1.05923e-28
1.24572e-28
1.37949e-28
1.28982e-28
1.30691e-28
1.27517e-28
1.33333e-28
1.42961e-28
1.54393e-28
1.45264e-28
1.49395e-28
1.37525e-28
1.38444e-28
1.53445e-28
1.69772e-28
1.4884e-28
1.42004e-28
1.35264e-28
1.32223e-28
1.36785e-28
1.27541e-28
1.18938e-28
9.09879e-29
6.627e-29
7.1762e-29
6.78485e-29
5.47898e-29
2.86517e-29
1.45705e-29
7.41898e-30
4.27264e-30
1.57711e-31
8.42916e-30
3.0319e-29
1.57831e-28
4.11332e-28
2.01857e-28
1.72118e-26
1.39173e-24
2.34012e-24
4.87607e-24
3.69149e-24
9.01598e-24
1.15035e-25
4.345e-25
5.54413e-27
4.92542e-29
1.94258e-28
1.08925e-28
8.20987e-29
1.10457e-28
7.29721e-29
9.78743e-29
9.22432e-29
1.12112e-28
9.21492e-29
9.3518e-29
1.10584e-28
1.37857e-28
1.15087e-28
1.1317e-28
1.32687e-28
1.47203e-28
1.35813e-28
1.38418e-28
1.34934e-28
1.42394e-28
1.52806e-28
1.64314e-28
1.54016e-28
1.58894e-28
1.46111e-28
1.48811e-28
1.65951e-28
1.83096e-28
1.58662e-28
1.53449e-28
1.46068e-28
1.45649e-28
1.49731e-28
1.41631e-28
1.33532e-28
1.01803e-28
7.4856e-29
8.11851e-29
8.06329e-29
6.61921e-29
3.48646e-29
2.10767e-29
1.24087e-29
9.63508e-30
8.28747e-31
1.01397e-29
2.33532e-29
1.3088e-28
2.67381e-28
1.21573e-28
2.32742e-26
2.15415e-24
3.03195e-24
1.102e-23
3.84079e-24
1.74786e-23
7.83253e-26
7.67805e-25
1.25203e-26
9.07707e-29
2.46853e-28
1.28506e-28
9.49175e-29
1.19061e-28
7.68954e-29
1.035e-28
9.79718e-29
1.19569e-28
9.63266e-29
1.00461e-28
1.18403e-28
1.4817e-28
1.20314e-28
1.21068e-28
1.41622e-28
1.57359e-28
1.43118e-28
1.46877e-28
1.43281e-28
1.52583e-28
1.63258e-28
1.75348e-28
1.63842e-28
1.6915e-28
1.55846e-28
1.6045e-28
1.79702e-28
1.97446e-28
1.69318e-28
1.65621e-28
1.58078e-28
1.60607e-28
1.64082e-28
1.60409e-28
1.53838e-28
1.20873e-28
8.84235e-29
9.23534e-29
1.00232e-28
8.27584e-29
4.51762e-29
3.28942e-29
2.24546e-29
2.20488e-29
4.48097e-30
1.8002e-29
2.49004e-29
1.17054e-28
1.92347e-28
1.80373e-28
2.96939e-26
3.17683e-24
4.01671e-24
2.04859e-23
3.65346e-24
2.98769e-23
4.15931e-26
1.22411e-24
2.62432e-26
1.51113e-28
3.18342e-28
1.45377e-28
1.08563e-28
1.2896e-28
8.1407e-29
1.08992e-28
1.0493e-28
1.26946e-28
1.01077e-28
1.07898e-28
1.2774e-28
1.58743e-28
1.25853e-28
1.29535e-28
1.51888e-28
1.68037e-28
1.50624e-28
1.56057e-28
1.52382e-28
1.63736e-28
1.75022e-28
1.87044e-28
1.74021e-28
1.80338e-28
1.6649e-28
1.73278e-28
1.95189e-28
2.12468e-28
1.80361e-28
1.78833e-28
1.71691e-28
1.77822e-28
1.81877e-28
1.86254e-28
1.81408e-28
1.49579e-28
1.05926e-28
1.06764e-28
1.30015e-28
1.07101e-28
6.252e-29
5.40781e-29
4.32976e-29
4.97644e-29
1.85289e-29
4.492e-29
5.2211e-29
1.53895e-28
2.90756e-28
7.33858e-28
3.45524e-26
4.4928e-24
5.87578e-24
3.35525e-23
3.23314e-24
4.62789e-23
2.31898e-26
1.7832e-24
5.10878e-26
2.37039e-28
4.14993e-28
1.56705e-28
1.23236e-28
1.40232e-28
8.64831e-29
1.1452e-28
1.12982e-28
1.34333e-28
1.06871e-28
1.15549e-28
1.38176e-28
1.69482e-28
1.32017e-28
1.38378e-28
1.63076e-28
1.79135e-28
1.58822e-28
1.65657e-28
1.62604e-28
1.75647e-28
1.87242e-28
1.99641e-28
1.8512e-28
1.92118e-28
1.78348e-28
1.87185e-28
2.1163e-28
2.28645e-28
1.92678e-28
1.93579e-28
1.87996e-28
1.98257e-28
2.03386e-28
2.21416e-28
2.18679e-28
1.82691e-28
1.2901e-28
1.26004e-28
1.73273e-28
1.44051e-28
9.20674e-29
9.19259e-29
8.60464e-29
1.09222e-28
6.27889e-29
1.24807e-28
1.63782e-28
3.46674e-28
8.91758e-28
3.02881e-27
3.86504e-26
6.15331e-24
9.02021e-24
4.95528e-23
2.99487e-24
6.67925e-23
2.70032e-26
2.42571e-24
9.33528e-26
3.71252e-28
5.53977e-28
1.59261e-28
1.38373e-28
1.52847e-28
9.21458e-29
1.19894e-28
1.22392e-28
1.41539e-28
1.13437e-28
1.23607e-28
1.50175e-28
1.80101e-28
1.3868e-28
1.47674e-28
1.75719e-28
1.90223e-28
1.67522e-28
1.75747e-28
1.73799e-28
1.88301e-28
2.00841e-28
2.12604e-28
1.96756e-28
2.04961e-28
1.91393e-28
2.02668e-28
2.30131e-28
2.46057e-28
2.06526e-28
2.1078e-28
2.07712e-28
2.22612e-28
2.29918e-28
2.6572e-28
2.57428e-28
2.32839e-28
1.63958e-28
1.50342e-28
2.37446e-28
1.99812e-28
1.41813e-28
1.58582e-28
1.70611e-28
2.31136e-28
1.81459e-28
3.39422e-28
5.13083e-28
9.79557e-28
2.90637e-27
9.58032e-27
4.04271e-26
8.30422e-24
1.49755e-23
6.78492e-23
2.92539e-24
9.09908e-23
8.64424e-26
3.11794e-24
1.61276e-25
6.18282e-28
7.3395e-28
1.55925e-28
1.51692e-28
1.69025e-28
9.73462e-29
1.26042e-28
1.32093e-28
1.49505e-28
1.20427e-28
1.32237e-28
1.62765e-28
1.91079e-28
1.45555e-28
1.57571e-28
1.88935e-28
2.01693e-28
1.76723e-28
1.86375e-28
1.8612e-28
2.01622e-28
2.14628e-28
2.26398e-28
2.09672e-28
2.18736e-28
2.06054e-28
2.19603e-28
2.50223e-28
2.65512e-28
2.22794e-28
2.30994e-28
2.31789e-28
2.51571e-28
2.61661e-28
3.24893e-28
3.07496e-28
2.83415e-28
2.207e-28
1.83113e-28
3.28427e-28
2.84967e-28
2.24436e-28
2.74137e-28
3.28921e-28
4.68057e-28
4.61066e-28
8.47188e-28
1.4152e-27
2.64887e-27
8.09449e-27
2.43703e-26
4.22676e-26
1.12262e-23
2.44078e-23
8.68199e-23
3.71028e-24
1.18366e-22
2.3867e-25
3.82262e-24
2.61155e-25
1.13436e-27
9.97507e-28
1.4053e-28
1.64613e-28
1.88357e-28
1.02163e-28
1.32695e-28
1.42317e-28
1.58112e-28
1.27215e-28
1.41682e-28
1.76542e-28
2.02088e-28
1.52338e-28
1.68227e-28
2.03355e-28
2.13318e-28
1.85903e-28
1.97974e-28
1.99141e-28
2.15595e-28
2.29989e-28
2.40792e-28
2.23086e-28
2.34324e-28
2.22203e-28
2.38435e-28
2.73717e-28
2.87141e-28
2.41539e-28
2.55575e-28
2.6113e-28
2.86689e-28
3.02585e-28
4.05863e-28
3.65659e-28
3.56053e-28
3.03003e-28
2.26366e-28
4.57094e-28
4.14453e-28
3.58169e-28
4.71853e-28
6.14739e-28
9.06459e-28
1.04172e-27
1.92011e-27
3.39577e-27
6.34786e-27
1.90127e-26
5.18337e-26
4.25298e-26
1.51728e-23
4.08087e-23
1.04923e-22
5.74886e-24
1.50369e-22
5.36432e-25
4.57262e-24
3.98465e-25
2.2793e-27
1.32763e-27
1.12682e-28
1.78547e-28
2.10737e-28
1.0676e-28
1.39662e-28
1.52898e-28
1.67163e-28
1.34572e-28
1.51649e-28
1.90313e-28
2.13456e-28
1.59399e-28
1.79616e-28
2.1781e-28
2.25472e-28
1.95571e-28
2.1029e-28
2.13252e-28
2.30323e-28
2.45653e-28
2.56497e-28
2.37943e-28
2.51382e-28
2.40664e-28
2.59426e-28
2.99291e-28
3.12136e-28
2.64134e-28
2.84815e-28
2.96873e-28
3.28037e-28
3.51014e-28
5.01627e-28
4.13695e-28
4.12377e-28
4.1654e-28
2.79363e-28
6.36849e-28
6.08192e-28
5.72536e-28
7.95682e-28
1.1049e-27
1.66905e-27
2.14245e-27
3.94276e-27
7.22096e-27
1.34236e-26
3.90022e-26
9.70238e-26
4.27078e-26
2.05526e-23
6.59978e-23
1.21208e-22
1.05108e-23
1.85293e-22
9.58879e-25
5.38472e-24
5.68962e-25
4.80246e-27
1.69564e-27
7.97175e-29
1.93216e-28
2.35468e-28
1.11676e-28
1.45964e-28
1.65057e-28
1.75732e-28
1.42521e-28
1.61949e-28
2.05285e-28
2.24407e-28
1.66802e-28
1.9163e-28
2.33377e-28
2.37558e-28
2.05608e-28
2.2362e-28
2.28194e-28
2.4594e-28
2.62997e-28
2.73114e-28
2.5389e-28
2.70785e-28
2.61159e-28
2.83238e-28
3.28636e-28
3.40264e-28
2.90325e-28
3.19162e-28
3.38033e-28
3.73675e-28
4.04879e-28
6.01109e-28
4.74933e-28
5.63303e-28
6.06326e-28
3.38921e-28
9.01025e-28
8.82014e-28
9.04821e-28
1.28666e-27
1.90402e-27
2.91368e-27
4.03535e-27
7.42577e-27
1.37783e-26
2.54766e-26
7.10741e-26
1.63061e-25
4.2202e-26
2.78743e-23
1.05184e-22
1.32813e-22
1.80502e-23
2.21911e-22
1.64206e-24
6.46262e-24
7.70705e-25
9.81633e-27
2.06469e-27
5.05284e-29
2.0641e-28
2.65944e-28
1.15136e-28
1.53208e-28
1.77212e-28
1.85039e-28
1.50896e-28
1.72774e-28
2.1992e-28
2.35873e-28
1.74406e-28
2.04484e-28
2.48718e-28
2.50312e-28
2.16254e-28
2.37971e-28
2.44299e-28
2.62673e-28
2.80335e-28
2.9145e-28
2.72092e-28
2.92265e-28
2.84407e-28
3.09955e-28
3.60765e-28
3.73242e-28
3.22238e-28
3.61221e-28
3.9047e-28
4.36063e-28
4.87874e-28
7.784e-28
7.65268e-28
6.66775e-28
8.25424e-28
4.65478e-28
1.23439e-27