/*--------------------------------*- C++ -*----------------------------------*\
| =========                 |                                                 |
| \\      /  F ield         | OpenFOAM: The Open Source CFD Toolbox           |
|  \\    /   O peration     | Version:  2312                                  |
|   \\  /    A nd           | Website:  www.openfoam.com                      |
|    \\/     M anipulation  |                                                 |
\*---------------------------------------------------------------------------*/
FoamFile
{
    version     2.0;
    format      ascii;
    arch        "LSB;label=32;scalar=64";
    class       volScalarField;
    location    "560";
    object      p;
}
// * * * * * * * * * * * * * * * * * * * * * * * * * * * * * * * * * * * * * //

dimensions      [0 2 -2 0 0 0 0];

internalField   nonuniform List<scalar> 
144000
(
2.30397e-10
1.85979e-10
-8.5098e-11
-2.89497e-10
-2.8965e-10
-2.32922e-10
-1.57983e-10
-1.18293e-10
-7.96049e-11
-7.13683e-11
-5.0903e-11
-5.21957e-11
-3.66458e-11
-4.12745e-11
-2.62703e-11
-3.11831e-11
-1.87381e-11
-2.66606e-11
-1.21796e-11
-1.80667e-11
-4.59577e-12
-1.32397e-11
2.82712e-13
-7.92567e-12
5.62627e-12
-2.67306e-12
1.02963e-11
5.53151e-13
1.39071e-11
4.89998e-12
1.87272e-11
1.01538e-11
2.24583e-11
1.15204e-11
2.42584e-11
1.47344e-11
2.69749e-11
1.76251e-11
2.84651e-11
1.81984e-11
2.76481e-11
1.91812e-11
2.80437e-11
1.91113e-11
2.75692e-11
1.89833e-11
2.66182e-11
2.21728e-11
2.69106e-11
2.50475e-11
2.68406e-11
2.98604e-11
1.97147e-11
2.07044e-11
-9.83264e-12
-4.08086e-12
-6.39415e-11
-1.39485e-10
-4.47122e-10
-8.43794e-11
2.44177e-10
1.93174e-10
-8.8062e-11
-2.92575e-10
-2.9113e-10
-2.33279e-10
-1.58171e-10
-1.18364e-10
-7.97908e-11
-7.14825e-11
-5.10943e-11
-5.2278e-11
-3.68082e-11
-4.13313e-11
-2.63975e-11
-3.11986e-11
-1.88539e-11
-2.66832e-11
-1.22842e-11
-1.80552e-11
-4.69261e-12
-1.32326e-11
1.93162e-13
-7.89594e-12
5.54547e-12
-2.63656e-12
1.02135e-11
5.85611e-13
1.3828e-11
4.94702e-12
1.86579e-11
1.02111e-11
2.23848e-11
1.15639e-11
2.41895e-11
1.47984e-11
2.69174e-11
1.76902e-11
2.84137e-11
1.8246e-11
2.75528e-11
1.91226e-11
2.79165e-11
1.91846e-11
2.7548e-11
1.90768e-11
2.66167e-11
2.22972e-11
2.69464e-11
2.51728e-11
2.69462e-11
3.00214e-11
1.99309e-11
2.08505e-11
-9.42702e-12
-3.65386e-12
-6.18301e-11
-1.37728e-10
-4.56681e-10
-9.11821e-11
2.61135e-10
2.00364e-10
-9.15158e-11
-2.96204e-10
-2.93139e-10
-2.33961e-10
-1.58397e-10
-1.18517e-10
-7.99351e-11
-7.16882e-11
-5.12746e-11
-5.2463e-11
-3.69461e-11
-4.14852e-11
-2.65026e-11
-3.12934e-11
-1.89125e-11
-2.67893e-11
-1.23558e-11
-1.81242e-11
-4.73403e-12
-1.33062e-11
1.53154e-13
-7.93797e-12
5.52188e-12
-2.67291e-12
1.01962e-11
5.43355e-13
1.38103e-11
4.92469e-12
1.86508e-11
1.01993e-11
2.23896e-11
1.15358e-11
2.41858e-11
1.48003e-11
2.69332e-11
1.76947e-11
2.8442e-11
1.82472e-11
2.75105e-11
1.89504e-11
2.77907e-11
1.91722e-11
2.76264e-11
1.915e-11
2.6695e-11
2.24136e-11
2.7078e-11
2.52965e-11
2.71132e-11
3.01967e-11
2.02388e-11
2.10851e-11
-8.93506e-12
-3.31079e-12
-5.91633e-11
-1.32676e-10
-4.71324e-10
-9.90164e-11
2.80613e-10
2.0632e-10
-9.48018e-11
-2.99963e-10
-2.96021e-10
-2.35007e-10
-1.58673e-10
-1.18643e-10
-8.00377e-11
-7.19187e-11
-5.1484e-11
-5.26952e-11
-3.71069e-11
-4.16856e-11
-2.66335e-11
-3.14174e-11
-1.89591e-11
-2.69289e-11
-1.24466e-11
-1.82232e-11
-4.76621e-12
-1.34075e-11
1.10226e-13
-8.00052e-12
5.50753e-12
-2.72782e-12
1.01961e-11
4.799e-13
1.38017e-11
4.88405e-12
1.86584e-11
1.01725e-11
2.24275e-11
1.14876e-11
2.41976e-11
1.47864e-11
2.69819e-11
1.7684e-11
2.85175e-11
1.82488e-11
2.74943e-11
1.87062e-11
2.76068e-11
1.90796e-11
2.77789e-11
1.92263e-11
2.68379e-11
2.25232e-11
2.73133e-11
2.53969e-11
2.73975e-11
3.03299e-11
2.07604e-11
2.12377e-11
-8.15589e-12
-3.27148e-12
-5.50602e-11
-1.25175e-10
-4.90054e-10
-1.0678e-10
2.99759e-10
2.08285e-10
-9.69434e-11
-3.02336e-10
-2.99389e-10
-2.3639e-10
-1.58975e-10
-1.18689e-10
-8.00895e-11
-7.21653e-11
-5.1751e-11
-5.29841e-11
-3.732e-11
-4.19373e-11
-2.68179e-11
-3.15695e-11
-1.90165e-11
-2.70962e-11
-1.25801e-11
-1.83446e-11
-4.80751e-12
-1.35255e-11
4.26777e-14
-8.07437e-12
5.48396e-12
-2.789e-12
1.01964e-11
4.0858e-13
1.37824e-11
4.83585e-12
1.86637e-11
1.01438e-11
2.24841e-11
1.14325e-11
2.42076e-11
1.47646e-11
2.70519e-11
1.76655e-11
2.86352e-11
1.82628e-11
2.75067e-11
1.84251e-11
2.73209e-11
1.88828e-11
2.79975e-11
1.93066e-11
2.70399e-11
2.26082e-11
2.76594e-11
2.54404e-11
2.78159e-11
3.03616e-11
2.15476e-11
2.11976e-11
-6.9795e-12
-3.74626e-12
-4.93072e-11
-1.1599e-10
-5.11602e-10
-1.12155e-10
3.16818e-10
2.0231e-10
-9.77339e-11
-3.01628e-10
-3.02598e-10
-2.38053e-10
-1.59271e-10
-1.1861e-10
-8.00633e-11
-7.24199e-11
-5.20828e-11
-5.334e-11
-3.75978e-11
-4.225e-11
-2.70681e-11
-3.17619e-11
-1.90944e-11
-2.72951e-11
-1.27644e-11
-1.84955e-11
-4.86395e-12
-1.36618e-11
-5.59334e-14
-8.16423e-12
5.44684e-12
-2.85879e-12
1.01935e-11
3.28946e-13
1.37482e-11
4.77706e-12
1.86642e-11
1.01109e-11
2.25579e-11
1.13703e-11
2.42142e-11
1.47284e-11
2.71451e-11
1.76324e-11
2.88023e-11
1.82896e-11
2.75678e-11
1.811e-11
2.68949e-11
1.85465e-11
2.82841e-11
1.93824e-11
2.73043e-11
2.26416e-11
2.81265e-11
2.53915e-11
2.83935e-11
3.02301e-11
2.2646e-11
2.08603e-11
-5.30072e-12
-4.94047e-12
-4.17803e-11
-1.0579e-10
-5.3536e-10
-1.11816e-10
3.31651e-10
1.84328e-10
-9.78745e-11
-2.9628e-10
-3.04916e-10
-2.39917e-10
-1.59538e-10
-1.18361e-10
-7.99277e-11
-7.26673e-11
-5.24769e-11
-5.37651e-11
-3.79456e-11
-4.26278e-11
-2.73907e-11
-3.20043e-11
-1.92012e-11
-2.75272e-11
-1.30037e-11
-1.86831e-11
-4.94135e-12
-1.3818e-11
-1.89694e-13
-8.27519e-12
5.39308e-12
-2.94032e-12
1.01843e-11
2.40181e-13
1.36967e-11
4.70422e-12
1.86589e-11
1.007e-11
2.26468e-11
1.13004e-11
2.42178e-11
1.46705e-11
2.72641e-11
1.75768e-11
2.90272e-11
1.8326e-11
2.77158e-11
1.77574e-11
2.62732e-11
1.80336e-11
2.86431e-11
1.94437e-11
2.76382e-11
2.25956e-11
2.87268e-11
2.52149e-11
2.91609e-11
2.98716e-11
2.41066e-11
2.01194e-11
-3.00655e-12
-7.03023e-12
-3.23943e-11
-9.50864e-11
-5.61519e-10
-1.02418e-10
3.45387e-10
1.50762e-10
-9.87847e-11
-2.84955e-10
-3.05528e-10
-2.41883e-10
-1.59771e-10
-1.17902e-10
-7.96547e-11
-7.28906e-11
-5.29274e-11
-5.42569e-11
-3.83661e-11
-4.30706e-11
-2.7789e-11
-3.23019e-11
-1.93461e-11
-2.77918e-11
-1.33004e-11
-1.89114e-11
-5.04694e-12
-1.39941e-11
-3.6226e-13
-8.41044e-12
5.31882e-12
-3.03484e-12
1.01636e-11
1.4249e-13
1.36255e-11
4.61558e-12
1.86458e-11
1.00195e-11
2.27467e-11
1.12232e-11
2.42187e-11
1.45855e-11
2.741e-11
1.74915e-11
2.93183e-11
1.83666e-11
2.80082e-11
1.73356e-11
2.53746e-11
1.73109e-11
2.90807e-11
1.94803e-11
2.80504e-11
2.24429e-11
2.94727e-11
2.48755e-11
3.01485e-11
2.92302e-11
2.59793e-11
1.88838e-11
1.08094e-15
-1.01293e-11
-2.11816e-11
-8.41479e-11
-5.90776e-10
-8.12361e-11
3.6022e-10
9.88753e-11
-1.02452e-10
-2.66665e-10
-3.03574e-10
-2.43839e-10
-1.59987e-10
-1.17209e-10
-7.92228e-11
-7.30746e-11
-5.34283e-11
-5.48107e-11
-3.88598e-11
-4.35758e-11
-2.82636e-11
-3.26573e-11
-1.95369e-11
-2.80869e-11
-1.36548e-11
-1.91826e-11
-5.18752e-12
-1.41894e-11
-5.76017e-13
-8.57189e-12
5.22026e-12
-3.14275e-12
1.01267e-11
3.64626e-14
1.35323e-11
4.51022e-12
1.86228e-11
9.95835e-12
2.28524e-11
1.11395e-11
2.42176e-11
1.44691e-11
2.75829e-11
1.73697e-11
2.96855e-11
1.84025e-11
2.85294e-11
1.67993e-11
2.40863e-11
1.63466e-11
2.96064e-11
1.94818e-11
2.8551e-11
2.21596e-11
3.03753e-11
2.43425e-11
3.13826e-11
2.82474e-11
2.83011e-11
1.7094e-11
3.77685e-12
-1.42587e-11
-8.3006e-12
-7.30147e-11
-6.24147e-10
-4.64266e-11
3.78674e-10
2.70975e-11
-1.11041e-10
-2.40829e-10
-2.98228e-10
-2.45659e-10
-1.60229e-10
-1.16275e-10
-7.86186e-11
-7.32078e-11
-5.3974e-11
-5.54215e-11
-3.94262e-11
-4.41396e-11
-2.88129e-11
-3.3071e-11
-1.97806e-11
-2.84105e-11
-1.40655e-11
-1.94969e-11
-5.3692e-12
-1.44031e-11
-8.3164e-13
-8.76043e-12
5.09425e-12
-3.26409e-12
1.0069e-11
-7.74463e-14
1.34162e-11
4.38789e-12
1.85882e-11
9.88607e-12
2.29587e-11
1.10493e-11
2.42153e-11
1.43185e-11
2.77822e-11
1.72048e-11
3.01391e-11
1.84267e-11
2.93913e-11
1.60751e-11
2.22706e-11
1.51213e-11
3.0232e-11
1.94381e-11
2.91498e-11
2.17274e-11
3.14412e-11
2.35928e-11
3.28811e-11
2.68998e-11
3.10834e-11
1.47329e-11
8.31771e-12
-1.93463e-11
5.91173e-12
-6.14889e-11
-6.6247e-10
2.68795e-12
4.03386e-10
-6.47919e-11
-1.26747e-10
-2.07373e-10
-2.88736e-10
-2.47186e-10
-1.60557e-10
-1.15115e-10
-7.78376e-11
-7.32827e-11
-5.45603e-11
-5.60852e-11
-4.00648e-11
-4.4759e-11
-2.94354e-11
-3.35429e-11
-2.00829e-11
-2.87609e-11
-1.45302e-11
-1.9854e-11
-5.59691e-12
-1.46345e-11
-1.12883e-12
-8.97636e-12
4.93808e-12
-3.39871e-12
9.98697e-12
-1.98791e-13
1.32771e-11
4.24863e-12
1.85402e-11
9.80257e-12
2.30608e-11
1.09531e-11
2.42129e-11
1.41326e-11
2.80052e-11
1.69918e-11
3.0689e-11
1.84333e-11
3.07494e-11
1.49985e-11
1.97429e-11
1.36271e-11
3.09673e-11
1.93395e-11
2.98527e-11
2.1137e-11
3.26706e-11
2.26153e-11
3.46471e-11
2.51844e-11
3.43058e-11
1.18321e-11
1.35549e-11
-2.5219e-11
2.10144e-11
-4.92188e-11
-7.06336e-10
6.56196e-11
4.36501e-10
-1.75752e-10
-1.51467e-10
-1.66715e-10
-2.74483e-10
-2.48222e-10
-1.61042e-10
-1.13767e-10
-7.68838e-11
-7.32948e-11
-5.51846e-11
-5.67993e-11
-4.0776e-11
-4.54318e-11
-3.01297e-11
-3.40721e-11
-2.04489e-11
-2.91372e-11
-1.50462e-11
-2.02527e-11
-5.87495e-12
-1.48838e-11
-1.46669e-12
-9.21949e-12
4.74948e-12
-3.54629e-12
9.87789e-12
-3.27437e-13
1.31151e-11
4.09303e-12
1.84771e-11
9.70836e-12
2.31543e-11
1.08514e-11
2.42106e-11
1.39123e-11
2.8248e-11
1.67268e-11
3.13463e-11
1.84066e-11
3.28852e-11
1.34004e-11
1.62315e-11
1.18627e-11
3.18107e-11
1.91736e-11
3.0658e-11
2.03873e-11
3.40609e-11
2.14141e-11
3.66641e-11
2.31248e-11
3.79144e-11
8.47415e-12
1.93603e-11
-3.16225e-11
3.64668e-11
-3.58355e-11
-7.55773e-10
1.4084e-10
4.79824e-10
-3.03588e-10
-1.8684e-10
-1.19825e-10
-2.5502e-10
-2.485e-10
-1.61736e-10
-1.12295e-10
-7.57699e-11
-7.32409e-11
-5.58436e-11
-5.7561e-11
-4.15597e-11
-4.61559e-11
-3.0894e-11
-3.46576e-11
-2.08824e-11
-2.95393e-11
-1.56109e-11
-2.06914e-11
-6.20666e-12
-1.51512e-11
-1.844e-12
-9.48922e-12
4.52639e-12
-3.70654e-12
9.73996e-12
-4.6327e-13
1.29307e-11
3.92213e-12
1.83971e-11
9.60428e-12
2.32352e-11
1.07454e-11
2.42073e-11
1.36614e-11
2.85033e-11
1.64095e-11
3.21118e-11
1.83414e-11
3.61135e-11
1.11395e-11
1.14639e-11
9.8792e-12
3.27662e-11
1.89355e-11
3.15578e-11
1.94867e-11
3.55755e-11
2.00146e-11
3.88948e-11
2.07744e-11
4.18222e-11
4.78729e-12
2.5554e-11
-3.82473e-11
5.17787e-11
-2.11075e-11
-8.10486e-10
2.26137e-10
5.34098e-10
-4.45029e-10
-2.33785e-10
-6.81138e-11
-2.30154e-10
-2.47717e-10
-1.62672e-10
-1.1078e-10
-7.45214e-11
-7.31199e-11
-5.65329e-11
-5.83672e-11
-4.2415e-11
-4.69292e-11
-3.1726e-11
-3.52973e-11
-2.13864e-11
-2.99672e-11
-1.6221e-11
-2.11681e-11
-6.5948e-12
-1.54378e-11
-2.2591e-12
-9.78437e-12
4.26725e-12
-3.87931e-12
9.57152e-12
-6.06254e-13
1.27242e-11
3.73771e-12
1.82984e-11
9.49174e-12
2.32986e-11
1.06374e-11
2.41997e-11
1.3389e-11
2.87558e-11
1.60582e-11
3.29353e-11
1.83456e-11
4.05922e-11
8.09596e-12
5.27111e-12
7.84973e-12
3.38687e-11
1.86482e-11
3.25463e-11
1.84596e-11
3.71911e-11
1.84575e-11
4.12824e-11
1.82146e-11
4.59125e-11
9.3572e-13
3.19206e-11
-4.47627e-11
6.6454e-11
-4.93076e-12
-8.69484e-10
3.18698e-10
5.99168e-10
-5.95826e-10
-2.92463e-10
-1.33859e-11
-1.99957e-10
-2.45545e-10
-1.63855e-10
-1.09319e-10
-7.31785e-11
-7.29334e-11
-5.72478e-11
-5.92147e-11
-4.33408e-11
-4.77498e-11
-3.26232e-11
-3.59891e-11
-2.19624e-11
-3.04215e-11
-1.68738e-11
-2.16806e-11
-7.04103e-12
-1.57444e-11
-2.71048e-12
-1.01035e-11
3.9706e-12
-4.06452e-12
9.37155e-12
-7.56041e-13
1.24963e-11
3.54185e-12
1.81784e-11
9.37261e-12
2.33399e-11
1.05307e-11
2.41826e-11
1.31071e-11
2.89869e-11
1.56999e-11
3.37396e-11
1.8488e-11
4.71248e-11
1.65329e-12
-3.14284e-12
5.75492e-12
3.50793e-11
1.83289e-11
3.36096e-11
1.73389e-11
3.88647e-11
1.67979e-11
4.3751e-11
1.55492e-11
5.00441e-11
-2.89087e-12
3.82195e-11
-5.08318e-11
8.00651e-11
1.2701e-11
-9.31339e-10
4.15328e-10
6.7399e-10
-7.51565e-10
-3.62297e-10
4.226e-11
-1.64816e-10
-2.41672e-10
-1.65251e-10
-1.08027e-10
-7.17965e-11
-7.26868e-11
-5.79834e-11
-6.01011e-11
-4.43368e-11
-4.86165e-11
-3.35836e-11
-3.67308e-11
-2.26111e-11
-3.0903e-11
-1.75668e-11
-2.22263e-11
-7.54634e-12
-1.60725e-11
-3.19692e-12
-1.04451e-11
3.63526e-12
-4.2621e-12
9.13909e-12
-9.12235e-13
1.22469e-11
3.33706e-12
1.80349e-11
9.24905e-12
2.3355e-11
1.04278e-11
2.41528e-11
1.28219e-11
2.91921e-11
1.53336e-11
3.45121e-11
1.80872e-11
5.77524e-11
-2.19567e-12
-1.46713e-11
3.15203e-12
3.61132e-11
1.79311e-11
3.46998e-11
1.61654e-11
4.05348e-11
1.51012e-11
4.62094e-11
1.28999e-11
5.40605e-11
-6.48723e-12
4.42073e-11
-5.61361e-11
9.22353e-11
3.16634e-11
-9.94177e-10
5.12089e-10
7.57264e-10
-9.05887e-10
-4.42371e-10
9.64203e-11
-1.25393e-10
-2.3583e-10
-1.66788e-10
-1.0702e-10
-7.04438e-11
-7.23882e-11
-5.87334e-11
-6.1023e-11
-4.54019e-11
-4.95282e-11
-3.4605e-11
-3.75197e-11
-2.33321e-11
-3.14123e-11
-1.82978e-11
-2.28025e-11
-8.1107e-12
-1.64231e-11
-3.71746e-12
-1.08074e-11
3.2602e-12
-4.47183e-12
8.8739e-12
-1.07409e-12
1.19757e-11
3.12607e-12
1.78649e-11
9.12396e-12
2.33391e-11
1.03344e-11
2.41001e-11
1.25542e-11
2.93332e-11
1.50523e-11
3.50444e-11
1.74915e-11
6.49332e-11
-1.45557e-14
-2.19116e-11
8.28682e-13
3.69253e-11
1.74917e-11
3.58007e-11
1.49879e-11
4.2138e-11
1.34447e-11
4.85569e-11
1.0398e-11
5.77985e-11
-9.64999e-12
4.96559e-11
-6.04077e-11
1.02785e-10
5.16103e-11
-1.05614e-09
6.04944e-10
8.46608e-10
-1.05364e-09
-5.30973e-10
1.46684e-10
-8.26028e-11
-2.27565e-10
-1.68362e-10
-1.06421e-10
-6.92037e-11
-7.20501e-11
-5.94906e-11
-6.19764e-11
-4.65346e-11
-5.04832e-11
-3.56844e-11
-3.83529e-11
-2.4124e-11
-3.19499e-11
-1.90643e-11
-2.34065e-11
-8.73372e-12
-1.67972e-11
-4.27103e-12
-1.1188e-11
2.84493e-12
-4.69346e-12
8.5754e-12
-1.24067e-12
1.1682e-11
2.9122e-12
1.76656e-11
9.0008e-12
2.32862e-11
1.02581e-11
2.40102e-11
1.23357e-11
2.93531e-11
1.50107e-11
3.50467e-11
1.80807e-11
5.85902e-11
-7.80331e-13
-1.4505e-11
8.86992e-13
3.75987e-11
1.71264e-11
3.6925e-11
1.38799e-11
4.36142e-11
1.19138e-11
5.06911e-11
8.17889e-12
6.11002e-11
-1.21883e-11
5.43648e-11
-6.34376e-11
1.1162e-10
7.20326e-11
-1.11494e-09
6.90753e-10
9.38704e-10
-1.18961e-09
-6.25539e-10
1.90773e-10
-3.76065e-11
-2.16715e-10
-1.69812e-10
-1.06339e-10
-6.81695e-11
-7.16905e-11
-6.02471e-11
-6.29565e-11
-4.77328e-11
-5.14803e-11
-3.68191e-11
-3.92272e-11
-2.49846e-11
-3.25158e-11
-1.98644e-11
-2.4035e-11
-9.41405e-12
-1.71952e-11
-4.85686e-12
-1.15849e-11
2.38921e-12
-4.92658e-12
8.24337e-12
-1.41064e-12
1.13653e-11
2.69883e-12
1.74347e-11
8.88181e-12
2.31933e-11
1.02004e-11
2.3883e-11
1.21601e-11
2.92772e-11
1.51123e-11
3.47267e-11
1.85805e-11
4.8233e-11
3.94886e-12
-7.96793e-13
1.72234e-12
3.79259e-11
1.67386e-11
3.79613e-11
1.28888e-11
4.48939e-11
1.059e-11
5.25089e-11
6.37046e-12
6.38196e-11
-1.39327e-11
5.816e-11
-6.50595e-11
1.18706e-10
9.24262e-11
-1.16811e-09
7.66088e-10
1.02966e-09
-1.30856e-09
-7.22913e-10
2.26616e-10
8.22614e-12
-2.03151e-10
-1.70941e-10
-1.06865e-10
-6.74443e-11
-7.13359e-11
-6.09978e-11
-6.39593e-11
-4.89959e-11
-5.25193e-11
-3.80071e-11
-4.014e-11
-2.59113e-11
-3.31102e-11
-2.06966e-11
-2.46856e-11
-1.01501e-11
-1.76178e-11
-5.47469e-12
-1.19959e-11
1.89301e-12
-5.17065e-12
7.87754e-12
-1.58265e-12
1.1025e-11
2.489e-12
1.71701e-11
8.76972e-12
2.30583e-11
1.01627e-11
2.37188e-11
1.20187e-11
2.91309e-11
1.52488e-11
3.43131e-11
1.84962e-11
4.15215e-11
1.07733e-11
8.63346e-12
2.24503e-12
3.79686e-11
1.632e-11
3.88742e-11
1.20731e-11
4.59156e-11
9.55146e-12
5.39165e-11
5.08626e-12
6.58327e-11
-1.47384e-11
6.09018e-11
-6.51444e-11
1.2401e-10
1.12346e-10
-1.21308e-09
8.27584e-10
1.11594e-09
-1.40567e-09
-8.19967e-10
2.52348e-10
5.34575e-11
-1.86824e-10
-1.71532e-10
-1.08058e-10
-6.713e-11
-7.10187e-11
-6.17392e-11
-6.49806e-11
-5.03226e-11
-5.36005e-11
-3.92475e-11
-4.1089e-11
-2.69009e-11
-3.37326e-11
-2.15602e-11
-2.53557e-11
-1.09395e-11
-1.80649e-11
-6.12478e-12
-1.24192e-11
1.35632e-12
-5.42489e-12
7.47824e-12
-1.75509e-12
1.06596e-11
2.28558e-12
1.68696e-11
8.66764e-12
2.28785e-11
1.015e-11
2.35099e-11
1.19285e-11
2.88946e-11
1.54606e-11
3.37645e-11
1.84607e-11
3.72137e-11
1.3571e-11
1.59843e-11
3.44397e-12
3.8032e-11
1.60802e-11
3.96304e-11
1.14862e-11
4.6628e-11
8.86058e-12
5.48352e-11
4.40259e-12
6.7039e-11
-1.44999e-11
6.24885e-11
-6.36096e-11
1.2757e-10
1.31405e-10
-1.24769e-09
8.72213e-10
1.19417e-09
-1.4768e-09
-9.13631e-10
2.66514e-10
9.66918e-11
-1.678e-10
-1.71387e-10
-1.0995e-10
-6.73207e-11
-7.07756e-11
-6.24691e-11
-6.60155e-11
-5.17107e-11
-5.47233e-11
-4.05386e-11
-4.20723e-11
-2.79495e-11
-3.43825e-11
-2.24542e-11
-2.60436e-11
-1.17799e-11
-1.85365e-11
-6.80714e-12
-1.28531e-11
7.79749e-13
-5.68869e-12
7.04584e-12
-1.92643e-12
1.02683e-11
2.09112e-12
1.65321e-11
8.57705e-12
2.26534e-11
1.01629e-11
2.32567e-11
1.1884e-11
2.85777e-11
1.57174e-11
3.31412e-11
1.85401e-11
3.4237e-11
1.53813e-11
2.2001e-11
5.06722e-12
3.80457e-11
1.59039e-11
4.01704e-11
1.11593e-11
4.69884e-11
8.58317e-12
5.52106e-11
4.42418e-12
6.73704e-11
-1.31354e-11
6.28666e-11
-6.0398e-11
1.29356e-10
1.49328e-10
-1.26999e-09
8.97327e-10
1.26135e-09
-1.51844e-09
-1.00108e-09
2.68153e-10
1.36685e-10
-1.46298e-10
-1.7036e-10
-1.12548e-10
-6.80994e-11
-7.06472e-11
-6.3188e-11
-6.70601e-11
-5.31576e-11
-5.58871e-11
-4.18782e-11
-4.30894e-11
-2.90535e-11
-3.50583e-11
-2.33773e-11
-2.67487e-11
-1.26689e-11
-1.90317e-11
-7.52146e-12
-1.32966e-11
1.64381e-13
-5.96197e-12
6.58082e-12
-2.09508e-12
9.85124e-12
1.90751e-12
1.61579e-11
8.49798e-12
2.23837e-11
1.02008e-11
2.29631e-11
1.18751e-11
2.82017e-11
1.59704e-11
3.25391e-11
1.86019e-11
3.22635e-11
1.64071e-11
2.6633e-11
6.8664e-12
3.79681e-11
1.58446e-11
4.0466e-11
1.11296e-11
4.69718e-11
8.7502e-12
5.50149e-11
5.16705e-12
6.68071e-11
-1.06382e-11
6.20417e-11
-5.54817e-11
1.29222e-10
1.66107e-10
-1.27832e-09
9.00353e-10
1.31504e-09
-1.52769e-09
-1.08e-09
2.56795e-10
1.72461e-10
-1.2267e-10
-1.68377e-10
-1.15858e-10
-6.95463e-11
-7.06809e-11
-6.39026e-11
-6.81154e-11
-5.46645e-11
-5.70944e-11
-4.32662e-11
-4.4143e-11
-3.02117e-11
-3.57592e-11
-2.43285e-11
-2.74719e-11
-1.36057e-11
-1.95502e-11
-8.26788e-12
-1.375e-11
-4.88968e-13
-6.24532e-12
6.08326e-12
-2.25964e-12
9.40895e-12
1.73587e-12
1.57477e-11
8.42968e-12
2.20699e-11
1.02641e-11
2.26316e-11
1.18957e-11
2.77775e-11
1.62115e-11
3.19759e-11
1.86256e-11
3.10178e-11
1.69681e-11
3.00864e-11
8.77963e-12
3.78276e-11
1.59504e-11
4.05026e-11
1.14113e-11
4.65702e-11
9.3779e-12
5.42511e-11
6.62955e-12
6.53784e-11
-7.03605e-12
6.00585e-11
-4.87476e-11
1.26673e-10
1.82449e-10
-1.27148e-09
8.78438e-10
1.35309e-09
-1.50189e-09
-1.14868e-09
2.32234e-10
2.03341e-10
-9.7278e-11
-1.65393e-10
-1.1988e-10
-7.17459e-11
-7.0928e-11
-6.46226e-11
-6.91826e-11
-5.62362e-11
-5.83483e-11
-4.47052e-11
-4.52367e-11
-3.14248e-11
-3.64831e-11
-2.5308e-11
-2.82139e-11
-1.45906e-11
-2.00899e-11
-9.0479e-12
-1.42131e-11
-1.1814e-12
-6.53851e-12
5.55223e-12
-2.41756e-12
8.9404e-12
1.57764e-12
1.5301e-11
8.37188e-12
2.1712e-11
1.03546e-11
2.22637e-11
1.19415e-11
2.73093e-11
1.64414e-11
3.14431e-11
1.86342e-11
3.02652e-11
1.72923e-11
3.25726e-11
1.0761e-11
3.76216e-11
1.62429e-11
4.02676e-11
1.2004e-11
4.5784e-11
1.04621e-11
5.2937e-11
8.78471e-12
6.31319e-11
-2.36935e-12
5.69113e-11
-3.98898e-11
1.20803e-10
1.99102e-10
-1.24667e-09
8.28545e-10
2.31e-10
1.84874e-10
-8.64885e-11
-2.90711e-10
-2.90799e-10
-2.33625e-10
-1.58458e-10
-1.18667e-10
-8.00262e-11
-7.18785e-11
-5.14445e-11
-5.27255e-11
-3.71598e-11
-4.17605e-11
-2.67225e-11
-3.15978e-11
-1.90458e-11
-2.68577e-11
-1.23156e-11
-1.8168e-11
-4.64618e-12
-1.32592e-11
2.72058e-13
-7.94818e-12
5.61068e-12
-2.72701e-12
1.02849e-11
5.23921e-13
1.38904e-11
4.82401e-12
1.86926e-11
1.00319e-11
2.24101e-11
1.13543e-11
2.42411e-11
1.45817e-11
2.70783e-11
1.75126e-11
2.87847e-11
1.82618e-11
2.84055e-11
1.98046e-11
2.84627e-11
1.96316e-11
2.79472e-11
1.929e-11
2.69691e-11
2.26057e-11
2.74503e-11
2.56888e-11
2.76012e-11
3.0721e-11
2.08253e-11
2.19796e-11
-8.33885e-12
-2.4475e-12
-6.25941e-11
-1.39309e-10
-4.49426e-10
-8.52764e-11
2.44793e-10
1.9208e-10
-8.94657e-11
-2.93781e-10
-2.92272e-10
-2.33978e-10
-1.58641e-10
-1.18737e-10
-8.02128e-11
-7.19958e-11
-5.16391e-11
-5.2812e-11
-3.73263e-11
-4.18224e-11
-2.68547e-11
-3.16197e-11
-1.91642e-11
-2.68832e-11
-1.24218e-11
-1.81596e-11
-4.74282e-12
-1.32523e-11
1.82203e-13
-7.91979e-12
5.52948e-12
-2.69169e-12
1.02044e-11
5.58907e-13
1.38133e-11
4.87293e-12
1.86243e-11
1.00904e-11
2.23372e-11
1.14009e-11
2.41709e-11
1.46497e-11
2.70177e-11
1.75851e-11
2.87298e-11
1.83273e-11
2.83353e-11
1.98129e-11
2.8387e-11
1.97223e-11
2.79296e-11
1.93857e-11
2.697e-11
2.27316e-11
2.74885e-11
2.58164e-11
2.77091e-11
3.08859e-11
2.10466e-11
2.2132e-11
-7.92678e-12
-2.01557e-12
-6.04752e-11
-1.37552e-10
-4.58996e-10
-9.20928e-11
2.61731e-10
1.99282e-10
-9.29366e-11
-2.97391e-10
-2.9427e-10
-2.34655e-10
-1.58861e-10
-1.18889e-10
-8.03585e-11
-7.22064e-11
-5.18247e-11
-5.30036e-11
-3.747e-11
-4.19833e-11
-2.69662e-11
-3.17233e-11
-1.92276e-11
-2.69934e-11
-1.24955e-11
-1.82324e-11
-4.78393e-12
-1.33257e-11
1.42644e-13
-7.96351e-12
5.50602e-12
-2.72964e-12
1.01902e-11
5.20199e-13
1.37994e-11
4.85259e-12
1.86195e-11
1.00796e-11
2.23438e-11
1.13757e-11
2.41673e-11
1.46546e-11
2.70318e-11
1.75956e-11
2.87574e-11
1.83402e-11
2.83307e-11
1.97247e-11
2.83484e-11
1.97529e-11
2.80145e-11
1.94591e-11
2.70502e-11
2.28485e-11
2.76218e-11
2.59415e-11
2.78782e-11
3.10612e-11
2.13584e-11
2.23712e-11
-7.43482e-12
-1.67157e-12
-5.7804e-11
-1.32466e-10
-4.73617e-10
-9.99693e-11
2.81153e-10
2.05245e-10
-9.62504e-11
-3.01123e-10
-2.97121e-10
-2.3569e-10
-1.59127e-10
-1.19011e-10
-8.04618e-11
-7.24422e-11
-5.20406e-11
-5.32431e-11
-3.76377e-11
-4.2192e-11
-2.71047e-11
-3.18582e-11
-1.92817e-11
-2.71388e-11
-1.25891e-11
-1.83363e-11
-4.81668e-12
-1.34264e-11
1.00641e-13
-8.02788e-12
5.49157e-12
-2.78666e-12
1.01928e-11
4.6134e-13
1.37957e-11
4.81489e-12
1.86298e-11
1.00546e-11
2.2383e-11
1.13319e-11
2.41783e-11
1.46452e-11
2.70768e-11
1.75925e-11
2.88294e-11
1.83458e-11
2.83623e-11
1.95738e-11
2.82969e-11
1.97457e-11
2.81806e-11
1.95341e-11
2.71957e-11
2.29588e-11
2.78583e-11
2.6043e-11
2.81643e-11
3.11949e-11
2.18822e-11
2.25288e-11
-6.65992e-12
-1.63317e-12
-5.3693e-11
-1.24912e-10
-4.92284e-10
-1.07792e-10
3.00211e-10
2.07214e-10
-9.84307e-11
-3.03471e-10
-3.00447e-10
-2.37057e-10
-1.59415e-10
-1.19051e-10
-8.0512e-11
-7.2693e-11
-5.23142e-11
-5.35397e-11
-3.78583e-11
-4.24527e-11
-2.72976e-11
-3.20226e-11
-1.93494e-11
-2.73136e-11
-1.27265e-11
-1.84635e-11
-4.85992e-12
-1.35435e-11
3.44173e-14
-8.10343e-12
5.46739e-12
-2.85029e-12
1.01942e-11
3.95676e-13
1.37818e-11
4.77134e-12
1.86373e-11
1.00298e-11
2.24391e-11
1.12842e-11
2.41846e-11
1.46325e-11
2.71376e-11
1.75874e-11
2.89351e-11
1.83561e-11
2.84267e-11
1.93711e-11
2.82006e-11
1.9697e-11
2.84238e-11
1.9612e-11
2.74017e-11
2.30457e-11
2.82054e-11
2.60874e-11
2.85845e-11
3.12263e-11
2.2669e-11
2.24939e-11
-5.49087e-12
-2.11092e-12
-4.79292e-11
-1.15663e-10
-5.13737e-10
-1.13232e-10
3.17165e-10
2.01241e-10
-9.92694e-11
-3.02747e-10
-3.03609e-10
-2.38699e-10
-1.59692e-10
-1.18961e-10
-8.04808e-11
-7.29497e-11
-5.26518e-11
-5.39024e-11
-3.81429e-11
-4.27738e-11
-2.75562e-11
-3.22274e-11
-1.94398e-11
-2.75211e-11
-1.29156e-11
-1.86208e-11
-4.91983e-12
-1.36789e-11
-6.25194e-14
-8.19443e-12
5.42904e-12
-2.92253e-12
1.01904e-11
3.2252e-13
1.37528e-11
4.71936e-12
1.86389e-11
1.00035e-11
2.25093e-11
1.12334e-11
2.41828e-11
1.46123e-11
2.72126e-11
1.75773e-11
2.90756e-11
1.83712e-11
2.85343e-11
1.91109e-11
2.80403e-11
1.95916e-11
2.8749e-11
1.96845e-11
2.76727e-11
2.30832e-11
2.86735e-11
2.60389e-11
2.91629e-11
3.10936e-11
2.3764e-11
2.21611e-11
-3.82106e-12
-3.31086e-12
-4.03906e-11
-1.05392e-10
-5.37378e-10
-1.1295e-10
3.31897e-10
1.83257e-10
-9.94687e-11
-2.97399e-10
-3.0588e-10
-2.40538e-10
-1.59937e-10
-1.18696e-10
-8.03365e-11
-7.31964e-11
-5.30502e-11
-5.43329e-11
-3.84964e-11
-4.31589e-11
-2.78863e-11
-3.24814e-11
-1.95607e-11
-2.77629e-11
-1.31605e-11
-1.8815e-11
-5.00232e-12
-1.38342e-11
-1.94454e-13
-8.30557e-12
5.37333e-12
-3.00606e-12
1.01777e-11
2.4085e-13
1.37055e-11
4.65587e-12
1.86326e-11
9.97288e-12
2.25907e-11
1.11803e-11
2.41713e-11
1.45799e-11
2.73012e-11
1.75587e-11
2.92525e-11
1.83902e-11
2.86994e-11
1.87836e-11
2.77986e-11
1.94169e-11
2.91609e-11
1.9742e-11
2.80167e-11
2.30443e-11
2.92754e-11
2.58622e-11
2.99298e-11
3.07328e-11
2.52181e-11
2.14232e-11
-1.53588e-12
-5.40868e-12
-3.09914e-11
-9.46215e-11
-5.63413e-10
-1.03586e-10
3.45548e-10
1.49685e-10
-1.00446e-10
-2.86092e-10
-3.06453e-10
-2.42478e-10
-1.60146e-10
-1.18219e-10
-8.00513e-11
-7.34158e-11
-5.35031e-11
-5.48283e-11
-3.89208e-11
-4.36073e-11
-2.82908e-11
-3.2789e-11
-1.972e-11
-2.80379e-11
-1.34637e-11
-1.90499e-11
-5.11456e-12
-1.40097e-11
-3.65366e-13
-8.43979e-12
5.29635e-12
-3.10176e-12
1.0151e-11
1.50702e-13
1.36368e-11
4.57942e-12
1.8616e-11
9.93674e-12
2.2678e-11
1.11263e-11
2.41487e-11
1.45322e-11
2.74012e-11
1.75295e-11
2.94654e-11
1.84132e-11
2.89379e-11
1.83763e-11
2.74592e-11
1.91638e-11
2.96631e-11
1.97736e-11
2.84437e-11
2.2903e-11
3.0024e-11
2.55225e-11
3.09159e-11
3.00868e-11
2.70817e-11
2.01885e-11
1.46438e-12
-8.5175e-12
-1.97644e-11
-8.36253e-11
-5.92549e-10
-8.24038e-11
3.6033e-10
9.77834e-11
-1.04188e-10
-2.67836e-10
-3.04471e-10
-2.44408e-10
-1.60337e-10
-1.17506e-10
-7.96039e-11
-7.35925e-11
-5.4004e-11
-5.53834e-11
-3.94164e-11
-4.41159e-11
-2.877e-11
-3.31521e-11
-1.99249e-11
-2.83435e-11
-1.38254e-11
-1.93274e-11
-5.26328e-12
-1.42048e-11
-5.78003e-13
-8.59884e-12
5.19421e-12
-3.20972e-12
1.01053e-11
5.26285e-14
1.35436e-11
4.48921e-12
1.85865e-11
9.89447e-12
2.27656e-11
1.10727e-11
2.41143e-11
1.44667e-11
2.75103e-11
1.74883e-11
2.97132e-11
1.844e-11
2.92678e-11
1.78739e-11
2.70101e-11
1.88258e-11
3.02585e-11
1.97672e-11
2.89644e-11
2.26358e-11
3.09313e-11
2.49892e-11
3.21479e-11
2.90996e-11
2.93921e-11
1.83968e-11
5.23507e-12
-1.26573e-11
-6.86695e-12
-7.24483e-11
-6.25817e-10
-4.75524e-11
3.78774e-10
2.59872e-11
-1.12853e-10
-2.42048e-10
-2.99111e-10
-2.46205e-10
-1.60555e-10
-1.16551e-10
-7.89812e-11
-7.37151e-11
-5.45471e-11
-5.59932e-11
-3.99826e-11
-4.46808e-11
-2.93224e-11
-3.35713e-11
-2.01818e-11
-2.86773e-11
-1.4244e-11
-1.96476e-11
-5.45436e-12
-1.44188e-11
-8.33387e-13
-8.78363e-12
5.06374e-12
-3.32971e-12
1.00365e-11
-5.29167e-14
1.34248e-11
4.3849e-12
1.85421e-11
9.84562e-12
2.28479e-11
1.10201e-11
2.40684e-11
1.43815e-11
2.76257e-11
1.74342e-11
2.99934e-11
1.84707e-11
2.97087e-11
1.726e-11
2.64432e-11
1.84002e-11
3.0948e-11
1.97104e-11
2.95885e-11
2.22242e-11
3.20046e-11
2.42398e-11
3.36442e-11
2.77459e-11
3.21613e-11
1.60306e-11
9.77331e-12
-1.77556e-11
7.36402e-12
-6.08891e-11
-6.64065e-10
1.63732e-12
4.03521e-10
-6.5912e-11
-1.28628e-10
-2.08648e-10
-2.89622e-10
-2.47717e-10
-1.60862e-10
-1.15372e-10
-7.818e-11
-7.37767e-11
-5.51286e-11
-5.66538e-11
-4.0619e-11
-4.52988e-11
-2.99462e-11
-3.40461e-11
-2.04959e-11
-2.90369e-11
-1.47169e-11
-2.001e-11
-5.69248e-12
-1.46509e-11
-1.13151e-12
-8.99456e-12
4.90223e-12
-3.46148e-12
9.94138e-12
-1.65502e-13
1.32799e-11
4.26623e-12
1.84811e-11
9.78975e-12
2.29206e-11
1.09685e-11
2.40123e-11
1.42751e-11
2.77446e-11
1.73661e-11
3.03024e-11
1.85044e-11
3.02789e-11
1.65174e-11
2.57554e-11
1.78898e-11
3.17293e-11
1.95924e-11
3.03218e-11
2.16575e-11
3.32436e-11
2.32639e-11
3.54081e-11
2.60229e-11
3.53695e-11
1.31208e-11
1.50099e-11
-2.36384e-11
2.24874e-11
-4.85898e-11
-7.07889e-10
6.46574e-11
4.367e-10
-1.76866e-10
-1.53397e-10
-1.68049e-10
-2.75389e-10
-2.48749e-10
-1.61328e-10
-1.14006e-10
-7.7207e-11
-7.37741e-11
-5.57464e-11
-5.73629e-11
-4.13262e-11
-4.59679e-11
-3.06402e-11
-3.45759e-11
-2.08717e-11
-2.94213e-11
-1.52413e-11
-2.04133e-11
-5.98166e-12
-1.49013e-11
-1.47164e-12
-9.23169e-12
4.70744e-12
-3.60479e-12
9.81762e-12
-2.85086e-13
1.31093e-11
4.13321e-12
1.84021e-11
9.72673e-12
2.29803e-11
1.09172e-11
2.39476e-11
1.4147e-11
2.78639e-11
1.72835e-11
3.06352e-11
1.85376e-11
3.09966e-11
1.56457e-11
2.49479e-11
1.73002e-11
3.2594e-11
1.94049e-11
3.1164e-11
2.09343e-11
3.46391e-11
2.20648e-11
3.74231e-11
2.39544e-11
3.89634e-11
9.75067e-12
2.08158e-11
-3.00511e-11
3.79597e-11
-3.51763e-11
-7.5731e-10
1.39961e-10
4.80121e-10
-3.04686e-10
-1.88804e-10
-1.21212e-10
-2.55955e-10
-2.49033e-10
-1.62006e-10
-1.1251e-10
-7.60762e-11
-7.37053e-11
-5.63976e-11
-5.81181e-11
-4.21044e-11
-4.66864e-11
-3.14027e-11
-3.51597e-11
-2.13132e-11
-2.98299e-11
-1.58141e-11
-2.08557e-11
-6.32489e-12
-1.51701e-11
-1.85257e-12
-9.49472e-12
4.47744e-12
-3.75955e-12
9.66396e-12
-4.1173e-13
1.29137e-11
3.9861e-12
1.83041e-11
9.65635e-12
2.30242e-11
1.08654e-11
2.38758e-11
1.39973e-11
2.79802e-11
1.71863e-11
3.09845e-11
1.85644e-11
3.18714e-11
1.46651e-11
2.40367e-11
1.66419e-11
3.35284e-11
1.91458e-11
3.21077e-11
2.00637e-11
3.61663e-11
2.06669e-11
3.96515e-11
2.15937e-11
4.28559e-11
6.04844e-12
2.70103e-11
-3.66836e-11
5.32933e-11
-2.04199e-11
-8.12039e-10
2.25341e-10
5.34514e-10
-4.46109e-10
-2.35764e-10
-6.95438e-11
-2.31123e-10
-2.48265e-10
-1.62935e-10
-1.10979e-10
-7.48126e-11
-7.35694e-11
-5.70785e-11
-5.8917e-11
-4.29532e-11
-4.74525e-11
-3.22316e-11
-3.57959e-11
-2.18233e-11
-3.02628e-11
-1.64321e-11
-2.13352e-11
-6.72462e-12
-1.54583e-11
-2.27251e-12
-9.78281e-12
4.21086e-12
-3.92595e-12
9.47932e-12
-5.4569e-13
1.26945e-11
3.82569e-12
1.81862e-11
9.57845e-12
2.30497e-11
1.08123e-11
2.37983e-11
1.38278e-11
2.80893e-11
1.70758e-11
3.13385e-11
1.85771e-11
3.2887e-11
1.36347e-11
2.30745e-11
1.59292e-11
3.451e-11
1.88198e-11
3.31376e-11
1.9067e-11
3.77933e-11
1.91094e-11
4.20357e-11
1.90221e-11
4.69306e-11
2.17881e-12
3.33768e-11
-4.32061e-11
6.79913e-11
-4.21493e-12
-8.71077e-10
3.17987e-10
5.99708e-10
-5.96866e-10
-2.94425e-10
-1.48436e-11
-2.00966e-10
-2.46113e-10
-1.64118e-10
-1.09507e-10
-7.34564e-11
-7.33689e-11
-5.77849e-11
-5.97568e-11
-4.38722e-11
-4.82647e-11