/*--------------------------------*- C++ -*----------------------------------*\
| =========                 |                                                 |
| \\      /  F ield         | OpenFOAM: The Open Source CFD Toolbox           |
|  \\    /   O peration     | Version:  2312                                  |
|   \\  /    A nd           | Website:  www.openfoam.com                      |
|    \\/     M anipulation  |                                                 |
\*---------------------------------------------------------------------------*/
FoamFile
{
    version     2.0;
    format      ascii;
    arch        "LSB;label=32;scalar=64";
    class       volScalarField;
    location    "560";
    object      pMean;
}
// * * * * * * * * * * * * * * * * * * * * * * * * * * * * * * * * * * * * * //

dimensions      [0 2 -2 0 0 0 0];

internalField   nonuniform List<scalar> 
144000
(
9.1328e-10
4.31302e-10
-5.00038e-10
-9.01065e-10
-7.47423e-10
-5.00589e-10
-2.74348e-10
-1.52128e-10
-4.76989e-11
-1.93299e-11
2.71421e-11
2.2621e-11
5.29495e-11
3.74471e-11
6.40554e-11
4.55048e-11
6.77023e-11
4.18138e-11
6.59186e-11
4.27038e-11
6.7408e-11
3.96781e-11
6.53073e-11
3.81692e-11
6.55636e-11
3.76393e-11
6.52452e-11
3.40071e-11
6.30601e-11
3.23546e-11
6.36715e-11
3.27174e-11
6.31358e-11
2.70692e-11
5.88906e-11
2.44595e-11
5.77871e-11
2.26352e-11
5.55015e-11
1.76893e-11
5.03197e-11
1.48291e-11
4.86358e-11
9.99379e-12
4.25053e-11
3.59144e-12
3.57448e-11
3.786e-12
3.32746e-11
7.0924e-12
3.16588e-11
1.9492e-11
2.64863e-11
2.79685e-11
-2.92937e-12
3.99917e-11
-1.23517e-11
6.23087e-11
-1.26329e-09
-2.99167e-10
9.50246e-10
4.53823e-10
-5.09469e-10
-9.08575e-10
-7.49776e-10
-5.00712e-10
-2.74571e-10
-1.52402e-10
-4.82173e-11
-1.9779e-11
2.66161e-11
2.22845e-11
5.25413e-11
3.7214e-11
6.37399e-11
4.53817e-11
6.74432e-11
4.16963e-11
6.5681e-11
4.26675e-11
6.72089e-11
3.96474e-11
6.51165e-11
3.81896e-11
6.53957e-11
3.7685e-11
6.50825e-11
3.40539e-11
6.28957e-11
3.24314e-11
6.35217e-11
3.28239e-11
6.29825e-11
2.71587e-11
5.87248e-11
2.45935e-11
5.76343e-11
2.27857e-11
5.53457e-11
1.78285e-11
5.00782e-11
1.48875e-11
4.83683e-11
1.02056e-11
4.23397e-11
3.8469e-12
3.55668e-11
4.12221e-12
3.31247e-11
7.45404e-12
3.15465e-11
1.99285e-11
2.64637e-11
2.83365e-11
-2.91751e-12
3.98041e-11
-8.23769e-12
7.58332e-11
-1.28596e-09
-3.29675e-10
1.00024e-09
4.59704e-10
-5.24527e-10
-9.11116e-10
-7.50234e-10
-5.00167e-10
-2.74256e-10
-1.52535e-10
-4.85255e-11
-2.04265e-11
2.60479e-11
2.16649e-11
5.21257e-11
3.67055e-11
6.3428e-11
4.50286e-11
6.72796e-11
4.13532e-11
6.55003e-11
4.24147e-11
6.71319e-11
3.94082e-11
6.50382e-11
3.80085e-11
6.53721e-11
3.7533e-11
6.50853e-11
3.38951e-11
6.28878e-11
3.23041e-11
6.35435e-11
3.27337e-11
6.30424e-11
2.70352e-11
5.87425e-11
2.45182e-11
5.76945e-11
2.27278e-11
5.54206e-11
1.77708e-11
5.00196e-11
1.46533e-11
4.82514e-11
1.01488e-11
4.2452e-11
3.91746e-12
3.56322e-11
4.27281e-12
3.32598e-11
7.62109e-12
3.16809e-11
2.0142e-11
2.67732e-11
2.84587e-11
-2.36083e-12
3.77394e-11
-4.06488e-12
9.85663e-11
-1.32534e-09
-3.50641e-10
1.05269e-09
4.30388e-10
-5.40924e-10
-9.02852e-10
-7.48252e-10
-4.98999e-10
-2.73262e-10
-1.52079e-10
-4.84505e-11
-2.10096e-11
2.53847e-11
2.08808e-11
5.1582e-11
3.60542e-11
6.29884e-11
4.45701e-11
6.70733e-11
4.0908e-11
6.52162e-11
4.20753e-11
6.70256e-11
3.90986e-11
6.49023e-11
3.77689e-11
6.53201e-11
3.73438e-11
6.50889e-11
3.36952e-11
6.28553e-11
3.21385e-11
6.35551e-11
3.26237e-11
6.31365e-11
2.68855e-11
5.87443e-11
2.44154e-11
5.77721e-11
2.26579e-11
5.55359e-11
1.77276e-11
4.99455e-11
1.43451e-11
4.8048e-11
9.96668e-12
4.26383e-11
3.99097e-12
3.57429e-11
4.38879e-12
3.35293e-11
7.6882e-12
3.20121e-11
2.01014e-11
2.76517e-11
2.78344e-11
-4.88352e-13
3.22292e-11
5.34684e-12
1.19918e-10
-1.37618e-09
-3.42808e-10
1.09894e-09
3.48682e-10
-5.55911e-10
-8.74356e-10
-7.41847e-10
-4.97688e-10
-2.71926e-10
-1.50978e-10
-4.79354e-11
-2.14744e-11
2.45939e-11
1.99471e-11
5.08617e-11
3.52603e-11
6.23683e-11
4.40152e-11
6.67734e-11
4.03788e-11
6.47782e-11
4.16614e-11
6.68414e-11
3.87456e-11
6.46532e-11
3.74928e-11
6.51912e-11
3.71447e-11
6.50404e-11
3.34903e-11
6.27408e-11
3.19646e-11
6.35021e-11
3.25358e-11
6.32113e-11
2.67552e-11
5.86695e-11
2.43237e-11
5.78129e-11
2.2619e-11
5.56417e-11
1.77651e-11
4.98062e-11
1.4074e-11
4.76476e-11
9.65606e-12
4.28204e-11
4.13359e-12
3.58365e-11
4.47691e-12
3.38915e-11
7.62367e-12
3.25704e-11
1.9669e-11
2.92662e-11
2.60979e-11
3.25791e-12
2.27264e-11
2.16094e-11
1.34566e-10
-1.43541e-09
-2.90789e-10
1.13992e-09
2.04788e-10
-5.71507e-10
-8.20893e-10
-7.28763e-10
-4.96809e-10
-2.70716e-10
-1.49374e-10
-4.70515e-11
-2.18523e-11
2.36369e-11
1.88375e-11
4.99424e-11
3.43121e-11
6.15565e-11
4.33481e-11
6.63674e-11
3.97769e-11
6.41841e-11
4.11722e-11
6.65684e-11
3.8357e-11
6.42877e-11
3.71786e-11
6.49785e-11
3.69393e-11
6.49313e-11
3.32877e-11
6.25352e-11
3.17867e-11
6.33772e-11
3.24712e-11
6.32513e-11
2.66545e-11
5.85083e-11
2.42412e-11
5.78049e-11
2.26159e-11
5.57286e-11
1.79109e-11
4.96031e-11
1.38645e-11
4.69808e-11
9.16548e-12
4.2965e-11
4.34822e-12
3.59153e-11
4.50673e-12
3.43649e-11
7.35936e-12
3.34265e-11
1.86749e-11
3.18165e-11
2.29191e-11
9.37909e-12
8.94127e-12
4.50712e-11
1.41031e-10
-1.5049e-09
-1.86741e-10
1.1816e-09
-3.2095e-12
-5.93202e-10
-7.40814e-10
-7.06717e-10
-4.96512e-10
-2.70087e-10
-1.47427e-10
-4.58598e-11
-2.22017e-11
2.24623e-11
1.75097e-11
4.87907e-11
3.31962e-11
6.05413e-11
4.25558e-11
6.58424e-11
3.91091e-11
6.34392e-11
4.06082e-11
6.62031e-11
3.79453e-11
6.38088e-11
3.68312e-11
6.46824e-11
3.67349e-11
6.4755e-11
3.30987e-11
6.22394e-11
3.16115e-11
6.31777e-11
3.24344e-11
6.32488e-11
2.65951e-11
5.82623e-11
2.41706e-11
5.77456e-11
2.26516e-11
5.57997e-11
1.81758e-11
4.93929e-11
1.37339e-11
4.5948e-11
8.43406e-12
4.30772e-11
4.6311e-12
3.59954e-11
4.4269e-12
3.49753e-11
6.81648e-12
3.4666e-11
1.69852e-11
3.54357e-11
1.80972e-11
1.80073e-11
-8.66647e-12
7.45012e-11
1.40526e-10
-1.58592e-09
-3.07845e-11
1.22983e-09
-2.67439e-10
-6.26281e-10
-6.36029e-10
-6.73947e-10
-4.96652e-10
-2.70419e-10
-1.45296e-10
-4.44129e-11
-2.25595e-11
2.10365e-11
1.59246e-11
4.73656e-11
3.1893e-11
5.93009e-11
4.16206e-11
6.51698e-11
3.83746e-11
6.25441e-11
3.9968e-11
6.57323e-11
3.75166e-11
6.32181e-11
3.64564e-11
6.42998e-11
3.65376e-11
6.4507e-11
3.29336e-11
6.18556e-11
3.14474e-11
6.29028e-11
3.24322e-11
6.31936e-11
2.65862e-11
5.79353e-11
2.41125e-11
5.76365e-11
2.27219e-11
5.58696e-11
1.85604e-11
4.92778e-11
1.3654e-11
4.44073e-11
7.39573e-12
4.31675e-11
4.96502e-12
3.6106e-11
4.1926e-12
3.57539e-11
5.93494e-12
3.63423e-11
1.45306e-11
4.01218e-11
1.17539e-11
2.88099e-11
-2.88271e-11
1.07029e-10
1.36255e-10
-1.67718e-09
1.66576e-10
1.28966e-09
-5.72774e-10
-6.75238e-10
-5.1171e-10
-6.29423e-10
-4.96725e-10
-2.7203e-10
-1.43179e-10
-4.2775e-11
-2.2946e-11
1.9324e-11
1.40672e-11
4.56481e-11
3.03867e-11
5.78215e-11
4.05253e-11
6.43205e-11
3.75672e-11
6.1494e-11
3.92481e-11
6.51375e-11
3.70696e-11
6.25129e-11
3.60562e-11
6.38246e-11
3.63484e-11
6.41795e-11
3.27986e-11
6.13845e-11
3.13009e-11
6.25533e-11
3.24675e-11
6.30787e-11
2.66326e-11
5.75374e-11
2.40664e-11
5.74832e-11
2.28136e-11
5.59648e-11
1.90494e-11
4.94221e-11
1.35788e-11
4.21613e-11
5.99592e-12
4.32656e-11
5.33108e-12
3.62762e-11
3.77365e-12
3.67137e-11
4.70404e-12
3.84543e-11
1.13597e-11
4.57071e-11
4.25422e-12
4.10226e-11
-4.9796e-11
1.39297e-10
1.31986e-10
-1.77551e-09
3.88377e-10
1.36266e-09
-9.00753e-10
-7.4253e-10
-3.75087e-10
-5.73121e-10
-4.96035e-10
-2.75108e-10
-1.41288e-10
-4.10025e-11
-2.33635e-11
1.73371e-11
1.19434e-11
4.36337e-11
2.86784e-11
5.6101e-11
3.92692e-11
6.32759e-11
3.66801e-11
6.02913e-11
3.84462e-11
6.44048e-11
3.66002e-11
6.16929e-11
3.5629e-11
6.32504e-11
3.61689e-11
6.37634e-11
3.26898e-11
6.08278e-11
3.11722e-11
6.21291e-11
3.25403e-11
6.28959e-11
2.67341e-11
5.70762e-11
2.40289e-11
5.72914e-11
2.29147e-11
5.61088e-11
1.96232e-11
5.00328e-11
1.3414e-11
3.89664e-11
4.19455e-12
4.34071e-11
5.70846e-12
3.65303e-11
3.16335e-12
3.78459e-11
3.15189e-12
4.09356e-11
7.64009e-12
5.18729e-11
-3.7988e-12
5.36387e-11
-6.96754e-11
1.68204e-10
1.30638e-10
-1.87526e-09
6.17542e-10
1.44697e-09
-1.23037e-09
-8.28357e-10
-2.34484e-10
-5.06006e-10
-4.93755e-10
-2.79687e-10
-1.39856e-10
-3.91952e-11
-2.38054e-11
1.50951e-11
9.57023e-12
4.13301e-11
2.67775e-11
5.41477e-11
3.78532e-11
6.20283e-11
3.57133e-11
5.89387e-11
3.75641e-11
6.35265e-11
3.61037e-11
6.07588e-11
3.51744e-11
6.25725e-11
3.59934e-11
6.32532e-11
3.26054e-11
6.01895e-11
3.10634e-11
6.1629e-11
3.26476e-11
6.264e-11
2.68846e-11
5.65617e-11
2.40005e-11
5.7062e-11
2.3006e-11
5.63374e-11
2.02609e-11
5.13709e-11
1.29418e-11
3.45287e-11
1.97788e-12
4.36225e-11
6.08546e-12
3.68652e-11
2.38367e-12
3.91026e-11
1.3528e-12
4.36479e-11
3.61617e-12
5.82062e-11
-1.17318e-11
6.56056e-11
-8.6796e-11
1.91448e-10
1.33942e-10
-1.96938e-09
8.37318e-10
1.53796e-09
-1.54403e-09
-9.30166e-10
-9.76726e-11
-4.2989e-10
-4.89049e-10
-2.85639e-10
-1.39118e-10
-3.74581e-11
-2.4268e-11
1.26283e-11
6.97197e-12
3.87508e-11
2.46974e-11
5.19698e-11
3.62866e-11
6.05751e-11
3.46677e-11
5.74436e-11
3.66073e-11
6.24973e-11
3.55754e-11
5.97135e-11
3.46917e-11
6.1788e-11
3.58195e-11
6.26455e-11
3.25411e-11
5.94728e-11
3.0973e-11
6.10529e-11
3.27843e-11
6.23111e-11
2.70784e-11
5.59977e-11
2.39799e-11
5.67972e-11
2.30679e-11
5.66808e-11
2.09219e-11
5.38848e-11
1.19606e-11
2.84246e-11
-6.19727e-13
4.39306e-11
6.44448e-12
3.72546e-11
1.48397e-12
4.04293e-11
-5.84016e-13
4.64104e-11
-4.16726e-13
6.42705e-11
-1.88644e-11
7.60044e-11
-9.98918e-11
2.07677e-10
1.42455e-10
-2.0512e-09
1.03391e-09
1.62978e-09
-1.82686e-09
-1.04364e-09
2.842e-11
-3.4718e-10
-4.81125e-10
-2.92641e-10
-1.39278e-10
-3.59314e-11
-2.47511e-11
9.97444e-12
4.17943e-12
3.59169e-11
2.24524e-11
4.95838e-11
3.4578e-11
5.89209e-11
3.35465e-11
5.58177e-11
3.5583e-11
6.13178e-11
3.50127e-11
5.85629e-11
3.41835e-11
6.08986e-11
3.56431e-11
6.19429e-11
3.24919e-11
5.86819e-11
3.08989e-11
6.04012e-11
3.29456e-11
6.19052e-11
2.73106e-11
5.53887e-11
2.39695e-11
5.64917e-11
2.30948e-11
5.71355e-11
2.16035e-11
5.80745e-11
1.02309e-11
2.02276e-11
-3.46614e-12
4.43535e-11
6.78917e-12
3.76658e-11
5.2362e-13
4.17115e-11
-2.50904e-12
4.90268e-11
-4.156e-12
6.96467e-11
-2.46462e-11
8.41547e-11
-1.08225e-10
2.16514e-10
1.55447e-10
-2.11516e-09
1.19775e-09
1.71617e-09
-2.06859e-09
-1.16353e-09
1.38464e-10
-2.60682e-10
-4.69358e-10
-3.00245e-10
-1.40488e-10
-3.47575e-11
-2.52631e-11
7.17419e-12
1.2287e-12
3.28518e-11
2.00649e-11
4.70101e-11
3.27447e-11
5.70747e-11
3.23558e-11
5.40742e-11
3.44987e-11
5.99915e-11
3.44146e-11
5.7315e-11
3.36532e-11
5.99072e-11
3.54607e-11
6.11477e-11
3.24534e-11
5.78215e-11
3.08404e-11
5.96766e-11
3.31273e-11
6.14188e-11
2.75778e-11
5.4733e-11
2.39835e-11
5.61233e-11
2.31165e-11
5.76129e-11
2.23918e-11
6.42779e-11
6.97596e-12
9.59488e-12
-6.31091e-12
4.49424e-11
7.16596e-12
3.80789e-11
-4.14146e-13
4.28635e-11
-4.27212e-12
5.13079e-11
-7.31909e-12
7.39945e-11
-2.86823e-11
8.96617e-11
-1.1157e-10
2.18424e-10
1.7142e-10
-2.15731e-09
1.32367e-09
1.79084e-09
-2.26253e-09
-1.28388e-09
2.28763e-10
-1.73403e-10
-4.53375e-10
-3.07935e-10
-1.42845e-10
-3.40928e-11
-2.5826e-11
4.26791e-12
-1.84507e-12
2.95802e-11
1.75522e-11
4.4267e-11
3.08011e-11
5.50482e-11
3.11e-11
5.22253e-11
3.33628e-11
5.85267e-11
3.37797e-11
5.59779e-11
3.31035e-11
5.88185e-11
3.52699e-11
6.02636e-11
3.24223e-11
5.68981e-11
3.07974e-11
5.88821e-11
3.33265e-11
6.08514e-11
2.78796e-11
5.40273e-11
2.40368e-11
5.56737e-11
2.31643e-11
5.80254e-11
2.32105e-11
7.37411e-11
7.11978e-13
-4.60732e-12
-9.20807e-12
4.55809e-11
7.57788e-12
3.84559e-11
-1.23826e-12
4.37926e-11
-5.73703e-12
5.30868e-11
-9.6907e-12
7.70758e-11
-3.0748e-11
9.24022e-11
-1.1013e-10
2.14322e-10
1.88657e-10
-2.17509e-09
1.40963e-09
1.84818e-09
-2.40557e-09
-1.39875e-09
2.97248e-10
-8.83427e-11
-4.33094e-10
-3.15156e-10
-1.46385e-10
-3.40987e-11
-2.64766e-11
1.29046e-12
-5.00836e-12
2.6126e-11
1.4928e-11
4.13724e-11
2.87617e-11
5.28568e-11
2.97839e-11
5.02827e-11
3.21836e-11
5.6933e-11
3.31078e-11
5.45599e-11
3.25371e-11
5.76389e-11
3.50681e-11
5.92963e-11
3.23966e-11
5.59179e-11
3.07693e-11
5.80215e-11
3.35393e-11
6.02056e-11
2.82112e-11
5.32766e-11
2.41271e-11
5.51534e-11
2.32265e-11
5.83839e-11
2.34522e-11
8.92484e-11
-2.30912e-12
-2.33334e-11
-1.24459e-11
4.57449e-11
7.93079e-12
3.86884e-11
-1.89329e-12
4.43973e-11
-6.79452e-12
5.42304e-11
-1.11189e-11
7.87575e-11
-3.07758e-11
9.24934e-11
-1.04414e-10
2.05509e-10
2.05445e-10
-2.1674e-09
1.45623e-09
1.88339e-09
-2.49721e-09
-1.50251e-09
3.43248e-10
-8.22472e-12
-4.08692e-10
-3.21365e-10
-1.51078e-10
-3.4926e-11
-2.72631e-11
-1.72737e-12
-8.22857e-12
2.25119e-11
1.22053e-11
3.83433e-11
2.66406e-11
5.05164e-11
2.84126e-11
4.82581e-11
3.09682e-11
5.52223e-11
3.23991e-11
5.30682e-11
3.19562e-11
5.63749e-11
3.48533e-11
5.82532e-11
3.23744e-11
5.48871e-11
3.0756e-11
5.70984e-11
3.37648e-11
5.94828e-11
2.8577e-11
5.24676e-11
2.42887e-11
5.44951e-11
2.34768e-11
5.82876e-11
2.36166e-11
9.88489e-11
-2.74427e-14
-3.50715e-11
-1.45038e-11
4.54592e-11
8.30383e-12
3.87781e-11
-2.29174e-12
4.4614e-11
-7.35439e-12
5.46506e-11
-1.152e-11
7.90084e-11
-2.88299e-11
9.02499e-11
-9.51163e-11
1.93405e-10
2.20221e-10
-2.1342e-09
1.46608e-09
1.89329e-09
-2.53984e-09
-1.59056e-09
3.67325e-10
6.45992e-11
-3.8057e-10
-3.2605e-10
-1.56825e-10
-3.6701e-11
-2.82402e-11
-4.75844e-12
-1.14739e-11
1.87616e-11
9.39623e-12
3.51972e-11
2.44499e-11
4.80428e-11
2.69914e-11
4.61628e-11
2.97236e-11
5.34056e-11
3.16544e-11
5.15123e-11
3.13634e-11
5.50356e-11
3.4624e-11
5.71408e-11
3.23538e-11
5.38111e-11
3.07582e-11
5.61158e-11
3.40035e-11
5.86799e-11
2.89868e-11
5.15793e-11
2.45725e-11
5.35979e-11
2.41419e-11
5.72045e-11
2.4936e-11
8.74649e-11
6.52136e-13
-2.38114e-11
-1.31845e-11
4.50281e-11
8.86436e-12
3.87681e-11
-2.33743e-12
4.44128e-11
-7.35001e-12
5.43155e-11
-1.08712e-11
7.78922e-11
-2.50937e-11
8.61058e-11
-8.30406e-11
1.79277e-10
2.31708e-10
-2.07679e-09
1.44315e-09
1.87564e-09
-2.53721e-09
-1.65902e-09
3.71009e-10
1.28218e-10
-3.49363e-10
-3.28791e-10
-1.6347e-10
-3.95235e-11
-2.94693e-11
-7.78359e-12
-1.47155e-11
1.48984e-11
6.51344e-12
3.19491e-11
2.22005e-11
4.54513e-11
2.55248e-11
4.40074e-11
2.84555e-11
5.14951e-11
3.08746e-11
4.98991e-11
3.07604e-11
5.36286e-11
3.43786e-11
5.59664e-11
3.23335e-11
5.26962e-11
3.07751e-11
5.50799e-11
3.42517e-11
5.78049e-11
2.94295e-11
5.06299e-11
2.49445e-11
5.25422e-11
2.50383e-11
5.55829e-11
2.62476e-11
6.99985e-11
5.90406e-12
-4.24038e-12
-1.02874e-11
4.40675e-11
9.47504e-12
3.85372e-11
-2.03381e-12
4.37532e-11
-6.76961e-12
5.32243e-11
-9.22221e-12
7.55483e-11
-1.98353e-11
8.05253e-11
-6.90086e-11
1.64266e-10
2.3909e-10
-1.99697e-09
1.39192e-09
1.82963e-09
-2.49381e-09
-1.70522e-09
3.56478e-10
1.81254e-10
-3.15849e-10
-3.29298e-10
-1.70831e-10
-4.3466e-11
-3.10199e-11
-1.07961e-11
-1.79306e-11
1.09421e-11
3.56392e-12
2.86107e-11
1.99011e-11
4.27575e-11
2.40169e-11
4.18002e-11
2.71685e-11
4.9502e-11
3.00604e-11
4.82352e-11
3.01484e-11
5.21612e-11
3.41165e-11
5.4737e-11
3.23126e-11
5.15478e-11
3.0806e-11
5.39964e-11
3.45066e-11
5.6866e-11
2.9897e-11
4.96361e-11
2.53712e-11
5.14071e-11
2.59647e-11
5.38941e-11
2.68838e-11
5.85148e-11
1.39045e-11
9.49797e-12
-7.4157e-12
4.25694e-11
1.00913e-11
3.80319e-11
-1.37611e-12
4.26305e-11
-5.6242e-12
5.14285e-11
-6.66214e-12
7.2167e-11
-1.33636e-11
7.4003e-11
-5.37781e-11
1.49326e-10
2.42025e-10
-1.89719e-09
1.31691e-09
1.7551e-09
-2.41456e-09
-1.72725e-09
3.26439e-10
2.2283e-10
-2.80927e-10
-3.27422e-10
-1.78705e-10
-4.85634e-11
-3.29615e-11
-1.37998e-11
-2.11018e-11
6.91074e-12
5.53943e-13
2.51918e-11
1.75583e-11
3.99762e-11
2.24718e-11
3.95483e-11
2.58653e-11
4.74375e-11
2.92122e-11
4.65258e-11
2.95275e-11
5.06404e-11
3.38372e-11
5.34599e-11
3.22898e-11
5.037e-11
3.08496e-11
5.28694e-11
3.4768e-11
5.5868e-11
3.03923e-11
4.85934e-11
2.58638e-11
5.01743e-11
2.6941e-11
5.20945e-11
2.74163e-11
5.10605e-11
1.80781e-11
1.94985e-11
-3.99743e-12
4.10567e-11
1.08468e-11
3.72846e-11
-3.41903e-13
4.10839e-11
-3.9457e-12
4.90079e-11
-3.3156e-12
6.79674e-11
-5.99431e-12
6.69851e-11
-3.80106e-11
1.3502e-10
2.40632e-10
-1.77984e-09
1.22208e-09
1.65309e-09
-2.30498e-09
-1.72455e-09
2.83849e-10
2.52707e-10
-2.45499e-10
-3.23141e-10
-1.86873e-10
-5.48059e-11
-3.53531e-11
-1.68031e-11
-2.42149e-11
2.82257e-12
-2.50938e-12
2.17018e-11
1.5177e-11
3.71203e-11
2.08931e-11
3.72586e-11
2.45477e-11
4.53117e-11
2.83315e-11
4.47763e-11
2.88975e-11
4.90731e-11
3.35397e-11
5.21421e-11
3.22644e-11
4.91678e-11
3.09043e-11
5.17047e-11
3.50323e-11
5.48199e-11
3.09086e-11
4.75121e-11
2.64052e-11
4.88687e-11
2.79276e-11
5.02616e-11
2.79918e-11
4.58233e-11
2.05358e-11
2.68841e-11
-1.22963e-13
3.96318e-11
1.17529e-11
3.62887e-11
1.04373e-12
3.91581e-11
-1.79387e-12
4.60644e-11
6.65231e-13
6.31886e-11
1.96397e-12
5.98741e-11
-2.22279e-11
1.21627e-10
2.35275e-10
-1.64747e-09
1.11129e-09
1.5254e-09
-2.17087e-09
-1.69772e-09
2.31843e-10
2.7127e-10
-2.10407e-10
-3.1657e-10
-1.95132e-10
-6.21432e-11
-3.82408e-11
-1.98189e-11
-2.72613e-11
-1.30556e-12
-5.61947e-12
1.81507e-11
1.27593e-11
3.42021e-11
1.92856e-11
3.49383e-11
2.32151e-11
4.31336e-11
2.742e-11
4.2992e-11
2.82569e-11
4.74662e-11
3.32224e-11
5.07898e-11
3.22355e-11
4.79467e-11
3.09672e-11
5.05099e-11
3.52936e-11
5.37313e-11
3.14371e-11
4.64084e-11
2.69674e-11
4.75345e-11
2.88537e-11
4.85285e-11
2.85195e-11
4.21145e-11
2.2014e-11
3.21943e-11
3.96066e-12
3.8284e-11
1.27963e-11
3.50438e-11
2.7352e-12
3.69111e-11
7.53964e-13
4.27299e-11
5.11567e-12
5.80698e-11
1.02188e-11
5.30116e-11
-6.81422e-12
1.09113e-10
2.26439e-10
-1.50248e-09
9.88402e-10
1.37494e-09
-2.01849e-09
-1.64877e-09
1.7351e-10
2.79542e-10
-1.7635e-10
-3.07922e-10
-2.03326e-10
-7.05197e-11
-4.16678e-11
-2.28701e-11
-3.02437e-11
-5.46535e-12
-8.77554e-12
1.4544e-11
1.03013e-11
3.12284e-11
1.76523e-11
3.2593e-11
2.18642e-11
4.09085e-11
2.64788e-11
4.11772e-11
2.76025e-11
4.58251e-11
3.28828e-11
4.94081e-11
3.22022e-11
4.67123e-11
3.10354e-11
4.92922e-11
3.55461e-11
5.26104e-11
3.19723e-11
4.52951e-11
2.7532e-11
4.61954e-11
2.96993e-11
4.6926e-11
2.89706e-11
3.9507e-11
2.30094e-11
3.5841e-11
8.05379e-12
3.70046e-11
1.39768e-11
3.35793e-11
4.68286e-12
3.44206e-11
3.61448e-12
3.91477e-11
9.87099e-12
5.28483e-11
1.85206e-11
4.66674e-11
8.05086e-12
9.72282e-11
2.14642e-10
-1.34727e-09
8.57345e-10
1.2056e-09
-1.853e-09
-1.58056e-09
1.11422e-10
2.78866e-10
-1.43849e-10
-2.97442e-10
-2.1133e-10
-7.9884e-11
-4.56757e-11
-2.59852e-11
-3.3167e-11
-9.65505e-12
-1.19787e-11
1.08814e-11
7.79751e-12
2.8201e-11
1.59977e-11
3.02261e-11
2.04927e-11
3.86386e-11
2.55111e-11
3.93335e-11
2.69322e-11
4.41516e-11
3.25193e-11
4.79992e-11
3.21656e-11
4.54674e-11
3.11066e-11
4.80556e-11
3.57848e-11
5.14628e-11
3.25123e-11
4.41806e-11
2.8087e-11
4.48606e-11
3.04652e-11
4.54444e-11
2.93632e-11
3.76714e-11
2.3793e-11
3.81542e-11
1.20317e-11
3.5791e-11
1.52962e-11
3.19376e-11
6.82948e-12
3.17625e-11
6.69585e-12
3.54557e-11
1.4771e-11
4.77227e-11
2.66781e-11
4.10064e-11
2.23705e-11
8.54982e-11
2.00347e-10
-1.18409e-09
7.21253e-10
9.15506e-10
4.32711e-10
-4.99357e-10
-9.00669e-10
-7.4702e-10
-4.99158e-10
-2.72417e-10
-1.5033e-10
-4.64635e-11
-1.88319e-11
2.7076e-11
2.21787e-11
5.22879e-11
3.66371e-11
6.31945e-11
4.46142e-11
6.69607e-11
4.12538e-11
6.55123e-11
4.23711e-11
6.7202e-11
3.9549e-11
6.52412e-11
3.80866e-11
6.55169e-11
3.75308e-11
6.52299e-11
3.39888e-11
6.31023e-11
3.2305e-11
6.36931e-11
3.25889e-11
6.31097e-11
2.68528e-11
5.88692e-11
2.4229e-11
5.78842e-11
2.24349e-11
5.58152e-11
1.77626e-11
5.11887e-11
1.58011e-11
4.9051e-11
1.04876e-11
4.26433e-11
3.44994e-12
3.54176e-11
3.47983e-12
3.2877e-11
6.76052e-12
3.12026e-11
1.91074e-11
2.60874e-11
2.78758e-11
-3.09265e-12
4.04529e-11
-1.18363e-11
6.1437e-11
-1.26603e-09
-3.00394e-10
9.52526e-10
4.55405e-10
-5.08837e-10
-9.08198e-10
-7.49346e-10
-4.99266e-10
-2.72619e-10
-1.50594e-10
-4.69786e-11
-1.92839e-11
2.65447e-11
2.18348e-11
5.18722e-11
3.6395e-11
6.287e-11
4.44799e-11
6.66958e-11
4.11316e-11
6.52714e-11
4.23299e-11
6.70023e-11
3.9518e-11
6.50495e-11
3.8105e-11
6.53477e-11
3.75745e-11
6.50696e-11
3.40399e-11
6.29406e-11
3.2385e-11
6.35441e-11
3.26973e-11
6.29563e-11
2.69467e-11
5.87007e-11
2.43681e-11
5.7727e-11
2.25939e-11
5.56552e-11
1.79222e-11
5.09873e-11
1.59286e-11
4.88458e-11
1.07197e-11
4.24786e-11
3.70503e-12
3.52395e-11
3.81372e-12
3.27261e-11
7.12071e-12
3.10871e-11
1.95403e-11
2.60664e-11
2.82439e-11
-3.0741e-12
4.02774e-11
-7.70165e-12
7.50123e-11
-1.28871e-09
-3.31047e-10
1.00266e-09
4.61681e-10
-5.23962e-10
-9.1082e-10
-7.49787e-10
-4.98704e-10
-2.72275e-10
-1.50712e-10
-4.7276e-11
-1.99323e-11
2.59699e-11
2.1205e-11
5.1447e-11
3.5875e-11
6.25471e-11
4.41113e-11
6.65218e-11
4.07808e-11
6.50867e-11
4.20702e-11
6.6924e-11
3.92792e-11
6.49718e-11
3.79213e-11
6.53236e-11
3.74191e-11
6.50756e-11
3.38868e-11
6.29388e-11
3.22613e-11
6.3569e-11
3.26086e-11
6.30177e-11
2.68277e-11
5.87179e-11
2.42967e-11
5.77838e-11
2.25422e-11
5.57289e-11
1.78729e-11
5.09864e-11
1.57821e-11
4.88374e-11
1.07251e-11
4.25968e-11
3.77292e-12
3.53028e-11
3.96238e-12
3.28579e-11
7.28704e-12
3.12199e-11
1.97489e-11
2.63773e-11
2.83657e-11
-2.51842e-12
3.82045e-11
-3.49209e-12
9.79729e-11
-1.32817e-09
-3.52507e-10
1.05519e-09
4.32936e-10
-5.40408e-10
-9.02676e-10
-7.47796e-10
-4.97514e-10
-2.71249e-10
-1.50228e-10
-4.71837e-11
-2.05122e-11
2.5301e-11
2.04102e-11
5.08927e-11
3.52108e-11
6.20948e-11
4.36338e-11
6.62996e-11
4.03247e-11
6.4797e-11
4.17218e-11
6.68143e-11
3.89702e-11
6.48376e-11
3.76791e-11
6.52708e-11
3.72252e-11
6.50802e-11
3.3694e-11
6.29142e-11
3.21013e-11
6.35852e-11
3.25013e-11
6.31122e-11
2.66845e-11
5.87177e-11
2.42002e-11
5.78553e-11
2.24793e-11
5.58391e-11
1.78192e-11
5.09895e-11
1.55634e-11
4.87943e-11
1.06813e-11
4.28051e-11
3.83933e-12
3.54155e-11
4.07719e-12
3.31264e-11
7.35109e-12
3.15515e-11
1.96952e-11
2.72627e-11
2.77358e-11
-6.43766e-13
3.2678e-11
5.94199e-12
1.19655e-10
-1.37902e-09
-3.45339e-10
1.10127e-09
3.51769e-10
-5.55401e-10
-8.74297e-10
-7.41369e-10
-4.96199e-10
-2.69862e-10
-1.49085e-10
-4.66361e-11
-2.09664e-11
2.45085e-11
1.9468e-11
5.01623e-11
3.4404e-11
6.1462e-11
4.30578e-11
6.59786e-11
3.97812e-11
6.43517e-11
4.12974e-11
6.66237e-11
3.86181e-11
6.45912e-11
3.74013e-11
6.51402e-11
3.70207e-11
6.50292e-11
3.34973e-11
6.28085e-11
3.19369e-11
6.35359e-11
3.242e-11
6.31838e-11
2.65659e-11
5.86363e-11
2.41217e-11
5.78814e-11
2.24529e-11
5.59286e-11
1.7821e-11
5.09508e-11
1.53395e-11
4.86082e-11
1.06219e-11
4.30364e-11
3.97105e-12
3.55128e-11
4.16551e-12
3.34925e-11
7.28396e-12
3.21138e-11
1.92543e-11
2.88813e-11
2.5988e-11
3.09726e-12
2.31574e-11
2.22213e-11
1.34606e-10
-1.43817e-09
-2.93987e-10
1.14204e-09
2.08276e-10
-5.70969e-10
-8.20944e-10
-7.28253e-10
-4.95298e-10
-2.686e-10
-1.47427e-10
-4.57155e-11
-2.13282e-11
2.35529e-11
1.83522e-11
4.92356e-11
3.34459e-11
6.06389e-11
4.23711e-11
6.55487e-11
3.91631e-11
6.37488e-11
4.07971e-11
6.63412e-11
3.82302e-11
6.42291e-11
3.70871e-11
6.4925e-11
3.68101e-11
6.49128e-11
3.33038e-11
6.26107e-11
3.17726e-11
6.34123e-11
3.23677e-11
6.32147e-11
2.64842e-11
5.84596e-11
2.4064e-11
5.78467e-11
2.24723e-11
5.59826e-11
1.79006e-11
5.08667e-11
1.51167e-11
4.8225e-11
1.05304e-11
4.32698e-11
4.17027e-12
3.55999e-11
4.20067e-12
3.39739e-11
7.01717e-12
3.29796e-11
1.82478e-11
3.1432e-11
2.27978e-11
9.21078e-12
9.34227e-12
4.56812e-11
1.41369e-10
-1.50749e-09
-1.90412e-10
1.18335e-09
4.9475e-13
-5.92599e-10
-7.40961e-10
-7.0619e-10
-4.94973e-10
-2.67919e-10
-1.45426e-10
-4.44785e-11
-2.16496e-11
2.23868e-11
1.70237e-11
4.808e-11
3.23232e-11
5.9615e-11
4.1562e-11
6.49989e-11
3.84779e-11
6.29934e-11
4.02223e-11
6.59639e-11
3.78188e-11
6.37535e-11
3.67421e-11
6.4625e-11
3.66019e-11
6.47246e-11
3.31247e-11
6.23197e-11
3.16161e-11
6.32096e-11
3.23504e-11
6.31958e-11
2.64532e-11
5.81867e-11
2.40344e-11
5.77425e-11
2.25473e-11
5.59944e-11
1.80712e-11
5.07554e-11
1.48935e-11
4.75994e-11
1.03911e-11
4.35104e-11
4.43244e-12
3.56951e-11
4.13455e-12
3.45976e-11
6.47521e-12
3.42329e-11
1.6547e-11
3.50516e-11
1.79683e-11
1.78335e-11
-8.30384e-12
7.51065e-11
1.41116e-10
-1.58825e-09
-3.47338e-11
1.23115e-09
-2.63706e-10
-6.25572e-10
-6.36246e-10
-6.73426e-10
-4.95085e-10
-2.682e-10
-1.43241e-10
-4.29836e-11
-2.19718e-11
2.09732e-11
1.54411e-11
4.66549e-11
3.10175e-11
5.8369e-11
4.06142e-11
6.43025e-11
3.7726e-11
6.20865e-11
3.95717e-11
6.54784e-11
3.73899e-11
6.31652e-11
3.63723e-11
6.42366e-11
3.6403e-11
6.44599e-11
3.29703e-11
6.19362e-11
3.14764e-11
6.29261e-11
3.23758e-11
6.31143e-11
2.64844e-11
5.78179e-11
2.40354e-11
5.7566e-11
2.26813e-11
5.59645e-11
1.83401e-11
5.06532e-11
1.46543e-11
4.67059e-11
1.01837e-11
4.3763e-11
4.73798e-12
3.58265e-11
3.92377e-12
3.53959e-11
5.59716e-12
3.59253e-11
1.40842e-11
3.97373e-11
1.1615e-11
2.86408e-11
-2.85089e-11
1.07633e-10
1.37042e-10
-1.67924e-09
1.62543e-10
1.2906e-09
-5.69219e-10
-6.74442e-10
-5.11966e-10
-6.28916e-10
-4.95133e-10
-2.69765e-10
-1.41067e-10
-4.12919e-11
-2.2318e-11
1.92784e-11
1.3591e-11
4.49414e-11
2.95134e-11
5.68871e-11
3.95114e-11
6.34317e-11
3.69023e-11
6.1024e-11
3.88428e-11
6.48671e-11
3.69422e-11
6.2461e-11
3.59799e-11
6.37543e-11
3.6215e-11
6.41112e-11
3.28469e-11
6.14601e-11
3.13599e-11
6.25619e-11
3.2447e-11
6.29627e-11
2.65832e-11
5.73616e-11
2.40703e-11
5.73165e-11
2.28745e-11
5.5902e-11
1.87037e-11
5.06017e-11
1.43803e-11
4.5519e-11
9.90872e-12
4.4042e-11
5.06014e-12
3.60243e-11
3.53822e-12
3.63824e-11
4.37369e-12
3.80562e-11
1.09083e-11
4.53231e-11
4.10298e-12
4.08643e-11
-4.95286e-11
1.39903e-10
1.3289e-10
-1.77735e-09
3.84505e-10
1.36335e-09
-8.97575e-10
-7.41705e-10
-3.75362e-10
-5.72639e-10
-4.94426e-10
-2.72801e-10
-1.39121e-10
-3.94663e-11
-2.26937e-11
1.73127e-11
1.14787e-11
4.29345e-11
2.78121e-11
5.51681e-11
3.82531e-11
6.23689e-11
3.60014e-11
5.98085e-11
3.80334e-11
6.41166e-11
3.64719e-11
6.16397e-11
3.55631e-11
6.31713e-11
3.60398e-11
6.36704e-11
3.27509e-11
6.08933e-11
3.1266e-11
6.21168e-11
3.25633e-11
6.27343e-11
2.67493e-11
5.68256e-11
2.41388e-11
5.69961e-11
2.31234e-11
5.58039e-11
1.916e-11
5.06472e-11
1.40409e-11
4.40235e-11
9.56053e-12
4.43579e-11
5.37516e-12
3.63117e-11
2.97034e-12
3.75482e-11
2.83329e-12
4.05612e-11
7.18727e-12
5.14918e-11
-3.96388e-12
5.35014e-11
-6.94594e-11
1.68821e-10
1.31588e-10
-1.87698e-09
6.14074e-10
1.44758e-09
-1.22767e-09
-8.27572e-10
-2.3476e-10
-5.05561e-10
-4.92142e-10
-2.77348e-10
-1.37638e-10
-3.76094e-11
-2.30938e-11
1.50942e-11
9.12022e-12
4.06413e-11
2.59224e-11
5.32198e-11
3.68397e-11
6.11072e-11
3.5024e-11
5.84434e-11
3.71459e-11
6.32198e-11
3.59745e-11
6.07018e-11
3.51207e-11
6.24829e-11
3.58715e-11
6.31331e-11
3.26804e-11
6.02389e-11
3.11953e-11
6.15902e-11
3.27207e-11
6.24245e-11
2.69753e-11
5.62201e-11
2.42398e-11
5.66069e-11
2.34209e-11
5.56761e-11
1.9699e-11
5.08315e-11
1.36046e-11
4.22271e-11
9.13915e-12
4.47132e-11
5.67071e-12
3.66855e-11
2.23991e-12
3.88441e-11
1.05021e-12
4.32995e-11
3.16408e-12
5.78313e-11
-1.19113e-11
6.54984e-11
-8.66262e-11
1.92082e-10
1.34892e-10
-1.97107e-09
8.34386e-10
1.5386e-09
-1.54183e-09
-9.29458e-10
-9.79307e-11
-4.29493e-10
-4.87448e-10
-2.83276e-10
-1.36858e-10
-3.58301e-11
-2.35169e-11
1.26516e-11
6.53874e-12
3.80752e-11
2.38575e-11
5.105e-11
3.52801e-11
5.96441e-11
3.39712e-11
5.69366e-11
3.61859e-11
6.21723e-11
3.54454e-11
5.96506e-11
3.4652e-11
6.16867e-11
3.57073e-11
6.24973e-11
3.26304e-11
5.95018e-11
3.11449e-11
6.09834e-11
3.2912e-11
6.2035e-11
2.72528e-11
5.55521e-11
2.43672e-11
5.61487e-11
2.37562e-11
5.55189e-11
2.02988e-11
5.11934e-11
1.30679e-11
4.01438e-11
8.66584e-12
4.51006e-11
5.94032e-12
3.71251e-11
1.39652e-12
4.02134e-11
-8.67179e-13
4.60897e-11
-8.66721e-13
6.3904e-11
-1.90579e-11
7.59321e-11
-9.97578e-11
2.08325e-10
1.43378e-10
-2.05293e-09
1.03155e-09
1.63059e-09
-1.82518e-09
-1.04306e-09
2.81939e-11
-3.46834e-10
-4.79555e-10
-2.90269e-10
-1.36986e-10
-3.42686e-11
-2.3964e-11
1.00216e-11
3.76459e-12
3.52555e-11
2.16308e-11
4.86748e-11
3.35825e-11
5.79838e-11
3.28468e-11
5.53002e-11
3.51607e-11
6.09752e-11
3.48824e-11
5.84923e-11
3.41583e-11
6.0785e-11
3.55422e-11
6.1766e-11
3.25955e-11
5.86873e-11
3.1111e-11
6.02991e-11
3.31299e-11
6.15659e-11
2.75726e-11
5.48313e-11
2.45174e-11
5.5625e-11
2.41207e-11
5.53248e-11
2.09372e-11
5.17449e-11
1.24479e-11
3.78157e-11
8.16832e-12
4.54936e-11
6.19017e-12
3.75979e-11
4.98261e-13
4.15428e-11
-2.77104e-12
4.87353e-11
-4.60149e-12
6.929e-11
-2.48522e-11
8.4119e-11
-1.08116e-10
2.17177e-10
1.56327e-10
-2.11701e-09
1.19597e-09
1.71728e-09
-2.0674e-09
-1.16312e-09
1.38279e-10
-2.60379e-10
-4.67829e-10
-2.97878e-10
-1.38174e-10
-3.30687e-11
-2.44451e-11
7.24319e-12
8.32111e-13
3.22048e-11
1.92635e-11
4.61131e-11
3.1763e-11
5.61352e-11
3.16558e-11
5.3548e-11
3.40777e-11
5.96328e-11
3.42842e-11
5.72352e-11
3.36424e-11
5.9781e-11
3.5372e-11
6.09431e-11
3.25704e-11
5.78022e-11
3.10908e-11
5.95423e-11
3.3367e-11
6.1019e-11
2.79245e-11
5.40668e-11
2.46892e-11
5.50375e-11
2.45082e-11
5.5081e-11
2.15903e-11
5.24576e-11
1.18123e-11
3.5339e-11
7.68323e-12
4.58531e-11
6.43961e-12
3.80626e-11
-3.82476e-13
4.2739e-11
-4.51338e-12
5.10454e-11
-7.75826e-12
7.36495e-11
-2.88995e-11
8.96621e-11
-1.11475e-10
2.19107e-10
1.72241e-10
-2.15936e-09
1.32247e-09
1.7923e-09
-2.26178e-09
-1.28366e-09
2.28631e-10
-1.73135e-10
-4.51899e-10
-3.05586e-10
-1.40522e-10
-3.23875e-11
-2.49829e-11
4.35647e-12
-2.22406e-12
2.89474e-11
1.67706e-11
4.33835e-11
2.98357e-11
5.41095e-11
3.04028e-11
5.16922e-11
3.29451e-11
5.81535e-11
3.36496e-11
5.58882e-11
3.31061e-11
5.86802e-11
3.51931e-11
6.00336e-11
3.25509e-11
5.68543e-11
3.10822e-11
5.87187e-11
3.36165e-11
6.03984e-11
2.83009e-11
5.32658e-11
2.48815e-11
5.43881e-11
2.4914e-11
5.47683e-11
2.22269e-11
5.32182e-11
1.12909e-11
3.29114e-11
7.25512e-12
4.61253e-11
6.7116e-12
3.84696e-11
-1.16099e-12
4.37062e-11
-5.96012e-12
5.28503e-11
-1.01231e-11
7.67421e-11
-3.09742e-11
9.24344e-11
-1.10037e-10
2.15025e-10
1.89417e-10
-2.17737e-09
1.40894e-09
1.84999e-09
-2.40519e-09