/*--------------------------------*- C++ -*----------------------------------*\
| =========                 |                                                 |
| \\      /  F ield         | OpenFOAM: The Open Source CFD Toolbox           |
|  \\    /   O peration     | Version:  2312                                  |
|   \\  /    A nd           | Website:  www.openfoam.com                      |
|    \\/     M anipulation  |                                                 |
\*---------------------------------------------------------------------------*/
FoamFile
{
    version     2.0;
    format      ascii;
    arch        "LSB;label=32;scalar=64";
    class       volScalarField;
    location    "800";
    object      pPrime2Mean;
}
// * * * * * * * * * * * * * * * * * * * * * * * * * * * * * * * * * * * * * //

dimensions      [0 4 -4 0 0 0 0];

internalField   nonuniform List<scalar> 
144000
(
6.07783e-18
5.28999e-18
6.82155e-18
7.77079e-18
5.77438e-18
3.78941e-18
2.95623e-18
2.59067e-18
2.36922e-18
2.202e-18
2.08051e-18
1.89325e-18
1.75561e-18
1.61887e-18
1.53608e-18
1.44717e-18
1.41679e-18
1.33075e-18
1.30084e-18
1.24135e-18
1.21558e-18
1.14883e-18
1.13733e-18
1.08176e-18
1.08608e-18
1.02826e-18
1.04024e-18
9.89157e-19
9.85545e-19
9.52662e-19
9.4538e-19
9.1704e-19
9.16715e-19
8.74111e-19
8.91444e-19
8.46329e-19
8.52959e-19
8.36372e-19
8.15739e-19
8.0797e-19
8.13944e-19
7.61596e-19
8.12999e-19
7.58682e-19
7.61594e-19
7.86053e-19
7.20569e-19
7.5162e-19
8.009e-19
6.47735e-19
8.68397e-19
7.47758e-19
7.00782e-19
1.06904e-18
7.36947e-19
9.44096e-19
1.85162e-18
1.13978e-18
2.86297e-18
6.14838e-18
6.39102e-18
5.38873e-18
6.99078e-18
7.90073e-18
5.82998e-18
3.81486e-18
2.97173e-18
2.60124e-18
2.37575e-18
2.20679e-18
2.08432e-18
1.89594e-18
1.7572e-18
1.62027e-18
1.53698e-18
1.44794e-18
1.41768e-18
1.33144e-18
1.30125e-18
1.24201e-18
1.21598e-18
1.14926e-18
1.13753e-18
1.08218e-18
1.08639e-18
1.02852e-18
1.0405e-18
9.89598e-19
9.85527e-19
9.53164e-19
9.45433e-19
9.17362e-19
9.1705e-19
8.74133e-19
8.91849e-19
8.46666e-19
8.52866e-19
8.37224e-19
8.15638e-19
8.08329e-19
8.14816e-19
7.61376e-19
8.13935e-19
7.59655e-19
7.61309e-19
7.88287e-19
7.21005e-19
7.52253e-19
8.05167e-19
6.47168e-19
8.72922e-19
7.54166e-19
7.01171e-19
1.08304e-18
7.49067e-19
9.51606e-19
1.89639e-18
1.18936e-18
2.97938e-18
6.21758e-18
6.6344e-18
5.46489e-18
7.01162e-18
7.95695e-18
5.81804e-18
3.8016e-18
2.96899e-18
2.60312e-18
2.37819e-18
2.20962e-18
2.0873e-18
1.89806e-18
1.75857e-18
1.6214e-18
1.53783e-18
1.4485e-18
1.41895e-18
1.33208e-18
1.30182e-18
1.24272e-18
1.21661e-18
1.14961e-18
1.13793e-18
1.08247e-18
1.08704e-18
1.02861e-18
1.0411e-18
9.90032e-19
9.85638e-19
9.53743e-19
9.45613e-19
9.17684e-19
9.17718e-19
8.74006e-19
8.92636e-19
8.47023e-19
8.52891e-19
8.38426e-19
8.15672e-19
8.08755e-19
8.1639e-19
7.60855e-19
8.15692e-19
7.60976e-19
7.61223e-19
7.91669e-19
7.21916e-19
7.53272e-19
8.1161e-19
6.46851e-19
8.78923e-19
7.64175e-19
7.01737e-19
1.09998e-18
7.67867e-19
9.52934e-19
1.93574e-18
1.2503e-18
3.0805e-18
6.30934e-18
6.64375e-18
5.30851e-18
6.78338e-18
7.81132e-18
5.69063e-18
3.72149e-18
2.93004e-18
2.58459e-18
2.36924e-18
2.20515e-18
2.08521e-18
1.89673e-18
1.75762e-18
1.62089e-18
1.53744e-18
1.44817e-18
1.41975e-18
1.33227e-18
1.30202e-18
1.24323e-18
1.21707e-18
1.14982e-18
1.13819e-18
1.08265e-18
1.08767e-18
1.02862e-18
1.04176e-18
9.9047e-19
9.85666e-19
9.54417e-19
9.45764e-19
9.18036e-19
9.18554e-19
8.73811e-19
8.9357e-19
8.47443e-19
8.52892e-19
8.39916e-19
8.15757e-19
8.09227e-19
8.18418e-19
7.60139e-19
8.17933e-19
7.62602e-19
7.61211e-19
7.95719e-19
7.2318e-19
7.54339e-19
8.19034e-19
6.47195e-19
8.83876e-19
7.7702e-19
7.00377e-19
1.11315e-18
7.91444e-19
9.34313e-19
1.9597e-18
1.29037e-18
3.04869e-18
6.24884e-18
6.41448e-18
4.8856e-18
6.33347e-18
7.44114e-18
5.44849e-18
3.57784e-18
2.85577e-18
2.54503e-18
2.34641e-18
2.19034e-18
2.07533e-18
1.88991e-18
1.75278e-18
1.61753e-18
1.53488e-18
1.44623e-18
1.4193e-18
1.33145e-18
1.30136e-18
1.24314e-18
1.21699e-18
1.14968e-18
1.13803e-18
1.08256e-18
1.08808e-18
1.02845e-18
1.0423e-18
9.90821e-19
9.85517e-19
9.55081e-19
9.45789e-19
9.18356e-19
9.19444e-19
8.7356e-19
8.94493e-19
8.47922e-19
8.52798e-19
8.41581e-19
8.15879e-19
8.09671e-19
8.20662e-19
7.5933e-19
8.20321e-19
7.64438e-19
7.61198e-19
7.9995e-19
7.24683e-19
7.55123e-19
8.26584e-19
6.47967e-19
8.86753e-19
7.90982e-19
6.96783e-19
1.12006e-18
8.17082e-19
8.95805e-19
1.97364e-18
1.30083e-18
2.90636e-18
6.03133e-18
6.07606e-18
4.36912e-18
5.78773e-18
6.95994e-18
5.15383e-18
3.40252e-18
2.75938e-18
2.491e-18
2.31263e-18
2.16641e-18
2.05767e-18
1.87736e-18
1.7436e-18
1.61086e-18
1.52976e-18
1.44232e-18
1.41718e-18
1.3293e-18
1.29955e-18
1.24214e-18
1.2161e-18
1.14905e-18
1.1373e-18
1.08203e-18
1.08809e-18
1.028e-18
1.04257e-18
9.90969e-19
9.85123e-19
9.55622e-19
9.4564e-19
9.18569e-19
9.20281e-19
8.7325e-19
8.9526e-19
8.48421e-19
8.52568e-19
8.43281e-19
8.16015e-19
8.10012e-19
8.22924e-19
7.58468e-19
8.22611e-19
7.66369e-19
7.61061e-19
8.04057e-19
7.26195e-19
7.55456e-19
8.33598e-19
6.48725e-19
8.87796e-19
8.0395e-19
6.92181e-19
1.12058e-18
8.42293e-19
8.46879e-19
1.98203e-18
1.28963e-18
2.75442e-18
5.79125e-18
5.74866e-18
3.95673e-18
5.263e-18
6.45883e-18
4.84669e-18
3.21746e-18
2.6531e-18
2.4282e-18
2.27119e-18
2.13549e-18
2.03394e-18
1.85989e-18
1.73052e-18
1.60111e-18
1.52219e-18
1.43645e-18
1.41328e-18
1.32572e-18
1.2965e-18
1.24007e-18
1.21425e-18
1.14779e-18
1.13587e-18
1.08095e-18
1.08761e-18
1.0272e-18
1.04246e-18
9.90839e-19
9.84427e-19
9.55949e-19
9.45258e-19
9.18611e-19
9.20962e-19
8.72868e-19
8.95771e-19
8.4889e-19
8.52168e-19
8.44897e-19
8.16129e-19
8.10196e-19
8.25031e-19
7.57596e-19
8.246e-19
7.68271e-19
7.6076e-19
8.07756e-19
7.27553e-19
7.55328e-19
8.39692e-19
6.49273e-19
8.87543e-19
8.1462e-19
6.87991e-19
1.11556e-18
8.65199e-19
7.96573e-19
1.98383e-18
1.26035e-18
2.66314e-18
5.63848e-18
5.47923e-18
3.7676e-18
4.80218e-18
5.98621e-18
4.54465e-18
3.03357e-18
2.54194e-18
2.35978e-18
2.22457e-18
2.09991e-18
2.00576e-18
1.83876e-18
1.71436e-18
1.58876e-18
1.51244e-18
1.4288e-18
1.40771e-18
1.32085e-18
1.29229e-18
1.23697e-18
1.21144e-18
1.1459e-18
1.13374e-18
1.07931e-18
1.08658e-18
1.02604e-18
1.04189e-18
9.90395e-19
9.8339e-19
9.5601e-19
9.44609e-19
9.18454e-19
9.21407e-19
8.72415e-19
8.95963e-19
8.49277e-19
8.51591e-19
8.46319e-19
8.16192e-19
8.102e-19
8.26851e-19
7.56748e-19
8.26177e-19
7.70021e-19
7.60332e-19
8.10892e-19
7.28696e-19
7.54812e-19
8.44668e-19
6.4956e-19
8.865e-19
8.22486e-19
6.84944e-19
1.10624e-18
8.8525e-19
7.4871e-19
1.97762e-18
1.21775e-18
2.6488e-18
5.62384e-18
5.29198e-18
3.85891e-18
4.41511e-18
5.56697e-18
4.25354e-18
2.85442e-18
2.42866e-18
2.28763e-18
2.17434e-18
2.06098e-18
1.97442e-18
1.81497e-18
1.69588e-18
1.57437e-18
1.50083e-18
1.41962e-18
1.40065e-18
1.31487e-18
1.28709e-18
1.23295e-18
1.20775e-18
1.14341e-18
1.13097e-18
1.07712e-18
1.08501e-18
1.02457e-18
1.04084e-18
9.89652e-19
9.82026e-19
9.55788e-19
9.43686e-19
9.18096e-19
9.21571e-19
8.71902e-19
8.95817e-19
8.4955e-19
8.50854e-19
8.47493e-19
8.16193e-19
8.1004e-19
8.28309e-19
7.55965e-19
8.27335e-19
7.71544e-19
7.5985e-19
8.13413e-19
7.29621e-19
7.54067e-19
8.48573e-19
6.49634e-19
8.85097e-19
8.27722e-19
6.83227e-19
1.09414e-18
9.02397e-19
7.0545e-19
1.96436e-18
1.17023e-18
2.70707e-18
5.74954e-18
5.20048e-18
4.22062e-18
4.10335e-18
5.20943e-18
3.97942e-18
2.68214e-18
2.3153e-18
2.21319e-18
2.12175e-18
2.01977e-18
1.94082e-18
1.78936e-18
1.67577e-18
1.55843e-18
1.48775e-18
1.40918e-18
1.39231e-18
1.30799e-18
1.28108e-18
1.22818e-18
1.20334e-18
1.14041e-18
1.12764e-18
1.07445e-18
1.08294e-18
1.02286e-18
1.03932e-18
9.88651e-19
9.8038e-19
9.55296e-19
9.42517e-19
9.17556e-19
9.2144e-19
8.71352e-19
8.95356e-19
8.49698e-19
8.49996e-19
8.48404e-19
8.16139e-19
8.09752e-19
8.29402e-19
7.55281e-19
8.28127e-19
7.72835e-19
7.59373e-19
8.15407e-19
7.3038e-19
7.53182e-19
8.51607e-19
6.49549e-19
8.83546e-19
8.30853e-19
6.82635e-19
1.08034e-18
9.16601e-19
6.68354e-19
1.94277e-18
1.12609e-18
2.81912e-18
5.97124e-18
5.20323e-18
4.76928e-18
3.86758e-18
4.91337e-18
3.72764e-18
2.51856e-18
2.20384e-18
2.13772e-18
2.06786e-18
1.97711e-18
1.90562e-18
1.76244e-18
1.65457e-18
1.54144e-18
1.47361e-18
1.39775e-18
1.38288e-18
1.30037e-18
1.27444e-18
1.22282e-18
1.19839e-18
1.13699e-18
1.12388e-18
1.07139e-18
1.08038e-18
1.021e-18
1.03738e-18
9.87442e-19
9.78515e-19
9.54569e-19
9.4114e-19
9.16864e-19
9.2103e-19
8.70783e-19
8.94625e-19
8.49729e-19
8.49057e-19
8.49069e-19
8.16044e-19
8.09367e-19
8.30172e-19
7.5472e-19
8.28602e-19
7.73946e-19
7.58905e-19
8.1697e-19
7.31052e-19
7.52132e-19
8.53982e-19
6.4937e-19
8.81713e-19
8.32496e-19
6.82659e-19
1.06534e-18
9.27715e-19
6.37033e-19
1.91033e-18
1.08959e-18
2.95266e-18
6.21035e-18
5.27419e-18
5.35399e-18
3.7036e-18
4.66146e-18
3.50315e-18
2.36542e-18
2.09611e-18
2.06242e-18
2.01371e-18
1.93375e-18
1.86934e-18
1.73463e-18
1.63271e-18
1.52387e-18
1.45882e-18
1.38566e-18
1.37256e-18
1.29215e-18
1.26727e-18
1.217e-18
1.19304e-18
1.13329e-18
1.11979e-18
1.06806e-18
1.07739e-18
1.01903e-18
1.03506e-18
9.86068e-19
9.76502e-19
9.53655e-19
9.39601e-19
9.16053e-19
9.2037e-19
8.70212e-19
8.93667e-19
8.49665e-19
8.48064e-19
8.49508e-19
8.15928e-19
8.08898e-19
8.30655e-19
7.54298e-19
8.28749e-19
7.74943e-19
7.58398e-19
8.18116e-19
7.31712e-19
7.50781e-19
8.55759e-19
6.49161e-19
8.7917e-19
8.33121e-19
6.82635e-19
1.04913e-18
9.35287e-19
6.10579e-19
1.86429e-18
1.06256e-18
3.06326e-18
6.37052e-18
5.37124e-18
5.82217e-18
3.59892e-18
4.43093e-18
3.30848e-18
2.22403e-18
1.99369e-18
1.98834e-18
1.96012e-18
1.89041e-18
1.83245e-18
1.70627e-18
1.61053e-18
1.50607e-18
1.44373e-18
1.37321e-18
1.36158e-18
1.28351e-18
1.25971e-18
1.21082e-18
1.18742e-18
1.12939e-18
1.11549e-18
1.06458e-18
1.07403e-18
1.01701e-18
1.03242e-18
9.84553e-19
9.74397e-19
9.52601e-19
9.37947e-19
9.15154e-19
9.19496e-19
8.69653e-19
8.92508e-19
8.49528e-19
8.47033e-19
8.49735e-19
8.15814e-19
8.08332e-19
8.30865e-19
7.54025e-19
8.28528e-19
7.75859e-19
7.5779e-19
8.18775e-19
7.32401e-19
7.48993e-19
8.56803e-19
6.49008e-19
8.75388e-19
8.32886e-19
6.81995e-19
1.03155e-18
9.38601e-19
5.8835e-19
1.80344e-18
1.0444e-18
3.10882e-18
6.37177e-18
5.4392e-18
6.06098e-18
3.53054e-18
4.19954e-18
3.1423e-18
2.09542e-18
1.89786e-18
1.91637e-18
1.90778e-18
1.84778e-18
1.79547e-18
1.67769e-18
1.58825e-18
1.48828e-18
1.42865e-18
1.36072e-18
1.35021e-18
1.27457e-18
1.25185e-18
1.20434e-18
1.18162e-18
1.12539e-18
1.11106e-18
1.06105e-18
1.07037e-18
1.01499e-18
1.02953e-18
9.82916e-19
9.72246e-19
9.51441e-19
9.36217e-19
9.14196e-19
9.18442e-19
8.69114e-19
8.91165e-19
8.49324e-19
8.45976e-19
8.49741e-19
8.15707e-19
8.07665e-19
8.30783e-19
7.53909e-19
8.27866e-19
7.7668e-19
7.57044e-19
8.18848e-19
7.33094e-19
7.46693e-19
8.56905e-19
6.48994e-19
8.70007e-19
8.31828e-19
6.80384e-19
1.01256e-18
9.37235e-19
5.70111e-19
1.72936e-18
1.03299e-18
3.06422e-18
6.1759e-18
5.43039e-18
6.01331e-18
3.46999e-18
3.95224e-18
3.00091e-18
1.98035e-18
1.80953e-18
1.84723e-18
1.85722e-18
1.80641e-18
1.7589e-18
1.64923e-18
1.5661e-18
1.47068e-18
1.41376e-18
1.34841e-18
1.33866e-18
1.26551e-18
1.24382e-18
1.19765e-18
1.17571e-18
1.12136e-18
1.10657e-18
1.05756e-18
1.0665e-18
1.013e-18
1.02643e-18
9.81163e-19
9.70086e-19
9.50197e-19
9.34436e-19
9.13212e-19
9.17237e-19
8.68606e-19
8.89655e-19
8.49053e-19
8.44897e-19
8.49515e-19
8.15605e-19
8.06908e-19
8.30385e-19
7.53961e-19
8.26733e-19
7.77369e-19
7.56159e-19
8.18279e-19
7.3373e-19
7.4394e-19
8.55904e-19
6.49207e-19
8.62941e-19
8.29989e-19
6.77691e-19
9.92486e-19
9.31186e-19
5.55991e-19
1.64503e-18
1.02573e-18
2.92228e-18
5.78874e-18
5.31337e-18
5.68717e-18
3.39106e-18
3.68363e-18
2.87795e-18
1.87931e-18
1.72927e-18
1.78141e-18
1.80866e-18
1.7667e-18
1.72318e-18
1.62117e-18
1.54422e-18
1.45338e-18
1.3992e-18
1.33644e-18
1.3271e-18
1.25648e-18
1.23574e-18
1.19082e-18
1.16971e-18
1.11733e-18
1.10207e-18
1.05418e-18
1.06249e-18
1.01107e-18
1.02318e-18
9.79307e-19
9.67945e-19
9.48883e-19
9.32617e-19
9.12233e-19
9.15905e-19
8.68143e-19
8.88005e-19
8.48711e-19
8.43812e-19
8.49063e-19
8.15486e-19
8.06095e-19
8.29653e-19
7.54188e-19
8.25154e-19
7.77892e-19
7.55164e-19
8.17095e-19
7.34238e-19
7.40896e-19
8.5375e-19
6.49729e-19
8.54348e-19
8.27478e-19
6.74018e-19
9.71929e-19
9.20942e-19
5.46284e-19
1.55452e-18
1.01982e-18
2.69484e-18
5.25021e-18
5.07327e-18
5.13872e-18
3.27169e-18
3.39737e-18
2.76629e-18
1.79232e-18
1.6572e-18
1.71926e-18
1.76217e-18
1.72886e-18
1.68865e-18
1.59379e-18
1.52276e-18
1.43646e-18
1.38503e-18
1.3249e-18
1.31569e-18
1.24759e-18
1.2277e-18
1.18395e-18
1.16367e-18
1.11335e-18
1.09758e-18
1.05093e-18
1.05841e-18
1.00923e-18
1.01987e-18
9.77363e-19
9.65845e-19
9.47514e-19
9.30771e-19
9.11286e-19
9.1447e-19
8.67736e-19
8.86256e-19
8.48299e-19
8.42734e-19
8.4841e-19
8.15331e-19
8.05276e-19
8.28595e-19
7.54591e-19
8.23202e-19
7.78236e-19
7.54101e-19
8.15405e-19
7.34559e-19
7.37757e-19
8.50519e-19
6.50625e-19
8.44578e-19
8.24488e-19
6.69603e-19
9.51626e-19
9.07351e-19
5.41283e-19
1.46196e-18
1.0129e-18
2.40571e-18
4.62265e-18
4.72004e-18
4.45084e-18
3.1008e-18
3.10299e-18
2.65943e-18
1.71886e-18
1.59323e-18
1.66099e-18
1.71771e-18
1.69294e-18
1.65554e-18
1.56729e-18
1.50185e-18
1.41996e-18
1.37128e-18
1.31384e-18
1.3045e-18
1.23892e-18
1.21982e-18
1.17709e-18
1.15762e-18
1.10944e-18
1.09312e-18
1.04784e-18
1.05432e-18
1.00747e-18
1.01653e-18
9.75356e-19
9.63806e-19
9.46109e-19
9.289e-19
9.10394e-19
9.12954e-19
8.67391e-19
8.84453e-19
8.47827e-19
8.41676e-19
8.476e-19
8.15121e-19
8.04495e-19
8.2725e-19
7.55165e-19
8.20975e-19
7.78416e-19
7.53009e-19
8.13361e-19
7.3466e-19
7.34719e-19
8.46367e-19
6.51927e-19
8.34046e-19
8.21233e-19
6.64756e-19
9.3224e-19
8.91417e-19
5.40908e-19
1.37106e-18
1.00339e-18
2.08699e-18
3.96714e-18
4.2793e-18
3.7149e-18
2.87755e-18
2.81203e-18
2.55233e-18
1.65797e-18
1.53703e-18
1.60672e-18
1.67518e-18
1.65889e-18
1.62398e-18
1.54184e-18
1.48156e-18
1.40394e-18
1.35795e-18
1.30326e-18
1.29361e-18
1.23054e-18
1.21214e-18
1.17034e-18
1.1516e-18
1.10563e-18
1.08871e-18
1.0449e-18
1.05026e-18
1.00582e-18
1.01322e-18
9.73311e-19
9.61846e-19
9.4469e-19
9.27006e-19
9.09571e-19
9.11381e-19
8.67111e-19
8.82637e-19
8.4731e-19
8.40648e-19
8.46688e-19
8.14845e-19
8.03794e-19
8.25669e-19
7.55897e-19
8.18578e-19
7.78464e-19
7.51921e-19
8.11127e-19
7.34532e-19
7.31938e-19
8.41511e-19
6.53636e-19
8.2316e-19
8.17911e-19
6.59776e-19
9.14287e-19
8.74138e-19
5.4475e-19
1.28452e-18
9.90443e-19
1.77093e-18
3.33704e-18
3.78836e-18
3.00692e-18
2.61146e-18
2.53508e-18
2.44185e-18
1.60821e-18
1.48817e-18
1.55646e-18
1.63447e-18
1.62656e-18
1.594e-18
1.51753e-18
1.46198e-18
1.3884e-18
1.34503e-18
1.29317e-18
1.28304e-18
1.22245e-18
1.20471e-18
1.16373e-18
1.14564e-18
1.10193e-18
1.08436e-18
1.0421e-18
1.04625e-18
1.00427e-18
1.00998e-18
9.71257e-19
9.59978e-19
9.43278e-19
9.25096e-19
9.08824e-19
9.09774e-19
8.66898e-19
8.80844e-19
8.46768e-19
8.39659e-19
8.45727e-19
8.14501e-19
8.03199e-19
8.23912e-19
7.56772e-19
8.16095e-19
7.78424e-19
7.5086e-19
8.0885e-19
7.34185e-19
7.29516e-19
8.36169e-19
6.55722e-19
8.12292e-19
8.14669e-19
6.54941e-19
8.9806e-19
8.56352e-19
5.5211e-19
1.20423e-18
9.7382e-19
1.48475e-18
2.76936e-18
3.28437e-18
2.37966e-18
2.31789e-18
2.28098e-18
2.32689e-18
1.56786e-18
1.44612e-18
1.51014e-18
1.59547e-18
1.59578e-18
1.56555e-18
1.4944e-18
1.44311e-18
1.37334e-18
1.33251e-18
1.28351e-18
1.2728e-18
1.21467e-18
1.19755e-18
1.15731e-18
1.13977e-18
1.09835e-18
1.08007e-18
1.03943e-18
1.04233e-18
1.0028e-18
1.00683e-18
9.69217e-19
9.58207e-19
9.41894e-19
9.23179e-19
9.08154e-19
9.08156e-19
8.66748e-19
8.79099e-19
8.46221e-19
8.38711e-19
8.44762e-19
8.14093e-19
8.02723e-19
8.22034e-19
7.57772e-19
8.13601e-19
7.78333e-19
7.49846e-19
8.06645e-19
7.33645e-19
7.27509e-19
8.30546e-19
6.58125e-19
8.01739e-19
8.11599e-19
6.50469e-19
8.83629e-19
8.38735e-19
5.62116e-19
1.13113e-18
9.53988e-19
1.24597e-18
2.28368e-18
2.80336e-18
1.86231e-18
2.01726e-18
2.05325e-18
2.2082e-18
1.53508e-18
1.41032e-18
1.46764e-18
1.55811e-18
1.56634e-18
1.53855e-18
1.47245e-18
1.42499e-18
1.35877e-18
1.32036e-18
1.27427e-18
1.26289e-18
1.2072e-18
1.19067e-18
1.1511e-18
1.134e-18
1.0949e-18
1.07586e-18
1.03687e-18
1.0385e-18
1.00141e-18
1.00379e-18
9.6721e-19
9.5654e-19
9.40556e-19
9.21263e-19
9.0756e-19
9.06545e-19
8.66657e-19
8.77416e-19
8.45685e-19
8.37809e-19
8.43832e-19
8.13632e-19
8.02373e-19
8.20086e-19
7.58877e-19
8.11147e-19
7.78222e-19
7.48894e-19
8.04594e-19
7.32946e-19
7.25934e-19
8.24823e-19
6.6077e-19
7.91724e-19
8.08736e-19
6.46529e-19
8.70932e-19
8.21788e-19
5.73849e-19
1.0656e-18
9.31686e-19
1.06425e-18
1.88474e-18
2.37497e-18
1.46495e-18
1.73116e-18
1.85308e-18
2.08799e-18
1.50811e-18
1.38021e-18
1.42882e-18
1.52238e-18
1.53811e-18
1.5129e-18
1.45164e-18
1.40759e-18
1.34468e-18
1.30858e-18
1.2654e-18
1.25331e-18
1.20003e-18
1.18406e-18
1.1451e-18
1.12835e-18
1.09159e-18
1.07174e-18
1.03441e-18
1.03479e-18
1.00009e-18
1.00086e-18
9.65254e-19
9.54978e-19
9.39274e-19
9.1936e-19
9.07035e-19
9.04956e-19
8.66623e-19
8.75806e-19
8.4517e-19
8.36956e-19
8.42959e-19
8.13129e-19
8.02147e-19
8.18113e-19
7.60072e-19
8.08775e-19
7.78108e-19
7.48019e-19
8.02745e-19
7.32129e-19
7.24776e-19
8.19146e-19
6.63575e-19
7.8241e-19
8.06056e-19
6.43232e-19
8.59803e-19
8.05857e-19
5.86484e-19
1.0076e-18
9.07624e-19
9.41536e-19
1.56794e-18
2.0217e-18
1.18027e-18
1.4801e-18
1.6791e-18
1.96917e-18
1.48556e-18
1.3553e-18
1.39354e-18
1.4883e-18
1.51094e-18
1.48847e-18
1.43194e-18
1.39092e-18
1.33104e-18
1.29715e-18
1.25686e-18
1.24404e-18
1.19315e-18
1.17771e-18
1.13933e-18
1.12283e-18
1.08841e-18
1.06772e-18
1.03203e-18
1.03118e-18
9.98818e-19
9.9803e-19
9.63358e-19
9.53525e-19
9.38057e-19
9.17478e-19
9.06572e-19
9.03399e-19
8.66643e-19
8.74273e-19
8.44683e-19
8.36155e-19
8.42156e-19
8.12595e-19
8.02037e-19
8.1615e-19
7.61338e-19
8.06513e-19
7.77998e-19
7.47234e-19
8.0112e-19
7.31232e-19
7.24004e-19
8.1363e-19
6.66459e-19
7.73922e-19
8.03511e-19
6.40652e-19
8.50048e-19
7.91156e-19
5.99321e-19
9.56861e-19
8.8225e-19
8.73998e-19
1.32145e-18
1.75757e-18
9.88743e-19
1.28031e-18
1.52854e-18
1.85443e-18
1.46631e-18
1.33514e-18
1.36165e-18
1.45589e-18
1.48473e-18
1.46514e-18
1.41327e-18
1.37493e-18
1.31782e-18
1.28604e-18
1.24862e-18
1.23505e-18
1.18654e-18
1.17162e-18
1.13376e-18
1.11744e-18
1.08537e-18
1.0638e-18
1.02972e-18
1.0277e-18
9.97598e-19
9.9531e-19
9.6153e-19
9.52181e-19
9.36906e-19
9.15622e-19
9.06166e-19
9.01882e-19
8.66717e-19
8.7282e-19
8.44225e-19
8.35407e-19
8.41433e-19
8.12041e-19
8.02038e-19
8.14224e-19
7.62659e-19
8.04383e-19
7.77889e-19
7.46553e-19
7.9973e-19
7.30295e-19
7.23575e-19
8.08367e-19
6.69345e-19
7.66328e-19
8.0105e-19
6.38818e-19
8.41471e-19
7.7784e-19
6.11796e-19
9.13011e-19
8.56023e-19
8.53116e-19
1.1299e-18
6.10501e-18
5.3047e-18
6.8321e-18
7.7831e-18
5.78391e-18
3.79332e-18
2.95834e-18
2.59266e-18
2.37126e-18
2.20347e-18
2.08146e-18
1.89388e-18
1.75595e-18
1.61895e-18
1.53597e-18
1.44696e-18
1.41668e-18
1.33087e-18
1.30106e-18
1.2416e-18
1.21584e-18
1.14911e-18
1.13761e-18
1.08194e-18
1.08626e-18
1.02832e-18
1.04035e-18
9.89249e-19
9.85632e-19
9.52662e-19
9.45374e-19
9.16943e-19
9.16603e-19
8.73909e-19
8.91254e-19
8.46139e-19
8.52821e-19
8.36211e-19
8.15617e-19
8.0785e-19
8.1389e-19
7.61461e-19
8.13023e-19
7.58497e-19
7.61487e-19
7.85899e-19
7.20348e-19
7.51417e-19
8.01008e-19
6.47255e-19
8.68936e-19
7.47699e-19
7.00791e-19
1.07035e-18
7.38393e-19
9.43649e-19
1.85971e-18
1.14136e-18
2.86317e-18
6.17729e-18
6.42009e-18
5.40347e-18
7.00038e-18
7.91362e-18
5.83924e-18
3.81864e-18
2.97374e-18
2.60323e-18
2.37775e-18
2.20823e-18
2.08524e-18
1.89654e-18
1.75752e-18
1.62033e-18
1.53685e-18
1.44771e-18
1.41756e-18
1.33154e-18
1.30147e-18
1.24225e-18
1.21623e-18
1.14955e-18
1.1378e-18
1.08235e-18
1.08657e-18
1.02858e-18
1.04061e-18
9.89694e-19
9.85618e-19
9.53166e-19
9.4543e-19
9.17265e-19
9.16939e-19
8.73932e-19
8.9166e-19
8.46475e-19
8.52728e-19
8.37063e-19
8.15517e-19
8.08211e-19
8.14764e-19
7.61239e-19
8.13961e-19
7.59467e-19
7.612e-19
7.88136e-19
7.20781e-19
7.52047e-19
8.05285e-19
6.46673e-19
8.73468e-19
7.54131e-19
7.01155e-19
1.08437e-18
7.50575e-19
9.51112e-19
1.90464e-18
1.1914e-18
2.97984e-18
6.24652e-18
6.66211e-18
5.48505e-18
7.02077e-18
7.97093e-18
5.82696e-18
3.80496e-18
2.97092e-18
2.60495e-18
2.38019e-18
2.21104e-18
2.08818e-18
1.89862e-18
1.75885e-18
1.62142e-18
1.53767e-18
1.44823e-18
1.41881e-18
1.33218e-18
1.30203e-18
1.24295e-18
1.21687e-18
1.1499e-18
1.1382e-18
1.08264e-18
1.08722e-18
1.02867e-18
1.04121e-18
9.90134e-19
9.85737e-19
9.53749e-19
9.45615e-19
9.17587e-19
9.17609e-19
8.73807e-19
8.92448e-19
8.46832e-19
8.52754e-19
8.38264e-19
8.15552e-19
8.08639e-19
8.16343e-19
7.60716e-19
8.15724e-19
7.60785e-19
7.61112e-19
7.9152e-19
7.21688e-19
7.53059e-19
8.11735e-19
6.4634e-19
8.79478e-19
7.64158e-19
7.01688e-19
1.10137e-18
7.69429e-19
9.52385e-19
1.94427e-18
1.25285e-18
3.08052e-18
6.34278e-18
6.66911e-18
5.33353e-18
6.79252e-18
7.82569e-18
5.699e-18
3.7242e-18
2.93189e-18
2.58657e-18
2.37128e-18
2.20657e-18
2.08606e-18
1.89723e-18
1.75785e-18
1.62085e-18
1.53723e-18
1.44784e-18
1.41956e-18
1.33234e-18
1.30222e-18
1.24344e-18
1.21731e-18
1.1501e-18
1.13846e-18
1.08282e-18
1.08785e-18
1.02867e-18
1.04187e-18
9.90579e-19
9.85776e-19
9.54427e-19
9.45773e-19
9.17939e-19
9.18448e-19
8.73614e-19
8.93386e-19
8.47251e-19
8.52755e-19
8.39753e-19
8.15637e-19
8.09112e-19
8.18379e-19
7.59998e-19
8.17972e-19
7.62408e-19
7.61098e-19
7.95571e-19
7.22948e-19
7.54123e-19
8.19162e-19
6.46684e-19
8.84424e-19
7.77026e-19
7.00304e-19
1.11455e-18
7.93014e-19
9.33657e-19
1.96809e-18
1.29329e-18
3.04962e-18
6.28545e-18
6.43909e-18
4.91339e-18
6.33907e-18
7.4536e-18
5.45606e-18
3.57998e-18
2.85724e-18
2.54708e-18
2.34856e-18
2.19176e-18
2.07612e-18
1.89032e-18
1.75294e-18
1.61743e-18
1.53461e-18
1.44584e-18
1.41906e-18
1.33149e-18
1.30154e-18
1.24333e-18
1.21722e-18
1.14996e-18
1.13831e-18
1.08272e-18
1.08825e-18
1.02849e-18
1.0424e-18
9.90936e-19
9.85639e-19
9.55099e-19
9.45806e-19
9.18261e-19
9.19341e-19
8.73365e-19
8.94312e-19
8.4773e-19
8.52664e-19
8.41415e-19
8.15757e-19
8.09559e-19
8.20631e-19
7.59189e-19
8.20366e-19
7.64242e-19
7.61083e-19
7.99805e-19
7.24451e-19
7.54897e-19
8.26706e-19
6.47475e-19
8.87272e-19
7.91008e-19
6.96741e-19
1.12138e-18
8.187e-19
8.94903e-19
1.98151e-18
1.30418e-18
2.90848e-18
6.06764e-18
6.09964e-18
4.39323e-18
5.79356e-18
6.97035e-18
5.15986e-18
3.40377e-18
2.76067e-18
2.49317e-18
2.3149e-18
2.16788e-18
2.05843e-18
1.87768e-18
1.74369e-18
1.61069e-18
1.52943e-18
1.44185e-18
1.41687e-18
1.32929e-18
1.2997e-18
1.24229e-18
1.2163e-18
1.14931e-18
1.13758e-18
1.08218e-18
1.08826e-18
1.02802e-18
1.04267e-18
9.91088e-19
9.85258e-19
9.55648e-19
9.45666e-19
9.18477e-19
9.20179e-19
8.73057e-19
8.95084e-19
8.4823e-19
8.52436e-19
8.43112e-19
8.1589e-19
8.09901e-19
8.22903e-19
7.58332e-19
8.22665e-19
7.66175e-19
7.6094e-19
8.03913e-19
7.25966e-19
7.55226e-19
8.3371e-19
6.48258e-19
8.88283e-19
8.03989e-19
6.92159e-19
1.12182e-18
8.43945e-19
8.46399e-19
1.98923e-18
1.29347e-18
2.75802e-18
5.82467e-18
5.77127e-18
3.97671e-18
5.2672e-18
6.46648e-18
4.85137e-18
3.2182e-18
2.65432e-18
2.4305e-18
2.27363e-18
2.13703e-18
2.03461e-18
1.86014e-18
1.73053e-18
1.60087e-18
1.52181e-18
1.43591e-18
1.41289e-18
1.32566e-18
1.29662e-18
1.2402e-18
1.21443e-18
1.14804e-18
1.13616e-18
1.0811e-18
1.08777e-18
1.0272e-18
1.04254e-18
9.90959e-19
9.84573e-19
9.55986e-19
9.45292e-19
9.18523e-19
9.20862e-19
8.72677e-19
8.956e-19
8.487e-19
8.52039e-19
8.44725e-19
8.15999e-19
8.10086e-19
8.2502e-19
7.57467e-19
8.24663e-19
7.68082e-19
7.60635e-19
8.07615e-19
7.2733e-19
7.55101e-19
8.39789e-19
6.48833e-19
8.87982e-19
8.14661e-19
6.87981e-19
1.1167e-18
8.6683e-19
7.96254e-19
1.99037e-18
1.26438e-18
2.66825e-18
5.66798e-18
5.50034e-18
3.78335e-18
4.80475e-18
5.99196e-18
4.54844e-18
3.03393e-18
2.54303e-18
2.3622e-18
2.22713e-18
2.10146e-18
2.00639e-18
1.83893e-18
1.71429e-18
1.58847e-18
1.51201e-18
1.4282e-18
1.40726e-18
1.32073e-18
1.29238e-18
1.23706e-18
1.21159e-18
1.14614e-18
1.13403e-18
1.07945e-18
1.08674e-18
1.02603e-18
1.04196e-18
9.90513e-19
9.83546e-19
9.56057e-19
9.44651e-19
9.1837e-19
9.21308e-19
8.72225e-19
8.95797e-19
8.4909e-19
8.51465e-19
8.46144e-19
8.16058e-19
8.10092e-19
8.26849e-19
7.56629e-19
8.26249e-19
7.6984e-19
7.60204e-19
8.10754e-19
7.28477e-19
7.54586e-19
8.44749e-19
6.49148e-19
8.86891e-19
8.22536e-19
6.84933e-19
1.10729e-18
8.86818e-19
7.48567e-19
1.98336e-18
1.22175e-18
2.65506e-18
5.64949e-18
5.31162e-18
3.87114e-18
4.41647e-18
5.57141e-18
4.25666e-18
2.85453e-18
2.4297e-18
2.29015e-18
2.177e-18
2.06256e-18
1.97504e-18
1.8151e-18
1.69576e-18
1.57403e-18
1.50036e-18
1.41897e-18
1.40014e-18
1.31471e-18
1.28715e-18
1.23301e-18
1.20787e-18
1.14363e-18
1.13125e-18
1.07726e-18
1.08517e-18
1.02455e-18
1.04089e-18
9.89766e-19
9.8219e-19
9.55846e-19
9.43737e-19
9.18018e-19
9.21473e-19
8.71715e-19
8.95655e-19
8.49366e-19
8.50731e-19
8.47316e-19
8.16053e-19
8.09933e-19
8.28315e-19
7.55857e-19
8.27415e-19
7.71373e-19
7.59719e-19
8.13278e-19
7.29405e-19
7.53843e-19
8.48632e-19
6.49248e-19
8.85439e-19
8.27772e-19
6.83196e-19
1.09511e-18
9.03873e-19
7.05506e-19
1.9695e-18
1.17402e-18
2.71417e-18
5.7716e-18
5.21881e-18
4.23033e-18
4.10377e-18
5.21283e-18
3.98194e-18
2.68205e-18
2.31628e-18
2.21576e-18
2.12448e-18
2.02139e-18
1.94145e-18
1.78944e-18
1.67561e-18
1.55805e-18
1.48725e-18
1.40848e-18
1.39175e-18
1.30778e-18
1.28112e-18
1.22821e-18
1.20343e-18
1.14061e-18
1.12793e-18
1.07459e-18
1.08308e-18
1.02283e-18
1.03935e-18
9.88758e-19
9.8055e-19
9.55365e-19
9.42577e-19
9.17483e-19
9.21344e-19
8.71167e-19
8.95198e-19
8.49518e-19
8.49877e-19
8.48227e-19
8.15993e-19
8.09645e-19
8.29414e-19
7.55185e-19
8.28214e-19
7.72676e-19
7.59241e-19
8.15276e-19
7.30166e-19
7.52961e-19
8.51645e-19
6.49187e-19
8.83839e-19
8.30902e-19
6.82582e-19
1.08123e-18
9.17953e-19
6.68494e-19
1.94732e-18
1.12959e-18
2.82678e-18
5.99062e-18
5.22051e-18
4.77726e-18
3.86728e-18
4.91591e-18
3.72961e-18
2.51831e-18
2.20474e-18
2.14029e-18
2.07066e-18
1.97878e-18
1.90625e-18
1.76249e-18
1.65438e-18
1.54104e-18
1.47308e-18
1.39703e-18
1.38227e-18
1.30012e-18
1.27444e-18
1.22282e-18
1.19845e-18
1.13718e-18
1.12416e-18
1.07153e-18
1.08052e-18
1.02095e-18
1.03738e-18
9.87541e-19
9.78688e-19
9.54647e-19
9.41208e-19
9.16797e-19
9.20936e-19
8.70601e-19
8.9447e-19
8.49553e-19
8.4894e-19
8.48893e-19
8.15893e-19
8.09258e-19
8.3019e-19
7.54637e-19
8.28696e-19
7.73802e-19
7.5877e-19
8.16842e-19
7.3084e-19
7.51913e-19
8.54e-19
6.4903e-19
8.81959e-19
8.32544e-19
6.8258e-19
1.06618e-18
9.28932e-19
6.37235e-19
1.91436e-18
1.09278e-18
2.96058e-18
6.22755e-18
5.29056e-18
5.36113e-18
3.70282e-18
4.66335e-18
3.50463e-18
2.36503e-18
2.09692e-18
2.065e-18
2.01656e-18
1.93545e-18
1.86996e-18
1.73465e-18
1.6325e-18
1.52345e-18
1.45828e-18
1.38491e-18
1.37191e-18
1.29186e-18
1.26725e-18
1.21698e-18
1.19307e-18
1.13345e-18
1.12006e-18
1.0682e-18
1.07752e-18
1.01897e-18
1.03505e-18
9.86156e-19
9.76676e-19
9.53743e-19
9.39677e-19
9.15994e-19
9.20279e-19
8.70032e-19
8.93515e-19
8.49493e-19
8.47949e-19
8.49333e-19
8.15773e-19
8.08788e-19
8.30678e-19
7.54228e-19
8.28847e-19
7.74814e-19
7.58262e-19
8.17991e-19
7.315e-19
7.50565e-19
8.55757e-19
6.48841e-19
8.7937e-19
8.33167e-19
6.82525e-19
1.0499e-18
9.36373e-19
6.1083e-19
1.86781e-18
1.06548e-18
3.07107e-18
6.38619e-18
5.38684e-18
5.82907e-18
3.59791e-18
4.43228e-18
3.3095e-18
2.22354e-18
1.9944e-18
1.99089e-18
1.96299e-18
1.89214e-18
1.83307e-18
1.70626e-18
1.61029e-18
1.50564e-18
1.44318e-18
1.37245e-18
1.36091e-18
1.28318e-18
1.25966e-18
1.21077e-18
1.18743e-18
1.12954e-18
1.11575e-18
1.06472e-18
1.07416e-18
1.01695e-18
1.0324e-18
9.84632e-19
9.7457e-19
9.52696e-19
9.38031e-19
9.15101e-19
9.19407e-19
8.69476e-19
8.92357e-19
8.4936e-19
8.4692e-19
8.49562e-19
8.15655e-19
8.08222e-19
8.30889e-19
7.53966e-19
8.28632e-19
7.75744e-19
7.57653e-19
8.18653e-19
7.3219e-19
7.48778e-19
8.56781e-19
6.48705e-19
8.75538e-19
8.32926e-19
6.81851e-19
1.03225e-18
9.39557e-19
5.88615e-19
1.80654e-18
1.04708e-18
3.11626e-18
6.38625e-18
5.45422e-18
6.06791e-18
3.52956e-18
4.20043e-18
3.14293e-18
2.09486e-18
1.89848e-18
1.91888e-18
1.91066e-18
1.84952e-18
1.79609e-18
1.67767e-18
1.58801e-18
1.48785e-18
1.42809e-18
1.35995e-18
1.34951e-18
1.27422e-18
1.25178e-18
1.20427e-18
1.18161e-18
1.12552e-18
1.11132e-18
1.06119e-18
1.07049e-18
1.01492e-18
1.02948e-18
9.82985e-19
9.72416e-19
9.51543e-19
9.36307e-19
9.1415e-19
9.18356e-19
8.68941e-19
8.91015e-19
8.4916e-19
8.45864e-19
8.49569e-19
8.15546e-19
8.07552e-19
8.3081e-19
7.53862e-19
8.27974e-19
7.7658e-19
7.56906e-19
8.18728e-19
7.32883e-19
7.46476e-19
8.56865e-19
6.48706e-19
8.70113e-19
8.31859e-19
6.8021e-19
1.01319e-18
9.38074e-19
5.7037e-19
1.73207e-18
1.03541e-18
3.07121e-18
6.18933e-18
5.44487e-18
6.02022e-18
3.46928e-18
3.95271e-18
3.00115e-18
1.97974e-18
1.81006e-18
1.84966e-18
1.86007e-18
1.80815e-18
1.75952e-18
1.64919e-18
1.56584e-18
1.47024e-18
1.41321e-18
1.34763e-18
1.33795e-18
1.26513e-18
1.24373e-18
1.19756e-18
1.17567e-18
1.12147e-18
1.10682e-18
1.05771e-18
1.06661e-18
1.01293e-18
1.02637e-18
9.81221e-19
9.70251e-19
9.50305e-19
9.34532e-19
9.13173e-19
9.17154e-19
8.68437e-19
8.89506e-19
8.48892e-19
8.44785e-19
8.49345e-19
8.15441e-19
8.06794e-19
8.30411e-19
7.53923e-19
8.26843e-19
7.77283e-19
7.56021e-19
8.18159e-19
7.3352e-19
7.43722e-19
8.55844e-19
6.4893e-19
8.63005e-19
8.30003e-19
6.77488e-19
9.93043e-19
9.3193e-19
5.56218e-19
1.64742e-18
1.02789e-18
2.92869e-18
5.80112e-18
5.32717e-18
5.69389e-18
3.3907e-18
3.68372e-18
2.87786e-18
1.87867e-18
1.72972e-18
1.78376e-18
1.81146e-18
1.76842e-18
1.7238e-18
1.62112e-18
1.54395e-18
1.45294e-18
1.39865e-18
1.33566e-18
1.32638e-18
1.25608e-18
1.23563e-18
1.19072e-18
1.16966e-18
1.11744e-18
1.10231e-18
1.05432e-18
1.0626e-18
1.01099e-18
1.02311e-18
9.79353e-19
9.68105e-19
9.48995e-19
9.32719e-19
9.12202e-19
9.15826e-19
8.67979e-19
8.87857e-19
8.48553e-19
8.43699e-19
8.48895e-19
8.15322e-19
8.05981e-19
8.29678e-19
7.5416e-19
8.25264e-19
7.77819e-19
7.55026e-19
8.16976e-19
7.34029e-19