/*--------------------------------*- C++ -*----------------------------------*\
| =========                 |                                                 |
| \\      /  F ield         | OpenFOAM: The Open Source CFD Toolbox           |
|  \\    /   O peration     | Version:  2312                                  |
|   \\  /    A nd           | Website:  www.openfoam.com                      |
|    \\/     M anipulation  |                                                 |
\*---------------------------------------------------------------------------*/
FoamFile
{
    version     2.0;
    format      ascii;
    arch        "LSB;label=32;scalar=64";
    class       volScalarField;
    location    "200";
    object      pMean;
}
// * * * * * * * * * * * * * * * * * * * * * * * * * * * * * * * * * * * * * //

dimensions      [0 2 -2 0 0 0 0];

internalField   nonuniform List<scalar> 
144000
(
2.18465e-09
2.27292e-09
3.95593e-10
-8.69672e-10
-9.8129e-10
-7.10057e-10
-3.87169e-10
-1.81352e-10
-3.51694e-12
7.62788e-11
1.70198e-10
1.98076e-10
2.64553e-10
2.71295e-10
3.26387e-10
3.22199e-10
3.67103e-10
3.48609e-10
3.90512e-10
3.70375e-10
4.11682e-10
3.84611e-10
4.26307e-10
3.98215e-10
4.42048e-10
4.1129e-10
4.55112e-10
4.19259e-10
4.64555e-10
4.2789e-10
4.7646e-10
4.38303e-10
4.87203e-10
4.42931e-10
4.94415e-10
4.51756e-10
5.07188e-10
4.63631e-10
5.20269e-10
4.73438e-10
5.32381e-10
4.86768e-10
5.47591e-10
5.01203e-10
5.56827e-10
5.05032e-10
5.59922e-10
5.18412e-10
5.71839e-10
5.40743e-10
5.88317e-10
5.81345e-10
6.11457e-10
6.44207e-10
6.30467e-10
7.44598e-10
7.54845e-10
1.23592e-09
-1.18827e-09
-5.85649e-10
2.21847e-09
2.29982e-09
3.85807e-10
-8.76325e-10
-9.81129e-10
-7.08662e-10
-3.86612e-10
-1.81325e-10
-4.06961e-12
7.56149e-11
1.69402e-10
1.97453e-10
2.63883e-10
2.70795e-10
3.25811e-10
3.21838e-10
3.66614e-10
3.48283e-10
3.90051e-10
3.70152e-10
4.11292e-10
3.84423e-10
4.25938e-10
3.98093e-10
4.41722e-10
4.11224e-10
4.54797e-10
4.19211e-10
4.64242e-10
4.27888e-10
4.76171e-10
4.38346e-10
4.86911e-10
4.42969e-10
4.94098e-10
4.51859e-10
5.06877e-10
4.63777e-10
5.1995e-10
4.73607e-10
5.32047e-10
4.87002e-10
5.47275e-10
5.01528e-10
5.56481e-10
5.05373e-10
5.59508e-10
5.18887e-10
5.71416e-10
5.41301e-10
5.87864e-10
5.8197e-10
6.11017e-10
6.44681e-10
6.29928e-10
7.42838e-10
7.56883e-10
1.2592e-09
-1.20305e-09
-6.30876e-10
2.32036e-09
2.30871e-09
3.36697e-10
-8.84696e-10
-9.73452e-10
-7.02678e-10
-3.83669e-10
-1.80155e-10
-3.6708e-12
7.51214e-11
1.68764e-10
1.9655e-10
2.63228e-10
2.69963e-10
3.25231e-10
3.21142e-10
3.66197e-10
3.47616e-10
3.89635e-10
3.69598e-10
4.11018e-10
3.839e-10
4.25683e-10
3.97663e-10
4.41553e-10
4.10852e-10
4.54677e-10
4.18854e-10
4.64127e-10
4.27571e-10
4.76096e-10
4.38078e-10
4.86885e-10
4.42684e-10
4.94018e-10
4.51638e-10
5.0685e-10
4.63599e-10
5.19941e-10
4.73443e-10
5.32009e-10
4.86907e-10
5.47262e-10
5.01557e-10
5.56509e-10
5.05407e-10
5.5945e-10
5.19029e-10
5.71445e-10
5.41414e-10
5.87936e-10
5.8201e-10
6.11353e-10
6.44212e-10
6.31363e-10
7.36175e-10
7.61714e-10
1.30219e-09
-1.27129e-09
-6.67381e-10
2.46987e-09
2.2546e-09
2.54887e-10
-8.82927e-10
-9.55874e-10
-6.90582e-10
-3.77096e-10
-1.76397e-10
-1.5679e-12
7.55197e-11
1.6845e-10
1.9571e-10
2.62559e-10
2.69026e-10
3.24516e-10
3.20315e-10
3.65687e-10
3.46789e-10
3.8904e-10
3.68886e-10
4.10637e-10
3.8326e-10
4.25296e-10
3.97115e-10
4.41294e-10
4.10397e-10
4.54497e-10
4.18413e-10
4.63931e-10
4.27176e-10
4.7597e-10
4.37769e-10
4.86856e-10
4.4235e-10
4.93874e-10
4.51372e-10
5.06795e-10
4.63398e-10
5.19927e-10
4.73243e-10
5.31941e-10
4.86767e-10
5.4727e-10
5.01549e-10
5.56674e-10
5.05351e-10
5.59479e-10
5.19027e-10
5.71689e-10
5.41292e-10
5.88366e-10
5.81424e-10
6.12765e-10
6.41881e-10
6.36008e-10
7.21425e-10
7.77654e-10
1.34087e-09
-1.38467e-09
-6.45474e-10
2.63365e-09
2.09928e-09
1.51259e-10
-8.52701e-10
-9.24717e-10
-6.72796e-10
-3.67308e-10
-1.6985e-10
2.71357e-12
7.72839e-11
1.68728e-10
1.9515e-10
2.61944e-10
2.68129e-10
3.23687e-10
3.19427e-10
3.65064e-10
3.45862e-10
3.88209e-10
3.68052e-10
4.10095e-10
3.8252e-10
4.24703e-10
3.96479e-10
4.40866e-10
4.09889e-10
4.54172e-10
4.17935e-10
4.63555e-10
4.26744e-10
4.75688e-10
4.37455e-10
4.86717e-10
4.42029e-10
4.9356e-10
4.5111e-10
5.06602e-10
4.63237e-10
5.19798e-10
4.73077e-10
5.31733e-10
4.86644e-10
5.47189e-10
5.01609e-10
5.56814e-10
5.05315e-10
5.59427e-10
5.18909e-10
5.72048e-10
5.40794e-10
5.89213e-10
5.79931e-10
6.15498e-10
6.37344e-10
6.44117e-10
6.99514e-10
8.04576e-10
1.36179e-09
-1.52414e-09
-5.31813e-10
2.79726e-09
1.82527e-09
3.2634e-11
-7.82354e-10
-8.77839e-10
-6.51503e-10
-3.55609e-10
-1.61107e-10
8.94341e-12
8.03393e-11
1.6967e-10
1.94933e-10
2.61484e-10
2.67362e-10
3.22846e-10
3.18566e-10
3.64387e-10
3.44916e-10
3.87209e-10
3.67147e-10
4.09418e-10
3.81733e-10
4.23922e-10
3.95772e-10
4.40272e-10
4.09348e-10
4.53702e-10
4.17434e-10
4.62997e-10
4.26291e-10
4.7524e-10
4.3716e-10
4.86458e-10
4.41745e-10
4.9306e-10
4.50872e-10
5.06255e-10
4.6313e-10
5.19524e-10
4.72964e-10
5.31349e-10
4.86556e-10
5.46957e-10
5.01723e-10
5.56898e-10
5.05297e-10
5.59314e-10
5.18627e-10
5.72561e-10
5.39854e-10
5.90546e-10
5.77326e-10
6.19779e-10
6.30173e-10
6.56157e-10
6.71138e-10
8.42177e-10
1.36239e-09
-1.68296e-09
-3.17409e-10
2.96237e-09
1.43296e-09
-1.03552e-10
-6.67008e-10
-8.12756e-10
-6.28299e-10
-3.43541e-10
-1.50886e-10
1.66736e-11
8.44414e-11
1.71055e-10
1.95033e-10
2.61132e-10
2.667e-10
3.21974e-10
3.17752e-10
3.63681e-10
3.44006e-10
3.86094e-10
3.66232e-10
4.08653e-10
3.80964e-10
4.22999e-10
3.95052e-10
4.39545e-10
4.08821e-10
4.53108e-10
4.16961e-10
4.62283e-10
4.2585e-10
4.74639e-10
4.36912e-10
4.86074e-10
4.41532e-10
4.92376e-10
4.50678e-10
5.05737e-10
4.63091e-10
5.19091e-10
4.72932e-10
5.30775e-10
4.86513e-10
5.46554e-10
5.01899e-10
5.56914e-10
5.05282e-10
5.59131e-10
5.18157e-10
5.7322e-10
5.384e-10
5.92473e-10
5.73449e-10
6.25775e-10
6.20143e-10
6.72209e-10
6.3714e-10
8.88258e-10
1.3463e-09
-1.85998e-09
-7.39733e-12
3.13154e-09
9.34731e-10
-2.59995e-10
-5.07694e-10
-7.27921e-10
-6.04182e-10
-3.32337e-10
-1.399e-10
2.53971e-11
8.917e-11
1.72652e-10
1.95223e-10
2.60727e-10
2.66063e-10
3.21022e-10
3.16947e-10
3.62916e-10
3.43146e-10
3.84879e-10
3.65322e-10
4.07805e-10
3.80253e-10
4.21968e-10
3.94358e-10
4.38711e-10
4.08354e-10
4.52412e-10
4.16558e-10
4.61433e-10
4.25461e-10
4.73907e-10
4.36754e-10
4.85573e-10
4.41434e-10
4.91528e-10
4.50568e-10
5.05064e-10
4.63163e-10
5.18496e-10
4.73009e-10
5.30014e-10
4.86537e-10
5.45997e-10
5.02139e-10
5.56844e-10
5.05276e-10
5.58928e-10
5.1742e-10
5.74084e-10
5.36368e-10
5.95055e-10
5.68277e-10
6.33388e-10
6.07619e-10
6.91452e-10
5.99861e-10
9.38083e-10
1.31886e-09
-2.04868e-09
3.81538e-10
3.30625e-09
3.59875e-10
-4.38733e-10
-3.12178e-10
-6.22863e-10
-5.79242e-10
-3.22922e-10
-1.28802e-10
3.47332e-11
9.42979e-11
1.74237e-10
1.9534e-10
2.60127e-10
2.65335e-10
3.19909e-10
3.16085e-10
3.6202e-10
3.42301e-10
3.83539e-10
3.64407e-10
4.06853e-10
3.79598e-10
4.20831e-10
3.93704e-10
4.37776e-10
4.07957e-10
4.51619e-10
4.16248e-10
4.60466e-10
4.25152e-10
4.73057e-10
4.3671e-10
4.84965e-10
4.41482e-10
4.90542e-10
4.50558e-10
5.04237e-10
4.63362e-10
5.17755e-10
4.7321e-10
5.29094e-10
4.8664e-10
5.4531e-10
5.02436e-10
5.56722e-10
5.05257e-10
5.58734e-10
5.16419e-10
5.75154e-10
5.33801e-10
5.98173e-10
5.62014e-10
6.42182e-10
5.93495e-10
7.12258e-10
5.62522e-10
9.85708e-10
1.28656e-09
-2.23885e-09
8.16845e-10
3.48236e-09
-2.52187e-10
-6.38117e-10
-9.34586e-11
-4.98985e-10
-5.52989e-10
-3.15878e-10
-1.1819e-10
4.4351e-11
9.96176e-11
1.75658e-10
1.95223e-10
2.59228e-10
2.64444e-10
3.18566e-10
3.15094e-10
3.60924e-10
3.41418e-10
3.82053e-10
3.6346e-10
4.05764e-10
3.78982e-10
4.19581e-10
3.93082e-10
4.36731e-10
4.07633e-10
4.50725e-10
4.16035e-10
4.59395e-10
4.24933e-10
4.72103e-10
4.36786e-10
4.8425e-10
4.4168e-10
4.89441e-10
4.5066e-10
5.03285e-10
4.63695e-10
5.16889e-10
4.73533e-10
5.28045e-10
4.86819e-10
5.44518e-10
5.02778e-10
5.56551e-10
5.05225e-10
5.58574e-10
5.15216e-10
5.7636e-10
5.30826e-10
6.01612e-10
5.5514e-10
6.51433e-10
5.79093e-10
7.32512e-10
5.2889e-10
1.02516e-09
1.25512e-09
-2.41696e-09
1.26074e-09
3.65136e-09
-8.59431e-10
-8.53304e-10
1.31493e-10
-3.59518e-10
-5.24621e-10
-3.11401e-10
-1.08605e-10
5.39329e-11
1.04975e-10
1.76803e-10
1.94832e-10
2.57981e-10
2.63344e-10
3.16953e-10
3.13935e-10
3.5958e-10
3.40464e-10
3.80401e-10
3.62459e-10
4.04517e-10
3.7838e-10
4.18206e-10
3.92479e-10
4.35565e-10
4.07367e-10
4.49722e-10
4.15907e-10
4.58221e-10
4.24801e-10
4.71049e-10
4.36978e-10
4.83433e-10
4.42021e-10
4.88251e-10
4.50871e-10
5.02224e-10
4.64148e-10
5.15916e-10
4.73965e-10
5.26898e-10
4.87068e-10
5.43638e-10
5.03165e-10
5.56324e-10
5.05207e-10
5.58423e-10
5.13893e-10
5.77571e-10
5.27682e-10
6.05071e-10
5.48228e-10
6.60239e-10
5.65846e-10
7.50043e-10
5.02266e-10
1.052e-09
1.22804e-09
-2.56686e-09
1.67678e-09
3.80061e-09
-1.41724e-09
-1.07629e-09
3.45622e-10
-2.09969e-10
-4.93287e-10
-3.09307e-10
-1.00535e-10
6.31515e-11
1.10226e-10
1.7764e-10
1.94157e-10
2.56378e-10
2.62018e-10
3.15046e-10
3.12592e-10
3.57965e-10
3.39418e-10
3.78574e-10
3.61396e-10
4.0308e-10
3.77772e-10
4.16703e-10
3.91882e-10
4.34271e-10
4.07142e-10
4.48605e-10
4.15856e-10
4.56952e-10
4.24747e-10
4.69897e-10
4.37271e-10
4.82515e-10
4.42487e-10
4.86985e-10
4.51183e-10
5.0107e-10
4.6471e-10
5.14842e-10
4.74504e-10
5.25669e-10
4.87397e-10
5.42665e-10
5.03607e-10
5.56019e-10
5.05241e-10
5.58225e-10
5.12574e-10
5.78634e-10
5.24634e-10
6.08148e-10
5.41933e-10
6.67698e-10
5.55099e-10
7.63049e-10
4.84974e-10
1.06392e-09
1.20677e-09
-2.67273e-09
2.03486e-09
3.91554e-09
-1.88943e-09
-1.2963e-09
5.33586e-10
-5.70199e-11
-4.58135e-10
-3.08974e-10
-9.43168e-11
7.16764e-11
1.1528e-10
1.78189e-10
1.93216e-10
2.54425e-10
2.6046e-10
3.12856e-10
3.11069e-10
3.56085e-10
3.38277e-10
3.76581e-10
3.60267e-10
4.01457e-10
3.77141e-10
4.15077e-10
3.91286e-10
4.32847e-10
4.06943e-10
4.47372e-10
4.15853e-10
4.55595e-10
4.24763e-10
4.68655e-10
4.37645e-10
4.81499e-10
4.43059e-10
4.85656e-10
4.51586e-10
4.99825e-10
4.65365e-10
5.1368e-10
4.75136e-10
5.24367e-10
4.87808e-10
5.4161e-10
5.04111e-10
5.55601e-10
5.05377e-10
5.57919e-10
5.1139e-10
5.79357e-10
5.22005e-10
6.1045e-10
5.36855e-10
6.7302e-10
5.47891e-10
7.70261e-10
4.78246e-10
1.06069e-09
1.19067e-09
-2.7211e-09
2.31316e-09
3.98131e-09
-2.25711e-09
-1.49953e-09
6.84487e-10
9.25267e-11
-4.18525e-10
-3.09451e-10
-9.01571e-11
7.92019e-11
1.20064e-10
1.78483e-10
1.92045e-10
2.52147e-10
2.58686e-10
3.104e-10
3.09379e-10
3.53956e-10
3.37037e-10
3.74434e-10
3.59076e-10
3.99652e-10
3.76476e-10
4.13333e-10
3.90684e-10
4.31294e-10
4.06766e-10
4.46023e-10
4.1589e-10
4.54157e-10
4.24836e-10
4.67328e-10
4.38085e-10
4.8039e-10
4.43713e-10
4.84277e-10
4.52068e-10
4.9849e-10
4.66096e-10
5.12438e-10
4.75852e-10
5.22997e-10
4.88304e-10
5.40459e-10
5.04696e-10
5.55028e-10
5.05672e-10
5.5741e-10
5.10493e-10
5.79568e-10
5.20047e-10
6.11645e-10
5.33477e-10
6.75652e-10
5.44832e-10
7.71211e-10
4.8203e-10
1.04386e-09
1.17765e-09
-2.70559e-09
2.50064e-09
3.98706e-09
-2.50874e-09
-1.67251e-09
7.91796e-10
2.3215e-10
-3.7431e-10
-3.09686e-10
-8.81127e-11
8.54076e-11
1.24501e-10
1.78568e-10
1.9069e-10
2.49585e-10
2.5672e-10
3.07706e-10
3.07545e-10
3.51593e-10
3.35699e-10
3.72149e-10
3.57834e-10
3.97678e-10
3.75772e-10
4.11481e-10
3.90078e-10
4.29624e-10
4.06594e-10
4.44567e-10
4.15958e-10
4.52649e-10
4.24956e-10
4.6592e-10
4.38576e-10
4.79194e-10
4.44432e-10
4.8286e-10
4.52622e-10
4.97084e-10
4.66891e-10
5.11122e-10
4.76646e-10
5.21564e-10
4.8889e-10
5.39192e-10
5.05386e-10
5.54259e-10
5.06181e-10
5.5663e-10
5.10008e-10
5.7912e-10
5.18978e-10
6.11507e-10
5.32092e-10
6.75334e-10
5.46064e-10
7.66106e-10
4.95304e-10
1.01599e-09
1.16453e-09
-2.62458e-09
2.59588e-09
3.92717e-09
-2.64353e-09
-1.80553e-09
8.533e-10
3.56211e-10
-3.2587e-10
-3.08642e-10
-8.80839e-11
9.00504e-11
1.28494e-10
1.78481e-10
1.89206e-10
2.46775e-10
2.54589e-10
3.04799e-10
3.05588e-10
3.49014e-10
3.34279e-10
3.69741e-10
3.56549e-10
3.95551e-10
3.75029e-10
4.09532e-10
3.89469e-10
4.27844e-10
4.0642e-10
4.43014e-10
4.16048e-10
4.51079e-10
4.25116e-10
4.6444e-10
4.39104e-10
4.77921e-10
4.452e-10
4.81409e-10
4.53236e-10
4.95611e-10
4.67735e-10
5.09734e-10
4.7751e-10
5.20065e-10
4.89574e-10
5.37798e-10
5.06199e-10
5.5326e-10
5.06948e-10
5.55514e-10
5.10028e-10
5.77925e-10
5.18922e-10
6.09918e-10
5.32786e-10
6.72105e-10
5.51305e-10
7.55703e-10
5.16331e-10
9.80549e-10
1.14875e-09
-2.48191e-09
2.60496e-09
3.79987e-09
-2.66942e-09
-1.89119e-09
8.70797e-10
4.60312e-10
-2.74103e-10
-3.05414e-10
-8.98093e-11
9.2948e-11
1.31939e-10
1.78257e-10
1.87647e-10
2.43761e-10
2.52323e-10
3.01717e-10
3.03527e-10
3.46255e-10
3.32786e-10
3.67229e-10
3.55233e-10
3.93289e-10
3.74247e-10
4.07501e-10
3.88859e-10
4.2597e-10
4.0624e-10
4.41376e-10
4.16151e-10
4.49457e-10
4.2531e-10
4.62902e-10
4.39655e-10
4.76575e-10
4.46004e-10
4.79936e-10
4.53904e-10
4.94079e-10
4.68618e-10
5.08281e-10
4.7844e-10
5.185e-10
4.9036e-10
5.36268e-10
5.07151e-10
5.52009e-10
5.07997e-10
5.54025e-10
5.10608e-10
5.75952e-10
5.19909e-10
6.06901e-10
5.35455e-10
6.66246e-10
5.59959e-10
7.41164e-10
5.43119e-10
9.40878e-10
1.12778e-09
-2.28436e-09
2.54007e-09
3.60935e-09
-2.60085e-09
-1.92687e-09
8.4929e-10
5.41941e-10
-2.20311e-10
-2.993e-10
-9.28943e-11
9.39992e-11
1.34739e-10
1.77923e-10
1.86067e-10
2.40592e-10
2.49949e-10
2.98484e-10
3.01383e-10
3.43337e-10
3.31234e-10
3.64634e-10
3.53894e-10
3.90913e-10
3.73428e-10
4.05399e-10
3.8825e-10
4.24015e-10
4.06049e-10
4.39666e-10
4.16261e-10
4.47793e-10
4.25531e-10
4.61317e-10
4.40218e-10
4.75169e-10
4.46828e-10
4.78445e-10
4.54614e-10
4.92497e-10
4.69531e-10
5.06767e-10
4.79429e-10
5.1687e-10
4.9125e-10
5.34604e-10
5.08244e-10
5.505e-10
5.09339e-10
5.52157e-10
5.11754e-10
5.7322e-10
5.21887e-10
6.02592e-10
5.39869e-10
6.58223e-10
5.71234e-10
7.23922e-10
5.73454e-10
9.00295e-10
1.10012e-09
-2.04214e-09
2.41646e-09
3.36242e-09
-2.45701e-09
-1.91284e-09
7.96615e-10
5.99981e-10
-1.66056e-10
-2.8988e-10
-9.68807e-11
9.31828e-11
1.368e-10
1.77496e-10
1.84517e-10
2.37313e-10
2.4749e-10
2.95125e-10
2.99176e-10
3.40294e-10
3.29632e-10
3.61974e-10
3.52541e-10
3.88443e-10
3.72575e-10
4.03241e-10
3.87642e-10
4.21992e-10
4.05845e-10
4.37896e-10
4.16372e-10
4.461e-10
4.25772e-10
4.59695e-10
4.40785e-10
4.73715e-10
4.47664e-10
4.76944e-10
4.5536e-10
4.90874e-10
4.70464e-10
5.05199e-10
4.80472e-10
5.15181e-10
4.92243e-10
5.32809e-10
5.09475e-10
5.4874e-10
5.10962e-10
5.49932e-10
5.13431e-10
5.69813e-10
5.24739e-10
5.97214e-10
5.45663e-10
6.48658e-10
5.84239e-10
7.05488e-10
6.05186e-10
8.61144e-10
1.06529e-09
-1.76638e-09
2.25059e-09
3.06896e-09
-2.25784e-09
-1.8521e-09
7.21221e-10
6.34787e-10
-1.12982e-10
-2.77007e-10
-1.01282e-10
9.05516e-11
1.38042e-10
1.76975e-10
1.83035e-10
2.33965e-10
2.44966e-10
2.91665e-10
2.96923e-10
3.37148e-10
3.27991e-10
3.59264e-10
3.51179e-10
3.85897e-10
3.71693e-10
4.01035e-10
3.87035e-10
4.19918e-10
4.05624e-10
4.36078e-10
4.1648e-10
4.44389e-10
4.26027e-10
4.58045e-10
4.41347e-10
4.72222e-10
4.48503e-10
4.75441e-10
4.56131e-10
4.89221e-10
4.71409e-10
5.03586e-10
4.8156e-10
5.13441e-10
4.93329e-10
5.30894e-10
5.10831e-10
5.46751e-10
5.12837e-10
5.47397e-10
5.1557e-10
5.65859e-10
5.28285e-10
5.91063e-10
5.5242e-10
6.38217e-10
5.98047e-10
6.87172e-10
6.36432e-10
8.25358e-10
1.02377e-09
-1.46909e-09
2.05831e-09
2.73884e-09
-2.0222e-09
-1.74916e-09
6.31452e-10
6.47864e-10
-6.26581e-11
-2.60854e-10
-1.05655e-10
8.62286e-11
1.38399e-10
1.76345e-10
1.81647e-10
2.30582e-10
2.42394e-10
2.88122e-10
2.94634e-10
3.33925e-10
3.26321e-10
3.56519e-10
3.49815e-10
3.83295e-10
3.70779e-10
3.98792e-10
3.86427e-10
4.17804e-10
4.05385e-10
4.34225e-10
4.16582e-10
4.42667e-10
4.26288e-10
4.56377e-10
4.41898e-10
4.70704e-10
4.49337e-10
4.7394e-10
4.56919e-10
4.87546e-10
4.72357e-10
5.0194e-10
4.82683e-10
5.11661e-10
4.94494e-10
5.28877e-10
5.12291e-10
5.44574e-10
5.1492e-10
5.44617e-10
5.18073e-10
5.61509e-10
5.32312e-10
5.84453e-10
5.59693e-10
6.27549e-10
6.11779e-10
6.70102e-10
6.65699e-10
7.93806e-10
9.76804e-10
-1.16052e-09
1.85316e-09
2.38273e-09
-1.76695e-09
-1.61031e-09
5.35256e-10
6.41736e-10
-1.64206e-11
-2.41808e-10
-1.09612e-10
8.03945e-11
1.37833e-10
1.75582e-10
1.8037e-10
2.27197e-10
2.39789e-10
2.84516e-10
2.9232e-10
3.30645e-10
3.24631e-10
3.53751e-10
3.48449e-10
3.8065e-10
3.69839e-10
3.96525e-10
3.85816e-10
4.1566e-10
4.05125e-10
4.32349e-10
4.16674e-10
4.40944e-10
4.26551e-10
4.54701e-10
4.4243e-10
4.6917e-10
4.50159e-10
4.72449e-10
4.57714e-10
4.8586e-10
4.733e-10
5.00273e-10
4.8383e-10
5.09855e-10
4.9572e-10
5.26784e-10
5.13826e-10
5.42253e-10
5.17154e-10
5.41674e-10
5.20832e-10
5.56934e-10
5.36604e-10
5.77707e-10
5.67065e-10
6.17252e-10
6.24722e-10
6.55144e-10
6.91915e-10
7.66851e-10
9.25799e-10
-8.49999e-10
1.64704e-09
2.01073e-09
-1.50929e-09
-1.44262e-09
4.39921e-10
6.1996e-10
2.47422e-11
-2.20452e-10
-1.1285e-10
7.32775e-11
1.36336e-10
1.74662e-10
1.7921e-10
2.23837e-10
2.37166e-10
2.80863e-10
2.89984e-10
3.27326e-10
3.22927e-10
3.50972e-10
3.4708e-10
3.77977e-10
3.68875e-10
3.94241e-10
3.85197e-10
4.135e-10
4.04841e-10
4.30459e-10
4.16751e-10
4.39228e-10
4.2681e-10
4.53027e-10
4.42936e-10
4.6763e-10
4.50964e-10
4.70976e-10
4.58507e-10
4.84175e-10
4.74228e-10
4.98598e-10
4.84988e-10
5.08041e-10
4.96986e-10
5.24645e-10
5.154e-10
5.39844e-10
5.19482e-10
5.3866e-10
5.23727e-10
5.52307e-10
5.40949e-10
5.71123e-10
5.7416e-10
6.07801e-10
6.36333e-10
6.42871e-10
7.14367e-10
7.4438e-10
8.71993e-10
-5.45481e-10
1.45062e-09
1.63334e-09
-1.26461e-09
-1.25431e-09
3.51367e-10
5.86417e-10
6.02994e-11
-1.97431e-10
-1.1518e-10
6.50974e-11
1.33902e-10
1.73545e-10
1.78155e-10
2.20518e-10
2.34528e-10
2.77172e-10
2.87623e-10
3.23979e-10
3.21213e-10
3.48191e-10
3.45705e-10
3.75283e-10
3.67888e-10
3.91949e-10
3.84566e-10
4.1133e-10
4.04529e-10
4.28565e-10
4.16813e-10
4.37526e-10
4.27058e-10
4.51363e-10
4.4341e-10
4.66092e-10
4.51747e-10
4.69528e-10
4.59287e-10
4.825e-10
4.75131e-10
4.96929e-10
4.86146e-10
5.06239e-10
4.9827e-10
5.22493e-10
5.16975e-10
5.374e-10
5.21845e-10
5.35666e-10
5.26645e-10
5.4779e-10
5.45162e-10
5.64972e-10
5.80685e-10
5.9958e-10
6.46266e-10
6.33626e-10
7.32696e-10
7.26233e-10
8.16001e-10
-2.54001e-10
1.27385e-09
1.26114e-09
-1.04225e-09
-1.05383e-09
2.73727e-10
5.44748e-10
9.00291e-11
-1.73375e-10
-1.16503e-10
5.60349e-11
1.30529e-10
1.72182e-10
1.77185e-10
2.17241e-10
2.31879e-10
2.73447e-10
2.85231e-10
3.20607e-10
3.19493e-10
3.45413e-10
3.44319e-10
3.72571e-10
3.66879e-10
3.89652e-10
3.83919e-10
4.09154e-10
4.04186e-10
4.2667e-10
4.16857e-10
4.35843e-10
4.27292e-10
4.49714e-10
4.43844e-10
4.64561e-10
4.52508e-10
4.68111e-10
4.60044e-10
4.80843e-10
4.75998e-10
4.95277e-10
4.87289e-10
5.04467e-10
4.99548e-10
5.20359e-10
5.18511e-10
5.3497e-10
5.24184e-10
5.32773e-10
5.29478e-10
5.43514e-10
5.49088e-10
5.59456e-10
5.86421e-10
5.92844e-10
6.54311e-10
6.276e-10
7.46697e-10
7.12244e-10
7.58449e-10
1.83029e-11
1.1235e-09
2.17796e-09
2.2759e-09
4.04663e-10
-8.63131e-10
-9.76978e-10
-7.05667e-10
-3.82718e-10
-1.7756e-10
-8.41839e-13
7.7709e-11
1.70606e-10
1.97707e-10
2.63674e-10
2.70088e-10
3.25007e-10
3.20737e-10
3.65774e-10
3.47513e-10
3.89613e-10
3.69637e-10
4.11112e-10
3.8422e-10
4.25998e-10
3.97987e-10
4.41833e-10
4.11108e-10
4.5497e-10
4.19234e-10
4.6453e-10
4.27916e-10
4.76439e-10
4.38299e-10
4.87108e-10
4.42857e-10
4.94259e-10
4.51704e-10
5.07062e-10
4.63596e-10
5.20142e-10
4.73475e-10
5.32274e-10
4.86809e-10
5.47345e-10
5.00979e-10
5.56132e-10
5.04412e-10
5.58704e-10
5.17345e-10
5.70086e-10
5.39282e-10
5.85974e-10
5.79364e-10
6.08501e-10
6.42005e-10
6.27005e-10
7.42341e-10
7.52327e-10
1.23127e-09
-1.18383e-09
-5.87556e-10
2.21175e-09
2.30281e-09
3.94657e-10
-8.69746e-10
-9.76741e-10
-7.04232e-10
-3.82125e-10
-1.77516e-10
-1.3845e-12
7.705e-11
1.69811e-10
1.97082e-10
2.62999e-10
2.69582e-10
3.24425e-10
3.20367e-10
3.65279e-10
3.47183e-10
3.8915e-10
3.6941e-10
4.10722e-10
3.84032e-10
4.25628e-10
3.97864e-10
4.41507e-10
4.11039e-10
4.54658e-10
4.1919e-10
4.6422e-10
4.27916e-10
4.76151e-10
4.38343e-10
4.86817e-10
4.42896e-10
4.93941e-10
4.51806e-10
5.0675e-10
4.6374e-10
5.19825e-10
4.73647e-10
5.31941e-10
4.87041e-10
5.47027e-10
5.01299e-10
5.55782e-10
5.04747e-10
5.58286e-10
5.17815e-10
5.69659e-10
5.39825e-10
5.85511e-10
5.7998e-10
6.08057e-10
6.42459e-10
6.2647e-10
7.40574e-10
7.5438e-10
1.25458e-09
-1.19856e-09
-6.32849e-10
2.31391e-09
2.31315e-09
3.45514e-10
-8.78514e-10
-9.69096e-10
-6.98225e-10
-3.79138e-10
-1.76297e-10
-9.6046e-13
7.65683e-11
1.69177e-10
1.96178e-10
2.6234e-10
2.68744e-10
3.23837e-10
3.1966e-10
3.64852e-10
3.46509e-10
3.88729e-10
3.6885e-10
4.10446e-10
3.8351e-10
4.25373e-10
3.97432e-10
4.41336e-10
4.10664e-10
4.54539e-10
4.18839e-10
4.6411e-10
4.27602e-10
4.76079e-10
4.38075e-10
4.86791e-10
4.42613e-10
4.9386e-10
4.51585e-10
5.06722e-10
4.6356e-10
5.19815e-10
4.73485e-10
5.31904e-10
4.86946e-10
5.47011e-10
5.01323e-10
5.55804e-10
5.04783e-10
5.58219e-10
5.17946e-10
5.69684e-10
5.39944e-10
5.8558e-10
5.80008e-10
6.08401e-10
6.41993e-10
6.27907e-10
7.339e-10
7.59119e-10
1.29814e-09
-1.26673e-09
-6.70924e-10
2.46346e-09
2.26136e-09
2.63648e-10
-8.7744e-10
-9.51637e-10
-6.86097e-10
-3.72532e-10
-1.72506e-10
1.18623e-12
7.69913e-11
1.68874e-10
1.95339e-10
2.61667e-10
2.67799e-10
3.23112e-10
3.18819e-10
3.64329e-10
3.45673e-10
3.8813e-10
3.68132e-10
4.10062e-10
3.82871e-10
4.24988e-10
3.96882e-10
4.41077e-10
4.10205e-10
4.5436e-10
4.18405e-10
4.63922e-10
4.27212e-10
4.75956e-10
4.37768e-10
4.86764e-10
4.42281e-10
4.93718e-10
4.51318e-10
5.06667e-10
4.63355e-10
5.19799e-10
4.73289e-10
5.31838e-10
4.86807e-10
5.47021e-10
5.01311e-10
5.55964e-10
5.04727e-10
5.58254e-10
5.17933e-10
5.69927e-10
5.39808e-10
5.86009e-10
5.79382e-10
6.09816e-10
6.39654e-10
6.32544e-10
7.1924e-10
7.7493e-10
1.33769e-09
-1.37985e-09
-6.51427e-10
2.62729e-09
2.10872e-09
1.60005e-10
-8.48147e-10
-9.20638e-10
-6.68279e-10
-3.62634e-10
-1.65889e-10
5.51538e-12
7.87992e-11
1.69174e-10
1.94792e-10
2.61053e-10
2.66899e-10
3.22276e-10
3.17916e-10
3.63689e-10
3.44734e-10
3.87292e-10
3.67289e-10
4.09515e-10
3.82134e-10
4.24399e-10
3.96244e-10
4.40648e-10
4.09692e-10
4.54035e-10
4.17934e-10
4.63555e-10
4.26788e-10
4.7568e-10
4.37456e-10
4.86627e-10
4.41964e-10
4.93406e-10
4.51056e-10
5.06473e-10
4.63188e-10
5.1967e-10
4.73128e-10
5.31637e-10
4.86688e-10
5.46948e-10
5.01368e-10
5.56105e-10
5.04689e-10
5.58209e-10
5.17815e-10
5.70294e-10
5.39306e-10
5.86887e-10
5.77856e-10
6.12547e-10
6.3509e-10
6.40638e-10
6.97431e-10
8.01707e-10
1.35955e-09
-1.51908e-09
-5.40447e-10
2.79088e-09
1.83682e-09
4.12495e-11
-7.78671e-10
-8.73887e-10
-6.46905e-10
-3.50824e-10
-1.57064e-10
1.18155e-11
8.18943e-11
1.70136e-10
1.94596e-10
2.60598e-10
2.6613e-10
3.21433e-10
3.17042e-10
3.62993e-10
3.43773e-10
3.86285e-10
3.66376e-10
4.08832e-10
3.81349e-10
4.23624e-10
3.95538e-10
4.40054e-10
4.09143e-10
4.53559e-10
4.17439e-10
4.63009e-10
4.26343e-10
4.75239e-10
4.37164e-10
4.86371e-10
4.41683e-10
4.92908e-10
4.50817e-10
5.06126e-10
4.63075e-10
5.19394e-10
4.73018e-10
5.31262e-10
4.86604e-10
5.46729e-10
5.0148e-10
5.56195e-10
5.04667e-10
5.58111e-10
5.17526e-10
5.70822e-10
5.38349e-10
5.88237e-10
5.75221e-10
6.16849e-10
6.27877e-10
6.52614e-10
6.69004e-10
8.39102e-10
1.36103e-09
-1.67759e-09
-3.28236e-10
2.95565e-09
1.4462e-09
-9.47825e-11
-6.64064e-10
-8.09e-10
-6.23652e-10
-3.38659e-10
-1.46751e-10
1.96135e-11
8.60472e-11
1.71572e-10
1.94712e-10
2.60261e-10
2.65474e-10
3.20562e-10
3.16222e-10
3.62269e-10
3.42849e-10
3.85164e-10
3.65451e-10
4.08059e-10
3.80582e-10
4.22708e-10
3.94819e-10
4.39329e-10
4.0861e-10
4.52959e-10
4.1697e-10
4.62308e-10
4.25911e-10
4.74647e-10
4.3692e-10
4.8599e-10
4.41471e-10
4.92228e-10
4.50622e-10
5.05612e-10
4.63032e-10
5.18959e-10
4.72987e-10
5.30701e-10
4.86569e-10
5.46341e-10
5.01656e-10
5.56221e-10
5.04647e-10
5.57951e-10
5.17043e-10
5.71505e-10
5.36887e-10
5.902e-10
5.7133e-10
6.22861e-10
6.17821e-10
6.68622e-10
6.34938e-10
8.8506e-10
1.34565e-09
-1.85431e-09
-1.98157e-11
3.1243e-09
9.49058e-10
-2.50904e-10
-5.05321e-10
-7.24432e-10
-5.99513e-10
-3.27354e-10
-1.35674e-10
2.8418e-11
9.08503e-11
1.73214e-10
1.9493e-10
2.59885e-10
2.64847e-10
3.19617e-10
3.15414e-10
3.61489e-10
3.41976e-10
3.83942e-10
3.64534e-10
4.07203e-10
3.79871e-10
4.21686e-10
3.94129e-10
4.38497e-10
4.08136e-10
4.52253e-10
4.16569e-10
4.6147e-10
4.25533e-10
4.73925e-10
4.36766e-10
4.85494e-10
4.41375e-10
4.91386e-10
4.50512e-10
5.04944e-10
4.631e-10
5.18361e-10
4.73063e-10
5.29956e-10
4.86601e-10
5.45805e-10
5.019e-10
5.56165e-10
5.04639e-10
5.57777e-10
5.16301e-10
5.72398e-10
5.34851e-10
5.92827e-10
5.66128e-10
6.30492e-10
6.05268e-10
6.87844e-10
5.9758e-10
9.34868e-10
1.31871e-09
-2.04279e-09
3.68222e-10
3.29879e-09
3.74544e-10
-4.29375e-10
-3.10211e-10
-6.19665e-10
-5.74577e-10
-3.1786e-10
-1.24487e-10
3.7842e-11
9.6053e-11
1.74839e-10
1.95073e-10
2.59305e-10
2.64136e-10
3.18517e-10
3.14558e-10
3.60583e-10
3.41116e-10
3.82598e-10
3.63613e-10
4.06242e-10
3.79215e-10
4.20558e-10
3.9348e-10
4.37564e-10
4.07734e-10
4.5145e-10
4.16259e-10
4.60515e-10
4.25235e-10
4.73088e-10
4.36728e-10
4.8489e-10
4.41423e-10
4.90406e-10
4.50503e-10
5.04124e-10
4.63295e-10
5.17619e-10
4.7326e-10
5.29053e-10
4.86714e-10
5.45142e-10
5.022e-10
5.5606e-10
5.04622e-10
5.57617e-10
5.153e-10
5.73504e-10
5.32283e-10
5.95995e-10
5.59853e-10
6.39315e-10
5.91105e-10
7.08656e-10
5.601e-10
9.82521e-10
1.28672e-09
-2.23301e-09
8.0342e-10
3.47495e-09
-2.37934e-10
-6.28649e-10
-9.17189e-11
-4.96066e-10
-5.48346e-10
-3.10745e-10
-1.13783e-10
4.75457e-11
1.01443e-10
1.76308e-10
1.9499e-10
2.58436e-10
2.63269e-10
3.17191e-10
3.13577e-10
3.59482e-10
3.40226e-10
3.81107e-10
3.6266e-10
4.05144e-10
3.78596e-10
4.19317e-10
3.92865e-10
4.36522e-10
4.07404e-10
4.50545e-10
4.16042e-10
4.59454e-10
4.25027e-10
4.72146e-10
4.36809e-10
4.8418e-10
4.41622e-10
4.8931e-10
4.50606e-10
5.03179e-10
4.63624e-10
5.16753e-10
4.73579e-10
5.28023e-10
4.86901e-10
5.44377e-10
5.02549e-10
5.55911e-10
5.04592e-10
5.57497e-10
5.14101e-10
5.74752e-10
5.29307e-10
5.99491e-10
5.52973e-10
6.486e-10
5.76654e-10
7.2896e-10
5.26323e-10
1.02206e-09
1.25537e-09
-2.41153e-09
1.24796e-09
3.64437e-09
-8.46172e-10
-8.4394e-10
1.33166e-10
-3.56831e-10
-5.20022e-10
-3.06207e-10
-1.04107e-10
5.72035e-11
1.06866e-10
1.77504e-10
1.94637e-10
2.5722e-10
2.62196e-10
3.15601e-10
3.12432e-10
3.58141e-10
3.39268e-10
3.79455e-10
3.61656e-10
4.03887e-10
3.7799e-10
4.17951e-10
3.92268e-10
4.3536e-10
4.07135e-10
4.49533e-10
4.15909e-10
4.58287e-10
4.24903e-10
4.71104e-10
4.37006e-10
4.83368e-10
4.41963e-10
4.88125e-10
4.50816e-10
5.02125e-10
4.64074e-10
5.1578e-10
4.74005e-10
5.26893e-10
4.87159e-10
5.43525e-10
5.02945e-10
5.5571e-10
5.04579e-10
5.57388e-10
5.12786e-10
5.76011e-10
5.26168e-10
6.03014e-10
5.46053e-10
6.57449e-10
5.63351e-10
7.4658e-10
4.99541e-10
1.04905e-09
1.22824e-09
-2.56215e-09
1.66527e-09
3.79436e-09
-1.40532e-09
-1.06722e-09
3.47366e-10
-2.07477e-10
-4.88758e-10
-3.04073e-10
-9.59672e-11
6.64857e-11
1.12176e-10
1.78391e-10
1.94e-10
2.55649e-10
2.60899e-10
3.1372e-10
3.11108e-10
3.56533e-10
3.38223e-10
3.7763e-10
3.60591e-10
4.02443e-10
3.77379e-10
4.16456e-10
3.91678e-10
4.3407e-10
4.06907e-10
4.48407e-10
4.15851e-10
4.57025e-10
4.24858e-10
4.69965e-10
4.37305e-10
4.82456e-10
4.42429e-10
4.86865e-10
4.51128e-10
5.00978e-10
4.64636e-10
5.14708e-10
4.74538e-10
5.25681e-10
4.87497e-10
5.4258e-10
5.03398e-10
5.55433e-10
5.0462e-10
5.57234e-10
5.11477e-10
5.77124e-10
5.23128e-10
6.0616e-10
5.39752e-10
6.6496e-10
5.52548e-10
7.59697e-10
4.82101e-10
1.06116e-09
1.20684e-09
-2.66896e-09
2.02494e-09
3.9104e-09
-1.87912e-09
-1.28775e-09
5.35499e-10
-5.46561e-11
-4.53691e-10
-3.03724e-10
-8.96921e-11
7.50633e-11
1.17283e-10
1.78987e-10
1.93096e-10
2.53729e-10
2.59374e-10
3.11559e-10
3.09608e-10
3.54666e-10
3.37088e-10
3.75641e-10
3.59463e-10
4.00816e-10
3.76744e-10
4.14835e-10
3.91089e-10
4.3265e-10
4.06705e-10
4.47166e-10
4.15839e-10
4.55671e-10
4.24881e-10
4.68734e-10
4.37685e-10
4.81447e-10
4.43002e-10
4.85541e-10
4.5153e-10
4.99742e-10
4.65288e-10
5.1355e-10
4.75164e-10
5.24393e-10
4.87914e-10
5.41553e-10
5.03915e-10
5.55045e-10
5.04765e-10
5.56973e-10
5.10307e-10
5.77901e-10
5.20511e-10
6.08536e-10
5.34668e-10
6.70346e-10
5.45286e-10
7.6703e-10
4.75238e-10
1.0581e-09
1.19058e-09
-2.7185e-09
2.30502e-09
3.9776e-09
-2.24855e-09
-1.49174e-09
6.86626e-10
9.48273e-11
-4.14174e-10
-3.04209e-10
-8.54968e-11
8.26272e-11
1.22114e-10
1.79325e-10
1.9196e-10
2.51484e-10
2.57634e-10
3.09134e-10
3.07943e-10
3.52554e-10
3.35857e-10
3.73501e-10
3.58276e-10
3.99009e-10
3.76076e-10
4.13097e-10
3.90495e-10
4.31103e-10
4.06529e-10
4.45809e-10
4.15867e-10
4.54236e-10
4.24959e-10
4.67419e-10
4.38131e-10
4.80344e-10
4.43657e-10
4.84167e-10
4.52012e-10
4.98414e-10
4.66018e-10
5.12311e-10
4.75875e-10
5.23037e-10
4.88417e-10
5.40431e-10
5.04513e-10
5.54504e-10
5.05071e-10
5.56513e-10
5.09426e-10
5.78167e-10
5.18568e-10
6.09802e-10
5.31286e-10
6.73049e-10
5.42179e-10
7.68105e-10
4.78908e-10
1.04144e-09
1.17736e-09
-2.70429e-09
2.49435e-09
3.98494e-09
-2.5019e-09
-1.66563e-09
7.94183e-10
2.34457e-10
-3.70056e-10
-3.04475e-10
-8.34366e-11
8.88617e-11
1.26587e-10
1.79447e-10
1.90638e-10
2.48954e-10
2.55701e-10
3.06472e-10
3.06138e-10
3.50212e-10
3.34532e-10
3.71224e-10
3.5704e-10
3.97036e-10
3.7537e-10
4.11248e-10
3.89895e-10
4.29437e-10
4.06356e-10
4.44347e-10
4.15926e-10
4.52729e-10
4.25084e-10
4.6602e-10
4.38627e-10
4.79155e-10
4.44376e-10
4.82754e-10
4.52563e-10
4.97015e-10
4.66811e-10
5.11e-10
4.76663e-10
5.21617e-10
4.89008e-10
5.39192e-10
5.05215e-10
5.53767e-10
5.05592e-10
5.55779e-10
5.0896e-10
5.77778e-10
5.17515e-10
6.09736e-10
5.29904e-10
6.72803e-10
5.43371e-10
7.63125e-10
4.92098e-10
1.01374e-09
1.16404e-09
-2.62462e-09
2.5914e-09
3.92672e-09
-2.63832e-09
-1.79963e-09
8.5594e-10
3.58577e-10
-3.21715e-10
-3.0349e-10
-8.34128e-11
9.35194e-11
1.30605e-10
1.79391e-10
1.89184e-10
2.46173e-10
2.53604e-10
3.036e-10
3.04211e-10
3.47657e-10
3.33126e-10
3.68828e-10
3.55764e-10
3.94911e-10
3.74626e-10
4.09303e-10
3.89292e-10
4.27662e-10
4.06182e-10