/*--------------------------------*- C++ -*----------------------------------*\
| =========                 |                                                 |
| \\      /  F ield         | OpenFOAM: The Open Source CFD Toolbox           |
|  \\    /   O peration     | Version:  2312                                  |
|   \\  /    A nd           | Website:  www.openfoam.com                      |
|    \\/     M anipulation  |                                                 |
\*---------------------------------------------------------------------------*/
FoamFile
{
    version     2.0;
    format      ascii;
    arch        "LSB;label=32;scalar=64";
    class       volScalarField;
    location    "200";
    object      pPrime2Mean;
}
// * * * * * * * * * * * * * * * * * * * * * * * * * * * * * * * * * * * * * //

dimensions      [0 4 -4 0 0 0 0];

internalField   nonuniform List<scalar> 
144000
(
2.29508e-17
1.97213e-17
2.72502e-17
3.02374e-17
2.21037e-17
1.44236e-17
1.13011e-17
9.94543e-18
9.11861e-18
8.48919e-18
8.0247e-18
7.3008e-18
6.76267e-18
6.23576e-18
5.91051e-18
5.56999e-18
5.45207e-18
5.12206e-18
5.00239e-18
4.77454e-18
4.67115e-18
4.4148e-18
4.36838e-18
4.15543e-18
4.17225e-18
3.94894e-18
3.99704e-18
3.80047e-18
3.78548e-18
3.66062e-18
3.63066e-18
3.52293e-18
3.5228e-18
3.35895e-18
3.43045e-18
3.25555e-18
3.28534e-18
3.22429e-18
3.14641e-18
3.12098e-18
3.14982e-18
2.94466e-18
3.15568e-18
2.94148e-18
2.96031e-18
3.06175e-18
2.80701e-18
2.93176e-18
3.13635e-18
2.52354e-18
3.41383e-18
2.92966e-18
2.75128e-18
4.22334e-18
2.90764e-18
3.71701e-18
7.34222e-18
4.09969e-18
1.02801e-17
2.37816e-17
2.41519e-17
2.00793e-17
2.79244e-17
3.07515e-17
2.23295e-17
1.45281e-17
1.1364e-17
9.9878e-18
9.14457e-18
8.50811e-18
8.03982e-18
7.31137e-18
6.76895e-18
6.24122e-18
5.91403e-18
5.57293e-18
5.45559e-18
5.1247e-18
5.004e-18
4.77705e-18
4.67271e-18
4.41644e-18
4.36914e-18
4.157e-18
4.17349e-18
3.94987e-18
3.99807e-18
3.80216e-18
3.7854e-18
3.66256e-18
3.63087e-18
3.52414e-18
3.52414e-18
3.35898e-18
3.43207e-18
3.25683e-18
3.28496e-18
3.22764e-18
3.14599e-18
3.12237e-18
3.15329e-18
2.94374e-18
3.1594e-18
2.94533e-18
2.95914e-18
3.07068e-18
2.80872e-18
2.93428e-18
3.15336e-18
2.52128e-18
3.43184e-18
2.95528e-18
2.75271e-18
4.27934e-18
2.95605e-18
3.7475e-18
7.5204e-18
4.27454e-18
1.07278e-17
2.40101e-17
2.49604e-17
2.0383e-17
2.80008e-17
3.09698e-17
2.22986e-17
1.44848e-17
1.13567e-17
9.99666e-18
9.15486e-18
8.51947e-18
8.05167e-18
7.31967e-18
6.77432e-18
6.24558e-18
5.91733e-18
5.57499e-18
5.46056e-18
5.12716e-18
5.00621e-18
4.77979e-18
4.67518e-18
4.41774e-18
4.37069e-18
4.15808e-18
4.17605e-18
3.95015e-18
4.00043e-18
3.80383e-18
3.7858e-18
3.66481e-18
3.63156e-18
3.52533e-18
3.52678e-18
3.35839e-18
3.4352e-18
3.25817e-18
3.28503e-18
3.23236e-18
3.14608e-18
3.12402e-18
3.15955e-18
2.94159e-18
3.16639e-18
2.95055e-18
2.95873e-18
3.08416e-18
2.81232e-18
2.93831e-18
3.17906e-18
2.51997e-18
3.45578e-18
2.99526e-18
2.75484e-18
4.34709e-18
3.03114e-18
3.75431e-18
7.67648e-18
4.47578e-18
1.10341e-17
2.43436e-17
2.47402e-17
1.98764e-17
2.70713e-17
3.03973e-17
2.18234e-17
1.41834e-17
1.12088e-17
9.92632e-18
9.12089e-18
8.50234e-18
8.04359e-18
7.31434e-18
6.77047e-18
6.24344e-18
5.9157e-18
5.57348e-18
5.46356e-18
5.1278e-18
5.0069e-18
4.78167e-18
4.67686e-18
4.41844e-18
4.37164e-18
4.15868e-18
4.17852e-18
3.95006e-18
4.00298e-18
3.8055e-18
3.78584e-18
3.66744e-18
3.6321e-18
3.52665e-18
3.53004e-18
3.35754e-18
3.43889e-18
3.25977e-18
3.28496e-18
3.23824e-18
3.14634e-18
3.12586e-18
3.16759e-18
2.93868e-18
3.17528e-18
2.95699e-18
2.95857e-18
3.10032e-18
2.81731e-18
2.94254e-18
3.20863e-18
2.52134e-18
3.47546e-18
3.04661e-18
2.74916e-18
4.39991e-18
3.12514e-18
3.68286e-18
7.76781e-18
4.60078e-18
1.07329e-17
2.41577e-17
2.35167e-17
1.8468e-17
2.52384e-17
2.89676e-17
2.09105e-17
1.3636e-17
1.09234e-17
9.77441e-18
9.03305e-18
8.44492e-18
8.00494e-18
7.28741e-18
6.7513e-18
6.23006e-18
5.90544e-18
5.56561e-18
5.46161e-18
5.1244e-18
5.00416e-18
4.78116e-18
4.67638e-18
4.41777e-18
4.37091e-18
4.15819e-18
4.18003e-18
3.94925e-18
4.00502e-18
3.80682e-18
3.78515e-18
3.67003e-18
3.6321e-18
3.52782e-18
3.53348e-18
3.35645e-18
3.44251e-18
3.26161e-18
3.28448e-18
3.24484e-18
3.14669e-18
3.12761e-18
3.17646e-18
2.93542e-18
3.18471e-18
2.96429e-18
2.95832e-18
3.11724e-18
2.82319e-18
2.94568e-18
3.23862e-18
2.52445e-18
3.48677e-18
3.10249e-18
2.73439e-18
4.42789e-18
3.22699e-18
3.53307e-18
7.81527e-18
4.63069e-18
9.93216e-18
2.34628e-17
2.18266e-17
1.68044e-17
2.29985e-17
2.71449e-17
1.98086e-17
1.29664e-17
1.05515e-17
9.5664e-18
8.90278e-18
8.35198e-18
7.93587e-18
7.23806e-18
6.71506e-18
6.2037e-18
5.88515e-18
5.54994e-18
5.45302e-18
5.11573e-18
4.99688e-18
4.77701e-18
4.67267e-18
4.41509e-18
4.36788e-18
4.15591e-18
4.17996e-18
3.94728e-18
4.00597e-18
3.80732e-18
3.78345e-18
3.67213e-18
3.63138e-18
3.52856e-18
3.53666e-18
3.35514e-18
3.44549e-18
3.26355e-18
3.28342e-18
3.25159e-18
3.14705e-18
3.12897e-18
3.18537e-18
2.93199e-18
3.1937e-18
2.97199e-18
2.95749e-18
3.1337e-18
2.82905e-18
2.94707e-18
3.26639e-18
2.52756e-18
3.49062e-18
3.15446e-18
2.71536e-18
4.43061e-18
3.32647e-18
3.34235e-18
7.83579e-18
4.59977e-18
9.03527e-18
2.27528e-17
2.01397e-17
1.55506e-17
2.08086e-17
2.52863e-17
1.86767e-17
1.22596e-17
1.01404e-17
9.32428e-18
8.74276e-18
8.23184e-18
7.84305e-18
7.16946e-18
6.66357e-18
6.16525e-18
5.85525e-18
5.52664e-18
5.43738e-18
5.10144e-18
4.98473e-18
4.76871e-18
4.66516e-18
4.40999e-18
4.36212e-18
4.15152e-18
4.17791e-18
3.94394e-18
4.00538e-18
3.80672e-18
3.78055e-18
3.6734e-18
3.62972e-18
3.52864e-18
3.5392e-18
3.35356e-18
3.44745e-18
3.26541e-18
3.28165e-18
3.25804e-18
3.14728e-18
3.12973e-18
3.19361e-18
2.92856e-18
3.20142e-18
2.97962e-18
2.95592e-18
3.14858e-18
2.83421e-18
2.9467e-18
3.29035e-18
2.52993e-18
3.48916e-18
3.19737e-18
2.6977e-18
4.41144e-18
3.41581e-18
3.14625e-18
7.82502e-18
4.51618e-18
8.31404e-18
2.23748e-17
1.86325e-17
1.50144e-17
1.88292e-17
2.35637e-17
1.75809e-17
1.15576e-17
9.70883e-18
9.05993e-18
8.56235e-18
8.09341e-18
7.73278e-18
7.08651e-18
6.59999e-18
6.11662e-18
5.81683e-18
5.49638e-18
5.41522e-18
5.08208e-18
4.96806e-18
4.75637e-18
4.65386e-18
4.4024e-18
4.35361e-18
4.14491e-18
4.17373e-18
3.93922e-18
4.00296e-18
3.8049e-18
3.7763e-18
3.67364e-18
3.62699e-18
3.52796e-18
3.54078e-18
3.35173e-18
3.44812e-18
3.26699e-18
3.27915e-18
3.26375e-18
3.14727e-18
3.12983e-18
3.20066e-18
2.92529e-18
3.20743e-18
2.9867e-18
2.95375e-18
3.16127e-18
2.83842e-18
2.94487e-18
3.30973e-18
2.53136e-18
3.48437e-18
3.22922e-18
2.68423e-18
4.37532e-18
3.49264e-18
2.9594e-18
7.7785e-18
4.39049e-18
7.83922e-18
2.24211e-17
1.73955e-17
1.52623e-17
1.70875e-17
2.20444e-17
1.65373e-17
1.0874e-17
9.26718e-18
8.78027e-18
8.36754e-18
7.9417e-18
7.61006e-18
6.99312e-18
6.52728e-18
6.05996e-18
5.77112e-18
5.46011e-18
5.38723e-18
5.05839e-18
4.94754e-18
4.74046e-18
4.63915e-18
4.3925e-18
4.34259e-18
4.13619e-18
4.16744e-18
3.93331e-18
3.99865e-18
3.80192e-18
3.77077e-18
3.6728e-18
3.62319e-18
3.52653e-18
3.54124e-18
3.3497e-18
3.44745e-18
3.26818e-18
3.276e-18
3.26853e-18
3.14698e-18
3.12933e-18
3.20624e-18
2.92235e-18
3.21171e-18
2.99294e-18
2.95129e-18
3.17158e-18
2.84167e-18
2.94224e-18
3.3247e-18
2.53206e-18
3.47794e-18
3.25074e-18
2.67567e-18
4.32831e-18
3.55678e-18
2.79008e-18
7.70281e-18
4.24742e-18
7.61544e-18
2.28113e-17
1.64956e-17
1.61673e-17
1.55816e-17
2.07307e-17
1.55597e-17
1.02176e-17
8.82329e-18
8.49069e-18
8.163e-18
7.78083e-18
7.47836e-18
6.89249e-18
6.44815e-18
5.99717e-18
5.71962e-18
5.41887e-18
5.35417e-18
5.03117e-18
4.92387e-18
4.72162e-18
4.62163e-18
4.3806e-18
4.32942e-18
4.12561e-18
4.15913e-18
3.92649e-18
3.9925e-18
3.79796e-18
3.76414e-18
3.67094e-18
3.61843e-18
3.52441e-18
3.54055e-18
3.34758e-18
3.44553e-18
3.26894e-18
3.27236e-18
3.27231e-18
3.14647e-18
3.12838e-18
3.21033e-18
2.91987e-18
3.21448e-18
2.99833e-18
2.94877e-18
3.17985e-18
2.84416e-18
2.93917e-18
3.33605e-18
2.53228e-18
3.47069e-18
3.26406e-18
2.67118e-18
4.2747e-18
3.60837e-18
2.64464e-18
7.59668e-18
4.11374e-18
7.6079e-18
2.33446e-17
1.59583e-17
1.74222e-17
1.4312e-17
1.96016e-17
1.46574e-17
9.59606e-18
8.38509e-18
8.19598e-18
7.95283e-18
7.61401e-18
7.34024e-18
6.78667e-18
6.36471e-18
5.93026e-18
5.66394e-18
5.37377e-18
5.31681e-18
5.00101e-18
4.89772e-18
4.70048e-18
4.602e-18
4.36711e-18
4.31455e-18
4.11354e-18
4.14896e-18
3.91909e-18
3.98467e-18
3.79321e-18
3.75667e-18
3.66817e-18
3.61286e-18
3.52174e-18
3.53875e-18
3.34544e-18
3.44255e-18
3.26929e-18
3.26841e-18
3.27518e-18
3.14578e-18
3.12709e-18
3.21311e-18
2.91796e-18
3.21593e-18
3.00308e-18
2.94622e-18
3.18648e-18
2.84621e-18
2.93557e-18
3.34464e-18
2.53229e-18
3.46211e-18
3.27167e-18
2.66879e-18
4.21651e-18
3.64737e-18
2.52199e-18
7.45355e-18
4.00325e-18
7.74371e-18
2.37632e-17
1.57297e-17
1.85669e-17
1.32702e-17
1.85855e-17
1.38388e-17
9.01649e-18
7.96031e-18
7.9008e-18
7.74101e-18
7.44412e-18
7.19771e-18
6.67728e-18
6.2787e-18
5.86104e-18
5.60572e-18
5.32605e-18
5.27595e-18
4.96849e-18
4.86952e-18
4.67757e-18
4.58082e-18
4.35248e-18
4.29844e-18
4.10043e-18
4.1371e-18
3.91132e-18
3.97539e-18
3.78783e-18
3.74864e-18
3.66471e-18
3.60667e-18
3.51865e-18
3.53598e-18
3.34333e-18
3.43868e-18
3.26933e-18
3.26426e-18
3.2772e-18
3.14501e-18
3.12553e-18
3.21472e-18
2.91667e-18
3.21604e-18
3.00744e-18
2.94346e-18
3.19153e-18
2.84812e-18
2.93089e-18
3.35073e-18
2.53235e-18
3.4505e-18
3.27545e-18
2.666e-18
4.15365e-18
3.67266e-18
2.41898e-18
7.26471e-18
3.92253e-18
7.90565e-18
2.37921e-17
1.57025e-17
1.92027e-17
1.2427e-17
1.76047e-17
1.31057e-17
8.48424e-18
7.5559e-18
7.60928e-18
7.53077e-18
7.27402e-18
7.0527e-18
6.5657e-18
6.19139e-18
5.7909e-18
5.54635e-18
5.27698e-18
5.23255e-18
4.93429e-18
4.83976e-18
4.65323e-18
4.55864e-18
4.33713e-18
4.28151e-18
4.08675e-18
4.12379e-18
3.90338e-18
3.96488e-18
3.78191e-18
3.74028e-18
3.66073e-18
3.60005e-18
3.51525e-18
3.53238e-18
3.34132e-18
3.43403e-18
3.26913e-18
3.25996e-18
3.27843e-18
3.14426e-18
3.12363e-18
3.21523e-18
2.91604e-18
3.21465e-18
3.01153e-18
2.94026e-18
3.1947e-18
2.85007e-18
2.92458e-18
3.3538e-18
2.53279e-18
3.43379e-18
3.27601e-18
2.66071e-18
4.08549e-18
3.68195e-18
2.33326e-18
7.02551e-18
3.87025e-18
7.9764e-18
2.32348e-17
1.57151e-17
1.90866e-17
1.17264e-17
1.65931e-17
1.24498e-17
8.00302e-18
7.17778e-18
7.32519e-18
7.32483e-18
7.10644e-18
6.90726e-18
6.45327e-18
6.10377e-18
5.72085e-18
5.48704e-18
5.22774e-18
5.18764e-18
4.89897e-18
4.80889e-18
4.62778e-18
4.5358e-18
4.3214e-18
4.26412e-18
4.07292e-18
4.10933e-18
3.89548e-18
3.95334e-18
3.77554e-18
3.73175e-18
3.65635e-18
3.59316e-18
3.51164e-18
3.52809e-18
3.33942e-18
3.42865e-18
3.26871e-18
3.25559e-18
3.27881e-18
3.14354e-18
3.12135e-18
3.21457e-18
2.91608e-18
3.21148e-18
3.01529e-18
2.93649e-18
3.19558e-18
2.852e-18
2.91631e-18
3.35306e-18
2.5339e-18
3.41064e-18
3.27343e-18
2.65171e-18
4.01177e-18
3.67393e-18
2.26365e-18
6.74063e-18
3.84001e-18
7.87435e-18
2.20367e-17
1.56163e-17
1.81418e-17
1.1099e-17
1.55137e-17
1.18585e-17
7.57487e-18
6.83039e-18
7.0515e-18
7.1253e-18
6.94363e-18
6.76343e-18
6.34129e-18
6.01667e-18
5.65158e-18
5.42858e-18
5.17927e-18
5.14206e-18
4.86316e-18
4.77735e-18
4.6015e-18
4.51253e-18
4.30557e-18
4.24653e-18
4.05927e-18
4.09405e-18
3.88772e-18
3.94103e-18
3.76872e-18
3.72322e-18
3.65166e-18
3.58608e-18
3.50797e-18
3.52322e-18
3.33768e-18
3.42262e-18
3.26806e-18
3.25114e-18
3.2783e-18
3.14285e-18
3.11875e-18
3.21265e-18
2.91681e-18
3.20643e-18
3.01856e-18
2.93217e-18
3.19392e-18
2.85367e-18
2.90628e-18
3.34791e-18
2.53598e-18
3.38079e-18
3.26779e-18
2.63871e-18
3.93355e-18
3.64867e-18
2.21008e-18
6.41953e-18
3.82391e-18
7.56071e-18
2.02719e-17
1.52908e-17
1.6471e-17
1.04814e-17
1.43613e-17
1.13131e-17
7.20041e-18
6.51662e-18
6.79051e-18
6.93319e-18
6.78716e-18
6.62292e-18
6.23096e-18
5.93072e-18
5.58353e-18
5.37142e-18
5.13221e-18
5.09651e-18
4.82749e-18
4.74562e-18
4.57472e-18
4.48899e-18
4.28981e-18
4.2289e-18
4.04607e-18
4.07826e-18
3.88022e-18
3.92817e-18
3.7615e-18
3.71478e-18
3.64671e-18
3.57888e-18
3.50434e-18
3.51788e-18
3.33613e-18
3.41604e-18
3.26714e-18
3.2467e-18
3.2769e-18
3.14213e-18
3.11594e-18
3.2094e-18
2.91826e-18
3.19962e-18
3.02116e-18
2.92743e-18
3.18981e-18
2.85485e-18
2.89509e-18
3.3382e-18
2.53929e-18
3.34495e-18
3.25939e-18
2.62226e-18
3.85301e-18
3.60796e-18
2.17298e-18
6.07569e-18
3.81243e-18
7.04434e-18
1.81012e-17
1.46646e-17
1.42904e-17
9.82032e-18
1.31584e-17
1.07943e-17
6.87803e-18
6.23745e-18
6.54388e-18
6.74891e-18
6.63787e-18
6.48711e-18
6.12333e-18
5.8465e-18
5.51702e-18
5.31589e-18
5.08692e-18
5.05159e-18
4.79242e-18
4.71412e-18
4.54776e-18
4.46533e-18
4.27425e-18
4.21136e-18
4.03345e-18
4.06222e-18
3.87308e-18
3.91504e-18
3.75396e-18
3.70653e-18
3.64155e-18
3.57161e-18
3.50086e-18
3.51216e-18
3.33483e-18
3.4091e-18
3.26596e-18
3.24233e-18
3.27471e-18
3.1413e-18
3.1131e-18
3.20489e-18
2.9204e-18
3.19134e-18
3.02304e-18
2.92248e-18
3.18364e-18
2.85534e-18
2.88346e-18
3.32429e-18
2.544e-18
3.30461e-18
3.24887e-18
2.60337e-18
3.77285e-18
3.55488e-18
2.15287e-18
5.72349e-18
3.79724e-18
6.36838e-18
1.57375e-17
1.37298e-17
1.18662e-17
9.08705e-18
1.19434e-17
1.02861e-17
6.60413e-18
5.99253e-18
6.31283e-18
6.57246e-18
6.49604e-18
6.35691e-18
6.01927e-18
5.76449e-18
5.45229e-18
5.26207e-18
5.04358e-18
5.00763e-18
4.75831e-18
4.68323e-18
4.52094e-18
4.44169e-18
4.25901e-18
4.19397e-18
4.02145e-18
4.04616e-18
3.86636e-18
3.90187e-18
3.74617e-18
3.69856e-18
3.63625e-18
3.56426e-18
3.49761e-18
3.50614e-18
3.33377e-18
3.40195e-18
3.26452e-18
3.23807e-18
3.27189e-18
3.14029e-18
3.11039e-18
3.19926e-18
2.92319e-18
3.18203e-18
3.02421e-18
2.91749e-18
3.17598e-18
2.85503e-18
2.87214e-18
3.30687e-18
2.55017e-18
3.2615e-18
3.23694e-18
2.58329e-18
3.69555e-18
3.49313e-18
2.14909e-18
5.37618e-18
3.77267e-18
5.59955e-18
1.33709e-17
1.25255e-17
9.46667e-18
8.27794e-18
1.07586e-17
9.7773e-18
6.37365e-18
5.78043e-18
6.09809e-18
6.40362e-18
6.36149e-18
6.23284e-18
5.91943e-18
5.68508e-18
5.38946e-18
5.20997e-18
5.00223e-18
4.96492e-18
4.72532e-18
4.6532e-18
4.49451e-18
4.41821e-18
4.24418e-18
4.17679e-18
4.01007e-18
4.03023e-18
3.86005e-18
3.88884e-18
3.73824e-18
3.69092e-18
3.63089e-18
3.55685e-18
3.49463e-18
3.49992e-18
3.33297e-18
3.39479e-18
3.2629e-18
3.23398e-18
3.26865e-18
3.13906e-18
3.10796e-18
3.19274e-18
2.92656e-18
3.17211e-18
3.0248e-18
2.91263e-18
3.16747e-18
2.85393e-18
2.86169e-18
3.28684e-18
2.55773e-18
3.21729e-18
3.22429e-18
2.56322e-18
3.62306e-18
3.42644e-18
2.15999e-18
5.04391e-18
3.73503e-18
4.81186e-18
1.11578e-17
1.11315e-17
7.29534e-18
7.41387e-18
9.64166e-18
9.26213e-18
6.18027e-18
5.599e-18
5.9e-18
6.24212e-18
6.23372e-18
6.11502e-18
5.82416e-18
5.6085e-18
5.32862e-18
5.15956e-18
4.96282e-18
4.92354e-18
4.69358e-18
4.62421e-18
4.46871e-18
4.395e-18
4.22982e-18
4.15986e-18
3.99928e-18
4.01458e-18
3.85414e-18
3.8761e-18
3.73027e-18
3.68367e-18
3.62556e-18
3.5494e-18
3.49196e-18
3.49361e-18
3.33243e-18
3.38775e-18
3.26115e-18
3.23009e-18
3.26519e-18
3.13761e-18
3.10591e-18
3.18559e-18
2.93043e-18
3.16193e-18
3.02494e-18
2.90801e-18
3.15865e-18
2.85211e-18
2.85248e-18
3.26511e-18
2.56649e-18
3.17351e-18
3.21144e-18
2.54424e-18
3.55655e-18
3.35799e-18
2.18311e-18
4.73397e-18
3.68264e-18
4.07189e-18
9.20065e-18
9.63797e-18
5.48026e-18
6.53062e-18
8.62323e-18
8.74078e-18
6.01717e-18
5.44547e-18
5.71847e-18
6.08768e-18
6.11205e-18
6.00329e-18
5.73363e-18
5.53487e-18
5.26979e-18
5.11076e-18
4.92522e-18
4.88354e-18
4.66311e-18
4.59631e-18
4.44367e-18
4.37217e-18
4.21599e-18
4.14322e-18
3.98901e-18
3.99928e-18
3.84859e-18
3.86375e-18
3.72236e-18
3.67684e-18
3.62032e-18
3.54196e-18
3.4896e-18
3.48729e-18
3.33212e-18
3.38093e-18
3.25935e-18
3.22641e-18
3.26168e-18
3.13598e-18
3.10429e-18
3.17802e-18
2.93472e-18
3.15181e-18
3.02477e-18
2.90371e-18
3.14998e-18
2.84969e-18
2.84472e-18
3.24252e-18
2.5762e-18
3.13135e-18
3.19875e-18
2.5272e-18
3.49642e-18
3.29033e-18
2.21559e-18
4.45055e-18
3.61631e-18
3.42713e-18
7.54955e-18
8.13927e-18
4.07959e-18
5.67561e-18
7.71593e-18
8.21839e-18
5.8776e-18
5.31683e-18
5.55312e-18
5.94017e-18
5.99578e-18
5.89728e-18
5.64782e-18
5.46424e-18
5.21294e-18
5.06353e-18
4.8893e-18
4.84492e-18
4.6339e-18
4.56955e-18
4.41948e-18
4.3498e-18
4.2027e-18
4.12694e-18
3.9792e-18
3.98439e-18
3.84337e-18
3.85185e-18
3.71458e-18
3.67045e-18
3.61525e-18
3.53456e-18
3.48752e-18
3.48104e-18
3.33203e-18
3.3744e-18
3.25755e-18
3.22298e-18
3.25826e-18
3.1342e-18
3.10309e-18
3.17025e-18
2.93934e-18
3.14196e-18
3.02441e-18
2.89982e-18
3.14175e-18
2.84682e-18
2.83844e-18
3.21979e-18
2.58654e-18
3.09171e-18
3.18638e-18
2.51274e-18
3.44261e-18
3.22542e-18
2.25447e-18
4.19563e-18
3.53816e-18
2.90867e-18
6.21101e-18
6.71952e-18
3.10139e-18
4.89855e-18
6.92588e-18
7.70405e-18
5.75567e-18
5.21011e-18
5.40342e-18
5.79961e-18
5.88436e-18
5.79657e-18
5.56661e-18
5.39661e-18
5.15804e-18
5.01778e-18
4.8549e-18
4.80763e-18
4.60591e-18
4.54389e-18
4.39618e-18
4.32793e-18
4.18998e-18
4.11103e-18
3.96977e-18
3.96997e-18
3.83843e-18
3.84042e-18
3.707e-18
3.66451e-18
3.61039e-18
3.52724e-18
3.48571e-18
3.47492e-18
3.33214e-18
3.36819e-18
3.2558e-18
3.21979e-18
3.25503e-18
3.13232e-18
3.10232e-18
3.16246e-18
2.94422e-18
3.13255e-18
3.02392e-18
2.89638e-18
3.13416e-18
2.84367e-18
2.8336e-18
3.19751e-18
2.5972e-18
3.05522e-18
3.1743e-18
2.50122e-18
3.39469e-18
3.16463e-18
2.29712e-18
3.96959e-18
3.45055e-18
2.53058e-18
5.16674e-18
5.44967e-18
2.50715e-18
4.24611e-18
6.25029e-18
7.20808e-18
5.64704e-18
5.12275e-18
5.26879e-18
5.66618e-18
5.77733e-18
5.70071e-18
5.48978e-18
5.33188e-18
5.10499e-18
4.97347e-18
4.82188e-18
4.77161e-18
4.5791e-18
4.51931e-18
4.37376e-18
4.3066e-18
4.17781e-18
4.09554e-18
3.96068e-18
3.95603e-18
3.83372e-18
3.82945e-18
3.69965e-18
3.65903e-18
3.60577e-18
3.52004e-18
3.48414e-18
3.46896e-18
3.33244e-18
3.36234e-18
3.25411e-18
3.21687e-18
3.25203e-18
3.13038e-18
3.10194e-18
3.15479e-18
2.94928e-18
3.12368e-18
3.02332e-18
2.89345e-18
3.12731e-18
2.84037e-18
2.83008e-18
3.17611e-18
2.60788e-18
3.02232e-18
3.16241e-18
2.49286e-18
3.35213e-18
3.10878e-18
2.34133e-18
3.77181e-18
3.35495e-18
2.29393e-18
4.37894e-18
4.38496e-18
2.22024e-18
3.75495e-18
5.68091e-18
6.73902e-18
5.5484e-18
5.05241e-18
5.14857e-18
5.53999e-18
5.67429e-18
5.6092e-18
5.41707e-18
5.26992e-18
5.05369e-18
4.93048e-18
4.79005e-18
4.73677e-18
4.55341e-18
4.49575e-18
4.35217e-18
4.28582e-18
4.16617e-18
4.08046e-18
3.95186e-18
3.94257e-18
3.8292e-18
3.81892e-18
3.69256e-18
3.65401e-18
3.60139e-18
3.51297e-18
3.48277e-18
3.46319e-18
3.33292e-18
3.35683e-18
3.25249e-18
3.21421e-18
3.2493e-18
3.12844e-18
3.10192e-18
3.14735e-18
2.95448e-18
3.11544e-18
3.02263e-18
2.89108e-18
3.12124e-18
2.83706e-18
2.82773e-18
3.15592e-18
2.61834e-18
2.99323e-18
3.15062e-18
2.48772e-18
3.31436e-18
3.05844e-18
2.38533e-18
3.60121e-18
3.25267e-18
2.18946e-18
3.79983e-18
2.30668e-17
1.97717e-17
2.72928e-17
3.02981e-17
2.21511e-17
1.44462e-17
1.13141e-17
9.95617e-18
9.12819e-18
8.49597e-18
8.02895e-18
7.30352e-18
6.76409e-18
6.23605e-18
5.91002e-18
5.56905e-18
5.45152e-18
5.12236e-18
5.00309e-18
4.77537e-18
4.67203e-18
4.41579e-18
4.36936e-18
4.15606e-18
4.17291e-18
3.94917e-18
3.99743e-18
3.8008e-18
3.7858e-18
3.66064e-18
3.63066e-18
3.52261e-18
3.52241e-18
3.35825e-18
3.42978e-18
3.25489e-18
3.28485e-18
3.22374e-18
3.14596e-18
3.12057e-18
3.14962e-18
2.94418e-18
3.15578e-18
2.9408e-18
2.95989e-18
3.06114e-18
2.8061e-18
2.93089e-18
3.13668e-18
2.52149e-18
3.41582e-18
2.92928e-18
2.75114e-18
4.22855e-18
2.91344e-18
3.7157e-18
7.37541e-18
4.11162e-18
1.02891e-17
2.38956e-17
2.42753e-17
2.01297e-17
2.79633e-17
3.08146e-17
2.23759e-17
1.45501e-17
1.13766e-17
9.99852e-18
9.15405e-18
8.51475e-18
8.04396e-18
7.31398e-18
6.7703e-18
6.24142e-18
5.91346e-18
5.57189e-18
5.455e-18
5.12497e-18
5.00469e-18
4.77785e-18
4.67359e-18
4.41743e-18
4.37012e-18
4.15761e-18
4.17414e-18
3.95009e-18
3.99847e-18
3.80251e-18
3.78574e-18
3.66258e-18
3.63088e-18
3.52381e-18
3.52375e-18
3.35828e-18
3.4314e-18
3.25617e-18
3.28446e-18
3.22709e-18
3.14555e-18
3.12197e-18
3.1531e-18
2.94325e-18
3.15951e-18
2.94464e-18
2.95871e-18
3.07008e-18
2.80779e-18
2.9334e-18
3.15373e-18
2.51917e-18
3.43386e-18
2.955e-18
2.75246e-18
4.28466e-18
2.96208e-18
3.74599e-18
7.55421e-18
4.28835e-18
1.07377e-17
2.41241e-17
2.50785e-17
2.04521e-17
2.80385e-17
3.10367e-17
2.23435e-17
1.45051e-17
1.1369e-17
1.00067e-17
9.16434e-18
8.52604e-18
8.05569e-18
7.32213e-18
6.77553e-18
6.24565e-18
5.91664e-18
5.57382e-18
5.45988e-18
5.12738e-18
5.00687e-18
4.78055e-18
4.67605e-18
4.41872e-18
4.37168e-18
4.15867e-18
4.1767e-18
3.95035e-18
4.00084e-18
3.8042e-18
3.78617e-18
3.66484e-18
3.63158e-18
3.52501e-18
3.5264e-18
3.3577e-18
3.43453e-18
3.2575e-18
3.28454e-18
3.23181e-18
3.14564e-18
3.12362e-18
3.15938e-18
2.94109e-18
3.16652e-18
2.94984e-18
2.9583e-18
3.08358e-18
2.81138e-18
2.9374e-18
3.17946e-18
2.5178e-18
3.45783e-18
2.99506e-18
2.75447e-18
4.35267e-18
3.0374e-18
3.75254e-18
7.71144e-18
4.49129e-18
1.10426e-17
2.44732e-17
2.48499e-17
1.99611e-17
2.71101e-17
3.04647e-17
2.18656e-17
1.4201e-17
1.12208e-17
9.93703e-18
9.1305e-18
8.50892e-18
8.04746e-18
7.31659e-18
6.77148e-18
6.2433e-18
5.91483e-18
5.57211e-18
5.46273e-18
5.12793e-18
5.00753e-18
4.78237e-18
4.6777e-18
4.41941e-18
4.37263e-18
4.15925e-18
4.17917e-18
3.95021e-18
4.00339e-18
3.8059e-18
3.78625e-18
3.66749e-18
3.63214e-18
3.52632e-18
3.52968e-18
3.35685e-18
3.43823e-18
3.2591e-18
3.28447e-18
3.23769e-18
3.1459e-18
3.12547e-18
3.16745e-18
2.93817e-18
3.17544e-18
2.95627e-18
2.95813e-18
3.09975e-18
2.81635e-18
2.94162e-18
3.20904e-18
2.51916e-18
3.47749e-18
3.0465e-18
2.74869e-18
4.4055e-18
3.13146e-18
3.68057e-18
7.80229e-18
4.61693e-18
1.07462e-17
2.42965e-17
2.36245e-17
1.8561e-17
2.52646e-17
2.90257e-17
2.09489e-17
1.36513e-17
1.09338e-17
9.78538e-18
9.04313e-18
8.45152e-18
8.00861e-18
7.28933e-18
6.75204e-18
6.22968e-18
5.90436e-18
5.56398e-18
5.46056e-18
5.12439e-18
5.00471e-18
4.78176e-18
4.67716e-18
4.41873e-18
4.37191e-18
4.15874e-18
4.18066e-18
3.94936e-18
4.00541e-18
3.80724e-18
3.7856e-18
3.67011e-18
3.63218e-18
3.5275e-18
3.53312e-18
3.35578e-18
3.44187e-18
3.26094e-18
3.284e-18
3.24427e-18
3.14624e-18
3.12722e-18
3.17635e-18
2.93492e-18
3.1849e-18
2.96356e-18
2.95787e-18
3.11668e-18
2.82223e-18
2.94472e-18
3.23902e-18
2.52235e-18
3.48869e-18
3.10244e-18
2.73406e-18
4.43314e-18
3.23355e-18
3.52967e-18
7.84778e-18
4.64742e-18
9.95154e-18
2.35977e-17
2.19317e-17
1.68839e-17
2.30273e-17
2.71931e-17
1.98402e-17
1.2978e-17
1.05613e-17
9.57788e-18
8.91334e-18
8.35881e-18
7.93945e-18
7.2396e-18
6.71553e-18
6.20306e-18
5.88384e-18
5.54804e-18
5.45171e-18
5.11555e-18
4.99735e-18
4.77751e-18
4.67335e-18
4.41601e-18
4.36889e-18
4.15644e-18
4.18058e-18
3.94734e-18
4.00632e-18
3.80775e-18
3.78395e-18
3.67224e-18
3.63149e-18
3.52825e-18
3.53631e-18
3.35447e-18
3.44487e-18
3.26289e-18
3.28295e-18
3.25102e-18
3.14659e-18
3.12859e-18
3.18529e-18
2.9315e-18
3.19392e-18
2.97127e-18
2.95703e-18
3.13314e-18
2.8281e-18
2.9461e-18
3.26675e-18
2.52556e-18
3.49242e-18
3.15446e-18
2.71514e-18
4.43548e-18
3.33324e-18
3.34051e-18
7.86586e-18
4.61742e-18
9.06222e-18
2.2876e-17
2.02431e-17
1.56185e-17
2.08332e-17
2.5322e-17
1.87021e-17
1.2269e-17
1.01498e-17
9.33627e-18
8.754e-18
8.23896e-18
7.84628e-18
7.17074e-18
6.66374e-18
6.16435e-18
5.85374e-18
5.52448e-18
5.4358e-18
5.10107e-18
4.98509e-18
4.76909e-18
4.66574e-18
4.41086e-18
4.36314e-18
4.15203e-18
4.17851e-18
3.94395e-18
4.00567e-18
3.80715e-18
3.78108e-18
3.67355e-18
3.62985e-18
3.52835e-18
3.53885e-18
3.35289e-18
3.44684e-18
3.26475e-18
3.28119e-18
3.25745e-18
3.1468e-18
3.12936e-18
3.19357e-18
2.9281e-18
3.20167e-18
2.97892e-18
2.95544e-18
3.14803e-18
2.83329e-18
2.94575e-18
3.29066e-18
2.52803e-18
3.49078e-18
3.19736e-18
2.69755e-18
4.41583e-18
3.4226e-18
3.14489e-18
7.8527e-18
4.53367e-18
8.34885e-18
2.2485e-17
1.87327e-17
1.50739e-17
1.88499e-17
2.35904e-17
1.76018e-17
1.15653e-17
9.71775e-18
9.07236e-18
8.57406e-18
8.10058e-18
7.73588e-18
7.08752e-18
6.59985e-18
6.11552e-18
5.81513e-18
5.494e-18
5.41339e-18
5.08151e-18
4.9683e-18
4.75661e-18
4.65433e-18
4.40322e-18
4.35463e-18
4.14541e-18
4.17431e-18
3.93918e-18
4.00319e-18
3.80533e-18
3.77687e-18
3.67383e-18
3.62716e-18
3.52768e-18
3.54043e-18
3.35107e-18
3.44753e-18
3.26634e-18
3.2787e-18
3.26315e-18
3.14677e-18
3.12946e-18
3.20066e-18
2.92486e-18
3.20772e-18
2.98604e-18
2.95326e-18
3.16074e-18
2.83752e-18
2.94392e-18
3.30998e-18
2.52957e-18
3.48581e-18
3.22923e-18
2.68413e-18
4.3793e-18
3.49928e-18
2.95857e-18
7.80321e-18
4.40725e-18
7.88041e-18
2.2521e-17
1.74919e-17
1.53183e-17
1.71063e-17
2.20647e-17
1.65546e-17
1.08805e-17
9.27589e-18
8.79306e-18
8.37959e-18
7.94898e-18
7.61315e-18
6.99397e-18
6.52697e-18
6.05869e-18
5.76928e-18
5.45753e-18
5.38518e-18
5.05765e-18
4.94766e-18
4.74057e-18
4.63951e-18
4.39325e-18
4.3436e-18
4.13669e-18
4.16799e-18
3.93321e-18
3.9988e-18
3.80234e-18
3.77136e-18
3.67303e-18
3.62339e-18
3.52626e-18
3.5409e-18
3.34905e-18
3.44687e-18
3.26754e-18
3.27556e-18
3.26792e-18
3.14647e-18
3.12896e-18
3.20627e-18
2.92196e-18
3.21203e-18
2.99232e-18
2.95079e-18
3.17106e-18
2.84079e-18
2.94129e-18
3.32487e-18
2.53037e-18
3.4792e-18
3.25073e-18
2.67552e-18
4.33191e-18
3.56315e-18
2.78986e-18
7.72528e-18
4.263e-18
7.66106e-18
2.29028e-17
1.65879e-17
1.62233e-17
1.55996e-17
2.0746e-17
1.55735e-17
1.0223e-17
8.83174e-18
8.50368e-18
8.17533e-18
7.78827e-18
7.48146e-18
6.89318e-18
6.44769e-18
5.99575e-18
5.71766e-18
5.41613e-18
5.35193e-18
5.03024e-18
4.92389e-18
4.72162e-18
4.62187e-18
4.38128e-18
4.33043e-18
4.12611e-18
4.15966e-18
3.92635e-18
3.99258e-18
3.79835e-18
3.76476e-18
3.6712e-18
3.61865e-18
3.52417e-18
3.54021e-18
3.34694e-18
3.44497e-18
3.26831e-18
3.27194e-18
3.27171e-18
3.14594e-18
3.12801e-18
3.21039e-18
2.91953e-18
3.21483e-18
2.99775e-18
2.94827e-18
3.17934e-18
2.84329e-18
2.93823e-18
3.33616e-18
2.53068e-18
3.47178e-18
3.26404e-18
2.67098e-18
4.27796e-18
3.61434e-18
2.64461e-18
7.61683e-18
4.12794e-18
7.65553e-18
2.34306e-17
1.60461e-17
1.74792e-17
1.43299e-17
1.96127e-17
1.46682e-17
9.60052e-18
8.3932e-18
8.20894e-18
7.96539e-18
7.62162e-18
7.34336e-18
6.78723e-18
6.36413e-18
5.92875e-18
5.66189e-18
5.37093e-18
5.3144e-18
4.99992e-18
4.89763e-18
4.70039e-18
4.60213e-18
4.36773e-18
4.31555e-18
4.11404e-18
4.14946e-18
3.9189e-18
3.98469e-18
3.79356e-18
3.7573e-18
3.66848e-18
3.61312e-18
3.52153e-18
3.53842e-18
3.3448e-18
3.442e-18
3.26868e-18
3.26799e-18
3.27458e-18
3.14523e-18
3.12671e-18
3.21319e-18
2.91767e-18
3.21631e-18
3.00255e-18
2.94571e-18
3.18599e-18
2.84535e-18
2.93464e-18
3.34467e-18
2.53078e-18
3.46302e-18
3.27163e-18
2.66853e-18
4.21949e-18
3.65286e-18
2.5221e-18
7.47161e-18
4.0162e-18
7.79088e-18
2.38437e-17
1.58121e-17
1.86249e-17
1.32882e-17
1.85933e-17
1.38469e-17
9.02014e-18
7.96806e-18
7.91377e-18
7.75373e-18
7.45186e-18
7.20083e-18
6.67774e-18
6.27802e-18
5.85946e-18
5.60361e-18
5.32313e-18
5.2734e-18
4.96725e-18
4.86934e-18
4.67739e-18
4.58086e-18
4.35303e-18
4.29941e-18
4.10093e-18
4.13758e-18
3.9111e-18
3.97534e-18
3.78815e-18
3.74928e-18
3.66505e-18
3.60695e-18
3.51846e-18
3.53566e-18
3.34271e-18
3.43814e-18
3.26874e-18
3.26385e-18
3.2766e-18
3.14445e-18
3.12515e-18
3.21482e-18
2.91643e-18
3.21643e-18
3.00697e-18
2.94295e-18
3.19105e-18
2.84727e-18
2.92998e-18
3.35069e-18
2.53092e-18
3.45124e-18
3.27538e-18
2.66564e-18
4.15634e-18
3.67763e-18
2.41924e-18
7.28057e-18
3.93442e-18
7.94983e-18
2.38672e-17
1.57783e-17
1.92603e-17
1.24453e-17
1.76099e-17
1.31113e-17
8.48717e-18
7.56327e-18
7.62211e-18
7.54356e-18
7.28184e-18
7.05582e-18
6.56609e-18
6.19065e-18
5.78929e-18
5.54422e-18
5.27401e-18
5.2299e-18
4.93293e-18
4.83949e-18
4.65298e-18
4.55859e-18
4.33762e-18
4.28246e-18
4.08725e-18
4.12425e-18
3.90314e-18
3.96477e-18
3.7822e-18
3.7409e-18
3.66109e-18
3.60036e-18
3.51507e-18
3.53207e-18
3.3407e-18
3.43349e-18
3.26855e-18
3.25956e-18
3.27783e-18
3.14368e-18
3.12324e-18
3.21534e-18
2.91583e-18
3.21506e-18
3.01112e-18
2.93975e-18
3.19423e-18
2.84924e-18
2.92367e-18
3.35369e-18
2.53143e-18
3.43435e-18
3.27591e-18
2.66023e-18
4.08789e-18
3.68637e-18
2.3336e-18
7.03945e-18
3.88121e-18
8.01547e-18
2.33036e-17
1.57835e-17
1.91417e-17
1.17447e-17
1.65962e-17
1.24533e-17
8.00531e-18
7.18477e-18
7.33784e-18
7.3376e-18
7.11429e-18
6.91039e-18
6.4536e-18
6.10298e-18
5.71921e-18
5.4849e-18
5.22474e-18
5.18491e-18
4.89751e-18
4.80854e-18
4.62745e-18
4.53567e-18
4.32184e-18
4.26504e-18
4.07342e-18
4.10977e-18
3.89521e-18
3.95317e-18
3.77579e-18
3.73237e-18
3.65674e-18
3.59349e-18
3.5115e-18
3.52779e-18
3.33882e-18
3.42812e-18
3.26814e-18
3.25519e-18
3.27822e-18
3.14296e-18
3.12097e-18
3.21468e-18
2.91591e-18
3.21191e-18
3.01493e-18
2.93598e-18
3.19512e-18
2.85116e-18
2.9154e-18
3.35287e-18
2.5326e-18
3.41102e-18
3.2733e-18
2.6511e-18
4.0139e-18
3.67781e-18
2.26406e-18
6.75274e-18
3.84997e-18
7.90756e-18
2.20983e-17
1.56768e-17
1.81922e-17
1.11171e-17
1.55149e-17
1.18601e-17
7.57663e-18
6.83702e-18
7.06388e-18
7.13794e-18
6.95146e-18
6.76654e-18
6.34155e-18
6.01583e-18
5.64992e-18
5.42643e-18
5.17626e-18
5.13927e-18
4.86163e-18
4.77692e-18
4.60111e-18
4.51234e-18
4.30595e-18
4.24741e-18
4.05977e-18
4.09447e-18
3.88743e-18
3.9408e-18
3.76893e-18
3.72382e-18
3.65207e-18
3.58644e-18
3.50785e-18
3.52293e-18
3.33709e-18
3.42209e-18
3.2675e-18
3.25075e-18
3.27771e-18
3.14227e-18
3.11836e-18
3.21276e-18
2.91669e-18
3.20686e-18
3.01825e-18
2.93165e-18
3.19347e-18
2.85284e-18
2.90537e-18
3.34765e-18
2.53473e-18
3.381e-18
3.2676e-18
2.63797e-18
3.93542e-18
3.65206e-18
2.21051e-18
6.43003e-18
3.83285e-18
7.58774e-18
2.03256e-17
1.5343e-17
1.65151e-17
1.04987e-17
1.43611e-17
1.13131e-17
7.20175e-18
6.52291e-18
6.80254e-18
6.94562e-18
6.79491e-18
6.626e-18
6.23116e-18
5.92982e-18
5.58186e-18
5.36929e-18
5.1292e-18
5.09369e-18
4.82588e-18
4.74511e-18
4.57428e-18
4.48874e-18
4.29014e-18
4.22975e-18
4.04657e-18
4.07866e-18
3.87992e-18
3.92791e-18
3.76168e-18
3.71536e-18
3.64713e-18
3.57926e-18
3.50424e-18
3.5176e-18
3.33556e-18
3.41552e-18
3.26659e-18
3.24631e-18
3.27632e-18
3.14155e-18
3.11554e-18
3.20951e-18
2.91817e-18
3.20005e-18
3.02091e-18