/*--------------------------------*- C++ -*----------------------------------*\
| =========                 |                                                 |
| \\      /  F ield         | OpenFOAM: The Open Source CFD Toolbox           |
|  \\    /   O peration     | Version:  2312                                  |
|   \\  /    A nd           | Website:  www.openfoam.com                      |
|    \\/     M anipulation  |                                                 |
\*---------------------------------------------------------------------------*/
FoamFile
{
    version     2.0;
    format      ascii;
    arch        "LSB;label=32;scalar=64";
    class       volScalarField;
    location    "200";
    object      nut;
}
// * * * * * * * * * * * * * * * * * * * * * * * * * * * * * * * * * * * * * //

dimensions      [0 2 -1 0 0 0 0];

internalField   nonuniform List<scalar> 
330000
(
1.36321e-21
1.398e-22
3.76928e-24
7.34746e-26
3.11804e-26
9.07177e-27
3.90034e-26
1.92631e-26
3.85824e-26
2.1648e-26
4.09039e-26
3.92894e-26
5.12017e-26
4.62273e-26
4.93152e-26
5.79749e-26
5.2997e-26
6.49806e-26
7.16769e-26
1.0629e-25
1.15751e-25
1.43241e-25
1.54147e-25
1.69076e-25
1.77397e-25
1.84776e-25
2.0436e-25
2.13677e-25
2.63005e-25
2.99654e-25
3.76663e-25
4.36747e-25
5.10847e-25
5.4624e-25
5.99703e-25
6.34837e-25
6.80987e-25
7.33659e-25
8.1824e-25
8.76489e-25
1.00658e-24
1.08283e-24
1.22554e-24
1.30395e-24
1.43586e-24
1.45362e-24
1.62599e-24
1.67726e-24
1.79636e-24
1.72798e-24
1.72179e-24
1.52694e-24
1.22898e-24
8.15719e-25
3.69391e-25
7.58668e-26
9.05011e-27
8.68877e-24
1.67419e-22
1.17242e-21
1.44467e-21
4.02415e-22
2.27633e-23
3.41052e-26
1.70023e-26
4.66211e-26
4.49491e-26
6.62108e-26
5.72812e-26
6.27047e-26
6.5098e-26
9.94155e-26
9.54595e-26
1.04302e-25
1.01359e-25
1.209e-25
1.18236e-25
1.26806e-25
1.57418e-25
2.05388e-25
2.46524e-25
2.84255e-25
3.16481e-25
3.507e-25
3.56905e-25
3.92536e-25
4.05883e-25
4.52655e-25
5.15231e-25
6.23307e-25
7.41007e-25
8.86406e-25
1.01613e-24
1.09755e-24
1.19797e-24
1.27603e-24
1.35551e-24
1.47255e-24
1.62463e-24
1.73919e-24
1.9684e-24
2.13773e-24
2.37583e-24
2.5537e-24
2.76919e-24
2.80289e-24
3.07251e-24
3.18002e-24
3.35471e-24
3.15817e-24
3.1119e-24
2.6651e-24
2.11293e-24
1.1999e-24
4.47352e-25
3.67919e-26
9.2217e-26
2.40906e-23
5.32015e-22
1.8292e-21
2.59716e-21
6.36403e-22
2.49595e-23
1.0726e-25
2.63725e-26
7.62781e-26
6.30397e-26
9.37169e-26
8.31092e-26
8.57284e-26
9.62807e-26
1.26838e-25
1.41287e-25
1.41392e-25
1.48915e-25
1.64851e-25
1.68163e-25
1.78495e-25
2.22383e-25
2.85788e-25
3.46249e-25
4.00551e-25
4.47241e-25
4.94051e-25
5.07555e-25
5.515e-25
5.75945e-25
6.36878e-25
7.26162e-25
8.7917e-25
1.04522e-24
1.24486e-24
1.43166e-24
1.55327e-24
1.69266e-24
1.80476e-24
1.91149e-24
2.09368e-24
2.28794e-24
2.47288e-24
2.76426e-24
3.05232e-24
3.35023e-24
3.62839e-24
3.90025e-24
4.0026e-24
4.34028e-24
4.5423e-24
4.752e-24
4.52367e-24
4.43752e-24
3.82022e-24
3.02402e-24
1.73666e-24
6.47748e-25
6.82014e-26
1.68431e-25
3.53036e-23
6.8753e-22
2.55228e-21
3.03542e-21
6.29386e-22
3.35467e-23
1.33329e-25
3.6893e-26
6.26976e-26
7.28695e-26
8.32852e-26
9.14058e-26
7.80421e-26
1.06972e-25
1.17823e-25
1.5073e-25
1.34921e-25
1.55667e-25
1.59501e-25
1.71527e-25
1.78038e-25
2.23773e-25
2.86769e-25
3.49017e-25
4.04406e-25
4.53143e-25
4.94542e-25
5.14378e-25
5.49985e-25
5.84598e-25
6.36704e-25
7.37403e-25
8.84758e-25
1.05826e-24
1.25431e-24
1.44726e-24
1.57109e-24
1.71179e-24
1.81839e-24
1.92868e-24
2.12203e-24
2.3085e-24
2.5107e-24
2.79212e-24
3.10977e-24
3.38118e-24
3.69569e-24
3.94216e-24
4.09341e-24
4.40913e-24
4.65155e-24
4.83161e-24
4.65717e-24
4.5463e-24
3.95327e-24
3.13669e-24
1.81682e-24
7.17507e-25
8.73034e-26
1.27394e-25
3.55345e-23
8.80025e-22
3.03585e-21
3.76454e-21
7.352e-22
5.81011e-23
1.3509e-25
3.95877e-26
6.18519e-26
7.3772e-26
8.30006e-26
9.31889e-26
7.68234e-26
1.1061e-25
1.19669e-25
1.53712e-25
1.31421e-25
1.58219e-25
1.54345e-25
1.75019e-25
1.74086e-25
2.24885e-25
2.82787e-25
3.51619e-25
4.00529e-25
4.5343e-25
4.88674e-25
5.1294e-25
5.42706e-25
5.83183e-25
6.30025e-25
7.36059e-25
8.79785e-25
1.05324e-24
1.24739e-24
1.44145e-24
1.56168e-24
1.69929e-24
1.80197e-24
1.91744e-24
2.10864e-24
2.29236e-24
2.49741e-24
2.77326e-24
3.09986e-24
3.34842e-24
3.68332e-24
3.91094e-24
4.08558e-24
4.37311e-24
4.64329e-24
4.7891e-24
4.64903e-24
4.50769e-24
3.94523e-24
3.10998e-24
1.80828e-24
7.3364e-25
9.30751e-26
1.19383e-25
4.01871e-23
1.16966e-21
3.20409e-21
5.00701e-21
8.7756e-22
1.09251e-22
1.17129e-25
4.12158e-26
6.33539e-26
7.4643e-26
8.75045e-26
9.58844e-26
8.02948e-26
1.15594e-25
1.2419e-25
1.59297e-25
1.34118e-25
1.64134e-25
1.55006e-25
1.83407e-25
1.74372e-25
2.32758e-25
2.86539e-25
3.64871e-25
4.07028e-25
4.67149e-25
4.96103e-25
5.25756e-25
5.50862e-25
5.97956e-25
6.40679e-25
7.55686e-25
8.97782e-25
1.0774e-24
1.27449e-24
1.47556e-24
1.59429e-24
1.73446e-24
1.83531e-24
1.96104e-24
2.14908e-24
2.34119e-24
2.54753e-24
2.83462e-24
3.1656e-24
3.40926e-24
3.76404e-24
3.9867e-24
4.17845e-24
4.45449e-24
4.74542e-24
4.86819e-24
4.75133e-24
4.57632e-24
4.0243e-24
3.14589e-24
1.8424e-24
7.60161e-25
9.81178e-26
1.25775e-25
5.05512e-23
1.6369e-21
3.37197e-21
6.85514e-21
1.01039e-21
1.93997e-22
1.01339e-25
4.42009e-26
6.33618e-26
7.64859e-26
9.31612e-26
1.00553e-25
8.56075e-26
1.22231e-25
1.30495e-25
1.67048e-25
1.39506e-25
1.71679e-25
1.59057e-25
1.93424e-25
1.76981e-25
2.43582e-25
2.94472e-25
3.82773e-25
4.18395e-25
4.87239e-25
5.09332e-25
5.45964e-25
5.65456e-25
6.20784e-25
6.58783e-25
7.86068e-25
9.24972e-25
1.11695e-24
1.31732e-24
1.52985e-24
1.64614e-24
1.79273e-24
1.89261e-24
2.03152e-24
2.2146e-24
2.42185e-24
2.62892e-24
2.936e-24
3.26618e-24
3.51945e-24
3.8915e-24
4.11829e-24
4.32131e-24
4.59567e-24
4.90576e-24
5.01429e-24
4.91274e-24
4.70556e-24
4.15893e-24
3.22824e-24
1.91495e-24
8.00701e-25
1.07225e-25
1.48799e-25
6.7378e-23
2.25425e-21
3.53453e-21
9.27691e-21
1.11292e-21
3.15013e-22
1.13247e-25
5.04557e-26
6.16488e-26
7.83791e-26
9.85421e-26
1.06341e-25
9.1796e-26
1.2995e-25
1.38297e-25
1.756e-25
1.46507e-25
1.79407e-25
1.64637e-25
2.02954e-25
1.80354e-25
2.55182e-25
3.03888e-25
4.01756e-25
4.31307e-25
5.09545e-25
5.23761e-25
5.68179e-25
5.81331e-25
6.46096e-25
6.77979e-25
8.20082e-25
9.53955e-25
1.16235e-24
1.36375e-24
1.59054e-24
1.70277e-24
1.85911e-24
1.95601e-24
2.10879e-24
2.28561e-24
2.51295e-24
2.71645e-24
3.05046e-24
3.37401e-24
3.64651e-24
4.02828e-24
4.26689e-24
4.47369e-24
4.75868e-24
5.07606e-24
5.18097e-24
5.08895e-24
4.85363e-24
4.30723e-24
3.32668e-24
1.99998e-24
8.43203e-25
1.22914e-25
2.09759e-25
9.19987e-23
2.97169e-21
3.66318e-21
1.2144e-20
1.17784e-21
4.71005e-22
1.71071e-25
6.15826e-26
5.88852e-26
7.99914e-26
1.03317e-25
1.13186e-25
9.86923e-26
1.38794e-25
1.47843e-25
1.85559e-25
1.55163e-25
1.87624e-25
1.71667e-25
2.12124e-25
1.84867e-25
2.67506e-25
3.14886e-25
4.21816e-25
4.45959e-25
5.33649e-25
5.39574e-25
5.92554e-25
5.98466e-25
6.73297e-25
6.98955e-25
8.57294e-25
9.8478e-25
1.21353e-24
1.41382e-24
1.65782e-24
1.76382e-24
1.93223e-24
2.02441e-24
2.19266e-24
2.36184e-24
2.61225e-24
2.81118e-24
3.1756e-24
3.48771e-24
3.78865e-24
4.1733e-24
4.42999e-24
4.63449e-24
4.936e-24
5.25555e-24
5.36522e-24
5.27235e-24
5.01474e-24
4.46396e-24
3.43719e-24
2.09045e-24
8.86468e-25
1.50246e-25
3.43966e-25
1.24658e-22
3.74033e-21
3.7807e-21
1.5342e-20
1.21409e-21
6.55437e-22
2.98742e-25
7.88367e-26
5.65893e-26
8.11213e-26
1.07487e-25
1.20791e-25
1.06166e-25
1.48983e-25
1.58957e-25
1.96893e-25
1.65576e-25
1.96524e-25
1.79902e-25
2.21068e-25
1.906e-25
2.80542e-25
3.27609e-25
4.43041e-25
4.62935e-25
5.59921e-25
5.57375e-25
6.18902e-25
6.17421e-25
7.03004e-25
7.21945e-25
8.98057e-25
1.01888e-24
1.27095e-24
1.46811e-24
1.73245e-24
1.83058e-24
2.01399e-24
2.09868e-24
2.28343e-24
2.44492e-24
2.72178e-24
2.91339e-24
3.31261e-24
3.61079e-24
3.9461e-24
4.3268e-24
4.60857e-24
4.80452e-24
5.13225e-24
5.44328e-24
5.56625e-24
5.46442e-24
5.18975e-24
4.62498e-24
3.55646e-24
2.17959e-24
9.29993e-25
1.98949e-25
5.98587e-25
1.6462e-22
4.48961e-21
3.89634e-21
1.86568e-20
1.22556e-21
8.62475e-22
5.14455e-25
1.02196e-25
5.50262e-26
8.22329e-26
1.11206e-25
1.29338e-25
1.14141e-25
1.60663e-25
1.7175e-25
2.1026e-25
1.7753e-25
2.06533e-25
1.89476e-25
2.30347e-25
1.97883e-25
2.94473e-25
3.42507e-25
4.65962e-25
4.82842e-25
5.8851e-25
5.77923e-25
6.48083e-25
6.3881e-25
7.35474e-25
7.48212e-25
9.43137e-25
1.05712e-24
1.33558e-24
1.52824e-24
1.81637e-24
1.90441e-24
2.10502e-24
2.18028e-24
2.38404e-24
2.53688e-24
2.84236e-24
3.02694e-24
3.46338e-24
3.7454e-24
4.12124e-24
4.49278e-24
4.80593e-24
4.98763e-24
5.34624e-24
5.64472e-24
5.78795e-24
5.66466e-24
5.37954e-24
4.79157e-24
3.68484e-24
2.2693e-24
9.81323e-25
2.80333e-25
1.01606e-24
2.09601e-22
5.18114e-21
4.0488e-21
2.19698e-20
1.22638e-21
1.08475e-21
8.35697e-25
1.30317e-25
5.47763e-26
8.31858e-26
1.14961e-25
1.38508e-25
1.22627e-25
1.73924e-25
1.86014e-25
2.25403e-25
1.91124e-25
2.17755e-25
2.00148e-25
2.40024e-25
2.06487e-25
3.09248e-25
3.59551e-25
4.90493e-25
5.05928e-25
6.19537e-25
6.01404e-25
6.79622e-25
6.62921e-25
7.70866e-25
7.77415e-25
9.92402e-25
1.10012e-24
1.40715e-24
1.59422e-24
1.90909e-24
1.98541e-24
2.20579e-24
2.26909e-24
2.49363e-24
2.63778e-24
2.97415e-24
3.15007e-24
3.62706e-24
3.89245e-24
4.31203e-24
4.66999e-24
5.01958e-24
5.18179e-24
5.57896e-24
5.85584e-24
6.02539e-24
5.87261e-24
5.58186e-24
4.95982e-24
3.81918e-24
2.35789e-24
1.04444e-24
4.09356e-25
1.62958e-24
2.57194e-22
5.76349e-21
4.23097e-21
2.50777e-20
1.21848e-21
1.31501e-21
1.28292e-24
1.62853e-25
5.51791e-26
8.43712e-26
1.1912e-25
1.48595e-25
1.31786e-25
1.88794e-25
2.01916e-25
2.42794e-25
2.06261e-25
2.30461e-25
2.12094e-25
2.50594e-25
2.16538e-25
3.25133e-25
3.79089e-25
5.17093e-25
5.32457e-25
6.53139e-25
6.28277e-25
7.14182e-25
6.9013e-25
8.09204e-25
8.10512e-25
1.04642e-24
1.14824e-24
1.48615e-24
1.66723e-24
2.01175e-24
2.0744e-24
2.31629e-24
2.36601e-24
2.61415e-24
2.74833e-24
3.11713e-24
3.28528e-24
3.80477e-24
4.05213e-24
4.51926e-24
4.8605e-24
5.25088e-24
5.38893e-24
5.82758e-24
6.07929e-24
6.28022e-24
6.08621e-24
5.79526e-24
5.12989e-24
3.96038e-24
2.45055e-24
1.12774e-24
5.99899e-25
2.46515e-24
3.03956e-22
6.2175e-21
4.47856e-21
2.79255e-20
1.21018e-21
1.54273e-21
1.88032e-24
1.99484e-25
5.6124e-26
8.55915e-26
1.23966e-25
1.5962e-25
1.4175e-25
2.05459e-25
2.19414e-25
2.62171e-25
2.23129e-25
2.44715e-25
2.25177e-25
2.62187e-25
2.27863e-25
3.42272e-25
4.01079e-25
5.45835e-25
5.62572e-25
6.89654e-25
6.58731e-25
7.5134e-25
7.20716e-25
8.50913e-25
8.47325e-25
1.10506e-24
1.20202e-24
1.57238e-24
1.7475e-24
2.124e-24
2.17177e-24
2.43721e-24
2.47123e-24
2.74444e-24
2.86853e-24
3.2722e-24
3.43129e-24
3.99571e-24
4.22502e-24
4.74102e-24
5.0634e-24
5.49804e-24
5.60767e-24
6.09313e-24
6.31198e-24
6.54732e-24
6.30566e-24
6.01744e-24
5.29934e-24
4.10894e-24
2.54891e-24
1.2351e-24
8.70474e-25
3.54031e-24
3.46954e-22
6.51107e-21
4.79003e-21
3.03182e-20
1.204e-21
1.75989e-21
2.65258e-24
2.40534e-25
5.69742e-26
8.72276e-26
1.29788e-25
1.72013e-25
1.52834e-25
2.23982e-25
2.38875e-25
2.84046e-25
2.41745e-25
2.60734e-25
2.39692e-25
2.75191e-25
2.40613e-25
3.61017e-25
4.25783e-25
5.77309e-25
5.96544e-25
7.29352e-25
6.93229e-25
7.92e-25
7.55015e-25
8.96e-25
8.88825e-25
1.16899e-24
1.26183e-24
1.66655e-24
1.83625e-24
2.24698e-24
2.27844e-24
2.56866e-24
2.58598e-24
2.88663e-24
2.99907e-24
3.43925e-24
3.59056e-24
4.20126e-24
4.41134e-24
4.97888e-24
5.28064e-24
5.76237e-24
5.83954e-24
6.37293e-24
6.55693e-24
6.82919e-24
6.52946e-24
6.2482e-24
5.4703e-24
4.26672e-24
2.65848e-24
1.37404e-24
1.23815e-24
4.89124e-24
3.83125e-22
6.65e-21
5.19559e-21
3.22559e-20
1.21201e-21
1.95554e-21
3.63096e-24
2.84636e-25
5.80127e-26
8.89076e-26
1.369e-25
1.8566e-25
1.65278e-25
2.44619e-25
2.6041e-25
3.08181e-25
2.62453e-25
2.78692e-25
2.55683e-25
2.89556e-25
2.54688e-25
3.81558e-25
4.53223e-25
6.11587e-25
6.3455e-25
7.72696e-25
7.31954e-25
8.3596e-25
7.93431e-25
9.44936e-25
9.34737e-25
1.23807e-24
1.3283e-24
1.76888e-24
1.93385e-24
2.38038e-24
2.3949e-24
2.71144e-24
2.71074e-24
3.03972e-24
3.1406e-24
3.61916e-24
3.76166e-24
4.42049e-24
4.61214e-24
5.23213e-24
5.51213e-24
6.04174e-24
6.08311e-24
6.66851e-24
6.81149e-24
7.12106e-24
6.75906e-24
6.48702e-24
5.64376e-24
4.43452e-24
2.78049e-24
1.54838e-24
1.72938e-24
6.54636e-24
4.10836e-22
6.62638e-21
5.67065e-21
3.36002e-20
1.23295e-21
2.12046e-21
4.84115e-24
3.34467e-25
5.84764e-26
9.10016e-26
1.45385e-25
2.01008e-25
1.79363e-25
2.67515e-25
2.84416e-25
3.35198e-25
2.85343e-25
2.98762e-25
2.73441e-25
3.05619e-25
2.70342e-25
4.04222e-25
4.83687e-25
6.49274e-25
6.769e-25
8.20006e-25
7.75288e-25
8.84171e-25
8.36215e-25
9.97762e-25
9.8598e-25
1.31313e-24
1.40178e-24
1.88004e-24
2.0414e-24
2.52543e-24
2.52227e-24
2.86574e-24
2.84658e-24
3.20565e-24
3.29376e-24
3.81167e-24
3.94701e-24
4.6551e-24
4.8275e-24
5.50195e-24
5.75923e-24
6.33751e-24
6.34036e-24
6.97729e-24
7.07798e-24
7.42603e-24
6.99345e-24
6.7334e-24
5.8213e-24
4.61366e-24
2.9193e-24
1.76654e-24
2.36876e-24
8.58784e-24
4.27424e-22
6.4567e-21
6.25649e-21
3.44569e-20
1.26964e-21
2.24578e-21
6.30932e-24
3.9212e-25
5.82718e-26
9.33361e-26
1.55126e-25
2.18265e-25
1.95146e-25
2.93163e-25
3.10975e-25
3.65043e-25
3.10766e-25
3.21133e-25
2.92959e-25
3.23504e-25
2.87629e-25
4.29216e-25
5.17265e-25
6.90568e-25
7.23881e-25
8.71864e-25
8.23427e-25
9.36372e-25
8.83733e-25
1.05533e-24
1.04241e-24
1.39417e-24
1.48289e-24
2.00028e-24
2.15937e-24
2.68232e-24
2.66143e-24
3.03265e-24
2.99397e-24
3.38317e-24
3.45939e-24
4.01842e-24
4.14581e-24
4.9044e-24
5.05849e-24
5.78731e-24
6.02175e-24
6.6491e-24
6.61085e-24
7.30118e-24
7.35429e-24
7.73978e-24
7.23431e-24
6.98612e-24
6.00241e-24
4.80605e-24
3.0763e-24
2.03443e-24
3.19461e-24
1.10533e-23
4.31945e-22
6.14822e-21
6.95804e-21
3.47302e-20
1.32482e-21
2.32549e-21
8.0513e-24
4.58429e-25
5.70215e-26
9.63313e-26
1.66248e-25
2.37924e-25
2.1288e-25
3.21782e-25
3.4054e-25
3.98488e-25
3.38779e-25
3.4607e-25
3.14578e-25
3.43511e-25
3.06806e-25
4.56849e-25
5.54363e-25
7.36062e-25
7.75848e-25
9.28617e-25
8.76865e-25
9.93691e-25
9.36168e-25
1.11764e-24
1.10497e-24
1.48213e-24
1.57204e-24
2.13054e-24
2.28889e-24
2.85247e-24
2.81338e-24
3.2125e-24
3.15428e-24
3.57465e-24
3.63802e-24
4.23885e-24
4.36062e-24
5.17028e-24
5.30552e-24
6.08992e-24
6.30109e-24
6.97766e-24
6.89575e-24
7.63769e-24
7.64317e-24
8.06569e-24
7.48011e-24
7.24554e-24
6.18865e-24
5.01203e-24
3.25526e-24
2.36214e-24
4.24164e-24
1.40779e-23
4.23479e-22
5.73563e-21
7.80037e-21
3.45764e-20
1.41067e-21
2.3549e-21
1.01243e-23
5.29126e-25
5.53714e-26
9.96217e-26
1.78998e-25
2.59926e-25
2.3272e-25
3.53969e-25
3.73232e-25
4.35557e-25
3.69755e-25
3.74024e-25
3.38448e-25
3.65617e-25
3.27921e-25
4.87396e-25
5.95224e-25
7.85911e-25
8.33185e-25
9.90942e-25
9.35948e-25
1.05605e-24
9.94087e-25
1.18559e-24
1.17344e-24
1.57709e-24
1.67006e-24
2.27175e-24
2.43071e-24
3.0362e-24
2.97894e-24
3.40671e-24
3.32847e-24
3.77929e-24
3.83115e-24
4.47465e-24
4.59062e-24
5.45176e-24
5.57051e-24
6.41028e-24
6.59828e-24
7.32172e-24
7.19412e-24
7.98926e-24
7.94309e-24
8.39897e-24
7.73287e-24
7.51215e-24
6.38207e-24
5.23205e-24
3.45761e-24
2.7575e-24
5.56176e-24
1.772e-23
4.03478e-22
5.2457e-21
8.74552e-21
3.39706e-20
1.523e-21
2.33118e-21
1.25311e-23
6.08696e-25
5.27045e-26
1.03617e-25
1.93569e-25
2.84793e-25
2.54983e-25
3.90035e-25
4.09441e-25
4.77276e-25
4.03758e-25
4.05252e-25
3.64843e-25
3.90231e-25
3.5129e-25
5.21202e-25
6.40276e-25
8.40838e-25
8.96426e-25
1.05922e-24
1.00117e-24
1.12464e-24
1.05772e-24
1.2592e-24
1.24879e-24
1.6803e-24
1.77739e-24
2.42491e-24
2.58599e-24
3.23539e-24
3.15946e-24
3.61583e-24
3.51769e-24
3.9996e-24
4.03939e-24
4.72519e-24
4.83855e-24
5.75132e-24
5.85392e-24
6.74945e-24
6.91441e-24
7.68264e-24
7.50789e-24
8.35297e-24
8.25573e-24
8.74361e-24
7.99118e-24
7.78499e-24
6.58271e-24
5.46621e-24
3.68667e-24
3.23283e-24
7.19779e-24
2.21928e-23
3.72191e-22
4.71114e-21
9.83808e-21
3.31591e-20
1.65701e-21
2.25634e-21
1.53005e-23
7.01789e-25
4.90108e-26
1.08276e-25
2.09839e-25
3.12991e-25
2.79734e-25
4.30916e-25
4.4917e-25
5.23979e-25
4.41176e-25
4.40215e-25
3.93737e-25
4.17704e-25
3.7706e-25
5.58647e-25
6.89791e-25
9.01278e-25
9.66162e-25
1.13429e-24
1.07294e-24
1.19928e-24
1.1277e-24
1.3398e-24
1.33101e-24
1.7921e-24
1.89489e-24
2.59102e-24
2.75561e-24
3.45121e-24
3.35635e-24
3.84168e-24
3.72267e-24
4.23454e-24
4.26437e-24
4.99316e-24
5.10434e-24
6.06859e-24
6.15758e-24
7.10695e-24
7.25007e-24
8.06076e-24
7.83734e-24
8.73101e-24
8.57937e-24
9.09533e-24
8.25716e-24
8.06266e-24
6.78968e-24
5.71685e-24
3.94421e-24
3.79828e-24
9.21123e-24
2.75408e-23
3.32303e-22
4.15758e-21
1.1103e-20
3.21564e-20
1.81558e-21
2.13301e-21
1.84466e-23
8.07946e-25
4.43584e-26
1.13967e-25
2.2823e-25
3.45081e-25
3.07388e-25
4.77001e-25
4.93003e-25
5.76809e-25
4.82077e-25
4.79294e-25
4.25522e-25
4.48405e-25
4.0545e-25
6.00141e-25
7.44305e-25
9.67992e-25
1.04296e-24
1.21664e-24
1.15197e-24
1.28137e-24
1.20419e-24
1.42734e-24
1.42115e-24
1.91387e-24
2.02316e-24
2.77153e-24
2.94089e-24
3.6858e-24
3.57068e-24
4.08516e-24
3.94497e-24
4.48717e-24
4.5063e-24
5.27773e-24
5.39073e-24
6.40611e-24
6.48221e-24
7.48433e-24
7.60617e-24
8.45661e-24
8.18272e-24
9.12046e-24
8.91614e-24
9.45764e-24
8.52823e-24
8.34525e-24
7.00284e-24
5.98321e-24
4.23245e-24
4.46616e-24
1.16516e-23
3.40327e-23
2.85876e-22
3.61723e-21
1.25482e-20
3.11877e-20
2.01037e-21
1.96827e-21
2.21247e-23
9.17317e-25
3.97153e-26
1.20358e-25
2.49211e-25
3.81107e-25
3.38268e-25
5.29435e-25
5.41163e-25
6.36155e-25
5.26967e-25
5.23368e-25
4.60504e-25
4.82422e-25
4.36567e-25
6.46305e-25
8.04287e-25
1.04142e-24
1.12751e-24
1.30741e-24
1.23897e-24
1.37107e-24
1.2881e-24
1.52328e-24
1.51923e-24
2.04596e-24
2.16341e-24
2.9686e-24
3.14327e-24
3.94051e-24
3.80376e-24
4.34877e-24
4.18608e-24
4.75708e-24
4.76752e-24
5.58201e-24
5.69782e-24
6.76307e-24
6.83061e-24
7.88324e-24
7.985e-24
8.86847e-24
8.54344e-24
9.52437e-24
9.26579e-24
9.8249e-24
8.80686e-24
8.63377e-24
7.22511e-24
6.2646e-24
4.55302e-24
5.24672e-24
1.4585e-23
4.17216e-23
2.36804e-22
3.11961e-21
1.41296e-20
3.03235e-20
2.23233e-21
1.76809e-21
2.6309e-23
1.0363e-24
3.47995e-26
1.27874e-25
2.73302e-25
4.21718e-25
3.72941e-25
5.88755e-25
5.9426e-25
7.03509e-25
5.761e-25
5.7272e-25
4.99101e-25
5.20311e-25
4.70765e-25
6.97627e-25
8.70263e-25
1.12266e-24
1.22063e-24
1.40724e-24
1.33465e-24
1.47004e-24
1.37975e-24
1.62761e-24
1.62645e-24
2.19031e-24
2.31642e-24
3.18387e-24
3.36416e-24
4.21825e-24
4.0572e-24
4.63364e-24
4.44718e-24
5.04779e-24
5.04844e-24
5.90526e-24
6.02854e-24
7.14302e-24
7.20347e-24
8.30419e-24
8.38679e-24
9.29721e-24
8.92097e-24
9.93902e-24
9.62907e-24
1.02018e-23
9.09098e-24
8.92622e-24
7.45446e-24
6.56012e-24
4.90698e-24
6.15221e-24
1.8055e-23
5.09391e-23
1.87282e-22
2.68318e-21
1.58899e-20
2.98447e-20
2.46347e-21
1.54489e-21
3.10346e-23
1.17391e-24
2.96888e-26
1.36797e-25
3.00321e-25
4.67891e-25
4.11588e-25
6.56645e-25
6.52348e-25
7.79719e-25
6.3022e-25
6.28092e-25
5.41384e-25
5.62753e-25
5.08365e-25
7.54814e-25
9.42711e-25
1.21266e-24
1.32333e-24
1.51758e-24
1.43975e-24
1.57843e-24
1.48019e-24
1.74236e-24
1.74313e-24
2.3478e-24
2.48364e-24
3.41953e-24
3.60521e-24
4.52166e-24
4.33315e-24
4.9427e-24
4.72919e-24
5.35891e-24
5.35163e-24
6.25193e-24
6.3836e-24
7.54619e-24
7.60325e-24
8.7469e-24
8.81264e-24
9.74375e-24
9.31655e-24
1.03667e-23
1.0005e-23
1.05841e-23
9.38341e-24
9.22015e-24
7.68931e-24
6.87178e-24
5.29548e-24
7.19223e-24
2.21149e-23
6.164e-23
1.40938e-22
2.32313e-21
1.7903e-20
2.97529e-20
2.70981e-21
1.30777e-21
3.63361e-23
1.32667e-24
2.48507e-26
1.47457e-25
3.31082e-25
5.20326e-25
4.54833e-25
7.33751e-25
7.16423e-25
8.66249e-25
6.89729e-25
6.89845e-25
5.88106e-25
6.10154e-25
5.49629e-25
8.18424e-25
1.02237e-24
1.31251e-24
1.43644e-24
1.6393e-24
1.5553e-24
1.69825e-24
1.58961e-24
1.86751e-24
1.87062e-24
2.52046e-24
2.66607e-24
3.6778e-24
3.8681e-24
4.85384e-24
4.63266e-24
5.27758e-24
5.03381e-24
5.69456e-24
5.67668e-24
6.62128e-24
6.76564e-24
7.97595e-24
8.03027e-24
9.21226e-24
9.26213e-24
1.02077e-23
9.72907e-24
1.08043e-23
1.0395e-23
1.09751e-23
9.67988e-24
9.51482e-24
7.92706e-24
7.1969e-24
5.71673e-24
8.37334e-24
2.67935e-23
7.41073e-23
9.97066e-23
2.04845e-21
2.01369e-20
3.01956e-20
2.9807e-21
1.06994e-21
4.25229e-23
1.47734e-24
2.11774e-26
1.59718e-25
3.66289e-25
5.7931e-25
5.03179e-25
8.22167e-25
7.87002e-25
9.63901e-25
7.55639e-25
7.59377e-25
6.40019e-25
6.62649e-25
5.94893e-25
8.89605e-25
1.11019e-24
1.42312e-24
1.56119e-24
1.77444e-24
1.68249e-24
1.83015e-24
1.70948e-24
2.00549e-24
2.00953e-24
2.70923e-24
2.86574e-24
3.96257e-24
4.15548e-24
5.21735e-24
4.95779e-24
5.64234e-24
5.36314e-24
6.05517e-24
6.02697e-24
7.01875e-24
7.17567e-24
8.43167e-24
8.48769e-24
9.70308e-24
9.73896e-24
1.06866e-23
1.01588e-23
1.12559e-23
1.08005e-23
1.13678e-23
9.98322e-24
9.81099e-24
8.17146e-24
7.5316e-24
6.17085e-24
9.70112e-24
3.2113e-23
8.82634e-23
6.58664e-23
1.87623e-21
2.25598e-20
3.15273e-20
3.25975e-21
8.40326e-22
4.95567e-23
1.63317e-24
1.86472e-26
1.74077e-25
4.06888e-25
6.45795e-25
5.57458e-25
9.22766e-25
8.65182e-25
1.07461e-24
8.28757e-25
8.36829e-25
6.97998e-25
7.20969e-25
6.44743e-25
9.68978e-25
1.20701e-24
1.5461e-24
1.69888e-24
1.92412e-24
1.82239e-24
1.97665e-24
1.84028e-24
2.15636e-24
2.16147e-24
2.91699e-24
3.08406e-24
4.27619e-24
4.46926e-24
5.61626e-24
5.3104e-24
6.03884e-24
5.71837e-24
6.44594e-24
6.40253e-24
7.44374e-24
7.61617e-24
8.91811e-24
8.97545e-24
1.02189e-23
1.02416e-23
1.11812e-23
1.06068e-23
1.1717e-23
1.1221e-23
1.17675e-23
1.02897e-23
1.01047e-23
8.4173e-24
7.87319e-24
6.65373e-24
1.11762e-23
3.80592e-23
1.04328e-22
4.00465e-23
1.81095e-21
2.52139e-20
3.3982e-20
3.51621e-21
6.31065e-22
5.7459e-23
1.80896e-24
1.72831e-26
1.91474e-25
4.52454e-25
7.21834e-25
6.17905e-25
1.03851e-24
9.51163e-25
1.1999e-24
9.10586e-25
9.23251e-25
7.62363e-25
7.86331e-25
6.99924e-25
1.0577e-24
1.31386e-24
1.68318e-24
1.8513e-24
2.09076e-24
1.97621e-24
2.13857e-24
1.98385e-24
2.32328e-24
2.32745e-24
3.14556e-24
3.32357e-24
4.6223e-24
4.81235e-24
6.05489e-24
5.69387e-24
6.47141e-24
6.10091e-24
6.86778e-24
6.80721e-24
7.90308e-24
8.08831e-24
9.43635e-24
9.49615e-24
1.07594e-23
1.07715e-23
1.16936e-23
1.10759e-23
1.219e-23
1.16563e-23
1.21692e-23
1.06025e-23
1.03912e-23
8.66165e-24
8.22253e-24
7.16379e-24
1.27966e-23
4.45943e-23
1.21932e-22
2.2795e-23
1.86486e-21
2.82407e-20
3.77302e-20
3.76297e-21
4.49041e-22
6.63071e-23
1.99788e-24
1.77898e-26
2.12377e-25
5.04338e-25
8.08558e-25
6.85399e-25
1.17038e-24
1.04675e-24
1.34138e-24
1.00227e-24
1.01884e-24
8.3468e-25
8.59219e-25
7.60952e-25
1.15654e-24
1.43211e-24
1.83595e-24
2.01991e-24
2.27593e-24
2.14557e-24
2.31886e-24
2.14051e-24
2.50657e-24
2.50931e-24
3.39791e-24
3.58592e-24
5.00394e-24
5.18713e-24
6.53719e-24
6.10943e-24
6.94269e-24
6.5128e-24
7.32637e-24
7.23958e-24
8.39664e-24
8.59352e-24
9.99067e-24
1.00481e-23
1.13252e-23
1.13262e-23
1.22231e-23
1.15633e-23
1.26717e-23
1.2106e-23
1.25757e-23
1.09143e-23
1.06685e-23
8.89855e-24
8.57368e-24
7.6921e-24
1.4548e-23
5.16569e-23
1.41058e-22
1.28906e-23
2.04728e-21
3.15537e-20
4.298e-20
3.99725e-21
3.0101e-22
7.65718e-23
2.17579e-24
2.12525e-26
2.37141e-25
5.63593e-25
9.06734e-25
7.60756e-25
1.32194e-24
1.15306e-24
1.5003e-24
1.10575e-24
1.1258e-24
9.16494e-25
9.39851e-25
8.28577e-25
1.26759e-24
1.56373e-24
2.00593e-24
2.2069e-24
2.48299e-24
2.33246e-24
2.51899e-24
2.31277e-24
2.70995e-24
2.70864e-24
3.67579e-24
3.87442e-24
5.42709e-24
5.59833e-24
7.06671e-24
6.56052e-24
7.45878e-24
6.9574e-24
7.82334e-24
7.70445e-24
8.93214e-24
9.13347e-24
1.05801e-23
1.06341e-23
1.19207e-23
1.19115e-23
1.27666e-23
1.20706e-23
1.31667e-23
1.25738e-23
1.29768e-23
1.12274e-23
1.09365e-23
9.13229e-24
8.91814e-24
8.23397e-24
1.64211e-23
5.91286e-23
1.6136e-22
9.07511e-24
2.39589e-21
3.51985e-20
5.01996e-20
4.21999e-21
1.88739e-22
8.82481e-23
2.35048e-24
2.89172e-26
2.66619e-25
6.31876e-25
1.0178e-24
8.45331e-25
1.49443e-24
1.27219e-24
1.6788e-24
1.22293e-24
1.24394e-24
1.00963e-24
1.0294e-24
9.03913e-25
1.39175e-24
1.71033e-24
2.19558e-24
2.41461e-24
2.71388e-24
2.53867e-24
2.7428e-24
2.50151e-24
2.93391e-24
2.92761e-24
3.98348e-24
4.1914e-24
5.89489e-24
6.04874e-24
7.64867e-24
7.04999e-24
8.02237e-24
7.43639e-24
8.36597e-24
8.20108e-24
9.50941e-24
9.7088e-24
1.1211e-23
1.12519e-23
1.25452e-23
1.25229e-23
1.33254e-23
1.25978e-23
1.36696e-23
1.30564e-23
1.33775e-23
1.15353e-23
1.11887e-23
9.35358e-24
9.25056e-24
8.77762e-24
1.83893e-23
6.68695e-23
1.82604e-22
1.04637e-23
2.938e-21
3.91435e-20
5.96888e-20
4.3907e-21
1.11681e-22
1.01345e-22
2.54166e-24
4.24832e-26
3.03004e-25
7.08413e-25
1.14572e-24
9.39632e-25
1.69271e-24
1.40472e-24
1.87925e-24
1.35666e-24
1.37474e-24
1.11474e-24
1.13025e-24
9.8839e-25
1.531e-24
1.87392e-24
2.40798e-24
2.64622e-24
2.97245e-24
2.76643e-24
2.99216e-24
2.70982e-24
3.18311e-24
3.16824e-24
4.32403e-24
4.54116e-24
6.41255e-24
6.54333e-24
8.28924e-24
7.58355e-24
8.6394e-24
7.95244e-24
8.95661e-24
8.73465e-24
1.01372e-23
1.03208e-23
1.18848e-23
1.19042e-23
1.31984e-23
1.31624e-23
1.39041e-23
1.31494e-23
1.4181e-23
1.35544e-23
1.37712e-23
1.18415e-23
1.14169e-23
9.55747e-24
9.57118e-24
9.31594e-24
2.04277e-23
7.4663e-23
2.03899e-22
1.88697e-23
3.71811e-21
4.36295e-20
7.2156e-20
4.52893e-21
6.62235e-23
1.16018e-22
2.74309e-24
6.5655e-26
3.47632e-25
7.95406e-25
1.29253e-24
1.04524e-24
1.91802e-24
1.55403e-24
2.10277e-24
1.50964e-24
1.51808e-24
1.23511e-24
1.24326e-24
1.08312e-24
1.68669e-24
2.05716e-24
2.6456e-24
2.90445e-24
3.26138e-24
3.01851e-24
3.27149e-24
2.93852e-24
3.4587e-24
3.43289e-24
4.70201e-24
4.92606e-24
6.98452e-24
7.08572e-24
8.99335e-24
8.16363e-24
9.3136e-24
8.50865e-24
9.60256e-24
9.30278e-24
1.08166e-23
1.09679e-23
1.26074e-23
1.25853e-23
1.38825e-23
1.3824e-23
1.45027e-23
1.37201e-23
1.46978e-23
1.40642e-23
1.41586e-23
1.21341e-23
1.16182e-23
9.73457e-24
9.86981e-24
9.83258e-24
2.24892e-23
8.23252e-23
2.24748e-22
3.83622e-23
4.76826e-21
4.84984e-20
8.77994e-20
4.61862e-21
4.6409e-23
1.32777e-22
2.92766e-24
1.03368e-25
4.02113e-25
8.94714e-25
1.45998e-24
1.16371e-24
2.17621e-24
1.72239e-24
2.35104e-24
1.6855e-24
1.67757e-24
1.37355e-24
1.36886e-24
1.18938e-24
1.86276e-24
2.26376e-24
2.91086e-24
3.19318e-24
3.58613e-24
3.29848e-24
3.58341e-24
3.19168e-24
3.7658e-24
3.72448e-24
5.12011e-24
5.3513e-24
7.61971e-24
7.68381e-24
9.76553e-24
8.79613e-24
1.00535e-23
9.11054e-24
1.03061e-23
9.9121e-24
1.15556e-23
1.16526e-23
1.33762e-23
1.32977e-23
1.46039e-23
1.45165e-23
1.5116e-23
1.43114e-23
1.52229e-23
1.45921e-23
1.45241e-23
1.24152e-23
1.17913e-23
9.88925e-24
1.01339e-23
1.03149e-23
2.45489e-23
8.95589e-23
2.44629e-22
7.54697e-23
6.16026e-21
5.39416e-20
1.07477e-19
4.68769e-21
4.91308e-23
1.51767e-22
3.10556e-24
1.62485e-25
4.68639e-25
1.00957e-24
1.65098e-24
1.29774e-24
2.46892e-24
1.91395e-24
2.62568e-24
1.88834e-24
1.85246e-24
1.53386e-24
1.50935e-24
1.30936e-24
2.06085e-24
2.49666e-24
3.2079e-24
3.51667e-24
3.94999e-24
3.6097e-24
3.93383e-24
3.47092e-24
4.10597e-24
4.04571e-24
5.58505e-24
5.82039e-24
8.32312e-24
8.3419e-24
1.06128e-23
9.48606e-24
1.08623e-23
9.76105e-24
1.10764e-23
1.05607e-23
1.23553e-23
1.23721e-23
1.42003e-23
1.40358e-23
1.53632e-23
1.52309e-23
1.57477e-23
1.49212e-23
1.57502e-23
1.51306e-23
1.48717e-23
1.26753e-23
1.19276e-23
1.00092e-23
1.03561e-23
1.07466e-23
2.655e-23
9.6124e-23
2.62881e-22
1.37224e-22
7.93317e-21
5.97999e-20
1.31395e-19
4.69268e-21
7.67063e-23
1.73155e-22
3.29553e-24
2.50974e-25
5.51872e-25
1.13918e-24
1.87269e-24
1.4489e-24
2.804e-24
2.13011e-24
2.93008e-24
2.12344e-24
2.04494e-24
1.71686e-24
1.66936e-24
1.44547e-24
2.28454e-24
2.75922e-24
3.5421e-24
3.88047e-24
4.35901e-24
3.95627e-24
4.32606e-24
3.78103e-24
4.4856e-24
4.39994e-24
6.10167e-24
6.34019e-24
9.10233e-24
9.06774e-24
1.15443e-23
1.02427e-23
1.17472e-23
1.04646e-23
1.19165e-23
1.12548e-23
1.32246e-23
1.31277e-23
1.50804e-23
1.48028e-23
1.6159e-23
1.5969e-23
1.64039e-23
1.55539e-23
1.6276e-23
1.56812e-23
1.51911e-23
1.29182e-23
1.20141e-23
1.00877e-23
1.05385e-23
1.11155e-23
2.84525e-23
1.01658e-22
2.78259e-22
2.32497e-22
1.01425e-20
6.6432e-20
1.60729e-19
4.6787e-21
1.43989e-22
1.97032e-22
3.50341e-24
3.81289e-25
6.5633e-25
1.28738e-24
2.12973e-24
1.62051e-24
3.18356e-24
2.37745e-24
3.26417e-24
2.39659e-24
2.2548e-24
1.92893e-24
1.85063e-24
1.60012e-24
2.5367e-24
3.05635e-24
3.91765e-24
4.28971e-24
4.81796e-24
4.34322e-24
4.76704e-24
4.12367e-24
4.90757e-24
4.79005e-24
6.67756e-24
6.91403e-24
9.96572e-24
9.86692e-24
1.25672e-23
1.10709e-23
1.27131e-23
1.12261e-23
1.28348e-23
1.19913e-23
1.41662e-23
1.3914e-23
1.60249e-23
1.55881e-23
1.69979e-23
1.67196e-23
1.70866e-23
1.62003e-23
1.67977e-23
1.62362e-23
1.54804e-23
1.31295e-23
1.20481e-23
1.01144e-23
1.06689e-23
1.14071e-23
3.01904e-23
1.05987e-22
2.90243e-22
3.69056e-22
1.27996e-20
7.35524e-20
1.95435e-19
4.60662e-21
2.68954e-22
2.2376e-22
3.70397e-24
5.68158e-25
7.86782e-25
1.45788e-24
2.42586e-24
1.81599e-24
3.61737e-24
2.66068e-24
3.63015e-24
2.71451e-24
2.48825e-24
2.17436e-24
2.05392e-24
1.77518e-24
2.82459e-24
3.39437e-24
4.33822e-24
4.75111e-24
5.33561e-24
4.77682e-24
5.26095e-24
4.50502e-24
5.37821e-24
5.22078e-24
7.31679e-24
7.54965e-24
1.09274e-23
1.07512e-23
1.36877e-23
1.19791e-23
1.37705e-23
1.20536e-23
1.38328e-23
1.27783e-23
1.51847e-23
1.47346e-23
1.70274e-23
1.63947e-23
1.78882e-23
1.74929e-23
1.77863e-23
1.6859e-23
1.73144e-23
1.68041e-23
1.57162e-23
1.331e-23
1.20288e-23
1.00939e-23
1.0736e-23
1.16034e-23
3.17518e-23
1.08777e-22
2.98551e-22
5.57455e-22
1.59703e-20
8.16662e-20
2.3629e-19
4.54315e-21
4.77728e-22
2.53908e-22
3.91233e-24
8.31772e-25
9.49212e-25
1.65739e-24
2.7679e-24
2.04117e-24
4.10881e-24
2.98847e-24
4.02892e-24
3.08558e-24
2.74434e-24
2.46004e-24
2.2838e-24
1.97476e-24
3.15205e-24
3.77825e-24
4.81149e-24
5.27227e-24
5.91797e-24
5.26325e-24
5.81726e-24
4.92774e-24
5.90162e-24
5.69547e-24
8.03069e-24
8.25257e-24
1.19974e-23
1.17272e-23
1.49176e-23
1.29758e-23
1.49229e-23
1.29521e-23
1.49206e-23
1.36126e-23
1.62836e-23
1.55826e-23
1.81006e-23
1.72135e-23
1.88326e-23
1.82736e-23
1.85105e-23
1.75238e-23
1.78199e-23
1.73727e-23