/*--------------------------------*- C++ -*----------------------------------*\
| =========                 |                                                 |
| \\      /  F ield         | OpenFOAM: The Open Source CFD Toolbox           |
|  \\    /   O peration     | Version:  2312                                  |
|   \\  /    A nd           | Website:  www.openfoam.com                      |
|    \\/     M anipulation  |                                                 |
\*---------------------------------------------------------------------------*/
FoamFile
{
    version     2.0;
    format      ascii;
    arch        "LSB;label=32;scalar=64";
    class       volScalarField;
    location    "200";
    object      p;
}
// * * * * * * * * * * * * * * * * * * * * * * * * * * * * * * * * * * * * * //

dimensions      [0 2 -2 0 0 0 0];

internalField   nonuniform List<scalar> 
330000
(
-2.1999e-08
-2.97796e-09
-8.59422e-09
-5.60362e-09
-2.55985e-09
-1.31932e-09
8.69499e-10
1.29054e-09
3.11129e-09
3.04545e-09
4.24948e-09
3.5429e-09
4.48712e-09
3.39896e-09
4.01812e-09
2.69637e-09
3.29915e-09
1.88551e-09
2.50681e-09
9.56666e-10
1.94317e-09
4.09747e-10
1.64944e-09
2.09453e-10
1.679e-09
3.5967e-10
1.97545e-09
5.73347e-10
2.23294e-09
5.62703e-10
2.37787e-09
4.41384e-10
2.45034e-09
3.00933e-10
2.31958e-09
4.67321e-11
2.18007e-09
-1.39908e-10
2.17095e-09
-3.10366e-10
2.12601e-09
-5.50559e-10
2.08819e-09
-6.687e-10
2.22308e-09
-6.37872e-10
2.27672e-09
-7.70716e-10
2.28707e-09
-7.94314e-10
2.22521e-09
-6.87446e-10
2.26774e-09
-1.41976e-10
1.96675e-09
5.633e-10
8.77956e-10
1.40036e-09
-5.95502e-09
1.57524e-08
-2.18321e-08
-2.99596e-09
-8.63197e-09
-5.61603e-09
-2.56463e-09
-1.3196e-09
8.66494e-10
1.28931e-09
3.10872e-09
3.04431e-09
4.2477e-09
3.54269e-09
4.48584e-09
3.3994e-09
4.01739e-09
2.69725e-09
3.29881e-09
1.88651e-09
2.50638e-09
9.57571e-10
1.94235e-09
4.10678e-10
1.64812e-09
2.10491e-10
1.67735e-09
3.60611e-10
1.97373e-09
5.74268e-10
2.23139e-09
5.63957e-10
2.37623e-09
4.42933e-10
2.44841e-09
3.02913e-10
2.31742e-09
4.90804e-11
2.1778e-09
-1.37504e-10
2.1685e-09
-3.07819e-10
2.12339e-09
-5.47503e-10
2.08512e-09
-6.65493e-10
2.21959e-09
-6.34322e-10
2.27286e-09
-7.66538e-10
2.28267e-09
-7.89398e-10
2.22016e-09
-6.81858e-10
2.26213e-09
-1.35277e-10
1.96034e-09
5.7224e-10
8.76088e-10
1.40293e-09
-6.01549e-09
1.57231e-08
-2.16562e-08
-3.02863e-09
-8.68188e-09
-5.6317e-09
-2.56829e-09
-1.31847e-09
8.64639e-10
1.28775e-09
3.10681e-09
3.04233e-09
4.24708e-09
3.5415e-09
4.48577e-09
3.39916e-09
4.01788e-09
2.69734e-09
3.29951e-09
1.88639e-09
2.50709e-09
9.56944e-10
1.9427e-09
4.09903e-10
1.64805e-09
2.10007e-10
1.67696e-09
3.60025e-10
1.9734e-09
5.73529e-10
2.23162e-09
5.63452e-10
2.37667e-09
4.42431e-10
2.44857e-09
3.02739e-10
2.31743e-09
4.93739e-11
2.17775e-09
-1.3739e-10
2.16838e-09
-3.07815e-10
2.12336e-09
-5.46979e-10
2.08475e-09
-6.65068e-10
2.21876e-09
-6.33703e-10
2.27189e-09
-7.65248e-10
2.28113e-09
-7.87294e-10
2.21786e-09
-6.78826e-10
2.25885e-09
-1.30456e-10
1.95569e-09
5.80593e-10
8.77429e-10
1.40815e-09
-6.12506e-09
1.57508e-08
-2.14752e-08
-3.09238e-09
-8.73418e-09
-5.65157e-09
-2.57012e-09
-1.31414e-09
8.642e-10
1.28725e-09
3.10544e-09
3.04068e-09
4.24735e-09
3.541e-09
4.48635e-09
3.39918e-09
4.01885e-09
2.69747e-09
3.30033e-09
1.88592e-09
2.50792e-09
9.5567e-10
1.94309e-09
4.08452e-10
1.64814e-09
2.09178e-10
1.67677e-09
3.59178e-10
1.97334e-09
5.72445e-10
2.23243e-09
5.62612e-10
2.3778e-09
4.41412e-10
2.44928e-09
3.02015e-10
2.31797e-09
4.92885e-11
2.1782e-09
-1.37823e-10
2.16875e-09
-3.08549e-10
2.12402e-09
-5.47071e-10
2.0851e-09
-6.65442e-10
2.21854e-09
-6.3401e-10
2.27174e-09
-7.64839e-10
2.28041e-09
-7.86131e-10
2.2165e-09
-6.76796e-10
2.2566e-09
-1.2677e-10
1.95287e-09
5.87148e-10
8.86086e-10
1.40558e-09
-6.26259e-09
1.58287e-08
-2.12989e-08
-3.17562e-09
-8.78206e-09
-5.67642e-09
-2.57069e-09
-1.30681e-09
8.64765e-10
1.28776e-09
3.10423e-09
3.03946e-09
4.24805e-09
3.541e-09
4.48716e-09
3.39964e-09
4.01992e-09
2.69786e-09
3.30095e-09
1.88543e-09
2.50853e-09
9.54171e-10
1.94317e-09
4.06813e-10
1.64797e-09
2.08481e-10
1.67633e-09
3.58546e-10
1.97305e-09
5.71499e-10
2.23324e-09
5.61979e-10
2.37898e-09
4.40501e-10
2.44985e-09
3.01428e-10
2.31831e-09
4.95275e-11
2.17841e-09
-1.3804e-10
2.16883e-09
-3.09207e-10
2.1245e-09
-5.46903e-10
2.08526e-09
-6.65676e-10
2.21796e-09
-6.34249e-10
2.27138e-09
-7.64283e-10
2.27943e-09
-7.84828e-10
2.215e-09
-6.74713e-10
2.25438e-09
-1.23335e-10
1.9512e-09
5.92044e-10
9.02738e-10
1.39236e-09
-6.4091e-09
1.59348e-08
-2.11458e-08
-3.26373e-09
-8.81866e-09
-5.70619e-09
-2.57038e-09
-1.29695e-09
8.66052e-10
1.28893e-09
3.10296e-09
3.03842e-09
4.24894e-09
3.54128e-09
4.48801e-09
3.40039e-09
4.02095e-09
2.69843e-09
3.30131e-09
1.88493e-09
2.50894e-09
9.52522e-10
1.94296e-09
4.05077e-10
1.64755e-09
2.07959e-10
1.67565e-09
3.58145e-10
1.9725e-09
5.70696e-10
2.23398e-09
5.61562e-10
2.38013e-09
4.39729e-10
2.45021e-09
3.01027e-10
2.31841e-09
5.01238e-11
2.17833e-09
-1.3798e-10
2.16854e-09
-3.09706e-10
2.1247e-09
-5.46384e-10
2.08513e-09
-6.65656e-10
2.21691e-09
-6.34275e-10
2.27062e-09
-7.63423e-10
2.278e-09
-7.83165e-10
2.2131e-09
-6.72298e-10
2.25186e-09
-1.19818e-10
1.9503e-09
5.95301e-10
9.27581e-10
1.36671e-09
-6.55023e-09
1.60559e-08
-2.1037e-08
-3.34574e-09
-8.83611e-09
-5.74005e-09
-2.5693e-09
-1.28491e-09
8.67893e-10
1.29043e-09
3.10145e-09
3.03733e-09
4.24981e-09
3.54163e-09
4.48876e-09
3.40125e-09
4.02185e-09
2.69907e-09
3.3014e-09
1.8844e-09
2.50918e-09
9.5075e-10
1.94253e-09
4.03282e-10
1.64695e-09
2.076e-10
1.67478e-09
3.57936e-10
1.97172e-09
5.69987e-10
2.23463e-09
5.61309e-10
2.38124e-09
4.39055e-10
2.45036e-09
3.00774e-10
2.31827e-09
5.10215e-11
2.17799e-09
-1.37678e-10
2.16791e-09
-3.10057e-10
2.12464e-09
-5.45529e-10
2.08472e-09
-6.65382e-10
2.21539e-09
-6.34061e-10
2.26943e-09
-7.62225e-10
2.27606e-09
-7.81056e-10
2.2107e-09
-6.69417e-10
2.24886e-09
-1.1605e-10
1.94999e-09
5.96682e-10
9.61117e-10
1.32608e-09
-6.67223e-09
1.61843e-08
-2.09915e-08
-3.41485e-09
-8.82656e-09
-5.77657e-09
-2.56735e-09
-1.27089e-09
8.70177e-10
1.29203e-09
3.09953e-09
3.036e-09
4.25045e-09
3.54188e-09
4.48924e-09
3.40207e-09
4.02253e-09
2.69969e-09
3.30119e-09
1.88384e-09
2.50926e-09
9.48912e-10
1.9419e-09
4.01496e-10
1.64621e-09
2.0743e-10
1.67374e-09
3.57913e-10
1.97071e-09
5.69364e-10
2.23514e-09
5.61202e-10
2.38224e-09
4.38481e-10
2.45027e-09
3.00678e-10
2.31788e-09
5.22156e-11
2.17737e-09
-1.37114e-10
2.16692e-09
-3.10214e-10
2.12426e-09
-5.44295e-10
2.08399e-09
-6.64788e-10
2.21334e-09
-6.33516e-10
2.26771e-09
-7.60585e-10
2.27348e-09
-7.78357e-10
2.20764e-09
-6.65879e-10
2.24516e-09
-1.11866e-10
1.95013e-09
5.95781e-10
1.00415e-09
1.26742e-09
-6.76274e-09
1.63152e-08
-2.10252e-08
-3.46753e-09
-8.78313e-09
-5.8141e-09
-2.56434e-09
-1.25498e-09
8.72842e-10
1.29351e-09
3.09705e-09
3.03425e-09
4.25066e-09
3.54184e-09
4.48928e-09
3.4027e-09
4.02285e-09
2.70021e-09
3.30064e-09
1.88325e-09
2.5092e-09
9.47074e-10
1.94112e-09
3.99799e-10
1.64536e-09
2.07485e-10
1.67255e-09
3.58089e-10
1.96943e-09
5.68829e-10
2.23547e-09
5.6124e-10
2.38308e-09
4.38024e-10
2.44989e-09
3.00765e-10
2.31718e-09
5.37247e-11
2.17644e-09
-1.36247e-10
2.16551e-09
-3.10108e-10
2.12349e-09
-5.42613e-10
2.08284e-09
-6.63775e-10
2.21066e-09
-6.32517e-10
2.26531e-09
-7.58365e-10
2.27009e-09
-7.74889e-10
2.20372e-09
-6.61482e-10
2.24055e-09
-1.07137e-10
1.95068e-09
5.92072e-10
1.05765e-09
1.18768e-09
-6.81204e-09
1.64467e-08
-2.11498e-08
-3.50268e-09
-8.70019e-09
-5.85088e-09
-2.56005e-09
-1.2372e-09
8.7587e-10
1.29474e-09
3.09389e-09
3.03191e-09
4.25024e-09
3.54133e-09
4.4887e-09
3.40301e-09
4.02271e-09
2.70056e-09
3.29969e-09
1.88265e-09
2.50899e-09
9.45306e-10
1.94022e-09
3.98268e-10
1.64442e-09
2.07803e-10
1.6712e-09
3.58474e-10
1.96788e-09
5.68386e-10
2.23554e-09
5.61422e-10
2.38367e-09
4.37703e-10
2.44915e-09
3.01063e-10
2.31612e-09
5.55709e-11
2.17513e-09
-1.35027e-10
2.16363e-09
-3.09662e-10
2.12226e-09
-5.40406e-10
2.08121e-09
-6.62243e-10
2.20724e-09
-6.30939e-10
2.2621e-09
-7.55425e-10
2.26574e-09
-7.70485e-10
2.19877e-09
-6.56041e-10
2.23486e-09
-1.01796e-10
1.95169e-09
5.84942e-10
1.12256e-09
1.08432e-09
-6.81328e-09
1.65786e-08
-2.13727e-08
-3.52112e-09
-8.5738e-09
-5.88525e-09
-2.5543e-09
-1.21752e-09
8.79278e-10
1.2956e-09
3.08995e-09
3.02885e-09
4.24904e-09
3.54019e-09
4.48737e-09
3.40286e-09
4.02201e-09
2.70068e-09
3.29832e-09
1.88203e-09
2.50865e-09
9.43672e-10
1.93923e-09
3.96976e-10
1.64342e-09
2.08421e-10
1.66972e-09
3.59081e-10
1.96603e-09
5.68037e-10
2.23531e-09
5.61744e-10
2.38396e-09
4.37532e-10
2.448e-09
3.01595e-10
2.31467e-09
5.77743e-11
2.1734e-09
-1.33412e-10
2.16123e-09
-3.0881e-10
2.12048e-09
-5.37605e-10
2.079e-09
-6.60093e-10
2.20299e-09
-6.28667e-10
2.25794e-09
-7.51638e-10
2.26026e-09
-7.64996e-10
2.19261e-09
-6.49418e-10
2.22796e-09
-9.58481e-11
1.95327e-09
5.73751e-10
1.19974e-09
9.55516e-10
-6.76268e-09
1.6712e-08
-2.16976e-08
-3.52498e-09
-8.40057e-09
-5.91564e-09
-2.54698e-09
-1.19593e-09
8.83094e-10
1.29603e-09
3.08516e-09
3.02497e-09
4.24691e-09
3.5383e-09
4.48514e-09
3.40216e-09
4.02064e-09
2.7005e-09
3.2965e-09
1.88142e-09
2.50819e-09
9.42234e-10
1.93819e-09
3.95992e-10
1.6424e-09
2.09376e-10
1.66812e-09
3.59922e-10
1.96387e-09
5.67789e-10
2.23471e-09
5.62205e-10
2.38387e-09
4.37528e-10
2.44638e-09
3.02382e-10
2.31276e-09
6.03559e-11
2.1712e-09
-1.31357e-10
2.15825e-09
-3.0748e-10
2.11809e-09
-5.34141e-10
2.07613e-09
-6.57233e-10
2.19782e-09
-6.25593e-10
2.25273e-09
-7.46887e-10
2.25354e-09
-7.58297e-10
2.18513e-09
-6.41514e-10
2.21979e-09
-8.93551e-11
1.9556e-09
5.57896e-10
1.28975e-09
8.00358e-10
-6.65888e-09
1.68487e-08
-2.21243e-08
-3.51755e-09
-8.17917e-09
-5.94062e-09
-2.53807e-09
-1.17242e-09
8.8735e-10
1.29599e-09
3.07946e-09
3.02017e-09
4.24372e-09
3.53554e-09
4.4819e-09
3.40079e-09
4.01854e-09
2.69999e-09
3.2942e-09
1.88081e-09
2.50761e-09
9.41049e-10
1.93713e-09
3.95382e-10
1.64139e-09
2.10704e-10
1.6664e-09
3.61014e-10
1.96139e-09
5.67648e-10
2.23369e-09
5.62806e-10
2.38334e-09
4.37704e-10
2.44424e-09
3.03445e-10
2.31035e-09
6.33365e-11
2.16849e-09
-1.28819e-10
2.15464e-09
-3.0561e-10
2.11502e-09
-5.29951e-10
2.07254e-09
-6.53578e-10
2.19165e-09
-6.2162e-10
2.24636e-09
-7.41073e-10
2.24547e-09
-7.50293e-10
2.17622e-09
-6.32271e-10
2.21031e-09
-8.24179e-11
1.95887e-09
5.36879e-10
1.39283e-09
6.18774e-10
-6.50284e-09
1.69908e-08
-2.26496e-08
-3.50268e-09
-7.90912e-09
-5.95892e-09
-2.5276e-09
-1.14703e-09
8.92065e-10
1.29545e-09
3.07284e-09
3.0144e-09
4.23937e-09
3.53181e-09
4.47755e-09
3.39868e-09
4.01562e-09
2.69909e-09
3.29139e-09
1.88021e-09
2.50693e-09
9.40169e-10
1.93608e-09
3.95205e-10
1.6404e-09
2.1244e-10
1.66457e-09
3.62377e-10
1.95857e-09
5.67626e-10
2.23222e-09
5.6355e-10
2.38232e-09
4.38077e-10
2.44153e-09
3.04802e-10
2.30739e-09
6.67365e-11
2.16521e-09
-1.25758e-10
2.15036e-09
-3.03139e-10
2.11121e-09
-5.24977e-10
2.06813e-09
-6.4905e-10
2.18441e-09
-6.16664e-10
2.23873e-09
-7.34112e-10
2.23596e-09
-7.40911e-10
2.16581e-09
-6.21662e-10
2.19954e-09
-7.51534e-11
1.96324e-09
5.10347e-10
1.50883e-09
4.11632e-10
-6.29726e-09
1.71402e-08
-2.32668e-08
-3.4845e-09
-7.59118e-09
-5.9695e-09
-2.51573e-09
-1.11983e-09
8.97244e-10
1.29439e-09
3.06526e-09
3.00761e-09
4.23379e-09
3.52705e-09
4.47202e-09
3.39575e-09
4.01183e-09
2.69776e-09
3.28807e-09
1.87962e-09
2.50614e-09
9.39639e-10
1.93507e-09
3.95514e-10
1.63948e-09
2.1462e-10
1.66266e-09
3.64029e-10
1.95541e-09
5.67739e-10
2.23025e-09
5.64443e-10
2.38075e-09
4.38661e-10
2.43821e-09
3.06472e-10
2.30386e-09
7.05746e-11
2.16133e-09
-1.22135e-10
2.14537e-09
-3.00012e-10
2.10661e-09
-5.19168e-10
2.06286e-09
-6.43583e-10
2.17602e-09
-6.10654e-10
2.22977e-09
-7.2594e-10
2.22494e-09
-7.30103e-10
2.15387e-09
-6.09688e-10
2.1875e-09
-6.76789e-11
1.96884e-09
4.78119e-10
1.63723e-09
1.80667e-10
-6.04661e-09
1.72984e-08
-2.3967e-08
-3.4672e-09
-7.227e-09
-5.97141e-09
-2.50263e-09
-1.09096e-09
9.02868e-10
1.2928e-09
3.0567e-09
2.99975e-09
4.22692e-09
3.52119e-09
4.46524e-09
3.39194e-09
4.00711e-09
2.69598e-09
3.2842e-09
1.87905e-09
2.50524e-09
9.39497e-10
1.93412e-09
3.96357e-10
1.63863e-09
2.17273e-10
1.66067e-09
3.65995e-10
1.9519e-09
5.68004e-10
2.22775e-09
5.65493e-10
2.37859e-09
4.39473e-10
2.43423e-09
3.08471e-10
2.29969e-09
7.48687e-11
2.15681e-09
-1.17917e-10
2.13962e-09
-2.9618e-10
2.10115e-09
-5.1248e-10
2.05668e-09
-6.3712e-10
2.16646e-09
-6.03531e-10
2.21944e-09
-7.16505e-10
2.21237e-09
-7.17843e-10
2.14036e-09
-5.96369e-10
2.17421e-09
-6.00954e-11
1.97574e-09
4.40197e-10
1.77711e-09
-7.16008e-11
-5.75634e-09
1.74659e-08
-2.47392e-08
-3.45514e-09
-6.81924e-09
-5.96387e-09
-2.48851e-09
-1.06055e-09
9.08908e-10
1.29067e-09
3.04715e-09
2.99081e-09
4.21871e-09
3.51419e-09
4.45715e-09
3.38721e-09
4.00142e-09
2.69371e-09
3.27977e-09
1.87849e-09
2.50422e-09
9.39774e-10
1.93323e-09
3.97773e-10
1.63789e-09
2.2043e-10
1.65862e-09
3.68298e-10
1.94805e-09
5.68444e-10
2.22469e-09
5.66713e-10
2.3758e-09
4.40527e-10
2.42955e-09
3.10815e-10
2.29486e-09
7.96347e-11
2.15161e-09
-1.13074e-10
2.13307e-09
-2.91602e-10
2.0948e-09
-5.04879e-10
2.04952e-09
-6.29615e-10
2.15566e-09
-5.95252e-10
2.20768e-09
-7.05773e-10
2.19822e-09
-7.04118e-10
2.12529e-09
-5.81731e-10
2.15972e-09
-5.24816e-11
1.98393e-09
3.96768e-10
1.92722e-09
-3.42119e-10
-5.43281e-09
1.76432e-08
-2.55708e-08
-3.45239e-09
-6.37134e-09
-5.94621e-09
-2.47357e-09
-1.02881e-09
9.15319e-10
1.28798e-09
3.03661e-09
2.98077e-09
4.20912e-09
3.50603e-09
4.44774e-09
3.38153e-09
3.99474e-09
2.69094e-09
3.27477e-09
1.87793e-09
2.50309e-09
9.40496e-10
1.93243e-09
3.99792e-10
1.63725e-09
2.24116e-10
1.65652e-09
3.7096e-10
1.94385e-09
5.69081e-10
2.22105e-09
5.68115e-10
2.37234e-09
4.4184e-10
2.42416e-09
3.13517e-10
2.28935e-09
8.48873e-11
2.14569e-09
-1.0758e-10
2.1257e-09
-2.86241e-10
2.08752e-09
-4.96337e-10
2.04135e-09
-6.21032e-10
2.14361e-09
-5.85783e-10
2.19448e-09
-6.93722e-10
2.18248e-09
-6.88933e-10
2.10864e-09
-5.6581e-10
2.14405e-09
-4.48879e-11
1.99334e-09
3.48188e-10
2.08595e-09
-6.27267e-10
-5.08281e-09
1.78298e-08
-2.64475e-08
-3.46247e-09
-5.88755e-09
-5.91803e-09
-2.45804e-09
-9.95944e-10
9.2205e-10
1.28474e-09
3.02507e-09
2.96963e-09
4.19814e-09
3.49669e-09
4.43698e-09
3.37487e-09
3.98703e-09
2.68765e-09
3.2692e-09
1.87739e-09
2.50183e-09
9.41678e-10
1.93172e-09
4.02441e-10
1.63674e-09
2.2835e-10
1.65438e-09
3.74004e-10
1.9393e-09
5.69941e-10
2.21682e-09
5.69715e-10
2.36818e-09
4.43427e-10
2.41802e-09
3.16591e-10
2.28311e-09
9.06382e-11
2.13904e-09
-1.01414e-10
2.11749e-09
-2.8007e-10
2.0793e-09
-4.86834e-10
2.03216e-09
-6.11345e-10
2.13029e-09
-5.75102e-10
2.17981e-09
-6.80343e-10
2.16515e-09
-6.72298e-10
2.09044e-09
-5.48644e-10
2.12723e-09
-3.73355e-11
2.00385e-09
2.94979e-10
2.25145e-09
-9.22885e-10
-4.71365e-09
1.80242e-08
-2.73546e-08
-3.48831e-09
-5.37263e-09
-5.87904e-09
-2.44218e-09
-9.62205e-10
9.29034e-10
1.28095e-09
3.01253e-09
2.95739e-09
4.18575e-09
3.48615e-09
4.42485e-09
3.36723e-09
3.97828e-09
2.68383e-09
3.26303e-09
1.87685e-09
2.50042e-09
9.43332e-10
1.93109e-09
4.05736e-10
1.63636e-09
2.33148e-10
1.65219e-09
3.77451e-10
1.93441e-09
5.71049e-10
2.21199e-09
5.71528e-10
2.36332e-09
4.45305e-10
2.41111e-09
3.20049e-10
2.27614e-09
9.68977e-11
2.13162e-09
-9.45597e-11
2.10842e-09
-2.73065e-10
2.0701e-09
-4.76359e-10
2.0219e-09
-6.00534e-10
2.11568e-09
-5.63199e-10
2.16368e-09
-6.65635e-10
2.14623e-09
-6.54237e-10
2.0707e-09
-5.3027e-10
2.10928e-09
-2.98147e-11
2.01525e-09
2.37808e-10
2.42162e-09
-1.22444e-09
-4.33261e-09
1.8224e-08
-2.82767e-08
-3.53257e-09
-4.83189e-09
-5.82907e-09
-2.42616e-09
-9.27841e-10
9.36207e-10
1.2766e-09
2.99899e-09
2.94406e-09
4.17196e-09
3.47444e-09
4.41136e-09
3.35861e-09
3.96849e-09
2.67948e-09
3.25626e-09
1.87631e-09
2.49886e-09
9.45465e-10
1.93054e-09
4.09687e-10
1.6361e-09
2.38522e-10
1.64997e-09
3.8132e-10
1.92919e-09
5.7243e-10
2.20655e-09
5.73569e-10
2.35773e-09
4.47489e-10
2.40343e-09
3.23903e-10
2.26841e-09
1.03675e-10
2.12343e-09
-8.70045e-11
2.09847e-09
-2.65214e-10
2.05992e-09
-4.64904e-10
2.01057e-09
-5.88591e-10
2.09978e-09
-5.50069e-10
2.14608e-09
-6.49607e-10
2.12575e-09
-6.34777e-10
2.04945e-09
-5.10727e-10
2.09018e-09
-2.22878e-11
2.02729e-09
1.77473e-10
2.59416e-09
-1.52735e-09
-3.94682e-09
1.84266e-08
-2.91986e-08
-3.59728e-09
-4.27093e-09
-5.76807e-09
-2.41013e-09
-8.9312e-10
9.43496e-10
1.27172e-09
2.98448e-09
2.92965e-09
4.15677e-09
3.46157e-09
4.39653e-09
3.34902e-09
3.95766e-09
2.67461e-09
3.24889e-09
1.87576e-09
2.49713e-09
9.48077e-10
1.93006e-09
4.14299e-10
1.63596e-09
2.44478e-10
1.64772e-09
3.85627e-10
1.92362e-09
5.74106e-10
2.2005e-09
5.75853e-10
2.35141e-09
4.49993e-10
2.39496e-09
3.28163e-10
2.25991e-09
1.10976e-10
2.11444e-09
-7.87406e-11
2.08764e-09
-2.56505e-10
2.04876e-09
-4.5247e-10
1.99816e-09
-5.7551e-10
2.0826e-09
-5.35719e-10
2.12703e-09
-6.32277e-10
2.10373e-09
-6.13956e-10
2.02671e-09
-4.90049e-10
2.06995e-09
-1.46888e-11
2.03965e-09
1.14882e-10
2.76664e-09
-1.82699e-09
-3.56295e-09
1.86285e-08
-3.01049e-08
-3.68357e-09
-3.69564e-09
-5.69623e-09
-2.39427e-09
-8.58326e-10
9.50826e-10
1.26632e-09
2.969e-09
2.91418e-09
4.1402e-09
3.44755e-09
4.38036e-09
3.33847e-09
3.94579e-09
2.66922e-09
3.24093e-09
1.8752e-09
2.49522e-09
9.51165e-10
1.92964e-09
4.1957e-10
1.63593e-09
2.51019e-10
1.64543e-09
3.90386e-10
1.91772e-09
5.76099e-10
2.19385e-09
5.78392e-10
2.34436e-09
4.52831e-10
2.3857e-09
3.32839e-10
2.25064e-09
1.18807e-10
2.10466e-09
-6.9764e-11
2.07593e-09
-2.46936e-10
2.03661e-09
-4.39061e-10
1.98467e-09
-5.61294e-10
2.06415e-09
-5.20163e-10
2.10656e-09
-6.13671e-10
2.08021e-09
-5.91813e-10
2.00252e-09
-4.68271e-10
2.04858e-09
-6.92684e-12
2.05197e-09
5.10275e-11
2.93654e-09
-2.11859e-09
-3.18733e-09
1.88254e-08
-3.0981e-08
-3.79183e-09
-3.11192e-09
-5.61385e-09
-2.37871e-09
-8.23754e-10
9.58116e-10
1.26041e-09
2.95257e-09
2.8977e-09
4.12228e-09
3.43243e-09
4.36289e-09
3.327e-09
3.93291e-09
2.66333e-09
3.23237e-09
1.87463e-09
2.49311e-09
9.54723e-10
1.92926e-09
4.25494e-10
1.636e-09
2.58141e-10
1.64309e-09
3.95605e-10
1.91149e-09
5.78425e-10
2.1866e-09
5.81199e-10
2.33659e-09
4.56018e-10
2.37565e-09
3.3794e-10
2.2406e-09
1.27169e-10
2.09408e-09
-6.00755e-11
2.06334e-09
-2.36505e-10
2.02348e-09
-4.24685e-10
1.97009e-09
-5.45953e-10
2.04444e-09
-5.03421e-10
2.0847e-09
-5.93821e-10
2.05523e-09
-5.68393e-10
1.9769e-09
-4.4543e-10
2.02604e-09
1.11136e-12
2.06386e-09
-1.30326e-11
3.10132e-09
-2.39751e-09
-2.82568e-09
1.90125e-08
-3.18131e-08
-3.92214e-09
-2.52574e-09
-5.52126e-09
-2.36351e-09
-7.89675e-10
9.65291e-10
1.25404e-09
2.93523e-09
2.88023e-09
4.10305e-09
3.41625e-09
4.34415e-09
3.31464e-09
3.91902e-09
2.65695e-09
3.22322e-09
1.87404e-09
2.4908e-09
9.58744e-10
1.9289e-09
4.32062e-10
1.63616e-09
2.65841e-10
1.64071e-09
4.01293e-10
1.90493e-09
5.811e-10
2.17877e-09
5.84283e-10
2.32809e-09
4.59564e-10
2.36482e-09
3.43475e-10
2.22979e-09
1.36063e-10
2.0827e-09
-4.96792e-11
2.04988e-09
-2.2522e-10
2.00938e-09
-4.09354e-10
1.95445e-09
-5.29501e-10
2.0235e-09
-4.85521e-10
2.06148e-09
-5.72764e-10
2.02884e-09
-5.43746e-10
1.9499e-09
-4.21554e-10
2.0023e-09
9.55829e-12
2.07487e-09
-7.62005e-11
3.25845e-09
-2.65949e-09
-2.48298e-09
1.91851e-08
-3.25886e-08
-4.07405e-09
-1.94288e-09
-5.4189e-09
-2.34867e-09
-7.56355e-10
9.72274e-10
1.24722e-09
2.917e-09
2.86181e-09
4.08253e-09
3.39905e-09
4.32417e-09
3.30143e-09
3.90415e-09
2.6501e-09
3.2135e-09
1.87344e-09
2.48825e-09
9.63216e-10
1.92855e-09
4.3926e-10
1.63639e-09
2.74109e-10
1.63826e-09
4.07451e-10
1.89806e-09
5.84134e-10
2.17036e-09
5.87651e-10
2.31889e-09
4.63482e-10
2.35322e-09
3.49448e-10
2.21821e-09
1.45487e-10
2.07054e-09
-3.85831e-11
2.03556e-09
-2.13087e-10
1.99432e-09
-3.93085e-10
1.93774e-09
-5.11958e-10
2.00137e-09
-4.66498e-10
2.03694e-09
-5.50543e-10
2.00107e-09
-5.17925e-10
1.92156e-09
-3.96672e-10
1.97734e-09
1.85621e-11
2.08457e-09
-1.37365e-10
3.40547e-09
-2.90057e-09
-2.1633e-09
1.93382e-08
-3.3296e-08
-4.24623e-09
-1.36887e-09
-5.30733e-09
-2.33422e-09
-7.2406e-10
9.78991e-10
1.24e-09
2.89792e-09
2.8425e-09
4.06077e-09
3.38088e-09
4.30299e-09
3.28742e-09
3.88833e-09
2.64281e-09
3.20321e-09
1.87281e-09
2.48548e-09
9.68127e-10
1.92818e-09
4.47073e-10
1.63666e-09
2.82934e-10
1.63575e-09
4.1408e-10
1.89086e-09
5.87534e-10
2.1614e-09
5.9131e-10
2.30899e-09
4.67782e-10
2.34084e-09
3.55866e-10
2.20588e-09
1.55436e-10
2.0576e-09
-2.67978e-11
2.02041e-09
-2.00119e-10
1.97833e-09
-3.75896e-10
1.91998e-09
-4.9335e-10
1.97807e-09
-4.46391e-10
2.01115e-09
-5.27207e-10
1.972e-09
-4.90982e-10
1.89191e-09
-3.70811e-10
1.95111e-09
2.82827e-11
2.09249e-09
-1.95426e-10
3.54006e-09
-3.11708e-09
-1.87006e-09
1.94666e-08
-3.39259e-08
-4.43691e-09
-8.08902e-10
-5.18719e-09
-2.32013e-09
-6.93046e-10
9.85367e-10
1.23241e-09
2.87803e-09
2.82235e-09
4.03782e-09
3.36181e-09
4.28067e-09
3.27264e-09
3.8716e-09
2.63509e-09
3.19237e-09
1.87215e-09
2.48246e-09
9.73464e-10
1.92777e-09
4.55481e-10
1.63697e-09
2.92303e-10
1.63316e-09
4.21177e-10
1.88335e-09
5.91305e-10
2.15191e-09
5.95265e-10
2.2984e-09
4.72473e-10
2.32772e-09
3.62731e-10
2.1928e-09
1.65902e-10
2.04391e-09
-1.43378e-11
2.00444e-09
-1.8633e-10
1.96142e-09
-3.5781e-10
1.90122e-09
-4.73708e-10
1.95365e-09
-4.25244e-10
1.98414e-09
-5.02806e-10
1.94167e-09
-4.62975e-10
1.861e-09
-3.44001e-10
1.92357e-09
3.88863e-11
2.09817e-09
-2.49316e-10
3.66008e-09
-3.30576e-09
-1.60588e-09
1.95648e-08
-3.44686e-08
-4.64426e-09
-2.6784e-10
-5.05913e-09
-2.30631e-09
-6.6353e-10
9.91339e-10
1.2245e-09
2.85737e-09
2.80141e-09
4.01372e-09
3.3419e-09
4.25726e-09
3.25717e-09
3.854e-09
2.62699e-09
3.181e-09
1.87148e-09
2.47919e-09
9.79212e-10
1.9273e-09
4.64465e-10
1.63728e-09
3.02199e-10
1.63048e-09
4.28735e-10
1.87555e-09
5.9545e-10
2.14189e-09
5.99519e-10
2.28714e-09
4.77562e-10
2.31385e-09
3.70042e-10
2.17901e-09
1.76874e-10
2.02949e-09
-1.21972e-12
1.98768e-09
-1.71735e-10
1.94362e-09
-3.3885e-10
1.88146e-09
-4.53066e-10
1.92817e-09
-4.03105e-10
1.95598e-09
-4.77392e-10
1.91015e-09
-4.33962e-10
1.82887e-09
-3.16266e-10
1.89469e-09
5.05419e-11
2.10116e-09
-2.98021e-10
3.76356e-09
-3.46396e-09
-1.37249e-09
1.96282e-08
-3.49179e-08
-4.86617e-09
2.49952e-10
-4.92377e-09
-2.29262e-09
-6.35696e-10
9.9685e-10
1.21633e-09
2.836e-09
2.77975e-09
3.98854e-09
3.32121e-09
4.23279e-09
3.24104e-09
3.83556e-09
2.61851e-09
3.16913e-09
1.87077e-09
2.47565e-09
9.85357e-10
1.92675e-09
4.74002e-10
1.63759e-09
3.12603e-10
1.62771e-09
4.36743e-10
1.86745e-09
5.99966e-10
2.13138e-09
6.04077e-10
2.27523e-09
4.83056e-10
2.29926e-09
3.77797e-10
2.1645e-09
1.88339e-10
2.01434e-09
1.25376e-11
1.97014e-09
-1.56354e-10
1.92496e-09
-3.19044e-10
1.86075e-09
-4.31464e-10
1.90167e-09
-3.80026e-10
1.92672e-09
-4.5102e-10
1.87749e-09
-4.04002e-10
1.79557e-09
-2.87628e-10
1.8644e-09
6.34166e-11
2.10101e-09
-3.40604e-10
3.84878e-09
-3.58958e-09
-1.17079e-09
1.96525e-08
-3.52686e-08
-5.09995e-09
7.40696e-10
-4.78182e-09
-2.27892e-09
-6.09722e-10
1.00185e-09
1.20794e-09
2.81396e-09
2.75742e-09
3.96233e-09
3.29982e-09
4.20734e-09
3.22431e-09
3.81632e-09
2.60969e-09
3.15676e-09
1.87004e-09
2.47185e-09
9.91883e-10
1.92611e-09
4.8407e-10
1.63787e-09
3.23496e-10
1.62484e-09
4.4519e-10
1.85906e-09
6.04852e-10
2.12039e-09
6.0894e-10
2.26268e-09
4.8896e-10
2.28396e-09
3.85991e-10
2.14932e-09
2.00282e-10
1.99852e-09
2.69134e-11
1.95186e-09
-1.40206e-10
1.90547e-09
-2.98424e-10
1.83911e-09
-4.08945e-10
1.8742e-09
-3.56058e-10
1.89644e-09
-4.23745e-10
1.84376e-09
-3.73152e-10
1.76114e-09
-2.58113e-10
1.83268e-09
7.76724e-11
2.09732e-09
-3.76219e-10
3.91429e-09
-3.68096e-09
-1.00093e-09
1.96333e-08
-3.55171e-08
-5.34272e-09
1.20115e-09
-4.63398e-09
-2.26506e-09
-5.85761e-10
1.00629e-09
1.1994e-09
2.7913e-09
2.7345e-09
3.93514e-09
3.27778e-09
4.18096e-09
3.20704e-09
3.79635e-09
2.60055e-09
3.14393e-09
1.86929e-09
2.46777e-09
9.98772e-10
1.92534e-09
4.94644e-10
1.6381e-09
3.34854e-10
1.62186e-09
4.54061e-10
1.85041e-09
6.10104e-10
2.10895e-09
6.14111e-10
2.24951e-09
4.95275e-10
2.26798e-09
3.94616e-10
2.13349e-09
2.12683e-10
1.98202e-09
4.18853e-11
1.93287e-09
-1.23315e-10
1.88518e-09
-2.77022e-10
1.81661e-09
-3.85554e-10
1.84582e-09
-3.31255e-10
1.86518e-09
-3.95624e-10
1.80901e-09
-3.41473e-10
1.72562e-09
-2.27749e-10
1.79947e-09
9.34604e-11
2.08971e-09
-4.04127e-10
3.95892e-09
-3.737e-09
-8.62519e-10
1.95667e-08
-3.56614e-08
-5.59172e-09
1.62863e-09
-4.48093e-09
-2.25083e-09
-5.63918e-10
1.01013e-09
1.19076e-09
2.76807e-09
2.71106e-09
3.90704e-09
3.25517e-09
4.1537e-09
3.18929e-09
3.77568e-09
2.59112e-09
3.13065e-09
1.8685e-09
2.46341e-09
1.00601e-09
1.92442e-09
5.05699e-10
1.63826e-09
3.46654e-10
1.61876e-09
4.63338e-10
1.84149e-09
6.15718e-10
2.09706e-09
6.19593e-10
2.23574e-09
5.02005e-10
2.25134e-09
4.03661e-10
2.11702e-09
2.25524e-10
1.9649e-09
5.74297e-11
1.91318e-09
-1.05704e-10
1.86412e-09
-2.54875e-10
1.79327e-09
-3.61341e-10
1.8166e-09
-3.05672e-10
1.83302e-09
-3.66712e-10
1.77332e-09
-3.09025e-10
1.68907e-09
-1.96561e-10
1.76474e-09
1.10918e-10
2.07785e-09
-4.23708e-10
3.98178e-09
-3.75716e-09
-7.54378e-10
1.94497e-08
-3.57011e-08
-5.84436e-09
2.02101e-09
-4.32328e-09
-2.23599e-09
-5.44257e-10
1.01336e-09
1.18209e-09
2.74435e-09
2.68717e-09
3.87809e-09
3.23207e-09
4.12564e-09
3.17109e-09
3.75436e-09
2.58143e-09
3.11696e-09
1.86769e-09
2.45876e-09
1.01358e-09
1.92335e-09
5.17207e-10
1.63834e-09
3.58871e-10
1.61555e-09
4.73005e-10
1.83233e-09
6.21688e-10
2.08476e-09
6.25386e-10
2.22138e-09
5.09147e-10
2.23406e-09
4.13113e-10
2.09995e-09
2.38783e-10
1.94716e-09
7.35216e-11
1.89283e-09
-8.74003e-11
1.84233e-09
-2.32023e-10
1.76915e-09
-3.36353e-10
1.78659e-09
-2.79362e-10
1.80001e-09
-3.37064e-10
1.73674e-09
-2.75871e-10
1.65154e-09
-1.64577e-10
1.72846e-09
1.30164e-10
2.06144e-09
-4.34466e-10
3.98227e-09
-3.74152e-09
-6.74755e-10
1.92798e-08
-3.56374e-08
-6.09774e-09
2.37688e-09
-4.16163e-09
-2.22032e-09
-5.26829e-10
1.01596e-09
1.17346e-09
2.72018e-09
2.6629e-09
3.84836e-09
3.20853e-09
4.09683e-09
3.15251e-09
3.73245e-09
2.5715e-09
3.10287e-09
1.86685e-09
2.45383e-09
1.02147e-09
1.9221e-09
5.29144e-10
1.63833e-09
3.71477e-10
1.61222e-09
4.83043e-10
1.82293e-09
6.2801e-10
2.07206e-09
6.31492e-10
2.20647e-09
5.16702e-10
2.21617e-09
4.22959e-10
2.08232e-09
2.52439e-10
1.92885e-09
9.01358e-11
1.87185e-09
-6.84325e-11
1.81985e-09
-2.08505e-10
1.7443e-09
-3.10641e-10
1.75584e-09
-2.52379e-10
1.76621e-09
-3.06735e-10
1.69934e-09
-2.42069e-10
1.61307e-09
-1.31826e-10
1.69061e-09
1.51299e-10
2.04026e-09
-4.36045e-10
3.96012e-09
-3.69054e-09
-6.21382e-10
1.90552e-08
-3.54727e-08
-6.34917e-09
2.69536e-09
-3.99657e-09
-2.20361e-09
-5.11658e-10
1.01792e-09
1.16493e-09
2.69563e-09
2.63832e-09
3.81791e-09
3.18463e-09
4.06734e-09
3.1336e-09
3.71001e-09
2.56135e-09
3.08842e-09
1.86599e-09
2.44862e-09
1.02966e-09
1.92066e-09
5.41481e-10
1.63821e-09
3.84445e-10
1.60876e-09
4.9343e-10
1.8133e-09
6.34677e-10
2.05898e-09
6.37913e-10
2.19103e-09
5.24663e-10
2.19769e-09
4.33183e-10
2.06414e-09
2.66468e-10
1.90997e-09
1.07245e-10
1.85025e-09
-4.8832e-11
1.79671e-09
-1.84367e-10
1.71877e-09
-2.84259e-10
1.72443e-09
-2.24774e-10
1.7317e-09
-2.75781e-10
1.66118e-09
-2.07683e-10
1.57373e-09
-9.8345e-11
1.65116e-09
1.74402e-10
2.01412e-09
-4.28218e-10
3.91534e-09
-3.60521e-09
-5.91738e-10
1.87747e-08
-3.52108e-08
-6.59605e-09
2.97615e-09
-3.82863e-09
-2.18561e-09
-4.98727e-10
1.01924e-09
1.15658e-09
2.67075e-09
2.61352e-09
3.78681e-09
3.16043e-09
4.03724e-09
3.1144e-09
3.68709e-09
2.55101e-09
3.07362e-09
1.8651e-09
2.44311e-09
1.03813e-09
1.919e-09
5.5419e-10
1.63796e-09
3.97748e-10
1.60519e-09
5.04149e-10
1.80345e-09
6.41686e-10
2.04554e-09
6.44648e-10
2.17507e-09
5.33026e-10
2.17866e-09
4.43768e-10
2.04545e-09
2.80848e-10
1.89057e-09
1.24823e-10
1.82808e-09
-2.86322e-11
1.77295e-09
-1.59653e-10
1.6926e-09
-2.57256e-10
1.69239e-09
-1.96599e-10
1.69653e-09
-2.44256e-10
1.62233e-09
-1.72773e-10
1.53355e-09
-6.41689e-11
1.61012e-09
1.99525e-10
1.9829e-09
-4.10896e-10
3.84822e-09
-3.48691e-09
-5.82814e-10
1.84375e-08
-3.48569e-08
-6.83616e-09
3.21945e-09
-3.65825e-09
-2.16607e-09
-4.87976e-10
1.01996e-09
1.14846e-09
2.64561e-09
2.58855e-09
3.75513e-09
3.13601e-09
4.0066e-09
3.09496e-09
3.66375e-09
2.54051e-09
3.05851e-09
1.86418e-09
2.4373e-09
1.04688e-09
1.91713e-09
5.67245e-10
1.63758e-09
4.11357e-10
1.60149e-09
5.15178e-10
1.79339e-09
6.49029e-10
2.03175e-09
6.51696e-10
2.15862e-09
5.41786e-10
2.1591e-09
4.54696e-10
2.02628e-09
2.95558e-10
1.87067e-09
1.42842e-10
1.80535e-09
-7.86805e-12
1.74861e-09
-1.34413e-10
1.66585e-09
-2.29683e-10
1.6598e-09
-1.67907e-10
1.66076e-09
-2.12214e-10
1.58284e-09
-1.37404e-10
1.49261e-09
-2.93354e-11
1.56747e-09
2.26694e-10
1.94653e-09
-3.84123e-10
3.75929e-09
-3.33749e-09
-5.91322e-10
1.80439e-08
-3.44169e-08
-7.06728e-09
3.42611e-09
-3.48583e-09
-2.14476e-09
-4.79334e-10
1.02008e-09
1.14067e-09
2.62028e-09
2.5635e-09
3.72293e-09
3.11141e-09
3.97548e-09
3.07532e-09
3.64003e-09
2.52986e-09
3.0431e-09
1.86324e-09
2.43121e-09
1.05588e-09
1.91502e-09
5.80618e-10
1.63705e-09
4.25245e-10
1.59766e-09
5.26499e-10
1.78313e-09
6.56701e-10
2.01764e-09
6.59056e-10
2.1417e-09
5.50934e-10
2.13906e-09
4.65952e-10
2.00667e-09
3.10574e-10
1.85028e-09
1.61273e-10
1.78209e-09
1.34234e-11
1.72373e-09
-1.08692e-10
1.63857e-09
-2.01591e-10
1.62669e-09
-1.38745e-10
1.62445e-09
-1.79708e-10
1.54279e-09
-1.01636e-10
1.45095e-09
6.11175e-12
1.52325e-09
2.55911e-10
1.905e-09
-3.48074e-10
3.64935e-09
-3.15908e-09
-6.13707e-10
1.75947e-08
-3.38979e-08
-7.28746e-09
3.59741e-09
-3.31173e-09
-2.12149e-09
-4.72707e-10
1.01966e-09
1.13325e-09
2.59481e-09
2.53843e-09
3.6903e-09
3.0867e-09
3.94396e-09
3.05554e-09
3.616e-09
2.51909e-09
3.02741e-09
1.86228e-09
2.42482e-09
1.06513e-09
1.91266e-09
5.94282e-10
1.63638e-09
4.39386e-10
1.5937e-09
5.38093e-10
1.77267e-09
6.64695e-10
2.00322e-09
6.66724e-10
2.12436e-09
5.60461e-10
2.11855e-09
4.77518e-10
1.98663e-09
3.25877e-10
1.82945e-09
1.80087e-10
1.75833e-09
3.52033e-11
1.69835e-09
-8.25416e-11
1.61081e-09
-1.73031e-10
1.59313e-09
-1.09163e-10
1.58766e-09
-1.46792e-10
1.50223e-09
-6.55329e-11
1.40864e-09
4.21236e-11
1.47746e-09