/*--------------------------------*- C++ -*----------------------------------*\
| =========                 |                                                 |
| \\      /  F ield         | OpenFOAM: The Open Source CFD Toolbox           |
|  \\    /   O peration     | Version:  2312                                  |
|   \\  /    A nd           | Website:  www.openfoam.com                      |
|    \\/     M anipulation  |                                                 |
\*---------------------------------------------------------------------------*/
FoamFile
{
    version     2.0;
    format      ascii;
    arch        "LSB;label=32;scalar=64";
    class       volScalarField;
    location    "200";
    object      pMean;
}
// * * * * * * * * * * * * * * * * * * * * * * * * * * * * * * * * * * * * * //

dimensions      [0 2 -2 0 0 0 0];

internalField   nonuniform List<scalar> 
330000
(
-1.11014e-08
-4.77658e-09
-8.94054e-09
-7.56073e-09
-5.4981e-09
-4.03119e-09
-2.6665e-09
-2.03876e-09
-1.1889e-09
-9.72895e-10
-3.92492e-10
-4.11171e-10
1.13877e-10
-4.6346e-11
4.52207e-10
1.8994e-10
7.38178e-10
3.9709e-10
9.58204e-10
5.2543e-10
1.15246e-09
6.31704e-10
1.30568e-09
6.89296e-10
1.454e-09
7.5613e-10
1.61663e-09
8.13748e-10
1.75749e-09
8.35735e-10
1.89944e-09
8.68361e-10
2.06977e-09
9.03542e-10
2.22558e-09
9.07696e-10
2.40258e-09
9.43953e-10
2.61751e-09
9.82192e-10
2.83525e-09
1.00535e-09
3.07913e-09
1.0571e-09
3.38054e-09
1.13209e-09
3.694e-09
1.2074e-09
4.0629e-09
1.34425e-09
4.50347e-09
1.57698e-09
5.01797e-09
1.97404e-09
5.48738e-09
2.76103e-09
5.86293e-09
4.62832e-09
-3.72111e-09
1.88731e-08
-1.09909e-08
-4.74785e-09
-8.94768e-09
-7.56858e-09
-5.50141e-09
-4.03316e-09
-2.66873e-09
-2.04076e-09
-1.19084e-09
-9.74692e-10
-3.94093e-10
-4.12612e-10
1.12508e-10
-4.7548e-11
4.51061e-10
1.88963e-10
7.37165e-10
3.96289e-10
9.57235e-10
5.24773e-10
1.15156e-09
6.31185e-10
1.30484e-09
6.88949e-10
1.45317e-09
7.55901e-10
1.61578e-09
8.13636e-10
1.75664e-09
8.35807e-10
1.89853e-09
8.6854e-10
2.06878e-09
9.03854e-10
2.22452e-09
9.08227e-10
2.40141e-09
9.44651e-10
2.61619e-09
9.83084e-10
2.83378e-09
1.00656e-09
3.07745e-09
1.05856e-09
3.37859e-09
1.13393e-09
3.6917e-09
1.20979e-09
4.06015e-09
1.34736e-09
4.50009e-09
1.58117e-09
5.01364e-09
1.98032e-09
5.48091e-09
2.77137e-09
5.85624e-09
4.65648e-09
-3.7694e-09
1.88029e-08
-1.0881e-08
-4.72643e-09
-8.9539e-09
-7.57633e-09
-5.50446e-09
-4.03482e-09
-2.67076e-09
-2.04309e-09
-1.19277e-09
-9.77065e-10
-3.95623e-10
-4.14623e-10
1.11265e-10
-4.93735e-11
4.50161e-10
1.87332e-10
7.36466e-10
3.94785e-10
9.56659e-10
5.23351e-10
1.15114e-09
6.29828e-10
1.30462e-09
6.87738e-10
1.45305e-09
7.54693e-10
1.61574e-09
8.12445e-10
1.75675e-09
8.3474e-10
1.89871e-09
8.67435e-10
2.06899e-09
9.02721e-10
2.22484e-09
9.07193e-10
2.40178e-09
9.43583e-10
2.61657e-09
9.82032e-10
2.83425e-09
1.00569e-09
3.07789e-09
1.05769e-09
3.37898e-09
1.1332e-09
3.692e-09
1.20946e-09
4.06017e-09
1.34757e-09
4.4996e-09
1.58236e-09
5.01216e-09
1.98388e-09
5.47664e-09
2.7792e-09
5.85015e-09
4.69188e-09
-3.85218e-09
1.87688e-08
-1.07792e-08
-4.72886e-09
-8.95137e-09
-7.582e-09
-5.50629e-09
-4.0351e-09
-2.67214e-09
-2.04504e-09
-1.19457e-09
-9.79396e-10
-3.97058e-10
-4.16628e-10
1.10068e-10
-5.12757e-11
4.49349e-10
1.85617e-10
7.35824e-10
3.93163e-10
9.5615e-10
5.21797e-10
1.15079e-09
6.28312e-10
1.30453e-09
6.86394e-10
1.4531e-09
7.53314e-10
1.61585e-09
8.11037e-10
1.75708e-09
8.33477e-10
1.89912e-09
8.66078e-10
2.06943e-09
9.0128e-10
2.22548e-09
9.05886e-10
2.40249e-09
9.42176e-10
2.61729e-09
9.80569e-10
2.83511e-09
1.00441e-09
3.07877e-09
1.05632e-09
3.3798e-09
1.13192e-09
3.69274e-09
1.20858e-09
4.06062e-09
1.34717e-09
4.49948e-09
1.58294e-09
5.01088e-09
1.98693e-09
5.47209e-09
2.78547e-09
5.84602e-09
4.72032e-09
-3.94496e-09
1.87693e-08
-1.07011e-08
-4.75261e-09
-8.93206e-09
-7.58257e-09
-5.5058e-09
-4.03346e-09
-2.67278e-09
-2.04659e-09
-1.19637e-09
-9.8174e-10
-3.98598e-10
-4.18666e-10
1.08725e-10
-5.32402e-11
4.48423e-10
1.83868e-10
7.35043e-10
3.91506e-10
9.55505e-10
5.20222e-10
1.1503e-09
6.26781e-10
1.30435e-09
6.85095e-10
1.45304e-09
7.51973e-10
1.61584e-09
8.09661e-10
1.7573e-09
8.32309e-10
1.89943e-09
8.64804e-10
2.06973e-09
8.99914e-10
2.22599e-09
9.0472e-10
2.40304e-09
9.40897e-10
2.61781e-09
9.79235e-10
2.83576e-09
1.00334e-09
3.0794e-09
1.05517e-09
3.38029e-09
1.13087e-09
3.69306e-09
1.20804e-09
4.06049e-09
1.34722e-09
4.49851e-09
1.5842e-09
5.00821e-09
1.9911e-09
5.46521e-09
2.79197e-09
5.84283e-09
4.73504e-09
-4.0265e-09
1.87929e-08
-1.06605e-08
-4.79252e-09
-8.89076e-09
-7.57576e-09
-5.50179e-09
-4.02931e-09
-2.67238e-09
-2.04768e-09
-1.1982e-09
-9.84172e-10
-4.00333e-10
-4.20848e-10
1.07138e-10
-5.53698e-11
4.47287e-10
1.81994e-10
7.34044e-10
3.89738e-10
9.54656e-10
5.18562e-10
1.14961e-09
6.25183e-10
1.30401e-09
6.83794e-10
1.45284e-09
7.50635e-10
1.61565e-09
8.08289e-10
1.75737e-09
8.31213e-10
1.89958e-09
8.636e-10
2.06984e-09
8.98622e-10
2.22631e-09
9.03695e-10
2.40338e-09
9.3976e-10
2.61806e-09
9.78052e-10
2.83613e-09
1.00252e-09
3.07969e-09
1.05426e-09
3.38033e-09
1.13014e-09
3.6928e-09
1.20796e-09
4.05956e-09
1.34794e-09
4.49631e-09
1.5865e-09
5.00354e-09
1.997e-09
5.45497e-09
2.79953e-09
5.8398e-09
4.73248e-09
-4.08575e-09
1.88334e-08
-1.06667e-08
-4.84371e-09
-8.82426e-09
-7.56028e-09
-5.49336e-09
-4.02201e-09
-2.67052e-09
-2.04811e-09
-1.19991e-09
-9.86641e-10
-4.02247e-10
-4.23209e-10
1.05289e-10
-5.77202e-11
4.45908e-10
1.79927e-10
7.32789e-10
3.87799e-10
9.53576e-10
5.16756e-10
1.14869e-09
6.23462e-10
1.30348e-09
6.82434e-10
1.45248e-09
7.49249e-10
1.61527e-09
8.06875e-10
1.75728e-09
8.30141e-10
1.89957e-09
8.62422e-10
2.06976e-09
8.97367e-10
2.22646e-09
9.02769e-10
2.40353e-09
9.3873e-10
2.61805e-09
9.76989e-10
2.83622e-09
1.00191e-09
3.07964e-09
1.0536e-09
3.3799e-09
1.12973e-09
3.6919e-09
1.2084e-09
4.0577e-09
1.34942e-09
4.49268e-09
1.59004e-09
4.99647e-09
2.00498e-09
5.44079e-09
2.80839e-09
5.83652e-09
4.71064e-09
-4.11629e-09
1.88854e-08
-1.07246e-08
-4.90177e-09
-8.73048e-09
-7.53562e-09
-5.48001e-09
-4.01112e-09
-2.66679e-09
-2.04762e-09
-1.20129e-09
-9.89018e-10
-4.04249e-10
-4.25709e-10
1.03208e-10
-6.02903e-11
4.4428e-10
1.77645e-10
7.31263e-10
3.85664e-10
9.52247e-10
5.14774e-10
1.14753e-09
6.21593e-10
1.30276e-09
6.80986e-10
1.45193e-09
7.47791e-10
1.6147e-09
8.05398e-10
1.75701e-09
8.29072e-10
1.89939e-09
8.61253e-10
2.06948e-09
8.9614e-10
2.2264e-09
9.01936e-10
2.40346e-09
9.3781e-10
2.61776e-09
9.76061e-10
2.83597e-09
1.00154e-09
3.07918e-09
1.05322e-09
3.3789e-09
1.12972e-09
3.69023e-09
1.20944e-09
4.05473e-09
1.35183e-09
4.48732e-09
1.59506e-09
4.98658e-09
2.0153e-09
5.4223e-09
2.81856e-09
5.8328e-09
4.66887e-09
-4.11427e-09
1.89433e-08
-1.08365e-08
-4.96232e-09
-8.60817e-09
-7.50181e-09
-5.46157e-09
-3.99642e-09
-2.66096e-09
-2.04603e-09
-1.20216e-09
-9.91154e-10
-4.06218e-10
-4.28272e-10
1.00962e-10
-6.30418e-11
4.42431e-10
1.75161e-10
7.29472e-10
3.83334e-10
9.50669e-10
5.12605e-10
1.14612e-09
6.19563e-10
1.30181e-09
6.79434e-10
1.45117e-09
7.46247e-10
1.6139e-09
8.03851e-10
1.75654e-09
8.27996e-10
1.89901e-09
8.60092e-10
2.06898e-09
8.94952e-10
2.22611e-09
9.01206e-10
2.40312e-09
9.37022e-10
2.61712e-09
9.75303e-10
2.83532e-09
1.00144e-09
3.07823e-09
1.05319e-09
3.37723e-09
1.13021e-09
3.68764e-09
1.21123e-09
4.05044e-09
1.35535e-09
4.47996e-09
1.60181e-09
4.97353e-09
2.02817e-09
5.39928e-09
2.82993e-09
5.82854e-09
4.6074e-09
-4.07784e-09
1.90009e-08
-1.10029e-08
-5.02171e-09
-8.45664e-09
-7.45902e-09
-5.43811e-09
-3.97789e-09
-2.6529e-09
-2.04321e-09
-1.20237e-09
-9.9292e-10
-4.08026e-10
-4.30805e-10
9.86392e-11
-6.59114e-11
4.40418e-10
1.72509e-10
7.27448e-10
3.80831e-10
9.48861e-10
5.10258e-10
1.14446e-09
6.17377e-10
1.30064e-09
6.77774e-10
1.45021e-09
7.44615e-10
1.61287e-09
8.02234e-10
1.75585e-09
8.26914e-10
1.89841e-09
8.58945e-10
2.06821e-09
8.93815e-10
2.22555e-09
9.00596e-10
2.40247e-09
9.36396e-10
2.61609e-09
9.74761e-10
2.83421e-09
1.00168e-09
3.0767e-09
1.05359e-09
3.37476e-09
1.13132e-09
3.68396e-09
1.2139e-09
4.04462e-09
1.36019e-09
4.47035e-09
1.61051e-09
4.95706e-09
2.04369e-09
5.37172e-09
2.84227e-09
5.82377e-09
4.52707e-09
-4.00627e-09
1.90526e-08
-1.12226e-08
-5.07723e-09
-8.27585e-09
-7.40764e-09
-5.40988e-09
-3.95564e-09
-2.6426e-09
-2.03915e-09
-1.20181e-09
-9.94223e-10
-4.0957e-10
-4.33224e-10
9.63294e-11
-6.88278e-11
4.38305e-10
1.69741e-10
7.25237e-10
3.78191e-10
9.46859e-10
5.07757e-10
1.14257e-09
6.15051e-10
1.29925e-09
6.76014e-10
1.44903e-09
7.42903e-10
1.61159e-09
8.00556e-10
1.75492e-09
8.25832e-10
1.89757e-09
8.57824e-10
2.06716e-09
8.92753e-10
2.22468e-09
9.0013e-10
2.40148e-09
9.35969e-10
2.61462e-09
9.74486e-10
2.83255e-09
1.00231e-09
3.0745e-09
1.05451e-09
3.37136e-09
1.13316e-09
3.67907e-09
1.21761e-09
4.0371e-09
1.36651e-09
4.45827e-09
1.6213e-09
4.93703e-09
2.06187e-09
5.33978e-09
2.85523e-09
5.81863e-09
4.42908e-09
-3.90007e-09
1.90941e-08
-1.14933e-08
-5.12721e-09
-8.06635e-09
-7.34805e-09
-5.37721e-09
-3.92988e-09
-2.63015e-09
-2.03387e-09
-1.20047e-09
-9.95016e-10
-4.10775e-10
-4.35462e-10
9.411e-11
-7.17243e-11
4.3616e-10
1.66911e-10
7.22893e-10
3.75459e-10
9.44704e-10
5.05136e-10
1.14049e-09
6.12613e-10
1.29766e-09
6.74173e-10
1.44765e-09
7.41129e-10
1.61008e-09
7.98837e-10
1.75374e-09
8.24766e-10
1.89648e-09
8.56752e-10
2.06582e-09
8.91794e-10
2.22347e-09
8.9984e-10
2.40009e-09
9.35786e-10
2.61264e-09
9.74536e-10
2.83028e-09
1.00341e-09
3.07154e-09
1.05603e-09
3.36694e-09
1.13584e-09
3.6728e-09
1.22248e-09
4.02771e-09
1.37444e-09
4.4436e-09
1.63427e-09
4.91339e-09
2.08257e-09
5.30378e-09
2.86842e-09
5.81325e-09
4.31495e-09
-3.76067e-09
1.91222e-08
-1.18109e-08
-5.17081e-09
-7.82924e-09
-7.28069e-09
-5.34049e-09
-3.90089e-09
-2.61568e-09
-2.02747e-09
-1.19834e-09
-9.95293e-10
-4.11602e-10
-4.37481e-10
9.20372e-11
-7.45476e-11
4.34038e-10
1.64073e-10
7.20466e-10
3.72683e-10
9.42443e-10
5.02437e-10
1.13824e-09
6.10099e-10
1.2959e-09
6.7228e-10
1.44608e-09
7.3932e-10
1.60834e-09
7.97105e-10
1.75232e-09
8.23744e-10
1.89512e-09
8.55759e-10
2.06414e-09
8.90974e-10
2.2219e-09
8.99768e-10
2.39827e-09
9.35898e-10
2.61011e-09
9.74976e-10
2.82733e-09
1.00505e-09
3.06773e-09
1.05826e-09
3.36138e-09
1.13947e-09
3.66507e-09
1.22861e-09
4.01635e-09
1.38407e-09
4.42625e-09
1.64944e-09
4.88622e-09
2.10561e-09
5.26409e-09
2.88147e-09
5.80767e-09
4.18651e-09
-3.59045e-09
1.91346e-08
-1.21701e-08
-5.20779e-09
-7.56613e-09
-7.20606e-09
-5.3002e-09
-3.86899e-09
-2.59937e-09
-2.02006e-09
-1.19549e-09
-9.95084e-10
-4.12049e-10
-4.39267e-10
9.01417e-11
-7.72623e-11
4.31978e-10
1.61269e-10
7.17999e-10
3.69903e-10
9.40112e-10
4.99701e-10
1.13586e-09
6.07548e-10
1.29398e-09
6.70368e-10
1.44433e-09
7.37511e-10
1.60638e-09
7.95393e-10
1.75064e-09
8.22795e-10
1.89349e-09
8.54882e-10
2.06214e-09
8.90336e-10
2.21994e-09
8.99956e-10
2.39598e-09
9.36357e-10
2.60699e-09
9.75865e-10
2.82364e-09
1.00729e-09
3.06301e-09
1.06126e-09
3.35462e-09
1.14413e-09
3.6558e-09
1.23608e-09
4.00296e-09
1.39544e-09
4.40624e-09
1.66673e-09
4.85567e-09
2.13073e-09
5.22117e-09
2.89408e-09
5.80176e-09
4.04591e-09
-3.39253e-09
1.91295e-08
-1.25646e-08
-5.23831e-09
-7.27905e-09
-7.12464e-09
-5.25683e-09
-3.83455e-09
-2.58146e-09
-2.0118e-09
-1.192e-09
-9.94445e-10
-4.12139e-10
-4.4083e-10
8.84312e-11
-7.98511e-11
4.30003e-10
1.58526e-10
7.15522e-10
3.67155e-10
9.37742e-10
4.96965e-10
1.13338e-09
6.04998e-10
1.29192e-09
6.68473e-10
1.44241e-09
7.35736e-10
1.6042e-09
7.93738e-10
1.74872e-09
8.21956e-10
1.89158e-09
8.5416e-10
2.05977e-09
8.89924e-10
2.21756e-09
9.0045e-10
2.39318e-09
9.37215e-10
2.60323e-09
9.77262e-10
2.81917e-09
1.0102e-09
3.05733e-09
1.06509e-09
3.3466e-09
1.14988e-09
3.64494e-09
1.24492e-09
3.98753e-09
1.40855e-09
4.38361e-09
1.68607e-09
4.82193e-09
2.15766e-09
5.17543e-09
2.90604e-09
5.79521e-09
3.89564e-09
-3.17067e-09
1.91056e-08
-1.29871e-08
-5.26274e-09
-6.97039e-09
-7.03691e-09
-5.21084e-09
-3.79793e-09
-2.56215e-09
-2.00284e-09
-1.18798e-09
-9.93451e-10
-4.11918e-10
-4.42197e-10
8.68931e-11
-8.23129e-11
4.28118e-10
1.55863e-10
7.13049e-10
3.64463e-10
9.35354e-10
4.9426e-10
1.13081e-09
6.02481e-10
1.28975e-09
6.66626e-10
1.44035e-09
7.34032e-10
1.60182e-09
7.92179e-10
1.74655e-09
8.21262e-10
1.88938e-09
8.53632e-10
2.05705e-09
8.89778e-10
2.21475e-09
9.01293e-10
2.38987e-09
9.38518e-10
2.59881e-09
9.79217e-10
2.81389e-09
1.01381e-09
3.05064e-09
1.06981e-09
3.3373e-09
1.15675e-09
3.63248e-09
1.25514e-09
3.97008e-09
1.42335e-09
4.35847e-09
1.70731e-09
4.78523e-09
2.18613e-09
5.12723e-09
2.91729e-09
5.78752e-09
3.73847e-09
-2.92903e-09
1.90616e-08
-1.34296e-08
-5.28181e-09
-6.64286e-09
-6.94331e-09
-5.16271e-09
-3.75951e-09
-2.54168e-09
-1.99336e-09
-1.18353e-09
-9.92184e-10
-4.11443e-10
-4.43408e-10
8.55008e-11
-8.46586e-11
4.26313e-10
1.53285e-10
7.10585e-10
3.61843e-10
9.32954e-10
4.9161e-10
1.12817e-09
6.00027e-10
1.28747e-09
6.64858e-10
1.43813e-09
7.32429e-10
1.59924e-09
7.90748e-10
1.74413e-09
8.20747e-10
1.88689e-09
8.53336e-10
2.05396e-09
8.89938e-10
2.2115e-09
9.02522e-10
2.38601e-09
9.40307e-10
2.59372e-09
9.8177e-10
2.80777e-09
1.01816e-09
3.04295e-09
1.07544e-09
3.32671e-09
1.16475e-09
3.61844e-09
1.26673e-09
3.95067e-09
1.4398e-09
4.33092e-09
1.73032e-09
4.74581e-09
2.21591e-09
5.0769e-09
2.92788e-09
5.77805e-09
3.57721e-09
-2.67195e-09
1.89963e-08
-1.38838e-08
-5.29632e-09
-6.29945e-09
-6.84429e-09
-5.11282e-09
-3.71962e-09
-2.52027e-09
-1.98348e-09
-1.17876e-09
-9.90727e-10
-4.10779e-10
-4.44506e-10
8.42182e-11
-8.69077e-11
4.24569e-10
1.50789e-10
7.08125e-10
3.593e-10
9.30544e-10
4.89031e-10
1.12546e-09
5.97655e-10
1.28508e-09
6.63191e-10
1.43578e-09
7.30955e-10
1.59647e-09
7.89477e-10
1.74146e-09
8.2044e-10
1.88411e-09
8.53304e-10
2.05049e-09
8.90436e-10
2.20779e-09
9.04169e-10
2.38161e-09
9.42612e-10
2.58795e-09
9.8495e-10
2.80082e-09
1.02328e-09
3.03424e-09
1.082e-09
3.31484e-09
1.17389e-09
3.60285e-09
1.27966e-09
3.92935e-09
1.45781e-09
4.30111e-09
1.75495e-09
4.7039e-09
2.24681e-09
5.02469e-09
2.93794e-09
5.76602e-09
3.41471e-09
-2.40383e-09
1.89089e-08
-1.4341e-08
-5.30704e-09
-5.94344e-09
-6.74031e-09
-5.06157e-09
-3.67861e-09
-2.4981e-09
-1.97335e-09
-1.17378e-09
-9.89159e-10
-4.09991e-10
-4.45537e-10
8.30056e-11
-8.90834e-11
4.22862e-10
1.48365e-10
7.05656e-10
3.56835e-10
9.28116e-10
4.86533e-10
1.12269e-09
5.95382e-10
1.28259e-09
6.61644e-10
1.43328e-09
7.29632e-10
1.5935e-09
7.88389e-10
1.73854e-09
8.20364e-10
1.88104e-09
8.53562e-10
2.04665e-09
8.91298e-10
2.20364e-09
9.06259e-10
2.37666e-09
9.45457e-10
2.58151e-09
9.88777e-10
2.79304e-09
1.02917e-09
3.02454e-09
1.08949e-09
3.30172e-09
1.18415e-09
3.58577e-09
1.29389e-09
3.90623e-09
1.47731e-09
4.26918e-09
1.78107e-09
4.65971e-09
2.27864e-09
4.97081e-09
2.94771e-09
5.75059e-09
3.25386e-09
-2.12903e-09
1.87983e-08
-1.47929e-08
-5.31464e-09
-5.57818e-09
-6.63184e-09
-5.0093e-09
-3.63679e-09
-2.47537e-09
-1.96309e-09
-1.16867e-09
-9.8755e-10
-4.09138e-10
-4.46542e-10
8.18219e-11
-9.12107e-11
4.21162e-10
1.46002e-10
7.03162e-10
3.54444e-10
9.25659e-10
4.84121e-10
1.11984e-09
5.93217e-10
1.27999e-09
6.60229e-10
1.43064e-09
7.28477e-10
1.59034e-09
7.87503e-10
1.73538e-09
8.20539e-10
1.87768e-09
8.54129e-10
2.04244e-09
8.92545e-10
2.19904e-09
9.08809e-10
2.37117e-09
9.48858e-10
2.57439e-09
9.93265e-10
2.78445e-09
1.03584e-09
3.01385e-09
1.09791e-09
3.28739e-09
1.19551e-09
3.56725e-09
1.30938e-09
3.88139e-09
1.4982e-09
4.23527e-09
1.80855e-09
4.61344e-09
2.31126e-09
4.91539e-09
2.95746e-09
5.73088e-09
3.09748e-09
-1.85171e-09
1.86634e-08
-1.52311e-08
-5.31992e-09
-5.20714e-09
-6.51932e-09
-4.95628e-09
-3.59445e-09
-2.45222e-09
-1.95278e-09
-1.16351e-09
-9.85962e-10
-4.08277e-10
-4.47561e-10
8.06292e-11
-9.33134e-11
4.19443e-10
1.43685e-10
7.00624e-10
3.5212e-10
9.23159e-10
4.81794e-10
1.1169e-09
5.91166e-10
1.27728e-09
6.58954e-10
1.42785e-09
7.27499e-10
1.58699e-09
7.86834e-10
1.73197e-09
8.20975e-10
1.87402e-09
8.55022e-10
2.03786e-09
8.94188e-10
2.19399e-09
9.11829e-10
2.36513e-09
9.52822e-10
2.56662e-09
9.98416e-10
2.77505e-09
1.04329e-09
3.00221e-09
1.10724e-09
3.27189e-09
1.20793e-09
3.54735e-09
1.32607e-09
3.85491e-09
1.52041e-09
4.19951e-09
1.83725e-09
4.56529e-09
2.34457e-09
4.85854e-09
2.96754e-09
5.70598e-09
2.94815e-09
-1.57568e-09
1.85034e-08
-1.56481e-08
-5.32354e-09
-4.8338e-09
-6.4032e-09
-4.90277e-09
-3.55185e-09
-2.4288e-09
-1.9425e-09
-1.15838e-09
-9.84443e-10
-4.07456e-10
-4.48624e-10
7.93928e-11
-9.54131e-11
4.17676e-10
1.41402e-10
6.98025e-10
3.49853e-10
9.206e-10
4.79553e-10
1.11387e-09
5.89229e-10
1.27444e-09
6.57823e-10
1.42491e-09
7.26706e-10
1.58344e-09
7.86389e-10
1.72831e-09
8.21683e-10
1.87007e-09
8.56248e-10
2.03292e-09
8.96235e-10
2.18851e-09
9.15325e-10
2.35857e-09
9.57351e-10
2.55821e-09
1.00423e-09
2.76488e-09
1.0515e-09
2.98964e-09
1.11747e-09
3.25526e-09
1.22139e-09
3.52614e-09
1.3439e-09
3.82691e-09
1.54385e-09
4.16204e-09
1.86706e-09
4.51542e-09
2.37846e-09
4.80033e-09
2.97828e-09
5.67503e-09
2.80825e-09
-1.30435e-09
1.83175e-08
-1.60365e-08
-5.32598e-09
-4.46163e-09
-6.28399e-09
-4.84896e-09
-3.50925e-09
-2.40525e-09
-1.93232e-09
-1.15332e-09
-9.83036e-10
-4.06715e-10
-4.49757e-10
7.80831e-11
-9.75277e-11
4.15838e-10
1.39139e-10
6.95348e-10
3.47635e-10
9.17967e-10
4.77392e-10
1.11074e-09
5.87407e-10
1.27147e-09
6.56838e-10
1.4218e-09
7.26101e-10
1.5797e-09
7.86174e-10
1.7244e-09
8.22665e-10
1.86582e-09
8.57811e-10
2.02761e-09
8.98689e-10
2.18259e-09
9.19296e-10
2.35149e-09
9.62442e-10
2.54918e-09
1.0107e-09
2.75396e-09
1.06045e-09
2.97618e-09
1.12856e-09
3.23756e-09
1.23583e-09
3.50369e-09
1.36282e-09
3.79747e-09
1.56844e-09
4.12298e-09
1.89788e-09
4.46399e-09
2.41286e-09
4.74081e-09
2.99005e-09
5.63719e-09
2.67993e-09
-1.0407e-09
1.81051e-08
-1.63898e-08
-5.32747e-09
-4.09393e-09
-6.16218e-09
-4.79505e-09
-3.46689e-09
-2.38167e-09
-1.92228e-09
-1.14838e-09
-9.81769e-10
-4.06085e-10
-4.50981e-10
7.66754e-11
-9.96716e-11
4.1391e-10
1.36887e-10
6.92578e-10
3.45457e-10
9.15247e-10
4.75309e-10
1.1075e-09
5.85697e-10
1.26836e-09
6.55997e-10
1.41853e-09
7.25684e-10
1.57575e-09
7.86191e-10
1.72025e-09
8.23921e-10
1.86128e-09
8.59714e-10
2.02195e-09
9.01549e-10
2.17626e-09
9.23739e-10
2.34391e-09
9.68089e-10
2.53955e-09
1.01781e-09
2.74232e-09
1.07014e-09
2.96186e-09
1.1405e-09
3.21884e-09
1.25123e-09
3.48006e-09
1.38277e-09
3.76668e-09
1.59409e-09
4.08248e-09
1.92959e-09
4.41116e-09
2.4477e-09
4.67999e-09
3.00318e-09
5.59174e-09
2.56509e-09
-7.87354e-10
1.78655e-08
-1.67024e-08
-5.32829e-09
-3.73382e-09
-6.03825e-09
-4.74117e-09
-3.42496e-09
-2.35816e-09
-1.91242e-09
-1.14359e-09
-9.80666e-10
-4.05595e-10
-4.52309e-10
7.51503e-11
-1.01856e-10
4.11873e-10
1.34637e-10
6.89702e-10
3.43313e-10
9.12427e-10
4.73298e-10
1.10413e-09
5.84097e-10
1.26511e-09
6.55299e-10
1.41509e-09
7.25454e-10
1.57161e-09
7.86439e-10
1.71584e-09
8.2545e-10
1.85646e-09
8.61953e-10
2.01595e-09
9.0481e-10
2.16951e-09
9.28648e-10
2.33584e-09
9.74281e-10
2.52934e-09
1.02555e-09
2.72998e-09
1.08053e-09
2.94672e-09
1.15326e-09
3.19914e-09
1.26754e-09
3.45531e-09
1.40369e-09
3.73464e-09
1.62071e-09
4.04064e-09
1.96208e-09
4.35706e-09
2.48293e-09
4.61789e-09
3.01802e-09
5.53803e-09
2.46528e-09
-5.46311e-10
1.75983e-08
-1.69697e-08
-5.32858e-09
-3.38423e-09
-5.91264e-09
-4.68742e-09
-3.38367e-09
-2.33482e-09
-1.90276e-09
-1.13898e-09
-9.79741e-10
-4.05262e-10
-4.53749e-10
7.34927e-11
-1.04088e-10
4.09714e-10
1.32383e-10
6.86711e-10
3.41195e-10
9.09497e-10
4.71357e-10
1.10064e-09
5.82603e-10
1.26171e-09
6.5474e-10
1.41147e-09
7.25408e-10
1.56726e-09
7.86916e-10
1.71119e-09
8.27248e-10
1.85134e-09
8.64524e-10
2.0096e-09
9.08466e-10
2.16236e-09
9.34013e-10
2.32729e-09
9.81006e-10
2.51856e-09
1.03391e-09
2.71697e-09
1.09161e-09
2.93079e-09
1.1668e-09
3.17852e-09
1.28471e-09
3.42953e-09
1.42552e-09
3.70144e-09
1.64822e-09
3.9976e-09
1.99527e-09
4.30183e-09
2.5185e-09
4.55453e-09
3.03483e-09
5.47553e-09
2.38168e-09
-3.19101e-10
1.73034e-08
-1.71879e-08
-5.32828e-09
-3.04776e-09
-5.78585e-09
-4.63387e-09
-3.34318e-09
-2.31172e-09
-1.89333e-09
-1.13456e-09
-9.79004e-10
-4.05101e-10
-4.55308e-10
7.16917e-11
-1.06371e-10
4.07423e-10
1.30121e-10
6.83597e-10
3.391e-10
9.06447e-10
4.69483e-10
1.09701e-09
5.81213e-10
1.25815e-09
6.54318e-10
1.40767e-09
7.25544e-10
1.56271e-09
7.87618e-10
1.7063e-09
8.2931e-10
1.84595e-09
8.67422e-10
2.00292e-09
9.12509e-10
2.15481e-09
9.39824e-10
2.31827e-09
9.88251e-10
2.50725e-09
1.04287e-09
2.70331e-09
1.10335e-09
2.91411e-09
1.1811e-09
3.15702e-09
1.3027e-09
3.40277e-09
1.44819e-09
3.66716e-09
1.67655e-09
3.95346e-09
2.02905e-09
4.24558e-09
2.55436e-09
4.48989e-09
3.05388e-09
5.40385e-09
2.31519e-09
-1.0678e-10
1.69806e-08
-1.7354e-08
-5.32716e-09
-2.72676e-09
-5.65836e-09
-4.58061e-09
-3.30365e-09
-2.28893e-09
-1.88412e-09
-1.13035e-09
-9.78457e-10
-4.05123e-10
-4.56984e-10
6.97395e-11
-1.08708e-10
4.04993e-10
1.27848e-10
6.80352e-10
3.37025e-10
9.03271e-10
4.67672e-10
1.09324e-09
5.79923e-10
1.25444e-09
6.54028e-10
1.40369e-09
7.25856e-10
1.55795e-09
7.88543e-10
1.70116e-09
8.31631e-10
1.84027e-09
8.7064e-10
1.9959e-09
9.1693e-10
2.14688e-09
9.4607e-10
2.3088e-09
9.95999e-10
2.49541e-09
1.0524e-09
2.68904e-09
1.11572e-09
2.8967e-09
1.19611e-09
3.13469e-09
1.32146e-09
3.37509e-09
1.47165e-09
3.63191e-09
1.70559e-09
3.90833e-09
2.06333e-09
4.18844e-09
2.59047e-09
4.42399e-09
3.07536e-09
5.32276e-09
2.26636e-09
8.99257e-11
1.66303e-08
-1.74662e-08
-5.32507e-09
-2.42319e-09
-5.53057e-09
-4.52766e-09
-3.26521e-09
-2.26651e-09
-1.87514e-09
-1.12636e-09
-9.781e-10
-4.05334e-10
-4.58776e-10
6.7632e-11
-1.11097e-10
4.02418e-10
1.25564e-10
6.76974e-10
3.34967e-10
8.99962e-10
4.65925e-10
1.08933e-09
5.78732e-10
1.25056e-09
6.53868e-10
1.39953e-09
7.26342e-10
1.553e-09
7.89686e-10
1.69577e-09
8.34203e-10
1.83431e-09
8.7417e-10
1.98857e-09
9.21719e-10
2.13858e-09
9.52736e-10
2.2989e-09
1.00423e-09
2.48307e-09
1.06249e-09
2.67419e-09
1.1287e-09
2.87861e-09
1.2118e-09
3.11159e-09
1.34094e-09
3.34657e-09
1.49583e-09
3.59575e-09
1.73528e-09
3.86234e-09
2.09801e-09
4.13052e-09
2.62677e-09
4.35685e-09
3.09942e-09
5.23215e-09
2.23545e-09
2.70859e-10
1.62529e-08
-1.75236e-08
-5.3218e-09
-2.13869e-09
-5.40287e-09
-4.47501e-09
-3.22798e-09
-2.24452e-09
-1.86638e-09
-1.12258e-09
-9.77929e-10
-4.05736e-10
-4.60679e-10
6.5367e-11
-1.13536e-10
3.99695e-10
1.23271e-10
6.7346e-10
3.32926e-10
8.96517e-10
4.64239e-10
1.08527e-09
5.77637e-10
1.24651e-09
6.53836e-10
1.39518e-09
7.26997e-10
1.54784e-09
7.91043e-10
1.69015e-09
8.37022e-10
1.82807e-09
8.78004e-10
1.98092e-09
9.26865e-10
2.12991e-09
9.59809e-10
2.28858e-09
1.01294e-09
2.47025e-09
1.07312e-09
2.65877e-09
1.14225e-09
2.85987e-09
1.22813e-09
3.08776e-09
1.36109e-09
3.31726e-09
1.52066e-09
3.55878e-09
1.76552e-09
3.81557e-09
2.13301e-09
4.07192e-09
2.66322e-09
4.2885e-09
3.12611e-09
5.13207e-09
2.22232e-09
4.36223e-10
1.58491e-08
-1.75262e-08
-5.31703e-09
-1.87453e-09
-5.27562e-09
-4.42268e-09
-3.19204e-09
-2.223e-09
-1.85785e-09
-1.11902e-09
-9.77935e-10
-4.0633e-10
-4.62687e-10
6.29442e-11
-1.1602e-10
3.96822e-10
1.2097e-10
6.69809e-10
3.30902e-10
8.92933e-10
4.62616e-10
1.08107e-09
5.76639e-10
1.2423e-09
6.53929e-10
1.39065e-09
7.27818e-10
1.54247e-09
7.92609e-10
1.68429e-09
8.40079e-10
1.82157e-09
8.82133e-10
1.97297e-09
9.32357e-10
2.12089e-09
9.67276e-10
2.27784e-09
1.02209e-09
2.45696e-09
1.08426e-09
2.64281e-09
1.15635e-09
2.84052e-09
1.24508e-09
3.06326e-09
1.38186e-09
3.28724e-09
1.54608e-09
3.52109e-09
1.79623e-09
3.76814e-09
2.16823e-09
4.01275e-09
2.69976e-09
4.21897e-09
3.15547e-09
5.02273e-09
2.22659e-09
5.86556e-10
1.54201e-08
-1.74746e-08
-5.31041e-09
-1.63165e-09
-5.1492e-09
-4.37066e-09
-3.15748e-09
-2.20199e-09
-1.84953e-09
-1.11567e-09
-9.78109e-10
-4.07114e-10
-4.6479e-10
6.03652e-11
-1.18543e-10
3.93802e-10
1.18665e-10
6.66019e-10
3.28898e-10
8.89208e-10
4.61056e-10
1.07671e-09
5.75735e-10
1.23792e-09
6.54145e-10
1.38593e-09
7.28801e-10
1.53691e-09
7.94379e-10
1.6782e-09
8.43369e-10
1.8148e-09
8.86549e-10
1.96472e-09
9.38183e-10
2.11153e-09
9.7512e-10
2.26672e-09
1.03167e-09
2.44324e-09
1.09588e-09
2.62635e-09
1.17097e-09
2.82059e-09
1.26258e-09
3.03813e-09
1.4032e-09
3.25656e-09
1.57202e-09
3.48275e-09
1.82734e-09
3.72015e-09
2.20358e-09
3.95311e-09
2.73633e-09
4.14834e-09
3.18745e-09
4.90448e-09
2.24756e-09
7.22564e-10
1.49671e-08
-1.73705e-08
-5.30166e-09
-1.4106e-09
-5.02388e-09
-4.31893e-09
-3.12435e-09
-2.18153e-09
-1.8414e-09
-1.11253e-09
-9.7844e-10
-4.08084e-10
-4.6698e-10
5.76329e-11
-1.21098e-10
3.90634e-10
1.1636e-10
6.62093e-10
3.26914e-10
8.85341e-10
4.5956e-10
1.07221e-09
5.74926e-10
1.23338e-09
6.54482e-10
1.38102e-09
7.29942e-10
1.53115e-09
7.9635e-10
1.67187e-09
8.46884e-10
1.80777e-09
8.91241e-10
1.95618e-09
9.44332e-10
2.10183e-09
9.83327e-10
2.25522e-09
1.04167e-09
2.4291e-09
1.10797e-09
2.60941e-09
1.18607e-09
2.80011e-09
1.28061e-09
3.01242e-09
1.42505e-09
3.22529e-09
1.59843e-09
3.44384e-09
1.85877e-09
3.67169e-09
2.23898e-09
3.8931e-09
2.77288e-09
4.07667e-09
3.22193e-09
4.7778e-09
2.28437e-09
8.45354e-10
1.44916e-08
-1.72161e-08
-5.29057e-09
-1.21165e-09
-4.89989e-09
-4.26744e-09
-3.09268e-09
-2.16163e-09
-1.83345e-09
-1.10959e-09
-9.78913e-10
-4.09237e-10
-4.69245e-10
5.47511e-11
-1.2368e-10
3.87321e-10
1.1406e-10
6.58031e-10
3.24954e-10
8.81332e-10
4.58129e-10
1.06756e-09
5.74212e-10
1.22867e-09
6.54939e-10
1.37593e-09
7.31238e-10
1.5252e-09
7.98517e-10
1.66533e-09
8.50618e-10
1.80048e-09
8.96202e-10
1.94736e-09
9.5079e-10
2.09182e-09
9.91881e-10
2.24335e-09
1.05205e-09
2.41456e-09
1.12051e-09
2.59202e-09
1.20163e-09
2.77913e-09
1.29913e-09
2.98618e-09
1.44737e-09
3.19348e-09
1.62523e-09
3.40444e-09
1.89043e-09
3.62285e-09
2.27435e-09
3.83281e-09
2.80933e-09
4.00405e-09
3.25875e-09
4.64328e-09
2.33585e-09
9.5621e-10
1.39955e-08
-1.70143e-08
-5.27692e-09
-1.03469e-09
-4.77745e-09
-4.21617e-09
-3.06249e-09
-2.14232e-09
-1.82567e-09
-1.10684e-09
-9.79515e-10
-4.10565e-10
-4.71575e-10
5.17243e-11
-1.26278e-10
3.83866e-10
1.11769e-10
6.53835e-10
3.2302e-10
8.77181e-10
4.56767e-10
1.06276e-09
5.73593e-10
1.2238e-09
6.55515e-10
1.37067e-09
7.32686e-10
1.51906e-09
8.00875e-10
1.65856e-09
8.54563e-10
1.79294e-09
9.0142e-10
1.93827e-09
9.57547e-10
2.0815e-09
1.00077e-09
2.23114e-09
1.0628e-09
2.39964e-09
1.13345e-09
2.57421e-09
1.21761e-09
2.75769e-09
1.31809e-09
2.95946e-09
1.47011e-09
3.1612e-09
1.65236e-09
3.36463e-09
1.92225e-09
3.57372e-09
2.30961e-09
3.77233e-09
2.84559e-09
3.9306e-09
3.29768e-09
4.50167e-09
2.40068e-09
1.05657e-09
1.34807e-08
-1.67683e-08
-5.26055e-09
-8.7941e-10
-4.65674e-09
-4.16509e-09
-3.03379e-09
-2.12361e-09
-1.81803e-09
-1.10427e-09
-9.80231e-10
-4.12062e-10
-4.73958e-10
4.85574e-11
-1.28887e-10
3.80273e-10
1.09493e-10
6.49507e-10
3.21116e-10
8.7289e-10
4.55473e-10
1.05782e-09
5.73068e-10
1.21876e-09
6.56207e-10
1.36522e-09
7.34282e-10
1.51273e-09
8.0342e-10
1.65158e-09
8.58713e-10
1.78517e-09
9.06887e-10
1.92892e-09
9.64589e-10
2.07088e-09
1.00997e-09
2.2186e-09
1.0739e-09
2.38436e-09
1.14679e-09
2.55601e-09
1.23398e-09
2.7358e-09
1.33745e-09
2.9323e-09
1.49321e-09
3.12851e-09
1.67977e-09
3.32448e-09
1.95415e-09
3.52438e-09
2.34467e-09
3.71176e-09
2.8816e-09
3.85644e-09
3.33845e-09
4.35378e-09
2.47733e-09
1.14786e-09
1.29497e-08
-1.64821e-08
-5.24133e-09
-7.45157e-10
-4.53789e-09
-4.11416e-09
-3.00657e-09
-2.10551e-09
-1.81052e-09
-1.10187e-09
-9.81045e-10
-4.13721e-10
-4.76383e-10
4.52564e-11
-1.31497e-10
3.76547e-10
1.07237e-10
6.45049e-10
3.19244e-10
8.6846e-10
4.54251e-10
1.05273e-09
5.72639e-10
1.21357e-09
6.57015e-10
1.3596e-09
7.36022e-10
1.50621e-09
8.06146e-10
1.64439e-09
8.6306e-10
1.77715e-09
9.12592e-10
1.91931e-09
9.71903e-10
2.05998e-09
1.01946e-09
2.20575e-09
1.08533e-09
2.36876e-09
1.16049e-09
2.53743e-09
1.25071e-09
2.71353e-09
1.35718e-09
2.90475e-09
1.51662e-09
3.09546e-09
1.70738e-09
3.28406e-09
1.98608e-09
3.47492e-09
2.37945e-09
3.65117e-09
2.91726e-09
3.78172e-09
3.38074e-09
4.20054e-09
2.56423e-09
1.23173e-09
1.24046e-08
-1.61599e-08
-5.21928e-09
-6.31083e-10
-4.42098e-09
-4.06334e-09
-2.98081e-09
-2.08803e-09
-1.80312e-09
-1.09964e-09
-9.81942e-10
-4.15533e-10
-4.78838e-10
4.18274e-11
-1.34101e-10
3.72692e-10
1.05007e-10
6.40466e-10
3.17408e-10
8.63894e-10
4.53103e-10
1.04751e-09
5.72306e-10
1.20822e-09
6.57937e-10
1.35381e-09
7.37905e-10
1.49952e-09
8.0905e-10
1.637e-09
8.67598e-10
1.76892e-09
9.18526e-10
1.90946e-09
9.79478e-10
2.04881e-09
1.02925e-09
2.1926e-09
1.09707e-09
2.35283e-09
1.17452e-09
2.51852e-09
1.26777e-09
2.69088e-09
1.37723e-09
2.87685e-09
1.54031e-09
3.0621e-09
1.73515e-09
3.24343e-09
2.01795e-09
3.42542e-09
2.41389e-09
3.59065e-09
2.95247e-09
3.70657e-09
3.42419e-09
4.04289e-09
2.65967e-09
1.30985e-09
1.18482e-08
-1.58061e-08
-5.19443e-09
-5.36111e-10
-4.30606e-09
-4.0126e-09
-2.95645e-09
-2.07115e-09
-1.79581e-09
-1.09755e-09
-9.82906e-10
-4.1749e-10
-4.81311e-10
3.82762e-11
-1.36691e-10
3.68713e-10
1.02808e-10
6.3576e-10
3.1561e-10
8.59194e-10
4.5203e-10
1.04214e-09
5.72068e-10
1.20272e-09
6.58973e-10
1.34786e-09
7.39925e-10
1.49266e-09
8.12126e-10
1.62941e-09
8.72318e-10
1.76046e-09
9.24678e-10
1.89938e-09
9.87299e-10
2.03739e-09
1.03929e-09
2.17918e-09
1.10909e-09
2.33662e-09
1.18888e-09
2.49929e-09
1.28512e-09
2.66791e-09
1.39757e-09
2.84866e-09
1.56421e-09
3.0285e-09
1.76303e-09
3.20266e-09
2.0497e-09
3.37594e-09
2.44791e-09
3.53029e-09
2.98714e-09
3.63117e-09
3.4684e-09
3.88188e-09
2.76185e-09
1.38392e-09
1.1283e-08
-1.54253e-08
-5.16696e-09
-4.59024e-10
-4.19316e-09
-3.96191e-09
-2.93348e-09
-2.05489e-09
-1.78856e-09
-1.0956e-09
-9.83921e-10
-4.19583e-10
-4.83793e-10
3.46094e-11
-1.39259e-10
3.64616e-10
1.00645e-10
6.30932e-10
3.13854e-10
8.54363e-10
4.51034e-10
1.03664e-09
5.71926e-10
1.19707e-09
6.6012e-10
1.34174e-09
7.4208e-10
1.48563e-09
8.15369e-10
1.62164e-09
8.77215e-10
1.7518e-09
9.31038e-10
1.88909e-09
9.95355e-10
2.02572e-09
1.04959e-09
2.16549e-09
1.12138e-09
2.32014e-09
1.20352e-09
2.47978e-09
1.30275e-09
2.64465e-09
1.41816e-09
2.8202e-09
1.5883e-09
2.99469e-09
1.79094e-09
3.1618e-09
2.08127e-09
3.32655e-09
2.48143e-09
3.47017e-09
3.02116e-09
3.55568e-09
3.51297e-09
3.7186e-09
2.86888e-09
1.45548e-09