/*--------------------------------*- C++ -*----------------------------------*\
| =========                 |                                                 |
| \\      /  F ield         | OpenFOAM: The Open Source CFD Toolbox           |
|  \\    /   O peration     | Version:  2312                                  |
|   \\  /    A nd           | Website:  www.openfoam.com                      |
|    \\/     M anipulation  |                                                 |
\*---------------------------------------------------------------------------*/
FoamFile
{
    version     2.0;
    format      ascii;
    arch        "LSB;label=32;scalar=64";
    class       volScalarField;
    location    "200";
    object      pPrime2Mean;
}
// * * * * * * * * * * * * * * * * * * * * * * * * * * * * * * * * * * * * * //

dimensions      [0 4 -4 0 0 0 0];

internalField   nonuniform List<scalar> 
330000
(
4.5855e-16
1.8868e-16
1.00069e-16
8.76064e-17
1.00401e-16
9.99998e-17
9.68374e-17
8.81028e-17
8.40667e-17
7.80846e-17
7.55716e-17
7.1239e-17
7.02733e-17
6.63296e-17
6.54642e-17
6.14209e-17
6.12758e-17
5.83688e-17
5.69748e-17
5.5717e-17
5.36331e-17
5.24359e-17
5.16264e-17
4.83559e-17
5.02421e-17
4.51799e-17
4.85164e-17
4.32834e-17
4.6154e-17
4.20046e-17
4.37262e-17
4.09434e-17
4.15576e-17
3.99872e-17
3.95424e-17
3.92527e-17
3.7884e-17
3.84563e-17
3.66846e-17
3.75037e-17
3.58492e-17
3.69644e-17
3.52446e-17
3.68054e-17
3.48986e-17
3.65038e-17
3.52769e-17
3.73491e-17
3.60109e-17
4.01765e-17
3.71718e-17
4.33223e-17
4.65159e-17
3.60665e-17
7.57673e-17
2.96074e-17
1.08621e-16
8.83123e-17
2.91251e-17
2.71898e-16
4.55157e-16
1.87952e-16
9.9911e-17
8.75348e-17
1.00373e-16
1.00016e-16
9.68464e-17
8.81156e-17
8.40643e-17
7.80829e-17
7.55638e-17
7.12345e-17
7.02666e-17
6.63273e-17
6.54596e-17
6.14206e-17
6.12731e-17
5.83697e-17
5.69739e-17
5.57174e-17
5.36339e-17
5.24372e-17
5.16261e-17
4.83596e-17
5.02392e-17
4.51854e-17
4.85123e-17
4.32885e-17
4.6151e-17
4.20074e-17
4.37248e-17
4.09438e-17
4.15575e-17
3.99854e-17
3.95434e-17
3.92484e-17
3.78861e-17
3.84497e-17
3.66872e-17
3.74954e-17
3.58516e-17
3.69546e-17
3.52463e-17
3.67948e-17
3.49001e-17
3.64917e-17
3.52787e-17
3.73365e-17
3.60118e-17
4.01645e-17
3.71807e-17
4.32967e-17
4.65592e-17
3.60162e-17
7.58315e-17
2.96152e-17
1.08482e-16
8.86869e-17
2.93401e-17
2.70703e-16
4.5181e-16
1.87483e-16
9.96017e-17
8.73952e-17
1.00366e-16
1.00068e-16
9.688e-17
8.81441e-17
8.40706e-17
7.80864e-17
7.55639e-17
7.12349e-17
7.02671e-17
6.63288e-17
6.54618e-17
6.14223e-17
6.12754e-17
5.83739e-17
5.69758e-17
5.57229e-17
5.36372e-17
5.24423e-17
5.16313e-17
4.8364e-17
5.02443e-17
4.519e-17
4.85166e-17
4.32934e-17
4.61558e-17
4.20116e-17
4.37304e-17
4.0947e-17
4.15634e-17
3.9988e-17
3.955e-17
3.92501e-17
3.78937e-17
3.84502e-17
3.66963e-17
3.74954e-17
3.58619e-17
3.69545e-17
3.52571e-17
3.67966e-17
3.49137e-17
3.64936e-17
3.52968e-17
3.73423e-17
3.60313e-17
4.01806e-17
3.72119e-17
4.33059e-17
4.66512e-17
3.59828e-17
7.60063e-17
2.96395e-17
1.08356e-16
8.92619e-17
2.97993e-17
2.7016e-16
4.48038e-16
1.87304e-16
9.90307e-17
8.70916e-17
1.00329e-16
1.00121e-16
9.69125e-17
8.81757e-17
8.40774e-17
7.80932e-17
7.55692e-17
7.124e-17
7.0272e-17
6.63332e-17
6.54675e-17
6.14256e-17
6.12795e-17
5.83803e-17
5.69788e-17
5.57311e-17
5.36418e-17
5.24487e-17
5.16395e-17
4.83684e-17
5.02531e-17
4.51945e-17
4.8524e-17
4.32988e-17
4.61632e-17
4.20169e-17
4.3738e-17
4.09518e-17
4.15711e-17
3.99927e-17
3.95579e-17
3.92542e-17
3.79027e-17
3.84537e-17
3.6707e-17
3.74985e-17
3.58737e-17
3.69578e-17
3.52694e-17
3.68029e-17
3.49292e-17
3.65003e-17
3.53176e-17
3.73529e-17
3.60532e-17
4.02041e-17
3.72422e-17
4.33247e-17
4.67419e-17
3.59564e-17
7.61494e-17
2.96764e-17
1.08025e-16
8.98489e-17
3.04382e-17
2.70002e-16
4.43431e-16
1.87241e-16
9.80656e-17
8.64915e-17
1.00159e-16
1.00102e-16
9.68968e-17
8.81834e-17
8.40679e-17
7.80923e-17
7.557e-17
7.1242e-17
7.02737e-17
6.63348e-17
6.54703e-17
6.14261e-17
6.12804e-17
5.83855e-17
5.69794e-17
5.57389e-17
5.36454e-17
5.24544e-17
5.16482e-17
4.83719e-17
5.02627e-17
4.51985e-17
4.85316e-17
4.33044e-17
4.61707e-17
4.20225e-17
4.37458e-17
4.09568e-17
4.15787e-17
3.99975e-17
3.95659e-17
3.92586e-17
3.79116e-17
3.84571e-17
3.67177e-17
3.75016e-17
3.58854e-17
3.6961e-17
3.5281e-17
3.68096e-17
3.49438e-17
3.65065e-17
3.53376e-17
3.73613e-17
3.6074e-17
4.02231e-17
3.72689e-17
4.33344e-17
4.68169e-17
3.5922e-17
7.6197e-17
2.97365e-17
1.07325e-16
9.03082e-17
3.11815e-17
2.69859e-16
4.38004e-16
1.86984e-16
9.66607e-17
8.55188e-17
9.97746e-17
9.99493e-17
9.67892e-17
8.81385e-17
8.40237e-17
7.80703e-17
7.55553e-17
7.12317e-17
7.02639e-17
6.63267e-17
6.5464e-17
6.1419e-17
6.12734e-17
5.83855e-17
5.69744e-17
5.57432e-17
5.36455e-17
5.24573e-17
5.16553e-17
4.83732e-17
5.02713e-17
4.5201e-17
4.85384e-17
4.3309e-17
4.61778e-17
4.20273e-17
4.37533e-17
4.09612e-17
4.15862e-17
4.00018e-17
3.95738e-17
3.92622e-17
3.79205e-17
3.84598e-17
3.67284e-17
3.7504e-17
3.58967e-17
3.69632e-17
3.52914e-17
3.68156e-17
3.4957e-17
3.65108e-17
3.53561e-17
3.73648e-17
3.60936e-17
4.02309e-17
3.72938e-17
4.33224e-17
4.6875e-17
3.58695e-17
7.61113e-17
2.9832e-17
1.06162e-16
9.05449e-17
3.19356e-17
2.69259e-16
4.32131e-16
1.86093e-16
9.48331e-17
8.41628e-17
9.91339e-17
9.96204e-17
9.65564e-17
8.80158e-17
8.39272e-17
7.80141e-17
7.55145e-17
7.12003e-17
7.02352e-17
6.63027e-17
6.54432e-17
6.13995e-17
6.12542e-17
5.83767e-17
5.69606e-17
5.57411e-17
5.36395e-17
5.24552e-17
5.16587e-17
4.83707e-17
5.02777e-17
4.52007e-17
4.85435e-17
4.33113e-17
4.61839e-17
4.20302e-17
4.37604e-17
4.09637e-17
4.15932e-17
4.00045e-17
3.95814e-17
3.92645e-17
3.79293e-17
3.8461e-17
3.67388e-17
3.7505e-17
3.59074e-17
3.69639e-17
3.53004e-17
3.68202e-17
3.4968e-17
3.65123e-17
3.53726e-17
3.73611e-17
3.61122e-17
4.0222e-17
3.73179e-17
4.32788e-17
4.69126e-17
3.57917e-17
7.58622e-17
2.99741e-17
1.04475e-16
9.05156e-17
3.26045e-17
2.67603e-16
4.26355e-16
1.84189e-16
9.26209e-17
8.24648e-17
9.82276e-17
9.90972e-17
9.6178e-17
8.77966e-17
8.37641e-17
7.79122e-17
7.54383e-17
7.11402e-17
7.01811e-17
6.62577e-17
6.54027e-17
6.13638e-17
6.12188e-17
5.83557e-17
5.69348e-17
5.57295e-17
5.3625e-17
5.24461e-17
5.16564e-17
4.8363e-17
5.02801e-17
4.51961e-17
4.85458e-17
4.33098e-17
4.61884e-17
4.20298e-17
4.37664e-17
4.09635e-17
4.15995e-17
4.00049e-17
3.95885e-17
3.92645e-17
3.79377e-17
3.84599e-17
3.67488e-17
3.75039e-17
3.59172e-17
3.69624e-17
3.53075e-17
3.68228e-17
3.49761e-17
3.65097e-17
3.53862e-17
3.73476e-17
3.61286e-17
4.01921e-17
3.73395e-17
4.31969e-17
4.6924e-17
3.56863e-17
7.54288e-17
3.01711e-17
1.02243e-16
9.02299e-17
3.3107e-17
2.64341e-16
4.21268e-16
1.81012e-16
9.00668e-17
8.04975e-17
9.70738e-17
9.83825e-17
9.56477e-17
8.74707e-17
8.35245e-17
7.77563e-17
7.53194e-17
7.10455e-17
7.00964e-17
6.61873e-17
6.53388e-17
6.13088e-17
6.11641e-17
5.83198e-17
5.68946e-17
5.57061e-17
5.35998e-17
5.2428e-17
5.16465e-17
4.83484e-17
5.0277e-17
4.51859e-17
4.85444e-17
4.33035e-17
4.61906e-17
4.2025e-17
4.3771e-17
4.09594e-17
4.16046e-17
4.0002e-17
3.95946e-17
3.92615e-17
3.79453e-17
3.84559e-17
3.67579e-17
3.74999e-17
3.59256e-17
3.6958e-17
3.53119e-17
3.68223e-17
3.49807e-17
3.65015e-17
3.5396e-17
3.73226e-17
3.61412e-17
4.0139e-17
3.73559e-17
4.30746e-17
4.69027e-17
3.55571e-17
7.48041e-17
3.04282e-17
9.94887e-17
8.97501e-17
3.33889e-17
2.59086e-16
4.17419e-16
1.76496e-16
8.72155e-17
7.83391e-17
9.5707e-17
9.74944e-17
9.49719e-17
8.70361e-17
8.3204e-17
7.75416e-17
7.51537e-17
7.09125e-17
6.99777e-17
6.60889e-17
6.5249e-17
6.12327e-17
6.1088e-17
5.82673e-17
5.68381e-17
5.5669e-17
5.3562e-17
5.23993e-17
5.16272e-17
4.83259e-17
5.02671e-17
4.51689e-17
4.85383e-17
4.32909e-17
4.61898e-17
4.20147e-17
4.37735e-17
4.09506e-17
4.16079e-17
3.9995e-17
3.95994e-17
3.92547e-17
3.79517e-17
3.84483e-17
3.67658e-17
3.74926e-17
3.59322e-17
3.69501e-17
3.53131e-17
3.68179e-17
3.49809e-17
3.64869e-17
3.54013e-17
3.72854e-17
3.61482e-17
4.00633e-17
3.73643e-17
4.29149e-17
4.6844e-17
3.54122e-17
7.39963e-17
3.07471e-17
9.62796e-17
8.91694e-17
3.34224e-17
2.51734e-16
4.15254e-16
1.70754e-16
8.41203e-17
7.60679e-17
9.41694e-17
9.64607e-17
9.41662e-17
8.64985e-17
8.28038e-17
7.72671e-17
7.49393e-17
7.07399e-17
6.98233e-17
6.59612e-17
6.51317e-17
6.11344e-17
6.09895e-17
5.8197e-17
5.67643e-17
5.56169e-17
5.35106e-17
5.23589e-17
5.15974e-17
4.82942e-17
5.02495e-17
4.51441e-17
4.85267e-17
4.32712e-17
4.61854e-17
4.19981e-17
4.37733e-17
4.09364e-17
4.1609e-17
3.99834e-17
3.96023e-17
3.92438e-17
3.79565e-17
3.84365e-17
3.67719e-17
3.74813e-17
3.59362e-17
3.69384e-17
3.53106e-17
3.68093e-17
3.49766e-17
3.64654e-17
3.54012e-17
3.72367e-17
3.61479e-17
3.99674e-17
3.7362e-17
4.27242e-17
4.67449e-17
3.52618e-17
7.30255e-17
3.11268e-17
9.27098e-17
8.85899e-17
3.32026e-17
2.4246e-16
4.15096e-16
1.64005e-16
8.08413e-17
7.37459e-17
9.2501e-17
9.53115e-17
9.32511e-17
8.58683e-17
8.23285e-17
7.69346e-17
7.4677e-17
7.05279e-17
6.96333e-17
6.58041e-17
6.49866e-17
6.10138e-17
6.08681e-17
5.81087e-17
5.66728e-17
5.55492e-17
5.3445e-17
5.23059e-17
5.15563e-17
4.82526e-17
5.02234e-17
4.51108e-17
4.85091e-17
4.32437e-17
4.61769e-17
4.19746e-17
4.377e-17
4.09162e-17
4.16072e-17
3.99668e-17
3.96029e-17
3.92282e-17
3.79592e-17
3.84203e-17
3.67758e-17
3.74661e-17
3.59374e-17
3.69228e-17
3.53041e-17
3.67962e-17
3.49675e-17
3.64371e-17
3.53954e-17
3.71779e-17
3.61392e-17
3.98549e-17
3.7347e-17
4.25107e-17
4.66055e-17
3.51155e-17
7.19199e-17
3.15643e-17
8.88863e-17
8.81018e-17
3.27396e-17
2.31629e-16
4.17135e-16
1.56512e-16
7.74421e-17
7.14224e-17
9.07371e-17
9.40749e-17
9.22477e-17
8.51579e-17
8.17856e-17
7.6548e-17
7.43692e-17
7.02783e-17
6.94087e-17
6.56184e-17
6.48143e-17
6.08716e-17
6.07244e-17
5.80026e-17
5.65638e-17
5.54658e-17
5.33651e-17
5.22401e-17
5.15038e-17
4.82008e-17
5.01883e-17
4.50684e-17
4.84849e-17
4.32078e-17
4.61636e-17
4.19438e-17
4.37628e-17
4.08899e-17
4.16022e-17
3.99449e-17
3.96005e-17
3.92079e-17
3.79593e-17
3.83997e-17
3.6777e-17
3.74468e-17
3.59352e-17
3.69033e-17
3.52932e-17
3.67787e-17
3.49535e-17
3.64028e-17
3.53836e-17
3.71107e-17
3.61214e-17
3.97299e-17
3.73185e-17
4.22827e-17
4.64272e-17
3.49808e-17
7.07103e-17
3.20548e-17
8.49109e-17
8.77707e-17
3.20583e-17
2.19706e-16
4.21431e-16
1.48532e-16
7.39872e-17
6.91343e-17
8.89069e-17
9.27746e-17
9.11757e-17
8.43806e-17
8.11831e-17
7.6112e-17
7.40191e-17
6.99935e-17
6.91516e-17
6.54057e-17
6.4616e-17
6.07085e-17
6.05593e-17
5.78791e-17
5.64381e-17
5.5367e-17
5.32713e-17
5.21613e-17
5.14398e-17
4.81384e-17
5.01442e-17
4.50167e-17
4.84539e-17
4.31636e-17
4.6145e-17
4.19057e-17
4.37514e-17
4.08574e-17
4.15932e-17
3.99179e-17
3.95948e-17
3.9183e-17
3.79563e-17
3.83748e-17
3.67751e-17
3.74236e-17
3.59294e-17
3.68802e-17
3.52781e-17
3.67569e-17
3.49348e-17
3.6363e-17
3.53657e-17
3.70371e-17
3.60945e-17
3.95959e-17
3.72763e-17
4.20473e-17
4.62132e-17
3.48623e-17
6.94262e-17
3.25929e-17
8.08738e-17
8.76345e-17
3.11936e-17
2.07173e-16
4.27913e-16
1.40294e-16
7.05417e-17
6.69068e-17
8.70328e-17
9.14293e-17
9.00515e-17
8.35482e-17
8.05292e-17
7.56316e-17
7.36302e-17
6.96764e-17
6.88642e-17
6.51677e-17
6.43931e-17
6.05258e-17
6.03739e-17
5.77392e-17
5.62966e-17
5.52531e-17
5.31644e-17
5.20697e-17
5.13647e-17
4.80656e-17
5.0091e-17
4.4956e-17
4.84158e-17
4.31112e-17
4.61209e-17
4.18605e-17
4.37352e-17
4.08189e-17
4.15799e-17
3.98859e-17
3.95852e-17
3.91536e-17
3.79498e-17
3.83456e-17
3.67697e-17
3.73967e-17
3.59197e-17
3.68536e-17
3.52586e-17
3.67311e-17
3.49115e-17
3.63184e-17
3.53419e-17
3.69583e-17
3.60591e-17
3.94559e-17
3.72207e-17
4.181e-17
4.59677e-17
3.47622e-17
6.80938e-17
3.31729e-17
7.68497e-17
8.77061e-17
3.01922e-17
1.94484e-16
4.36413e-16
1.31987e-16
6.71659e-17
6.47559e-17
8.51323e-17
9.00529e-17
8.88889e-17
8.26711e-17
7.98315e-17
7.51119e-17
7.32061e-17
6.93296e-17
6.85492e-17
6.49063e-17
6.41474e-17
6.03248e-17
6.01697e-17
5.75836e-17
5.61404e-17
5.51249e-17
5.30452e-17
5.19657e-17
5.12791e-17
4.79824e-17
5.00291e-17
4.48864e-17
4.83705e-17
4.3051e-17
4.60907e-17
4.18087e-17
4.37138e-17
4.07748e-17
4.15619e-17
3.98491e-17
3.95714e-17
3.912e-17
3.79395e-17
3.83126e-17
3.67607e-17
3.73664e-17
3.5906e-17
3.68238e-17
3.52351e-17
3.67015e-17
3.4884e-17
3.62698e-17
3.53127e-17
3.68755e-17
3.60157e-17
3.93117e-17
3.71525e-17
4.15744e-17
4.56949e-17
3.46807e-17
6.67344e-17
3.37888e-17
7.28991e-17
8.79788e-17
2.9105e-17
1.82025e-16
4.4667e-16
1.23764e-16
6.39146e-17
6.26907e-17
8.32187e-17
8.86558e-17
8.76985e-17
8.17583e-17
7.90966e-17
7.45571e-17
7.27501e-17
6.89557e-17
6.82088e-17
6.46236e-17
6.38809e-17
6.01067e-17
5.99482e-17
5.74133e-17
5.59707e-17
5.4983e-17
5.29148e-17
5.18496e-17
5.11837e-17
4.78893e-17
4.99587e-17
4.48084e-17
4.83178e-17
4.29837e-17
4.60541e-17
4.17509e-17
4.36869e-17
4.07256e-17
4.15388e-17
3.9808e-17
3.95531e-17
3.90826e-17
3.79252e-17
3.82758e-17
3.67478e-17
3.73329e-17
3.58884e-17
3.67908e-17
3.52076e-17
3.66682e-17
3.48524e-17
3.62173e-17
3.52785e-17
3.6789e-17
3.59653e-17
3.91646e-17
3.70727e-17
4.13429e-17
4.53992e-17
3.46164e-17
6.53652e-17
3.44343e-17
6.90678e-17
8.84321e-17
2.7986e-17
1.70115e-16
4.58355e-16
1.15744e-16
6.08363e-17
6.07154e-17
8.13024e-17
8.72453e-17
8.64884e-17
8.08168e-17
7.83305e-17
7.39713e-17
7.22653e-17
6.8557e-17
6.78453e-17
6.43212e-17
6.35954e-17
5.98729e-17
5.97108e-17
5.7229e-17
5.57886e-17
5.48281e-17
5.27741e-17
5.1722e-17
5.10794e-17
4.77866e-17
4.98801e-17
4.47227e-17
4.82576e-17
4.29098e-17
4.60109e-17
4.16876e-17
4.36541e-17
4.06717e-17
4.15105e-17
3.9763e-17
3.95301e-17
3.90415e-17
3.79067e-17
3.82357e-17
3.67311e-17
3.72963e-17
3.58669e-17
3.67547e-17
3.51764e-17
3.66312e-17
3.48172e-17
3.61613e-17
3.52397e-17
3.66993e-17
3.59085e-17
3.90155e-17
3.69822e-17
4.11162e-17
4.50844e-17
3.45671e-17
6.39992e-17
3.51029e-17
6.53906e-17
8.90347e-17
2.68856e-17
1.58997e-16
4.71063e-16
1.08018e-16
5.79731e-17
5.88307e-17
7.93913e-17
8.58266e-17
8.52651e-17
7.98529e-17
7.75383e-17
7.33583e-17
7.17546e-17
6.81357e-17
6.7461e-17
6.40009e-17
6.32926e-17
5.96245e-17
5.9459e-17
5.70317e-17
5.55953e-17
5.46609e-17
5.26243e-17
5.15832e-17
5.09669e-17
4.76749e-17
4.97938e-17
4.46299e-17
4.819e-17
4.28303e-17
4.59607e-17
4.16195e-17
4.36151e-17
4.06138e-17
4.14767e-17
3.97144e-17
3.95023e-17
3.8997e-17
3.7884e-17
3.81924e-17
3.67104e-17
3.72566e-17
3.58416e-17
3.67155e-17
3.51417e-17
3.65906e-17
3.47784e-17
3.61017e-17
3.51968e-17
3.66062e-17
3.58462e-17
3.88645e-17
3.68819e-17
4.08946e-17
4.47542e-17
3.45303e-17
6.26462e-17
3.57875e-17
6.18934e-17
8.97462e-17
2.58501e-17
1.48846e-16
4.84345e-16
1.00654e-16
5.53576e-17
5.70349e-17
7.74916e-17
8.4403e-17
8.40333e-17
7.88713e-17
7.67245e-17
7.27214e-17
7.12206e-17
6.76938e-17
6.70577e-17
6.36641e-17
6.29742e-17
5.93627e-17
5.91941e-17
5.68222e-17
5.53918e-17
5.44822e-17
5.24663e-17
5.1434e-17
5.08471e-17
4.75547e-17
4.97001e-17
4.45307e-17
4.81148e-17
4.27458e-17
4.59034e-17
4.15473e-17
4.357e-17
4.05522e-17
4.14373e-17
3.96625e-17
3.94698e-17
3.89495e-17
3.78571e-17
3.81459e-17
3.66859e-17
3.7214e-17
3.58127e-17
3.66731e-17
3.51037e-17
3.65462e-17
3.47364e-17
3.60385e-17
3.515e-17
3.65097e-17
3.57786e-17
3.87118e-17
3.67726e-17
4.06773e-17
4.44116e-17
3.45028e-17
6.13134e-17
3.64807e-17
5.85943e-17
9.05201e-17
2.49164e-17
1.39769e-16
4.97716e-16
9.37008e-17
5.30111e-17
5.5325e-17
7.56084e-17
8.29772e-17
8.2797e-17
7.78764e-17
7.58932e-17
7.20637e-17
7.06661e-17
6.72331e-17
6.66373e-17
6.33124e-17
6.26419e-17
5.90887e-17
5.89176e-17
5.66014e-17
5.51792e-17
5.42925e-17
5.23011e-17
5.12747e-17
5.07206e-17
4.74265e-17
4.95992e-17
4.4426e-17
4.80321e-17
4.26573e-17
4.58389e-17
4.14718e-17
4.35184e-17
4.04875e-17
4.13925e-17
3.96077e-17
3.94324e-17
3.88989e-17
3.7826e-17
3.80964e-17
3.66577e-17
3.71683e-17
3.57803e-17
3.66273e-17
3.50626e-17
3.64978e-17
3.46914e-17
3.59715e-17
3.50997e-17
3.64096e-17
3.5706e-17
3.85572e-17
3.66551e-17
4.04635e-17
4.40596e-17
3.44819e-17
6.0006e-17
3.71748e-17
5.55045e-17
9.13075e-17
2.41133e-17
1.31819e-16
5.10688e-16
8.71931e-17
5.09437e-17
5.36972e-17
7.37463e-17
8.15508e-17
8.1559e-17
7.68717e-17
7.50479e-17
7.13881e-17
7.00933e-17
6.67554e-17
6.62016e-17
6.29469e-17
6.22972e-17
5.88035e-17
5.86306e-17
5.637e-17
5.49585e-17
5.40926e-17
5.21296e-17
5.11059e-17
5.05881e-17
4.7291e-17
4.94916e-17
4.43163e-17
4.79419e-17
4.25654e-17
4.57671e-17
4.13934e-17
4.34606e-17
4.042e-17
4.13421e-17
3.95502e-17
3.93902e-17
3.88456e-17
3.77908e-17
3.80439e-17
3.66258e-17
3.71195e-17
3.57446e-17
3.65781e-17
3.50185e-17
3.64453e-17
3.46434e-17
3.59004e-17
3.5046e-17
3.63057e-17
3.56287e-17
3.84007e-17
3.65299e-17
4.02519e-17
4.37004e-17
3.44646e-17
5.87277e-17
3.78615e-17
5.26294e-17
9.20576e-17
2.34592e-17
1.24996e-16
5.22756e-16
8.1152e-17
4.91561e-17
5.21478e-17
7.19094e-17
8.01253e-17
8.03218e-17
7.58606e-17
7.41921e-17
7.06977e-17
6.95048e-17
6.62626e-17
6.57522e-17
6.25691e-17
6.19415e-17
5.85082e-17
5.83345e-17
5.61288e-17
5.47305e-17
5.38831e-17
5.19528e-17
5.09283e-17
5.04504e-17
4.71489e-17
4.93775e-17
4.42026e-17
4.78443e-17
4.24707e-17
4.5688e-17
4.13127e-17
4.33964e-17
4.03501e-17
4.12863e-17
3.94901e-17
3.93434e-17
3.87895e-17
3.77516e-17
3.79884e-17
3.65903e-17
3.70675e-17
3.57057e-17
3.65252e-17
3.49716e-17
3.63885e-17
3.45926e-17
3.58251e-17
3.49889e-17
3.61979e-17
3.55465e-17
3.82419e-17
3.63977e-17
4.00413e-17
4.33364e-17
3.44485e-17
5.74811e-17
3.85327e-17
4.99697e-17
9.27185e-17
2.29648e-17
1.19256e-16
5.33448e-16
7.55894e-17
4.76383e-17
5.06735e-17
7.01012e-17
7.87018e-17
7.90875e-17
7.48458e-17
7.33288e-17
6.99949e-17
6.89029e-17
6.57563e-17
6.52907e-17
6.21802e-17
6.15761e-17
5.82038e-17
5.80303e-17
5.58788e-17
5.44963e-17
5.36648e-17
5.17712e-17
5.07424e-17
5.03079e-17
4.70008e-17
4.92571e-17
4.40854e-17
4.77394e-17
4.2374e-17
4.56018e-17
4.12302e-17
4.33259e-17
4.02783e-17
4.12253e-17
3.94278e-17
3.92922e-17
3.87308e-17
3.77086e-17
3.793e-17
3.65516e-17
3.70122e-17
3.56637e-17
3.64686e-17
3.4922e-17
3.63273e-17
3.45391e-17
3.57454e-17
3.49285e-17
3.60862e-17
3.54595e-17
3.80809e-17
3.6259e-17
3.98304e-17
4.29692e-17
3.44312e-17
5.62678e-17
3.91801e-17
4.75221e-17
9.32402e-17
2.2633e-17
1.14517e-16
5.42331e-16
7.05096e-17
4.63707e-17
4.92705e-17
6.83256e-17
7.72816e-17
7.78578e-17
7.38298e-17
7.24606e-17
6.92826e-17
6.829e-17
6.52383e-17
6.48186e-17
6.17814e-17
6.12024e-17
5.78915e-17
5.77193e-17
5.56208e-17
5.42566e-17
5.34382e-17
5.15858e-17
5.05489e-17
5.01612e-17
4.68474e-17
4.91308e-17
4.39654e-17
4.76274e-17
4.22758e-17
4.55085e-17
4.11463e-17
4.32495e-17
4.02046e-17
4.11592e-17
3.93634e-17
3.92366e-17
3.86696e-17
3.76619e-17
3.78687e-17
3.65096e-17
3.69536e-17
3.56189e-17
3.64082e-17
3.48698e-17
3.62616e-17
3.4483e-17
3.56613e-17
3.48648e-17
3.59706e-17
3.53676e-17
3.79174e-17
3.61147e-17
3.9618e-17
4.26007e-17
3.44109e-17
5.50888e-17
3.97954e-17
4.528e-17
9.35777e-17
2.24624e-17
1.10671e-16
5.49028e-16
6.59097e-17
4.53259e-17
4.79358e-17
6.65861e-17
7.58664e-17
7.66345e-17
7.28149e-17
7.15903e-17
6.85632e-17
6.76683e-17
6.47105e-17
6.43376e-17
6.13738e-17
6.08216e-17
5.75722e-17
5.74025e-17
5.53557e-17
5.40122e-17
5.32041e-17
5.13972e-17
5.03485e-17
5.00107e-17
4.66895e-17
4.89988e-17
4.38433e-17
4.75084e-17
4.21766e-17
4.54085e-17
4.10613e-17
4.31671e-17
4.01295e-17
4.10882e-17
3.92969e-17
3.91769e-17
3.86058e-17
3.76118e-17
3.78044e-17
3.64646e-17
3.68917e-17
3.55714e-17
3.6344e-17
3.48151e-17
3.61912e-17
3.44245e-17
3.55727e-17
3.47977e-17
3.58515e-17
3.52707e-17
3.77514e-17
3.59653e-17
3.94031e-17
4.22323e-17
3.43861e-17
5.39449e-17
4.03711e-17
4.32343e-17
9.36925e-17
2.2447e-17
1.0759e-16
5.53236e-16
6.17811e-17
4.44724e-17
4.66668e-17
6.48864e-17
7.44577e-17
7.54191e-17
7.18035e-17
7.07201e-17
6.78392e-17
6.704e-17
6.41746e-17
6.38491e-17
6.09586e-17
6.04348e-17
5.72469e-17
5.70808e-17
5.50844e-17
5.37641e-17
5.29632e-17
5.12059e-17
5.01419e-17
4.98568e-17
4.65277e-17
4.88613e-17
4.37197e-17
4.73827e-17
4.20767e-17
4.53019e-17
4.09757e-17
4.30792e-17
4.00531e-17
4.10126e-17
3.92286e-17
3.91134e-17
3.85396e-17
3.75583e-17
3.77372e-17
3.64167e-17
3.68265e-17
3.55212e-17
3.62761e-17
3.47581e-17
3.61163e-17
3.43637e-17
3.54797e-17
3.47272e-17
3.5729e-17
3.51689e-17
3.75827e-17
3.58119e-17
3.91851e-17
4.18652e-17
3.43558e-17
5.28365e-17
4.08998e-17
4.13742e-17
9.35519e-17
2.25791e-17
1.05128e-16
5.5472e-16
5.81108e-17
4.3775e-17
4.54615e-17
6.32296e-17
7.30572e-17
7.42133e-17
7.07974e-17
6.98522e-17
6.71127e-17
6.64073e-17
6.36324e-17
6.33545e-17
6.05371e-17
6.0043e-17
5.69166e-17
5.67554e-17
5.48076e-17
5.3513e-17
5.27162e-17
5.10126e-17
4.99297e-17
4.97e-17
4.63627e-17
4.87189e-17
4.3595e-17
4.72508e-17
4.19765e-17
4.51892e-17
4.08895e-17
4.2986e-17
3.99757e-17
4.09326e-17
3.91586e-17
3.90463e-17
3.84712e-17
3.75019e-17
3.76672e-17
3.63662e-17
3.6758e-17
3.54686e-17
3.62045e-17
3.46989e-17
3.60369e-17
3.43007e-17
3.53826e-17
3.46533e-17
3.56035e-17
3.50625e-17
3.74116e-17
3.56552e-17
3.89634e-17
4.15008e-17
3.43191e-17
5.17639e-17
4.13751e-17
3.96879e-17
9.3131e-17
2.28501e-17
1.03137e-16
5.53335e-16
5.48814e-17
4.3197e-17
4.43176e-17
6.1619e-17
7.16672e-17
7.30187e-17
6.97986e-17
6.89885e-17
6.63858e-17
6.57721e-17
6.30856e-17
6.28554e-17
6.01104e-17
5.96474e-17
5.65823e-17
5.64271e-17
5.45263e-17
5.32597e-17
5.24639e-17
5.08177e-17
4.97127e-17
4.95405e-17
4.61952e-17
4.85716e-17
4.34699e-17
4.7113e-17
4.18764e-17
4.50706e-17
4.08032e-17
4.28879e-17
3.98974e-17
4.08486e-17
3.90871e-17
3.89759e-17
3.84005e-17
3.74426e-17
3.75946e-17
3.63132e-17
3.66865e-17
3.54137e-17
3.61293e-17
3.46377e-17
3.59531e-17
3.42358e-17
3.52816e-17
3.45762e-17
3.54754e-17
3.49517e-17
3.72379e-17
3.54962e-17
3.87378e-17
4.11399e-17
3.42756e-17
5.07275e-17
4.17915e-17
3.81631e-17
9.24152e-17
2.32516e-17
1.01467e-16
5.49024e-16
5.20722e-17
4.27022e-17
4.32333e-17
6.00577e-17
7.02899e-17
7.18368e-17
6.88088e-17
6.81308e-17
6.56606e-17
6.51364e-17
6.25359e-17
6.23531e-17
5.96796e-17
5.92489e-17
5.62449e-17
5.60967e-17
5.42413e-17
5.30047e-17
5.2207e-17
5.06217e-17
4.94916e-17
4.93786e-17
4.60259e-17
4.842e-17
4.33447e-17
4.69696e-17
4.17767e-17
4.49467e-17
4.07168e-17
4.27851e-17
3.98185e-17
4.07609e-17
3.90142e-17
3.89024e-17
3.83278e-17
3.73808e-17
3.75194e-17
3.6258e-17
3.66121e-17
3.53567e-17
3.60509e-17
3.45748e-17
3.58652e-17
3.41691e-17
3.51772e-17
3.44959e-17
3.53452e-17
3.4837e-17
3.7062e-17
3.53359e-17
3.85084e-17
4.07837e-17
3.42251e-17
4.97277e-17
4.21442e-17
3.67875e-17
9.13998e-17
2.37755e-17
9.99764e-17
5.41818e-16
4.96581e-17
4.22576e-17
4.22069e-17
5.85483e-17
6.89277e-17
7.06694e-17
6.78298e-17
6.72806e-17
6.49387e-17
6.4502e-17
6.1985e-17
6.18489e-17
5.92459e-17
5.88483e-17
5.59051e-17
5.57651e-17
5.39534e-17
5.27489e-17
5.19464e-17
5.0425e-17
4.92672e-17
4.92146e-17
4.58553e-17
4.82643e-17
4.32199e-17
4.68212e-17
4.16775e-17
4.48179e-17
4.06307e-17
4.2678e-17
3.97392e-17
4.06698e-17
3.89402e-17
3.88262e-17
3.82532e-17
3.73167e-17
3.74418e-17
3.62007e-17
3.65349e-17
3.52979e-17
3.59693e-17
3.45104e-17
3.57736e-17
3.41008e-17
3.50699e-17
3.44126e-17
3.52134e-17
3.4719e-17
3.6884e-17
3.51753e-17
3.82755e-17
4.04329e-17
3.41675e-17
4.87648e-17
4.24299e-17
3.55497e-17
9.00879e-17
2.44135e-17
9.85325e-17
5.31824e-16
4.76118e-17
4.18341e-17
4.12373e-17
5.70931e-17
6.75831e-17
6.9518e-17
6.68633e-17
6.64394e-17
6.42217e-17
6.38703e-17
6.14344e-17
6.13443e-17
5.88103e-17
5.84466e-17
5.55638e-17
5.5433e-17
5.36632e-17
5.24929e-17
5.16826e-17
5.0228e-17
4.90401e-17
4.90488e-17
4.56841e-17
4.81049e-17
4.30957e-17
4.66683e-17
4.15791e-17
4.46846e-17
4.05449e-17
4.25671e-17
3.96596e-17
4.05756e-17
3.88651e-17
3.87475e-17
3.81769e-17
3.72507e-17
3.73622e-17
3.61417e-17
3.64554e-17
3.52375e-17
3.5885e-17
3.44448e-17
3.56785e-17
3.40313e-17
3.496e-17
3.43266e-17
3.50806e-17
3.45982e-17
3.67043e-17
3.50151e-17
3.80395e-17
4.00884e-17
3.4103e-17
4.78394e-17
4.26462e-17
3.44388e-17
8.84911e-17
2.51583e-17
9.70185e-17
5.19219e-16
4.5903e-17
4.14067e-17
4.03228e-17
5.5694e-17
6.62584e-17
6.83843e-17
6.59106e-17
6.56084e-17
6.35111e-17
6.32428e-17
6.08855e-17
6.08403e-17
5.8374e-17
5.80446e-17
5.52218e-17
5.51011e-17
5.33716e-17
5.22371e-17
5.14165e-17
5.00309e-17
4.88111e-17
4.88814e-17
4.55126e-17
4.79423e-17
4.29725e-17
4.65113e-17
4.14817e-17
4.45473e-17
4.04596e-17
4.24527e-17
3.95799e-17
4.04787e-17
3.87892e-17
3.86668e-17
3.80991e-17
3.7183e-17
3.72806e-17
3.60812e-17
3.63737e-17
3.51757e-17
3.57982e-17
3.43783e-17
3.55803e-17
3.39607e-17
3.48483e-17
3.42381e-17
3.49472e-17
3.44753e-17
3.65233e-17
3.48564e-17
3.78013e-17
3.9751e-17
3.40319e-17
4.69518e-17
4.2792e-17
3.34452e-17
8.66293e-17
2.6002e-17
9.53354e-17
5.0424e-16
4.45001e-17
4.09553e-17
3.94618e-17
5.43524e-17
6.49562e-17
6.72698e-17
6.49734e-17
6.47889e-17
6.28081e-17
6.26208e-17
6.03397e-17
6.03381e-17
5.7938e-17
5.76431e-17
5.48798e-17
5.47701e-17
5.30791e-17
5.19821e-17
5.11488e-17
4.98342e-17
4.85808e-17
4.87127e-17
4.53415e-17
4.77767e-17
4.28506e-17
4.63508e-17
4.13854e-17
4.44065e-17
4.0375e-17
4.23352e-17
3.95002e-17
4.03794e-17
3.87126e-17
3.85843e-17
3.80201e-17
3.71139e-17
3.71974e-17
3.60193e-17
3.62902e-17
3.51128e-17
3.57092e-17
3.43111e-17
3.54796e-17
3.38894e-17
3.47352e-17
3.41477e-17
3.48136e-17
3.43511e-17
3.63414e-17
3.46998e-17
3.75615e-17
3.94214e-17
3.39544e-17
4.61025e-17
4.28673e-17
3.25606e-17
8.45291e-17
2.69359e-17
9.34067e-17
4.87183e-16
4.33693e-17
4.04666e-17
3.86531e-17
5.30696e-17
6.36788e-17
6.6176e-17
6.40528e-17
6.39818e-17
6.21138e-17
6.20055e-17
5.9798e-17
5.98388e-17
5.75032e-17
5.72429e-17
5.45383e-17
5.44404e-17
5.27865e-17
5.17284e-17
5.08801e-17
4.9638e-17
4.83498e-17
4.85429e-17
4.51711e-17
4.76087e-17
4.27303e-17
4.61872e-17
4.12904e-17
4.42626e-17
4.02912e-17
4.22151e-17
3.94208e-17
4.02781e-17
3.86356e-17
3.85004e-17
3.79399e-17
3.70436e-17
3.71129e-17
3.59565e-17
3.62052e-17
3.50491e-17
3.56185e-17
3.42436e-17
3.53768e-17
3.38175e-17
3.46214e-17
3.40556e-17
3.46805e-17
3.42264e-17
3.61592e-17
3.45461e-17
3.7321e-17
3.91003e-17
3.38709e-17
4.52921e-17
4.28732e-17
3.17778e-17
8.22218e-17
2.79496e-17
9.11753e-17
4.68368e-16
4.24764e-17
3.99322e-17
3.78954e-17
5.18462e-17
6.24284e-17
6.51043e-17
6.31502e-17
6.31881e-17
6.14292e-17
6.13976e-17
5.92615e-17
5.93433e-17
5.70705e-17
5.68446e-17
5.41981e-17
5.41125e-17
5.24941e-17
5.14763e-17
5.06112e-17
4.94425e-17
4.81188e-17
4.83722e-17
4.50018e-17
4.74386e-17
4.26115e-17
4.60211e-17
4.11968e-17
4.41163e-17
4.02083e-17
4.20927e-17
3.93418e-17
4.01751e-17
3.85583e-17
3.84152e-17
3.7859e-17
3.69724e-17
3.70274e-17
3.58928e-17
3.61189e-17
3.49848e-17
3.55263e-17
3.4176e-17
3.52724e-17
3.37454e-17
3.45075e-17
3.39624e-17
3.45482e-17
3.41018e-17
3.59772e-17
3.43959e-17
3.70808e-17
3.87885e-17
3.37818e-17
4.45209e-17
4.28119e-17
3.10909e-17
7.97426e-17
2.90313e-17
8.86073e-17
4.48143e-16
4.17864e-17
3.93486e-17
3.71872e-17
5.06824e-17
6.1207e-17
6.40561e-17
6.22665e-17
6.24086e-17
6.0755e-17
6.07982e-17
5.87312e-17
5.88525e-17
5.66408e-17
5.64488e-17
5.38597e-17
5.37871e-17
5.22025e-17
5.12262e-17
5.03425e-17
4.92481e-17
4.78884e-17
4.82009e-17
4.48339e-17
4.72667e-17
4.24947e-17
4.5853e-17
4.11047e-17
4.39678e-17
4.01265e-17
4.19684e-17
3.92633e-17
4.00708e-17
3.84809e-17
3.83292e-17
3.77775e-17
3.69006e-17
3.69411e-17
3.58286e-17
3.60318e-17
3.49203e-17
3.54331e-17
3.41087e-17
3.51669e-17
3.36734e-17
3.43938e-17
3.38685e-17
3.44172e-17
3.39781e-17
3.57959e-17
3.42497e-17
3.68417e-17
3.84864e-17
3.36876e-17
4.37892e-17
4.26864e-17
3.04952e-17
7.71288e-17
3.01667e-17
8.56869e-17
4.26865e-16
4.12654e-17
3.87161e-17
3.65269e-17
4.95782e-17
6.00166e-17
6.30324e-17
6.14029e-17
6.1644e-17
6.0092e-17
6.02078e-17
5.82078e-17
5.8367e-17
5.62148e-17
5.60562e-17
5.35236e-17
5.34643e-17
5.19123e-17
5.09784e-17
5.00748e-17
4.90549e-17
4.76589e-17
4.80291e-17
4.46678e-17
4.70935e-17
4.23798e-17
4.56832e-17
4.10142e-17
4.38176e-17
4.00458e-17
4.18426e-17
3.91854e-17
3.99655e-17
3.84036e-17
3.82426e-17
3.76957e-17
3.68285e-17
3.68544e-17
3.57641e-17
3.59441e-17
3.48558e-17
3.53392e-17
3.40417e-17
3.50608e-17
3.36016e-17
3.42811e-17
3.37744e-17
3.42878e-17
3.38559e-17
3.56159e-17
3.4108e-17
3.66046e-17
3.81947e-17
3.35886e-17
4.30971e-17
4.25007e-17
2.99871e-17
7.4419e-17
3.13396e-17
8.24205e-17
4.04896e-16
4.08798e-17
3.80402e-17
3.59132e-17
4.85331e-17
5.88587e-17
6.20344e-17
6.05602e-17
6.08949e-17
5.94407e-17
5.96271e-17
5.76921e-17
5.78877e-17
5.57932e-17
5.56673e-17
5.31903e-17
5.31447e-17
5.16237e-17
5.07331e-17
4.98084e-17
4.88629e-17
4.7431e-17
4.78571e-17
4.45036e-17
4.69192e-17
4.22669e-17
4.55122e-17
4.09253e-17
4.36663e-17
3.99664e-17
4.17157e-17
3.91083e-17
3.98594e-17
3.83266e-17
3.81557e-17
3.76137e-17
3.67561e-17
3.67675e-17
3.56996e-17
3.58561e-17
3.47915e-17
3.5245e-17
3.39755e-17
3.49546e-17
3.35304e-17
3.41696e-17
3.36806e-17
3.41604e-17
3.37358e-17
3.54379e-17
3.39711e-17
3.63704e-17
3.79138e-17
3.34853e-17
4.24448e-17
4.22591e-17
2.95634e-17
7.16513e-17
3.25302e-17
7.88311e-17
3.82583e-16
4.05982e-17
3.73287e-17
3.53447e-17
4.75465e-17
5.77349e-17
6.1063e-17
5.9739e-17
6.01618e-17
5.88017e-17
5.90566e-17
5.71844e-17
5.74149e-17
5.53766e-17
5.52826e-17
5.28602e-17
5.28285e-17
5.13373e-17
5.04905e-17
4.95439e-17
4.86724e-17
4.7205e-17
4.7685e-17
4.43417e-17
4.67443e-17
4.21562e-17
4.53404e-17
4.08383e-17
4.3514e-17
3.98883e-17
4.1588e-17
3.90321e-17
3.9753e-17
3.82499e-17
3.80686e-17
3.75319e-17
3.66838e-17
3.66807e-17
3.56351e-17
3.57682e-17
3.47277e-17
3.51508e-17
3.39101e-17
3.48487e-17
3.346e-17
3.40598e-17
3.35875e-17
3.40354e-17
3.36184e-17
3.52623e-17
3.38393e-17
3.61398e-17
3.76442e-17
3.3378e-17
4.18321e-17
4.19669e-17
2.92218e-17
6.88624e-17
3.37175e-17
7.49588e-17
3.60252e-16
4.03897e-17
3.65918e-17
3.48199e-17
4.66172e-17
5.66463e-17
6.0119e-17
5.89401e-17
5.94452e-17
5.81754e-17
5.84965e-17
5.66854e-17
5.69492e-17
5.49655e-17
5.49026e-17
5.25337e-17
5.25159e-17
5.10532e-17
5.02507e-17
4.92817e-17
4.84835e-17
4.69813e-17
4.75132e-17
4.41822e-17
4.65691e-17
4.20477e-17
4.51682e-17
4.07529e-17
4.33613e-17
3.98115e-17
4.14598e-17
3.89568e-17
3.96463e-17
3.81739e-17
3.79816e-17
3.74504e-17
3.66117e-17
3.65942e-17
3.5571e-17
3.56805e-17
3.46646e-17
3.50571e-17