/*--------------------------------*- C++ -*----------------------------------*\
| =========                 |                                                 |
| \\      /  F ield         | OpenFOAM: The Open Source CFD Toolbox           |
|  \\    /   O peration     | Version:  2312                                  |
|   \\  /    A nd           | Website:  www.openfoam.com                      |
|    \\/     M anipulation  |                                                 |
\*---------------------------------------------------------------------------*/
FoamFile
{
    version     2.0;
    format      ascii;
    arch        "LSB;label=32;scalar=64";
    class       volScalarField;
    location    "700";
    object      p;
}
// * * * * * * * * * * * * * * * * * * * * * * * * * * * * * * * * * * * * * //

dimensions      [0 2 -2 0 0 0 0];

internalField   nonuniform List<scalar> 
144000
(
7.63691e-10
7.40342e-10
4.91412e-10
2.89001e-10
2.71122e-10
3.14271e-10
3.7911e-10
4.14742e-10
4.49236e-10
4.57024e-10
4.75436e-10
4.74997e-10
4.88972e-10
4.85852e-10
4.99674e-10
4.96561e-10
5.08131e-10
5.02253e-10
5.16121e-10
5.12572e-10
5.25449e-10
5.19234e-10
5.32027e-10
5.26354e-10
5.39127e-10
5.33427e-10
5.45746e-10
5.38612e-10
5.5102e-10
5.44512e-10
5.57435e-10
5.5125e-10
5.62645e-10
5.54022e-10
5.65606e-10
5.58033e-10
5.69291e-10
5.6214e-10
5.72312e-10
5.64445e-10
5.74537e-10
5.68348e-10
5.77832e-10
5.72522e-10
5.7815e-10
5.70818e-10
5.76951e-10
5.74687e-10
5.78921e-10
5.79175e-10
5.80921e-10
5.85286e-10
5.75659e-10
5.76254e-10
5.46729e-10
5.48258e-10
4.89283e-10
4.0965e-10
1.46268e-10
4.64989e-10
7.76067e-10
7.47117e-10
4.88927e-10
2.86142e-10
2.69683e-10
3.13862e-10
3.78913e-10
4.14666e-10
4.49069e-10
4.56918e-10
4.75265e-10
4.74925e-10
4.88825e-10
4.858e-10
4.99564e-10
4.96547e-10
5.08031e-10
5.02231e-10
5.16032e-10
5.12584e-10
5.25366e-10
5.19242e-10
5.3195e-10
5.26385e-10
5.3906e-10
5.33461e-10
5.45678e-10
5.38644e-10
5.50955e-10
5.44557e-10
5.57383e-10
5.51306e-10
5.62587e-10
5.54066e-10
5.65553e-10
5.58099e-10
5.69247e-10
5.62213e-10
5.72269e-10
5.64515e-10
5.74504e-10
5.68437e-10
5.77822e-10
5.72626e-10
5.78149e-10
5.70905e-10
5.76975e-10
5.74809e-10
5.78984e-10
5.79305e-10
5.81052e-10
5.85457e-10
5.75904e-10
5.76432e-10
5.47168e-10
5.48737e-10
4.91228e-10
4.10983e-10
1.37558e-10
4.59075e-10
7.91442e-10
7.54318e-10
4.86062e-10
2.82658e-10
2.67607e-10
3.13084e-10
3.78644e-10
4.14503e-10
4.48933e-10
4.56726e-10
4.75099e-10
4.74759e-10
4.88692e-10
4.85664e-10
4.99467e-10
4.96462e-10
5.07981e-10
5.02134e-10
5.15966e-10
5.12525e-10
5.25328e-10
5.1918e-10
5.31912e-10
5.26356e-10
5.39042e-10
5.33433e-10
5.45666e-10
5.38614e-10
5.50943e-10
5.44546e-10
5.57387e-10
5.51303e-10
5.62598e-10
5.54052e-10
5.65558e-10
5.58116e-10
5.69265e-10
5.6224e-10
5.72294e-10
5.64542e-10
5.74534e-10
5.68494e-10
5.77876e-10
5.72711e-10
5.78243e-10
5.70981e-10
5.7707e-10
5.74937e-10
5.79136e-10
5.79451e-10
5.81246e-10
5.85664e-10
5.76243e-10
5.7672e-10
5.47705e-10
5.49203e-10
4.93786e-10
4.15214e-10
1.24238e-10
4.51897e-10
8.09358e-10
7.61054e-10
4.83392e-10
2.78881e-10
2.6465e-10
3.11882e-10
3.78288e-10
4.1435e-10
4.48829e-10
4.56507e-10
4.74902e-10
4.7455e-10
4.88534e-10
4.85482e-10
4.99343e-10
4.96348e-10
5.07943e-10
5.02002e-10
5.15878e-10
5.12436e-10
5.25297e-10
5.19093e-10
5.31869e-10
5.26311e-10
5.3903e-10
5.33388e-10
5.45669e-10
5.38566e-10
5.50938e-10
5.44519e-10
5.57405e-10
5.51288e-10
5.62639e-10
5.54021e-10
5.65575e-10
5.58124e-10
5.6931e-10
5.62261e-10
5.72354e-10
5.64559e-10
5.74594e-10
5.68546e-10
5.77972e-10
5.72802e-10
5.78418e-10
5.71059e-10
5.77226e-10
5.7507e-10
5.79389e-10
5.7959e-10
5.81547e-10
5.85852e-10
5.76781e-10
5.76972e-10
5.48512e-10
5.49498e-10
4.97718e-10
4.2171e-10
1.07063e-10
4.44259e-10
8.27369e-10
7.65057e-10
4.81759e-10
2.76073e-10
2.61089e-10
3.10285e-10
3.77871e-10
4.14259e-10
4.48773e-10
4.56272e-10
4.74653e-10
4.74288e-10
4.88324e-10
4.8525e-10
4.99168e-10
4.96204e-10
5.07896e-10
5.01841e-10
5.15748e-10
5.12323e-10
5.25256e-10
5.18989e-10
5.318e-10
5.26256e-10
5.39011e-10
5.33337e-10
5.45674e-10
5.38511e-10
5.50923e-10
5.44486e-10
5.57422e-10
5.5127e-10
5.62697e-10
5.53987e-10
5.65588e-10
5.5813e-10
5.69368e-10
5.62284e-10
5.72437e-10
5.64574e-10
5.74669e-10
5.68596e-10
5.78102e-10
5.72903e-10
5.7867e-10
5.71136e-10
5.77439e-10
5.75188e-10
5.79751e-10
5.79689e-10
5.81974e-10
5.85967e-10
5.77563e-10
5.7709e-10
5.4968e-10
5.49448e-10
5.03189e-10
4.29916e-10
8.71217e-11
4.3798e-10
8.43911e-10
7.62973e-10
4.81341e-10
2.75673e-10
2.57484e-10
3.08361e-10
3.77432e-10
4.14271e-10
4.48794e-10
4.56031e-10
4.74347e-10
4.73965e-10
4.88053e-10
4.84962e-10
4.9893e-10
4.9602e-10
5.07833e-10
5.01646e-10
5.15569e-10
5.12181e-10
5.25201e-10
5.18867e-10
5.31702e-10
5.26186e-10
5.3898e-10
5.33277e-10
5.45677e-10
5.38449e-10
5.50894e-10
5.44445e-10
5.57436e-10
5.51249e-10
5.6277e-10
5.5395e-10
5.65594e-10
5.58132e-10
5.69437e-10
5.62307e-10
5.72542e-10
5.64586e-10
5.74759e-10
5.68637e-10
5.78267e-10
5.73003e-10
5.79003e-10
5.712e-10
5.77713e-10
5.75267e-10
5.80229e-10
5.79714e-10
5.82546e-10
5.85954e-10
5.78624e-10
5.76984e-10
5.51287e-10
5.48875e-10
5.10291e-10
4.39341e-10
6.49969e-11
4.35798e-10
8.5878e-10
7.51247e-10
4.81525e-10
2.79029e-10
2.54494e-10
3.06203e-10
3.77006e-10
4.14448e-10
4.48922e-10
4.55803e-10
4.73988e-10
4.73581e-10
4.87717e-10
4.84613e-10
4.98625e-10
4.95788e-10
5.07745e-10
5.01419e-10
5.15337e-10
5.12002e-10
5.25126e-10
5.18727e-10
5.3157e-10
5.26098e-10
5.38935e-10
5.33205e-10
5.45676e-10
5.38379e-10
5.50849e-10
5.4439e-10
5.57445e-10
5.51221e-10
5.62856e-10
5.5391e-10
5.6559e-10
5.58123e-10
5.69517e-10
5.62326e-10
5.72668e-10
5.64591e-10
5.74864e-10
5.68662e-10
5.78469e-10
5.73093e-10
5.79417e-10
5.71242e-10
5.78056e-10
5.75281e-10
5.80834e-10
5.79633e-10
5.83287e-10
5.85754e-10
5.80003e-10
5.76557e-10
5.53423e-10
5.47625e-10
5.19086e-10
4.49582e-10
4.06009e-11
4.40592e-10
8.72871e-10
7.26648e-10
4.81058e-10
2.87318e-10
2.52847e-10
3.03921e-10
3.76613e-10
4.14824e-10
4.49189e-10
4.55605e-10
4.73584e-10
4.73139e-10
4.87315e-10
4.84203e-10
4.9825e-10
4.95501e-10
5.07626e-10
5.01159e-10
5.1505e-10
5.11783e-10
5.25026e-10
5.18568e-10
5.31401e-10
5.25988e-10
5.38872e-10
5.33121e-10
5.45666e-10
5.383e-10
5.50785e-10
5.44321e-10
5.57446e-10
5.51185e-10
5.6295e-10
5.53869e-10
5.65576e-10
5.58102e-10
5.69605e-10
5.62339e-10
5.72812e-10
5.64586e-10
5.74984e-10
5.68664e-10
5.78709e-10
5.73161e-10
5.79912e-10
5.71251e-10
5.78475e-10
5.75204e-10
5.81576e-10
5.79413e-10
5.84223e-10
5.85314e-10
5.81742e-10
5.75728e-10
5.56169e-10
5.45588e-10
5.29548e-10
4.60407e-10
1.33917e-11
4.5483e-10
8.88008e-10
6.86569e-10
4.78188e-10
3.01445e-10
2.53319e-10
3.0164e-10
3.76254e-10
4.15428e-10
4.49618e-10
4.55453e-10
4.7314e-10
4.72643e-10
4.86847e-10
4.83736e-10
4.97805e-10
4.95157e-10
5.07467e-10
5.00868e-10
5.14708e-10
5.11521e-10
5.24893e-10
5.1839e-10
5.31193e-10
5.25853e-10
5.38789e-10
5.33024e-10
5.45642e-10
5.38214e-10
5.507e-10
5.44235e-10
5.57439e-10
5.51139e-10
5.63046e-10
5.53827e-10
5.65551e-10
5.58064e-10
5.69701e-10
5.62342e-10
5.72971e-10
5.64568e-10
5.7512e-10
5.68636e-10
5.7899e-10
5.73198e-10
5.80489e-10
5.71216e-10
5.78983e-10
5.75016e-10
5.82465e-10
5.79025e-10
5.85378e-10
5.84588e-10
5.83871e-10
5.74438e-10
5.59572e-10
5.42724e-10
5.41547e-10
4.71756e-10
-1.74728e-11
4.80327e-10
9.06365e-10
6.29305e-10
4.70974e-10
3.21998e-10
2.56674e-10
2.99497e-10
3.75908e-10
4.16276e-10
4.50229e-10
4.55363e-10
4.72665e-10
4.721e-10
4.86315e-10
4.83216e-10
4.97291e-10
4.94756e-10
5.07263e-10
5.00549e-10
5.14312e-10
5.11216e-10
5.24723e-10
5.18195e-10
5.30946e-10
5.25692e-10
5.38683e-10
5.32914e-10
5.45602e-10
5.3812e-10
5.50595e-10
5.44133e-10
5.5742e-10
5.51083e-10
5.63139e-10
5.53784e-10
5.65515e-10
5.58007e-10
5.69801e-10
5.62335e-10
5.73145e-10
5.64535e-10
5.75274e-10
5.68574e-10
5.79314e-10
5.73194e-10
5.81144e-10
5.71125e-10
5.79588e-10
5.74696e-10
5.83509e-10
5.78446e-10
5.86768e-10
5.83542e-10
5.86401e-10
5.72662e-10
5.63638e-10
5.39066e-10
5.54814e-10
4.83761e-10
-5.27443e-11
5.17982e-10
9.30318e-10
5.54241e-10
4.57384e-10
3.49154e-10
2.63628e-10
2.97655e-10
3.75534e-10
4.1736e-10
4.51031e-10
4.55343e-10
4.72164e-10
4.71514e-10
4.85718e-10
4.82644e-10
4.96711e-10
4.94297e-10
5.07006e-10
5.00203e-10
5.13866e-10
5.10868e-10
5.2451e-10
5.17984e-10
5.30661e-10
5.25504e-10
5.38552e-10
5.32791e-10
5.45541e-10
5.38019e-10
5.50467e-10
5.44015e-10
5.57389e-10
5.51016e-10
5.63227e-10
5.53741e-10
5.6547e-10
5.57929e-10
5.69905e-10
5.62313e-10
5.7333e-10
5.64484e-10
5.75449e-10
5.68473e-10
5.79681e-10
5.73143e-10
5.81876e-10
5.7097e-10
5.80297e-10
5.74234e-10
5.84707e-10
5.77666e-10
5.88398e-10
5.82171e-10
5.89321e-10
5.70415e-10
5.68318e-10
5.34726e-10
5.68995e-10
4.96676e-10
-9.30344e-11
5.67761e-10
9.61936e-10
4.61786e-10
4.35573e-10
3.82682e-10
2.748e-10
2.96314e-10
3.75089e-10
4.18656e-10
4.52024e-10
4.554e-10
4.71639e-10
4.70887e-10
4.85059e-10
4.82024e-10
4.96067e-10
4.93782e-10
5.06693e-10
4.99831e-10
5.13373e-10
5.10478e-10
5.24249e-10
5.17755e-10
5.30339e-10
5.25289e-10
5.38393e-10
5.32655e-10
5.45457e-10
5.3791e-10
5.50319e-10
5.43879e-10
5.57344e-10
5.5094e-10
5.63304e-10
5.53695e-10
5.65418e-10
5.57829e-10
5.70011e-10
5.62276e-10
5.73525e-10
5.64412e-10
5.75645e-10
5.6833e-10
5.80092e-10
5.73038e-10
5.8268e-10
5.70746e-10
5.81111e-10
5.73625e-10
5.86049e-10
5.76685e-10
5.90257e-10
5.8049e-10
5.9259e-10
5.67754e-10
5.73518e-10
5.29883e-10
5.83656e-10
5.10771e-10
-1.38542e-10
6.28799e-10
1.00306e-09
3.53327e-10
4.03878e-10
4.21892e-10
2.90682e-10
2.95734e-10
3.74539e-10
4.20117e-10
4.53199e-10
4.55538e-10
4.71094e-10
4.70223e-10
4.84337e-10
4.81358e-10
4.9536e-10
4.93211e-10
5.0632e-10
4.99434e-10
5.12834e-10
5.10049e-10
5.23939e-10
5.17509e-10
5.29981e-10
5.25047e-10
5.38204e-10
5.32507e-10
5.45348e-10
5.37792e-10
5.50152e-10
5.43727e-10
5.57284e-10
5.50852e-10
5.6337e-10
5.53647e-10
5.65359e-10
5.57706e-10
5.70116e-10
5.62222e-10
5.73729e-10
5.64319e-10
5.75862e-10
5.68144e-10
5.80542e-10
5.7288e-10
5.83546e-10
5.70452e-10
5.82026e-10
5.72876e-10
5.87518e-10
5.75514e-10
5.92317e-10
5.78536e-10
5.9614e-10
5.64774e-10
5.79102e-10
5.24766e-10
5.98391e-10
5.26211e-10
-1.89213e-10
6.99623e-10
1.05465e-09
2.31214e-10
3.61227e-10
4.65698e-10
3.11553e-10
2.96205e-10
3.73864e-10
4.2168e-10
4.54537e-10
4.5576e-10
4.70535e-10
4.69524e-10
4.83553e-10
4.80647e-10
4.94593e-10
4.92586e-10
5.05883e-10
4.9901e-10
5.12254e-10
5.09581e-10
5.23575e-10
5.17244e-10
5.29589e-10
5.24779e-10
5.37984e-10
5.32346e-10
5.45214e-10
5.37666e-10
5.49966e-10
5.43559e-10
5.57208e-10
5.50755e-10
5.63421e-10
5.53594e-10
5.65297e-10
5.57561e-10
5.70219e-10
5.62151e-10
5.7394e-10
5.64203e-10
5.76101e-10
5.67917e-10
5.81027e-10
5.7267e-10
5.84464e-10
5.70094e-10
5.83029e-10
5.72002e-10
5.89085e-10
5.74188e-10
5.9453e-10
5.76374e-10
5.99879e-10
5.61602e-10
5.84899e-10
5.19625e-10
6.12778e-10
5.43071e-10
-2.44385e-10
7.78125e-10
1.11685e-09
9.86902e-11
3.07165e-10
5.12639e-10
3.37458e-10
2.98039e-10
3.7306e-10
4.23258e-10
4.56002e-10
4.56067e-10
4.69966e-10
4.68794e-10
4.8271e-10
4.79893e-10
4.93768e-10
4.9191e-10
5.05381e-10
4.98561e-10
5.11634e-10
5.09078e-10
5.23156e-10
5.1696e-10
5.29165e-10
5.24485e-10
5.37731e-10
5.32173e-10
5.45053e-10
5.37531e-10
5.49762e-10
5.43376e-10
5.57114e-10
5.50646e-10
5.63455e-10
5.53537e-10
5.6523e-10
5.57396e-10
5.70315e-10
5.62063e-10
5.74153e-10
5.64068e-10
5.76356e-10
5.67654e-10
5.81538e-10
5.72416e-10
5.85418e-10
5.69681e-10
5.84101e-10
5.7103e-10
5.90712e-10
5.72753e-10
5.96835e-10
5.74087e-10
6.03692e-10
5.5839e-10
5.90718e-10
5.14719e-10
6.26459e-10
5.61315e-10
-3.02943e-10
8.61714e-10
1.1891e-09
-4.05908e-11
2.41904e-10
5.60968e-10
3.68179e-10
3.01556e-10
3.72157e-10
4.24752e-10
4.57546e-10
4.56453e-10
4.69391e-10
4.68034e-10
4.81807e-10
4.79097e-10
4.92887e-10
4.91184e-10
5.04812e-10
4.98084e-10
5.10978e-10
5.08541e-10
5.22681e-10
5.16654e-10
5.2871e-10
5.24167e-10
5.37444e-10
5.31987e-10
5.44864e-10
5.37386e-10
5.49542e-10
5.4318e-10
5.57001e-10
5.50529e-10
5.63472e-10
5.53474e-10
5.6516e-10
5.57212e-10
5.70403e-10
5.6196e-10
5.74364e-10
5.63916e-10
5.76623e-10
5.67362e-10
5.82062e-10
5.72128e-10
5.86391e-10
5.69229e-10
5.85214e-10
5.69996e-10
5.92348e-10
5.71262e-10
5.99155e-10
5.71777e-10
6.07448e-10
5.55306e-10
5.96361e-10
5.103e-10
6.39107e-10
5.80815e-10
-3.63433e-10
9.48276e-10
1.27073e-09
-1.81709e-10
1.65988e-10
6.0864e-10
4.03244e-10
3.07092e-10
3.7123e-10
4.26059e-10
4.59109e-10
4.56911e-10
4.68816e-10
4.67248e-10
4.80845e-10
4.7826e-10
4.91951e-10
4.90412e-10
5.04176e-10
4.97578e-10
5.10288e-10
5.07973e-10
5.22149e-10
5.16324e-10
5.28226e-10
5.23826e-10
5.37122e-10
5.31788e-10
5.44647e-10
5.37231e-10
5.49306e-10
5.42973e-10
5.56867e-10
5.50402e-10
5.6347e-10
5.53406e-10
5.65085e-10
5.57015e-10
5.70476e-10
5.61844e-10
5.74568e-10
5.63754e-10
5.76894e-10
5.67052e-10
5.82588e-10
5.71817e-10
5.87356e-10
5.68763e-10
5.86336e-10
5.68942e-10
5.93938e-10
5.69769e-10
6.01404e-10
5.69558e-10
6.1101e-10
5.52524e-10
6.01632e-10
5.06599e-10
6.50534e-10
6.01293e-10
-4.24542e-10
1.03303e-09
1.36004e-09
-3.19738e-10
8.06452e-11
6.53513e-10
4.41907e-10
3.14954e-10
3.70394e-10
4.27075e-10
4.60616e-10
4.57431e-10
4.68246e-10
4.66439e-10
4.79826e-10
4.77383e-10
4.90962e-10
4.89595e-10
5.03473e-10
4.97044e-10
5.09564e-10
5.07377e-10
5.2156e-10
5.15971e-10
5.27714e-10
5.23464e-10
5.36764e-10
5.31577e-10
5.44402e-10
5.37067e-10
5.49054e-10
5.42758e-10
5.5671e-10
5.50268e-10
5.63446e-10
5.53334e-10
5.65003e-10
5.56808e-10
5.7053e-10
5.6172e-10
5.74759e-10
5.63589e-10
5.77159e-10
5.66735e-10
5.83096e-10
5.71501e-10
5.88288e-10
5.6831e-10
5.8743e-10
5.67917e-10
5.95426e-10
5.6837e-10
6.03483e-10
5.67545e-10
6.14237e-10
5.50214e-10
6.06356e-10
5.038e-10
6.60618e-10
6.22313e-10
-4.84415e-10
1.11389e-09
1.45437e-09
-4.50075e-10
-1.21139e-11
6.93474e-10
4.83191e-10
3.25391e-10
3.69794e-10
4.27697e-10
4.61979e-10
4.57995e-10
4.6769e-10
4.65611e-10
4.78753e-10
4.76467e-10
4.89923e-10
4.88738e-10
5.02706e-10
4.9648e-10
5.0881e-10
5.06755e-10
5.20916e-10
5.15591e-10
5.27174e-10
5.23082e-10
5.3637e-10
5.31354e-10
5.44129e-10
5.36894e-10
5.48786e-10
5.42536e-10
5.56528e-10
5.50127e-10
5.63399e-10
5.53259e-10
5.6491e-10
5.56598e-10
5.7056e-10
5.61592e-10
5.74928e-10
5.6343e-10
5.77408e-10
5.66425e-10
5.8357e-10
5.71199e-10
5.89161e-10
5.67897e-10
5.88457e-10
5.66971e-10
5.96752e-10
5.67133e-10
6.05298e-10
5.65845e-10
6.16992e-10
5.48529e-10
6.1037e-10
5.02065e-10
6.69295e-10
6.43399e-10
-5.40853e-10
1.18771e-09
1.55038e-09
-5.67774e-10
-1.09625e-10
7.26541e-10
5.25923e-10
3.38571e-10
3.69594e-10
4.27835e-10
4.63102e-10
4.58576e-10
4.67149e-10
4.64767e-10
4.77624e-10
4.75511e-10
4.88834e-10
4.87842e-10
5.01875e-10
4.95885e-10
5.08027e-10
5.06111e-10
5.20216e-10
5.15185e-10
5.26607e-10
5.22682e-10
5.35938e-10
5.3112e-10
5.43827e-10
5.36713e-10
5.48503e-10
5.4231e-10
5.5632e-10
5.49983e-10
5.63327e-10
5.53183e-10
5.64803e-10
5.5639e-10
5.7056e-10
5.61465e-10
5.75068e-10
5.63285e-10
5.77627e-10
5.66137e-10
5.83991e-10
5.70934e-10
5.89949e-10
5.67555e-10
5.89375e-10
5.66154e-10
5.97856e-10
5.66125e-10
6.06769e-10
5.64585e-10
6.19154e-10
5.47602e-10
6.13531e-10
5.01536e-10
6.76487e-10
6.64142e-10
-5.91501e-10
1.25122e-09
1.64504e-09
-6.68008e-10
-2.09183e-10
7.50825e-10
5.6882e-10
3.54586e-10
3.69987e-10
4.27422e-10
4.63888e-10
4.59141e-10
4.66625e-10
4.63909e-10
4.76442e-10
4.74514e-10
4.87696e-10
4.86911e-10
5.00984e-10
4.95261e-10
5.07213e-10
5.05447e-10
5.19464e-10
5.14752e-10
5.26013e-10
5.22265e-10
5.35469e-10
5.30874e-10
5.43497e-10
5.36524e-10
5.48202e-10
5.42083e-10
5.56083e-10
5.49837e-10
5.63228e-10
5.53109e-10
5.64678e-10
5.56191e-10
5.70522e-10
5.61346e-10
5.75171e-10
5.63166e-10
5.77805e-10
5.65887e-10
5.84341e-10
5.70725e-10
5.90623e-10
5.67313e-10
5.90145e-10
5.65515e-10
5.98682e-10
5.65409e-10
6.07819e-10
5.63853e-10
6.2062e-10
5.47572e-10
6.15718e-10
5.02338e-10
6.82182e-10
6.8418e-10
-6.34374e-10
1.3013e-09
1.73526e-09
-7.4634e-10
-3.07999e-10
7.64739e-10
6.10576e-10
3.73412e-10
3.71163e-10
4.26412e-10
4.64255e-10
4.59657e-10
4.66121e-10
4.63041e-10
4.75208e-10
4.73477e-10
4.86509e-10
4.85946e-10
5.00035e-10
4.94607e-10
5.06371e-10
5.04763e-10
5.18661e-10
5.14291e-10
5.25391e-10
5.21834e-10
5.34963e-10
5.30618e-10
5.43137e-10
5.3633e-10
5.47884e-10
5.41858e-10
5.55815e-10
5.49693e-10
5.63101e-10
5.5304e-10
5.64529e-10
5.56005e-10
5.70443e-10
5.61242e-10
5.75229e-10
5.63083e-10
5.77929e-10
5.65689e-10
5.84602e-10
5.70593e-10
5.91161e-10
5.672e-10
5.90732e-10
5.65096e-10
5.99186e-10
5.65043e-10
6.08388e-10
5.63722e-10
6.21317e-10
5.48521e-10
6.16851e-10
5.04577e-10
6.86354e-10
7.0332e-10
-6.67501e-10
1.33494e-09
1.8181e-09
-7.98637e-10
-4.03373e-10
7.67067e-10
6.49969e-10
3.94884e-10
3.73272e-10
4.2478e-10
4.64092e-10
4.60083e-10
4.65634e-10
4.62167e-10
4.73924e-10
4.724e-10
4.85275e-10
4.84948e-10
4.9903e-10
4.93924e-10
5.05501e-10
5.04061e-10
5.17808e-10
5.13802e-10
5.24741e-10
5.21388e-10
5.3442e-10
5.30352e-10
5.42749e-10
5.36131e-10
5.47547e-10
5.41637e-10
5.55516e-10
5.4955e-10
5.62945e-10
5.52979e-10
5.64352e-10
5.55839e-10
5.70316e-10
5.61159e-10
5.75235e-10
5.63047e-10
5.77989e-10
5.65557e-10
5.84761e-10
5.70554e-10
5.91543e-10
5.6724e-10
5.9111e-10
5.6493e-10
5.99338e-10
5.65069e-10
6.08439e-10
5.64239e-10
6.21207e-10
5.5049e-10
6.16902e-10
5.08334e-10
6.88638e-10
7.21682e-10
-6.89001e-10
1.34895e-09
1.89086e-09
-8.21119e-10
-4.92871e-10
7.56995e-10
6.85961e-10
4.18683e-10
3.76388e-10
4.22511e-10
4.63314e-10
4.60372e-10
4.65159e-10
4.61282e-10
4.72589e-10
4.71279e-10
4.83992e-10
4.83914e-10
4.97971e-10
4.93213e-10
5.04603e-10
5.03339e-10
5.16908e-10
5.13287e-10
5.24063e-10
5.20928e-10
5.3384e-10
5.30077e-10
5.42331e-10
5.3593e-10
5.47193e-10
5.41423e-10
5.55183e-10
5.49412e-10
5.62756e-10
5.52931e-10
5.64145e-10
5.55697e-10
5.70139e-10
5.611e-10
5.75183e-10
5.63066e-10
5.77978e-10
5.65502e-10
5.84808e-10
5.70621e-10
5.91756e-10
5.67455e-10
5.91265e-10
5.6504e-10
5.99124e-10
5.6551e-10
6.07963e-10
5.65426e-10
6.20295e-10
5.53485e-10
6.15877e-10
5.13777e-10
6.88498e-10
7.39936e-10
-6.96971e-10
1.3398e-09
1.95133e-09
-8.10263e-10
-5.74509e-10
7.33963e-10
7.17763e-10
4.44455e-10
3.80544e-10
4.19612e-10
4.61838e-10
4.60467e-10
4.64682e-10
4.60384e-10
4.71195e-10
4.70111e-10
4.82657e-10
4.82841e-10
4.96855e-10
4.92475e-10
5.03678e-10
5.02596e-10
5.15957e-10
5.12745e-10
5.23354e-10
5.20453e-10
5.33221e-10
5.2979e-10
5.41882e-10
5.35728e-10
5.4682e-10
5.41217e-10
5.54814e-10
5.49279e-10
5.62533e-10
5.52901e-10
5.63902e-10
5.55583e-10
5.69905e-10
5.61071e-10
5.75066e-10
5.63149e-10
5.77887e-10
5.65531e-10
5.84734e-10
5.70802e-10
5.91787e-10
5.67857e-10
5.91184e-10
5.65433e-10
5.98538e-10
5.66373e-10
6.06964e-10
5.6727e-10
6.18603e-10
5.57491e-10
6.13743e-10
5.2128e-10
6.84954e-10
7.58909e-10
-6.89256e-10
1.30372e-09
7.63659e-10
7.38833e-10
4.89721e-10
2.87438e-10
2.69628e-10
3.13162e-10
3.78275e-10
4.14062e-10
4.48606e-10
4.56376e-10
4.74821e-10
4.74429e-10
4.88453e-10
4.85379e-10
4.99255e-10
4.96181e-10
5.0787e-10
5.02107e-10
5.1603e-10
5.12516e-10
5.25426e-10
5.19246e-10
5.32031e-10
5.26363e-10
5.3912e-10
5.334e-10
5.4572e-10
5.38592e-10
5.50965e-10
5.44449e-10
5.57354e-10
5.51156e-10
5.62528e-10
5.53894e-10
5.65489e-10
5.57959e-10
5.69247e-10
5.6212e-10
5.72338e-10
5.64513e-10
5.74639e-10
5.68492e-10
5.78018e-10
5.72737e-10
5.78444e-10
5.71186e-10
5.77405e-10
5.75223e-10
5.79581e-10
5.79941e-10
5.8182e-10
5.8628e-10
5.76908e-10
5.7765e-10
5.48334e-10
5.49962e-10
4.90634e-10
4.09846e-10
1.44127e-10
4.63774e-10
7.76033e-10
7.45609e-10
4.87219e-10
2.84583e-10
2.6819e-10
3.12755e-10
3.78079e-10
4.13986e-10
4.48437e-10
4.56266e-10
4.74646e-10
4.74352e-10
4.88301e-10
4.85322e-10
4.99139e-10
4.96161e-10
5.07767e-10
5.02081e-10
5.15939e-10
5.12525e-10
5.25343e-10
5.19254e-10
5.31953e-10
5.26392e-10
5.39052e-10
5.33433e-10
5.45654e-10
5.38626e-10
5.50902e-10
5.44495e-10
5.57303e-10
5.51211e-10
5.62471e-10
5.53938e-10
5.65436e-10
5.58025e-10
5.69202e-10
5.62192e-10
5.72296e-10
5.64584e-10
5.74607e-10
5.68581e-10
5.78009e-10
5.7284e-10
5.78443e-10
5.71273e-10
5.77428e-10
5.75345e-10
5.79645e-10
5.80073e-10
5.81953e-10
5.86454e-10
5.77158e-10
5.77834e-10
5.48779e-10
5.50447e-10
4.92586e-10
4.11178e-10
1.35412e-10
4.57851e-10
7.91396e-10
7.52815e-10
4.84332e-10
2.81116e-10
2.66127e-10
3.11981e-10
3.77816e-10
4.13821e-10
4.48298e-10
4.56068e-10
4.74473e-10
4.74179e-10
4.88162e-10
4.85178e-10
4.99035e-10
4.96067e-10
5.07713e-10
5.0198e-10
5.1587e-10
5.12462e-10
5.25305e-10
5.19192e-10
5.31915e-10
5.26361e-10
5.39033e-10
5.33403e-10
5.45644e-10
5.38599e-10
5.50892e-10
5.44484e-10
5.57308e-10
5.51209e-10
5.62483e-10
5.53924e-10
5.65442e-10
5.58041e-10
5.69221e-10
5.62218e-10
5.72324e-10
5.64612e-10
5.74639e-10
5.68638e-10
5.78063e-10
5.72924e-10
5.78536e-10
5.71349e-10
5.77523e-10
5.75472e-10
5.79798e-10
5.80219e-10
5.82148e-10
5.86661e-10
5.77499e-10
5.78126e-10
5.49314e-10
5.50914e-10
4.95147e-10
4.15433e-10
1.22107e-10
4.5064e-10
8.09282e-10
7.5955e-10
4.81624e-10
2.77359e-10
2.63193e-10
3.1079e-10
3.77468e-10
4.1367e-10
4.48192e-10
4.55843e-10
4.74269e-10
4.73961e-10
4.87996e-10
4.84987e-10
4.98903e-10
4.95941e-10
5.07666e-10
5.01841e-10
5.1578e-10
5.12368e-10
5.25272e-10
5.19104e-10
5.31872e-10
5.26313e-10
5.39021e-10
5.33356e-10
5.4565e-10
5.38555e-10
5.50892e-10
5.4446e-10
5.57328e-10
5.51193e-10
5.62526e-10
5.53895e-10
5.6546e-10
5.58048e-10
5.69266e-10
5.62237e-10
5.72385e-10
5.64632e-10
5.74702e-10
5.68691e-10
5.7816e-10
5.73013e-10
5.7871e-10
5.71427e-10
5.77679e-10
5.75602e-10
5.80051e-10
5.80358e-10
5.82449e-10
5.86848e-10
5.78038e-10
5.78382e-10
5.50117e-10
5.51208e-10
4.99083e-10
4.21967e-10
1.04974e-10
4.4296e-10
8.27245e-10
7.63549e-10
4.79937e-10
2.74567e-10
2.59666e-10
3.09209e-10
3.77062e-10
4.13587e-10
4.48135e-10
4.55601e-10
4.74012e-10
4.7369e-10
4.87777e-10
4.84745e-10
4.98718e-10
4.95783e-10
5.07609e-10
5.01672e-10
5.15646e-10
5.12248e-10
5.25229e-10
5.19001e-10
5.31804e-10
5.26255e-10
5.39001e-10
5.333e-10
5.45656e-10
5.38505e-10
5.50883e-10
5.44429e-10
5.57349e-10
5.51176e-10
5.62587e-10
5.53862e-10
5.65475e-10
5.58053e-10
5.69324e-10
5.62258e-10
5.7247e-10
5.6465e-10
5.74781e-10
5.68742e-10
5.78291e-10
5.73111e-10
5.78961e-10
5.71502e-10
5.77892e-10
5.75717e-10
5.8041e-10
5.80455e-10
5.82876e-10
5.86961e-10
5.78818e-10
5.78504e-10
5.51276e-10
5.51154e-10
5.04563e-10
4.30219e-10
8.51038e-11
4.3664e-10
8.43725e-10
7.61458e-10
4.79454e-10
2.74174e-10
2.56098e-10
3.07306e-10
3.76639e-10
4.13606e-10
4.48158e-10
4.55356e-10
4.73699e-10
4.73359e-10
4.87499e-10
4.84447e-10
4.98471e-10
4.95586e-10
5.07532e-10
5.01469e-10
5.15461e-10
5.12099e-10
5.25171e-10
5.18879e-10
5.31708e-10
5.26183e-10
5.38969e-10
5.33236e-10
5.4566e-10
5.38447e-10
5.50861e-10
5.44391e-10
5.57367e-10
5.51156e-10
5.62663e-10
5.53827e-10
5.65483e-10
5.58054e-10
5.69394e-10
5.62279e-10
5.72575e-10
5.64664e-10
5.74875e-10
5.68785e-10
5.78458e-10
5.7321e-10
5.7929e-10
5.71564e-10
5.78164e-10
5.75792e-10
5.80884e-10
5.80478e-10
5.83446e-10
5.86944e-10
5.79873e-10
5.784e-10
5.52872e-10
5.50576e-10
5.11675e-10
4.39695e-10
6.30727e-11
4.34431e-10
8.58535e-10
7.49725e-10
4.79563e-10
2.77524e-10
2.53143e-10
3.05171e-10
3.76232e-10
4.13797e-10
4.48293e-10
4.55125e-10
4.73334e-10
4.72968e-10
4.87156e-10
4.84088e-10
4.98157e-10
4.9534e-10
5.0743e-10
5.0123e-10
5.15223e-10
5.11912e-10
5.25093e-10
5.18738e-10
5.31578e-10
5.26093e-10
5.38923e-10
5.3316e-10
5.45658e-10
5.38381e-10
5.50824e-10
5.4434e-10
5.5738e-10
5.5113e-10
5.62751e-10
5.53789e-10
5.65482e-10
5.58045e-10
5.69475e-10
5.62295e-10
5.727e-10
5.64671e-10
5.74984e-10
5.68812e-10
5.78661e-10
5.73297e-10
5.797e-10
5.71602e-10
5.78504e-10
5.758e-10
5.81483e-10
5.80392e-10
5.84182e-10
5.86738e-10
5.81243e-10
5.77974e-10
5.54998e-10
5.49316e-10
5.20484e-10
4.49985e-10
3.8775e-11
4.39216e-10
8.72584e-10
7.25118e-10
4.79014e-10
2.8579e-10
2.5153e-10
3.02916e-10
3.75863e-10
4.14188e-10
4.48568e-10
4.54927e-10
4.72926e-10
4.7252e-10
4.86749e-10
4.83671e-10
4.97774e-10
4.95041e-10
5.07295e-10
5.00958e-10
5.14929e-10
5.11684e-10
5.24987e-10
5.18578e-10
5.31412e-10
5.25981e-10
5.3886e-10
5.33072e-10
5.45646e-10
5.38306e-10
5.50768e-10
5.44275e-10
5.57387e-10
5.51095e-10
5.62847e-10
5.5375e-10
5.6547e-10
5.58023e-10
5.69564e-10
5.62305e-10
5.72842e-10
5.64667e-10
5.75108e-10
5.68816e-10
5.78903e-10
5.73363e-10
5.8019e-10
5.71606e-10
5.7892e-10
5.75718e-10
5.82218e-10
5.80165e-10
5.85112e-10
5.86289e-10
5.82968e-10
5.77142e-10
5.57733e-10
5.47267e-10
5.30961e-10
4.60853e-10
1.16585e-11
4.53472e-10
8.8771e-10
6.85028e-10
4.76058e-10
2.99881e-10
2.52027e-10
3.00661e-10
3.7553e-10
4.1481e-10
4.49009e-10
4.54779e-10
4.72481e-10
4.72021e-10
4.86278e-10
4.83198e-10
4.97323e-10
4.94688e-10
5.07121e-10
5.00654e-10
5.1458e-10
5.11413e-10
5.24848e-10
5.184e-10
5.31208e-10
5.25845e-10
5.38776e-10
5.3297e-10
5.4562e-10
5.38223e-10
5.50691e-10
5.44195e-10
5.57384e-10
5.51052e-10
5.62946e-10
5.5371e-10
5.65448e-10
5.57985e-10
5.69661e-10
5.62306e-10
5.72999e-10
5.64651e-10
5.75248e-10
5.68791e-10
5.79185e-10
5.73398e-10
5.80761e-10
5.71564e-10
5.79423e-10
5.75522e-10
5.83099e-10
5.79768e-10
5.86257e-10
5.85553e-10
5.8508e-10
5.75846e-10
5.61128e-10
5.44391e-10
5.42978e-10
4.72234e-10
-1.91295e-11
4.79021e-10
9.06091e-10
6.27751e-10
4.68761e-10
3.20389e-10
2.55395e-10
2.9854e-10
3.75208e-10
4.15676e-10
4.49634e-10
4.54694e-10
4.72006e-10
4.71476e-10
4.85745e-10
4.82673e-10
4.96805e-10
4.94278e-10
5.06902e-10
5.00322e-10
5.14178e-10
5.111e-10
5.2467e-10
5.18203e-10
5.30964e-10
5.25683e-10
5.3867e-10
5.32856e-10
5.45575e-10
5.3813e-10
5.50593e-10
5.44099e-10
5.57371e-10
5.50999e-10
5.63043e-10
5.53669e-10
5.65415e-10
5.57929e-10
5.69762e-10
5.62297e-10
5.73169e-10
5.64618e-10
5.75405e-10
5.68732e-10
5.79511e-10
5.73393e-10
5.81411e-10
5.71466e-10
5.80023e-10
5.75195e-10
5.84132e-10
5.79178e-10
5.87636e-10
5.84493e-10
5.8759e-10
5.7406e-10
5.65186e-10
5.40719e-10
5.56264e-10
4.84266e-10
-5.43472e-11
5.16754e-10
9.30108e-10
5.5268e-10
4.55095e-10
3.47492e-10
2.62348e-10
2.96713e-10
3.74857e-10
4.16779e-10
4.50452e-10
4.54683e-10
4.71507e-10
4.7089e-10
4.8515e-10
4.821e-10
4.96223e-10
4.93814e-10
5.06633e-10
4.99963e-10
5.13724e-10
5.10744e-10
5.24449e-10
5.17988e-10
5.30682e-10
5.25496e-10
5.38538e-10
5.3273e-10
5.45509e-10
5.38029e-10
5.50472e-10
5.43986e-10
5.57346e-10
5.50937e-10
5.63133e-10
5.53628e-10
5.65373e-10
5.57853e-10
5.69868e-10
5.62274e-10
5.73351e-10
5.64566e-10
5.75582e-10
5.68633e-10
5.79881e-10
5.73341e-10
5.82137e-10
5.71304e-10
5.80725e-10
5.74724e-10
5.85318e-10
5.78385e-10
5.89252e-10
5.83106e-10
5.90488e-10
5.71798e-10
5.6986e-10
5.36366e-10
5.70467e-10
4.97206e-10
-9.46146e-11
5.66622e-10
9.61818e-10
4.6023e-10
4.33227e-10
3.80969e-10
2.73508e-10
2.95379e-10
3.74431e-10
4.18092e-10
4.51461e-10
4.5475e-10
4.70986e-10
4.70265e-10
4.84493e-10
4.81481e-10
4.95579e-10
4.93296e-10
5.06309e-10
4.9958e-10
5.13223e-10
5.10347e-10
5.24181e-10
5.17755e-10
5.30362e-10
5.25282e-10
5.38378e-10
5.32591e-10
5.4542e-10
5.37919e-10
5.5033e-10
5.43856e-10
5.57307e-10
5.50864e-10
5.63214e-10
5.53584e-10
5.65323e-10
5.57754e-10
5.69975e-10
5.62236e-10
5.73543e-10
5.64492e-10
5.7578e-10
5.68492e-10
5.80294e-10
5.73235e-10
5.82935e-10
5.71072e-10
5.81531e-10
5.74106e-10
5.86649e-10
5.77389e-10
5.91096e-10
5.81405e-10
5.93734e-10
5.69118e-10
5.75056e-10
5.31509e-10
5.85149e-10
5.11328e-10
-1.40124e-10
6.27749e-10
1.00307e-09
3.51783e-10
4.0149e-10
4.20131e-10
2.89368e-10
2.94797e-10
3.73897e-10
4.19571e-10
4.52652e-10
4.549e-10
4.70448e-10
4.69605e-10
4.83775e-10
4.80817e-10
4.94873e-10
4.92723e-10
5.05927e-10
4.99172e-10
5.12677e-10
5.0991e-10
5.23862e-10
5.17504e-10
5.30006e-10
5.25041e-10
5.38189e-10
5.32441e-10
5.45306e-10
5.378e-10
5.50167e-10
5.43709e-10
5.57252e-10
5.5078e-10
5.63283e-10
5.53538e-10
5.65266e-10
5.57633e-10
5.70082e-10
5.62181e-10
5.73743e-10
5.64396e-10
5.75999e-10
5.68308e-10
5.80747e-10
5.73076e-10
5.83797e-10
5.70771e-10
5.82437e-10
5.73346e-10
5.88105e-10
5.76203e-10
5.93138e-10
5.7943e-10
5.9726e-10
5.66115e-10
5.80633e-10
5.2638e-10
5.99907e-10
5.26793e-10
-1.90825e-10
6.98665e-10
1.0548e-09
2.29685e-10
3.58817e-10
4.63901e-10
3.10212e-10
2.95259e-10
3.73233e-10
4.21148e-10
4.54004e-10
4.55134e-10
4.69895e-10
4.68911e-10
4.82998e-10
4.80111e-10
4.94109e-10
4.92099e-10
5.05484e-10
4.98739e-10
5.1209e-10
5.09436e-10
5.2349e-10
5.17233e-10
5.29614e-10
5.24775e-10
5.37969e-10
5.32278e-10
5.45166e-10
5.37671e-10
5.49984e-10
5.43546e-10
5.57182e-10
5.50687e-10
5.63337e-10
5.53488e-10
5.65205e-10
5.57489e-10
5.70186e-10
5.6211e-10
5.7395e-10
5.64278e-10
5.76238e-10
5.68083e-10
5.81234e-10
5.72866e-10
5.84709e-10
5.70404e-10
5.83432e-10
5.72461e-10
5.89658e-10
5.74859e-10
5.95334e-10
5.77244e-10
6.00973e-10
5.62917e-10
5.86424e-10
5.21227e-10
6.14316e-10
5.4368e-10
-2.46047e-10
7.77262e-10
1.11714e-09
9.71968e-11
3.04764e-10
5.10823e-10
3.36084e-10
2.97075e-10
3.72435e-10
4.22738e-10
4.55483e-10
4.55452e-10
4.69334e-10
4.68186e-10
4.8216e-10
4.79363e-10
4.93287e-10
4.91425e-10
5.04977e-10
4.98282e-10
5.11465e-10
5.08926e-10
5.23063e-10
5.16943e-10
5.2919e-10
5.24482e-10
5.37716e-10
5.32103e-10
5.44999e-10
5.37532e-10
5.49783e-10
5.43368e-10
5.57093e-10
5.50584e-10
5.63375e-10
5.53433e-10
5.65141e-10
5.57325e-10
5.70284e-10
5.62022e-10
5.74159e-10
5.64139e-10
5.76493e-10
5.6782e-10
5.81746e-10
5.72611e-10
5.85658e-10
5.69982e-10
5.84494e-10
5.71478e-10
5.91271e-10
5.73405e-10
5.9762e-10
5.74931e-10
6.04759e-10
5.59675e-10
5.92235e-10
5.1631e-10
6.28017e-10
5.61961e-10
-3.04672e-10
8.60926e-10
1.18952e-09
-4.20183e-11
2.39552e-10
5.59153e-10
3.66771e-10
3.00566e-10
3.71532e-10
4.24242e-10
4.57039e-10
4.55849e-10
4.68766e-10
4.67432e-10
4.81264e-10
4.78573e-10
4.9241e-10
4.90702e-10
5.04405e-10
4.97798e-10
5.10803e-10
5.08384e-10
5.2258e-10
5.1663e-10
5.28734e-10
5.24165e-10
5.37428e-10
5.31916e-10
5.44805e-10
5.37383e-10
5.49565e-10
5.43176e-10
5.56985e-10
5.5047e-10
5.63396e-10
5.53373e-10
5.65072e-10
5.57142e-10
5.70372e-10
5.61919e-10
5.74368e-10
5.63984e-10
5.76759e-10
5.67529e-10
5.82272e-10
5.72322e-10