/*--------------------------------*- C++ -*----------------------------------*\
| =========                 |                                                 |
| \\      /  F ield         | OpenFOAM: The Open Source CFD Toolbox           |
|  \\    /   O peration     | Version:  2312                                  |
|   \\  /    A nd           | Website:  www.openfoam.com                      |
|    \\/     M anipulation  |                                                 |
\*---------------------------------------------------------------------------*/
FoamFile
{
    version     2.0;
    format      ascii;
    arch        "LSB;label=32;scalar=64";
    class       volScalarField;
    location    "440";
    object      nut;
}
// * * * * * * * * * * * * * * * * * * * * * * * * * * * * * * * * * * * * * //

dimensions      [0 2 -1 0 0 0 0];

internalField   nonuniform List<scalar> 
144000
(
1.62369e-27
3.89808e-28
5.20657e-29
9.96621e-28
3.18106e-28
3.93418e-32
9.36992e-29
2.49183e-29
6.57352e-29
4.02931e-29
6.03608e-29
4.45347e-29
6.57933e-29
5.48858e-29
6.15635e-29
5.04259e-29
7.23446e-29
7.24322e-29
7.13604e-29
6.70898e-29
8.18634e-29
8.27526e-29
8.4257e-29
8.19083e-29
8.35883e-29
8.36882e-29
9.40175e-29
9.38227e-29
9.53428e-29
9.22596e-29
8.92395e-29
8.5365e-29
9.95684e-29
9.72127e-29
9.1615e-29
8.29778e-29
7.82509e-29
7.18066e-29
7.12227e-29
5.8732e-29
5.69708e-29
4.34389e-29
7.67697e-29
5.12432e-29
4.45494e-29
3.49437e-29
1.96456e-29
1.03336e-29
3.86016e-30
1.01027e-30
7.48876e-32
3.59708e-30
3.07421e-29
1.22034e-28
5.65612e-28
2.1197e-28
4.65949e-27
2.31472e-25
3.48827e-25
2.49879e-26
2.2912e-25
6.54221e-27
8.1402e-27
1.05404e-26
2.69248e-28
2.81785e-30
1.75033e-28
6.5037e-29
9.52111e-29
1.26902e-28
9.07711e-29
1.22963e-28
1.09145e-28
1.40598e-28
1.13595e-28
1.1708e-28
1.31333e-28
1.70046e-28
1.41337e-28
1.43436e-28
1.58367e-28
1.83602e-28
1.66178e-28
1.75348e-28
1.64866e-28
1.76218e-28
1.8275e-28
2.00247e-28
1.87678e-28
1.91198e-28
1.77161e-28
1.71428e-28
1.90504e-28
2.00804e-28
1.79821e-28
1.61516e-28
1.52242e-28
1.36917e-28
1.37516e-28
1.20966e-28
1.15351e-28
1.01988e-28
1.58766e-28
7.86227e-29
9.37764e-29
6.28981e-29
4.09733e-29
1.44851e-29
7.73787e-30
9.09959e-31
1.13923e-31
1.2178e-29
5.71464e-29
3.68524e-28
1.03598e-27
9.77901e-28
6.16939e-27
5.83203e-25
2.03272e-24
1.82964e-26
6.10775e-25
7.90932e-26
4.46734e-26
1.34891e-26
8.04326e-28
3.4233e-30
2.14645e-28
1.08282e-28
1.31658e-28
1.6883e-28
1.41534e-28
1.5776e-28
1.69563e-28
1.80449e-28
1.70279e-28
1.58681e-28
1.97132e-28
2.23234e-28
2.08981e-28
1.96044e-28
2.32166e-28
2.46299e-28
2.40995e-28
2.39858e-28
2.36193e-28
2.44988e-28
2.60782e-28
2.73948e-28
2.66408e-28
2.63664e-28
2.48199e-28
2.42332e-28
2.66876e-28
2.74036e-28
2.50933e-28
2.23845e-28
2.12313e-28
1.93367e-28
1.9629e-28
1.74288e-28
1.76954e-28
1.46704e-28
2.28999e-28
1.02376e-28
1.43908e-28
8.45232e-29
5.92133e-29
2.12476e-29
1.10823e-29
1.78165e-30
1.54997e-31
1.28187e-29
9.07496e-29
4.4397e-28
1.46713e-27
9.07865e-28
1.95914e-26
9.66891e-25
2.15621e-24
2.00713e-25
2.32377e-24
7.83557e-25
1.55928e-25
6.54779e-26
1.0364e-27
6.53673e-30
2.15382e-28
1.1892e-28
1.36243e-28
1.68042e-28
1.49431e-28
1.55624e-28
1.78345e-28
1.7873e-28
1.78306e-28
1.56315e-28
2.03414e-28
2.22979e-28
2.15804e-28
1.93258e-28
2.39372e-28
2.44025e-28
2.4868e-28
2.3648e-28
2.42735e-28
2.42494e-28
2.65567e-28
2.73276e-28
2.71339e-28
2.61215e-28
2.52797e-28
2.40332e-28
2.69419e-28
2.75003e-28
2.54287e-28
2.24063e-28
2.1828e-28
1.97214e-28
2.07657e-28
1.82823e-28
1.88049e-28
1.67606e-28
2.21762e-28
1.04078e-28
1.59868e-28
8.34129e-29
6.66006e-29
2.11977e-29
1.41295e-29
2.42689e-30
6.47969e-32
1.42777e-29
7.45625e-29
4.10926e-28
1.22757e-27
7.80806e-28
2.53638e-26
1.4837e-24
3.1103e-24
1.22093e-24
4.56569e-24
3.705e-24
2.48876e-25
2.28735e-25
2.48543e-27
1.75854e-29
2.34331e-28
1.37444e-28
1.38155e-28
1.80311e-28
1.4771e-28
1.65014e-28
1.80817e-28
1.87592e-28
1.81257e-28
1.60845e-28
2.07547e-28
2.31755e-28
2.19218e-28
1.95443e-28
2.46158e-28
2.48348e-28
2.55038e-28
2.37468e-28
2.49177e-28
2.43914e-28
2.72996e-28
2.77449e-28
2.77291e-28
2.63892e-28
2.59134e-28
2.42623e-28
2.78133e-28
2.83762e-28
2.61804e-28
2.31642e-28
2.29153e-28
2.08574e-28
2.21903e-28
1.93066e-28
1.94807e-28
1.66702e-28
2.11494e-28
1.20756e-28
1.73554e-28
8.86081e-29
7.42942e-29
2.38237e-29
1.88669e-29
4.30711e-30
1.13037e-31
1.38557e-29
5.89201e-29
3.67304e-28
9.36541e-28
5.83667e-28
3.73889e-26
2.42669e-24
4.13056e-24
5.04062e-24
6.33276e-24
1.09442e-23
2.62801e-25
5.68655e-25
6.29399e-27
4.64028e-29
2.77567e-28
1.61377e-28
1.503e-28
1.97002e-28
1.49459e-28
1.78883e-28
1.87256e-28
2.01988e-28
1.87263e-28
1.70916e-28
2.18409e-28
2.4864e-28
2.26825e-28
2.05949e-28
2.59641e-28
2.62426e-28
2.67576e-28
2.47264e-28
2.62991e-28
2.54845e-28
2.9002e-28
2.92062e-28
2.93062e-28
2.76633e-28
2.75107e-28
2.5593e-28
3.00517e-28
3.04982e-28
2.81213e-28
2.50467e-28
2.50772e-28
2.30004e-28
2.4218e-28
2.04528e-28
1.96527e-28
1.81394e-28
2.19065e-28
1.50861e-28
1.93376e-28
1.03369e-28
8.56729e-29
3.12451e-29
2.73375e-29
9.17517e-30
7.28109e-31
1.40544e-29
4.46147e-29
3.11172e-28
6.33074e-28
3.60648e-28
5.55973e-26
3.88423e-24
5.17631e-24
1.40118e-23
7.28723e-24
2.47278e-23
2.08333e-25
1.1511e-24
1.54015e-26
9.7783e-29
3.45231e-28
1.86659e-28
1.71375e-28
2.11946e-28
1.56656e-28
1.91039e-28
1.98786e-28
2.16303e-28
1.96104e-28
1.82943e-28
2.34763e-28
2.67935e-28
2.37296e-28
2.20676e-28
2.7747e-28
2.81085e-28
2.82823e-28
2.6181e-28
2.80844e-28
2.71905e-28
3.13133e-28
3.12069e-28
3.13972e-28
2.95487e-28
2.9721e-28
2.77184e-28
3.3201e-28
3.33111e-28
3.07699e-28
2.75859e-28
2.79623e-28
2.58051e-28
2.66823e-28
2.18927e-28
2.01151e-28
1.87202e-28
2.35174e-28
1.96889e-28
2.23626e-28
1.27683e-28
1.02841e-28
4.59791e-29
4.32749e-29
2.1182e-29
4.42619e-30
1.78899e-29
3.78974e-29
2.47002e-28
3.94936e-28
2.28526e-28
7.42941e-26
5.90544e-24
6.86071e-24
3.01869e-23
7.19556e-24
4.63036e-23
1.24441e-25
2.00054e-24
3.44164e-26
1.67421e-28
4.35948e-28
2.10457e-28
1.96727e-28
2.27333e-28
1.67101e-28
2.01473e-28
2.14082e-28
2.30029e-28
2.07647e-28
1.95807e-28
2.54558e-28
2.87715e-28
2.49723e-28
2.36909e-28
2.97922e-28
3.0221e-28
2.99589e-28
2.79153e-28
3.01452e-28
2.92574e-28
3.388e-28
3.35947e-28
3.38393e-28
3.18178e-28
3.23536e-28
3.03236e-28
3.6872e-28
3.66368e-28
3.39333e-28
3.06626e-28
3.1568e-28
2.93331e-28
2.9766e-28
2.37229e-28
2.09496e-28
2.07352e-28
2.55669e-28
2.58687e-28
2.68519e-28
1.64921e-28
1.30035e-28
7.36407e-29
7.38841e-29
4.99447e-29
1.94883e-29
3.69541e-29
5.46931e-29
2.21465e-28
3.53603e-28
4.97484e-28
9.3587e-26
8.55191e-24
9.47575e-24
5.37614e-23
6.66455e-24
7.6473e-23
5.91397e-26
3.11775e-24
7.17909e-26
2.59403e-28
5.66141e-28
2.26166e-28
2.23236e-28
2.45886e-28
1.78992e-28
2.11832e-28
2.33014e-28
2.43617e-28
2.21464e-28
2.09772e-28
2.79092e-28
3.07743e-28
2.64221e-28
2.54415e-28
3.2264e-28
3.24886e-28
3.17874e-28
2.99061e-28
3.24879e-28
3.16486e-28
3.68777e-28
3.62871e-28
3.65139e-28
3.45116e-28
3.53777e-28
3.34351e-28
4.12298e-28
4.0515e-28
3.76425e-28
3.45356e-28
3.62641e-28
3.41579e-28
3.44251e-28
2.72e-28
2.3811e-28
2.51099e-28
2.62873e-28
3.49242e-28
3.36568e-28
2.22887e-28
1.7413e-28
1.25009e-28
1.35131e-28
1.16516e-28
6.87098e-29
1.06657e-28
1.5264e-28
3.42657e-28
8.5786e-28
2.4026e-27
1.073e-25
1.18974e-23
1.4741e-23
8.41714e-23
5.97306e-24
1.14977e-22
4.36326e-26
4.43749e-24
1.39356e-25
3.89319e-28
7.50952e-28
2.30823e-28
2.50234e-28
2.69274e-28
1.91589e-28
2.2322e-28
2.54813e-28
2.5788e-28
2.38164e-28
2.24623e-28
3.07304e-28
3.28152e-28
2.81379e-28
2.72926e-28
3.50982e-28
3.48828e-28
3.38961e-28
3.20884e-28
3.52099e-28
3.43152e-28
4.01637e-28
3.93111e-28
3.95738e-28
3.75663e-28
3.88972e-28
3.70675e-28
4.6191e-28
4.51257e-28
4.22036e-28
3.94943e-28
4.26117e-28
4.1033e-28
4.16684e-28
3.38558e-28
3.30179e-28
2.4561e-28
2.43244e-28
4.73386e-28
4.39772e-28
3.14526e-28
2.47441e-28
2.20024e-28
2.573e-28
2.64472e-28
2.10782e-28
3.23202e-28
5.20406e-28
9.35694e-28
3.15054e-27
9.78028e-27
1.17574e-25
1.60698e-23
2.39871e-23
1.1907e-22
6.21993e-24
1.61153e-22
8.81411e-26
5.88776e-24
2.52106e-25
6.25789e-28
1.04486e-27
2.17222e-28
2.78361e-28
2.9769e-28
2.04816e-28
2.3564e-28
2.79796e-28
2.72936e-28
2.56927e-28
2.41128e-28
3.39771e-28
3.48949e-28
3.0079e-28
2.92862e-28
3.83987e-28
3.73383e-28
3.62611e-28
3.44724e-28
3.83056e-28
3.72561e-28
4.39522e-28
4.25687e-28
4.29915e-28
4.10627e-28
4.29673e-28
4.13353e-28
5.20442e-28
5.05289e-28
4.77372e-28
4.57626e-28
5.08403e-28
5.00068e-28
5.11116e-28
4.27596e-28
4.20371e-28
2.97703e-28
2.61334e-28
5.80136e-28
6.30231e-28
4.46329e-28
3.73495e-28
3.89582e-28
4.92741e-28
5.73889e-28
5.71355e-28
9.15119e-28
1.61488e-27
2.87069e-27
1.01923e-26
2.99223e-26
1.20059e-25
2.14745e-23
4.17892e-23
1.55619e-22
7.43777e-24
2.14159e-22
3.10102e-25
7.42398e-24
4.2973e-25
1.1541e-27
1.47128e-27
1.86053e-28
3.06686e-28
3.34168e-28
2.17096e-28
2.50485e-28
3.06077e-28
2.90411e-28
2.77247e-28
2.59601e-28
3.74492e-28
3.7113e-28
3.21913e-28
3.14525e-28
4.19945e-28
3.99239e-28
3.88982e-28
3.70699e-28
4.18213e-28
4.046e-28
4.80281e-28
4.615e-28
4.69613e-28
4.49857e-28
4.77126e-28
4.62395e-28
5.8752e-28
5.69131e-28
5.45174e-28
5.3587e-28
6.14388e-28
6.16616e-28
6.4014e-28
5.86169e-28
6.27162e-28
5.22065e-28
2.40288e-28
7.24857e-28
9.12549e-28
6.47323e-28
5.85654e-28
6.83803e-28
9.24188e-28
1.17997e-27
1.38634e-27
2.31118e-27
4.31454e-27
7.84572e-27
2.69893e-26
7.24914e-26
1.23002e-25
2.89882e-23
7.05391e-23
1.90572e-22
1.16971e-23
2.72683e-22
7.73859e-25
8.95609e-24
6.81036e-25
2.42076e-27
2.08043e-27
1.37674e-28
3.36596e-28
3.79369e-28
2.28055e-28
2.67657e-28
3.33982e-28
3.1038e-28
2.97569e-28
2.80729e-28
4.12597e-28
3.94467e-28
3.43883e-28
3.38438e-28
4.60161e-28
4.26206e-28
4.16975e-28
3.99714e-28
4.5681e-28
4.39373e-28
5.27025e-28
5.00247e-28
5.13562e-28
4.95145e-28
5.31531e-28
5.19142e-28
6.68742e-28
6.45524e-28
6.30956e-28
6.43766e-28
7.73827e-28
8.22611e-28
9.58749e-28
1.2283e-27
2.09552e-27
9.62387e-28
3.64668e-29
1.29335e-27
1.10235e-27
1.04813e-27
8.94071e-28
1.20474e-27
1.68499e-27
2.30884e-27
3.02355e-27
5.22614e-27
1.00136e-26
1.85256e-26
6.03089e-26
1.48375e-25
1.21171e-25
3.92462e-23
1.18855e-22
2.17495e-22
2.01193e-23
3.39938e-22
1.56876e-24
1.06913e-23
1.01125e-24
5.66822e-27
2.78378e-27
8.47987e-29
3.68409e-28
4.34594e-28
2.37855e-28
2.86757e-28
3.63455e-28
3.32371e-28
3.19676e-28
3.03879e-28
4.51881e-28
4.19617e-28
3.67477e-28
3.64631e-28
5.02393e-28
4.55092e-28
4.47733e-28
4.31364e-28
4.99793e-28
4.77178e-28
5.77123e-28
5.43466e-28
5.63718e-28
5.45931e-28
5.94797e-28
5.84256e-28
7.6195e-28
7.372e-28
7.38544e-28
7.83764e-28
9.9366e-28
1.12763e-27
1.51382e-27
2.60651e-27
4.03754e-27
6.94133e-29
9.71838e-29
1.47289e-27
1.41159e-27
1.68955e-27
1.36796e-27
2.08664e-27
2.95412e-27
4.2839e-27
6.02742e-27
1.06376e-26
2.06276e-26
3.82958e-26
1.1828e-25
2.68056e-25
1.18616e-25
5.31547e-23
1.90299e-22
2.3419e-22
3.83373e-23
4.08318e-22
2.61522e-24
1.27706e-23
1.39319e-24
1.30253e-26
3.63661e-27
3.86332e-29
4.12555e-28
4.94028e-28
2.49035e-28
3.05181e-28
3.97693e-28
3.54442e-28
3.43876e-28
3.28666e-28
4.94858e-28
4.45234e-28
3.92841e-28
3.92975e-28
5.4886e-28
4.84866e-28
4.81175e-28
4.66215e-28
5.46734e-28
5.18201e-28
6.33407e-28
5.90219e-28
6.19075e-28
6.03275e-28
6.6531e-28
6.5654e-28
8.64685e-28
8.3132e-28
8.41799e-28
9.00539e-28
1.1329e-27
1.2155e-27
1.55723e-27
2.46398e-27
3.17886e-28
3.79411e-27
6.49134e-27
2.63092e-28
3.09312e-27
2.09817e-27
2.30425e-27
3.29888e-27
5.06146e-27
7.44078e-27
1.10746e-26
1.97153e-26
3.81515e-26
7.04705e-26
2.05793e-25
4.31227e-25
1.17827e-25
7.27594e-23
3.02122e-22
2.40552e-22
6.83927e-23
4.86269e-22
4.01137e-24
1.57918e-23
1.81373e-24
2.91678e-26
4.32663e-27
1.34115e-29
4.62264e-28
5.65942e-28
2.57408e-28
3.26337e-28
4.33644e-28
3.78786e-28
3.70167e-28
3.55411e-28
5.38781e-28
4.72947e-28
4.19967e-28
4.23894e-28
5.97112e-28
5.16881e-28
5.18039e-28
5.04199e-28
5.98589e-28
5.62732e-28
6.92508e-28
6.41967e-28
6.82407e-28
6.6672e-28
7.45942e-28
7.38663e-28
9.82117e-28
9.47994e-28
9.84662e-28
1.09204e-27
1.45663e-27
1.72376e-27
2.97834e-27
7.44418e-27
1.49055e-26
1.3248e-26
2.83695e-31
6.49572e-28
3.59772e-27
3.33598e-27
3.36224e-27
5.13945e-27
8.19064e-27
1.22056e-26
1.88549e-26
3.34656e-26
6.42498e-26
1.1672e-25
3.23639e-25
6.25381e-25
1.35502e-25
1.0078e-22
4.52199e-22
2.40415e-22
1.20969e-22
5.81295e-22
5.11285e-24
1.98402e-23
2.20935e-24
6.06109e-26
4.73247e-27
8.26757e-30
5.28811e-28
6.47415e-28
2.62859e-28
3.50293e-28
4.7219e-28
4.05559e-28
3.96237e-28
3.84823e-28
5.86736e-28
5.01647e-28
4.48108e-28
4.57581e-28
6.50282e-28
5.50369e-28
5.56923e-28
5.46686e-28
6.53888e-28
6.10571e-28
7.59069e-28
6.97914e-28
7.51136e-28
7.39042e-28
8.35858e-28
8.32716e-28
1.12562e-27
1.09462e-27
1.18467e-27
1.40293e-27
2.07244e-27
2.93247e-27
6.89974e-27
2.56905e-26
1.86e-25
5.15415e-28
2.28185e-26
2.79664e-27
3.32837e-27
5.5233e-27
4.59931e-27
7.96194e-27
1.24281e-26
1.90305e-26
2.97251e-26
5.27538e-26
9.92831e-26
1.77153e-25
4.6801e-25
8.38438e-25
1.73275e-25
1.38453e-22
6.53228e-22
2.26342e-22
2.02771e-22
7.06771e-22
5.72827e-24
2.59712e-23
2.52156e-24
1.15199e-25
4.71082e-27
2.64236e-29
6.25105e-28
7.35168e-28
2.65059e-28
3.78452e-28
5.11863e-28
4.35074e-28
4.24223e-28
4.16849e-28
6.34741e-28
5.33496e-28
4.78161e-28
4.94691e-28
7.04561e-28
5.87191e-28
5.99154e-28
5.92824e-28
7.13833e-28
6.62061e-28
8.29107e-28
7.595e-28
8.25993e-28
8.16221e-28
9.31845e-28
9.26985e-28
1.25948e-27
1.212e-27
1.30636e-27
1.50587e-27
2.0779e-27
2.50919e-27
4.43129e-27
1.0568e-26
2.32371e-26
1.5521e-26
1.56583e-29
9.73422e-28
6.92463e-27
6.13551e-27
7.17189e-27
1.12178e-26
1.8352e-26
2.77672e-26
4.40484e-26
7.71034e-26
1.42069e-25
2.47669e-25
6.28778e-25
1.04863e-24
2.50892e-25
1.87439e-22
9.04598e-22
2.08306e-22
3.25226e-22
8.51888e-22
5.66393e-24
3.46116e-23
2.66047e-24
1.98449e-25
4.25246e-27
1.0484e-28
7.87829e-28
8.09775e-28
2.68918e-28
4.06409e-28
5.58386e-28
4.63609e-28
4.55204e-28
4.50485e-28
6.87293e-28
5.65777e-28
5.10539e-28
5.34625e-28
7.63409e-28
6.25281e-28
6.4457e-28
6.4315e-28
7.77413e-28
7.17239e-28
9.0611e-28
8.25354e-28
9.06125e-28
9.01414e-28
1.0346e-27
1.02962e-27
1.40673e-27
1.33842e-27
1.44036e-27
1.62661e-27
2.11374e-27
2.21202e-27
2.66011e-27
3.2099e-27
1.1504e-28
6.70136e-27
5.56744e-27
2.63943e-27
8.6443e-27
8.17781e-27
9.62567e-27
1.55548e-26
2.53429e-26
3.81831e-26
6.08094e-26
1.04717e-25
1.88983e-25
3.21233e-25
7.87764e-25
1.23037e-24
3.84908e-25
2.4887e-22
1.21166e-21
1.84877e-22
4.84608e-22
1.02963e-21
5.11533e-24
4.70262e-23
2.61301e-24
3.18953e-25
3.1556e-27
2.74007e-28
1.02279e-27
8.79151e-28
2.69519e-28
4.4067e-28
6.06428e-28
4.94611e-28
4.8987e-28
4.87131e-28
7.39408e-28
6.01673e-28
5.45457e-28
5.78677e-28
8.22305e-28
6.66938e-28
6.94086e-28
6.97491e-28
8.4561e-28
7.77108e-28
9.84634e-28
8.97161e-28
9.95079e-28
9.933e-28
1.14866e-27
1.14557e-27
1.57372e-27
1.50544e-27
1.6577e-27
1.9186e-27
2.60962e-27
2.94625e-27
3.9583e-27
5.64971e-27
6.52037e-27
4.90665e-28
2.72062e-28
8.59281e-27
9.53253e-27
1.07887e-26
1.24129e-26
2.05971e-26
3.31055e-26
4.91773e-26
7.88099e-26
1.31827e-25
2.35234e-25
3.86726e-25
9.24973e-25
1.35625e-24
6.26753e-25
3.23576e-22
1.54436e-21
1.63651e-22
6.90077e-22
1.22759e-21
4.06768e-24
6.29062e-23
2.34681e-24
4.74035e-25
1.85097e-27
5.35938e-28
1.37006e-27
9.344e-28
2.6682e-28
4.83552e-28
6.53432e-28
5.30288e-28
5.2338e-28
5.2836e-28
7.92685e-28
6.40327e-28
5.80243e-28
6.27205e-28
8.82868e-28
7.11665e-28
7.44107e-28
7.57901e-28
9.14221e-28
8.40852e-28
1.06717e-27
9.72583e-28
1.085e-27
1.09033e-27
1.2601e-27
1.25692e-27
1.72645e-27
1.63441e-27
1.79327e-27
2.0429e-27
2.67906e-27
2.84402e-27
3.39716e-27
3.90607e-27
5.46256e-27
4.0902e-27
2.64181e-27
9.27484e-27
1.33633e-26
1.20198e-26
1.64055e-26
2.56165e-26
4.14595e-26
6.02223e-26
9.58862e-26
1.564e-25
2.71819e-25
4.34487e-25
1.01579e-24
1.40109e-24
1.01292e-24
4.09938e-22
1.88836e-21
1.45061e-22
9.3961e-22
1.45369e-21
2.88897e-24
8.22708e-23
1.91391e-24
6.50338e-25
8.20408e-28
8.60958e-28
1.86349e-27
9.759e-28
2.59494e-28
5.39259e-28
6.93601e-28
5.73347e-28
5.54271e-28
5.74879e-28
8.42248e-28
6.84886e-28
6.14117e-28
6.80713e-28
9.40933e-28
7.61559e-28
7.93109e-28
8.2318e-28
9.81338e-28
9.07906e-28
1.14887e-27
1.05266e-27
1.17313e-27
1.19034e-27
1.36912e-27
1.36561e-27
1.87239e-27
1.7544e-27
1.90852e-27
2.13842e-27
2.67666e-27
2.66278e-27
2.63934e-27
2.21463e-27
2.07416e-27
2.29906e-27
6.40099e-27
1.27661e-26
1.4314e-26
1.4553e-26
1.96296e-26
3.08941e-26
4.87401e-26
6.99081e-26
1.09007e-25
1.73307e-25
2.90905e-25
4.51834e-25
1.03851e-24
1.34228e-24
1.5887e-24
5.02608e-22
2.20854e-21
1.3838e-22
1.21943e-21
1.68664e-21
1.91326e-24
1.03574e-22
1.40204e-24
8.24747e-25
3.34837e-28
1.283e-27
2.64491e-27
9.65174e-28
2.59451e-28
5.88891e-28
7.43154e-28
6.09919e-28
5.88553e-28
6.17494e-28
8.96246e-28
7.2695e-28
6.47715e-28
7.32502e-28
1.0002e-27
8.09246e-28
8.40715e-28
8.87625e-28
1.04415e-27
9.73495e-28
1.22815e-27
1.1311e-27
1.25387e-27
1.28881e-27
1.46664e-27
1.47e-27
2.01172e-27
1.87222e-27
2.02393e-27
2.26669e-27
2.77445e-27
2.73474e-27
2.67415e-27
2.17293e-27
1.87824e-27
3.61924e-27
8.50501e-27
1.5076e-26
1.55254e-26
1.64641e-26
2.25515e-26
3.48499e-26
5.38239e-26
7.56144e-26
1.14751e-25
1.77697e-25
2.86793e-25
4.28986e-25
9.74953e-25
1.18758e-24
2.38472e-24
5.9424e-22
2.47627e-21
1.47519e-22
1.55869e-21
1.94874e-21
1.40819e-24
1.26482e-22
9.34224e-25
9.94656e-25
2.6846e-28
1.88843e-27
3.96967e-27
8.83184e-28
2.75985e-28
6.13031e-28
8.23831e-28
6.23628e-28
6.4667e-28
6.40786e-28
9.59644e-28
7.59057e-28
6.91056e-28
7.71601e-28
1.0617e-27
8.50179e-28
8.96044e-28
9.43166e-28
1.1105e-27
1.03321e-27
1.29826e-27
1.20681e-27
1.33138e-27
1.37811e-27
1.55367e-27
1.56072e-27
2.10827e-27
1.97265e-27
2.09573e-27
2.33899e-27
2.77943e-27
2.70148e-27
2.68536e-27
2.25618e-27
1.8825e-27
4.71755e-27
1.12271e-26
1.59778e-26
1.64903e-26
1.77683e-26
2.44708e-26
3.71335e-26
5.53999e-26
7.67209e-26
1.11607e-25
1.68929e-25
2.59618e-25
3.74286e-25
8.45716e-25
1.01148e-24
3.23774e-24
6.74875e-22
2.72153e-21
1.87644e-22
1.86679e-21
2.3007e-21
1.32126e-24
1.55923e-22
5.6751e-25
1.22797e-24
7.88761e-28
2.48488e-27
6.10394e-27
8.29494e-28
2.82959e-28
6.84851e-28
9.22194e-28
6.6678e-28
7.12552e-28
6.97075e-28
1.05736e-27
8.2298e-28
7.44415e-28
8.48161e-28
1.15577e-27
9.25113e-28
9.67794e-28
1.03606e-27
1.20322e-27
1.12899e-27
1.40862e-27
1.32009e-27
1.43782e-27
1.51054e-27
1.67194e-27
1.69363e-27
2.2672e-27
2.11071e-27
2.19519e-27
2.45402e-27
2.85273e-27
2.72983e-27
2.7718e-27
2.37381e-27
1.98623e-27
5.8584e-27
1.40447e-26
1.6391e-26
1.74029e-26
1.87685e-26
2.5867e-26
3.81421e-26
5.5466e-26
7.40619e-26
1.04065e-25
1.51154e-25
2.23005e-25
3.08908e-25
7.0858e-25
8.41919e-25
4.32066e-24
7.5953e-22
2.88206e-21
2.81243e-22
1.92113e-27
3.88534e-28
5.4359e-29
1.00732e-27
2.8594e-28
8.52316e-32
8.57465e-29
2.79516e-29
6.17236e-29
4.24843e-29
5.84802e-29
4.54081e-29
6.51431e-29
5.4894e-29
6.24212e-29
4.97542e-29
7.3437e-29
7.12562e-29
7.27233e-29
6.63254e-29
8.31962e-29
8.25302e-29
8.57374e-29
8.21125e-29
8.62373e-29
8.41414e-29
9.6769e-29
9.64156e-29
9.79011e-29
9.67939e-29
9.31459e-29
9.11769e-29
1.05221e-28
1.06038e-28
9.98212e-29
9.40334e-29
8.96801e-29
8.55375e-29
8.47278e-29
7.4856e-29
6.32414e-29
5.14157e-29
5.87737e-29
5.26374e-29
4.2395e-29
3.75405e-29
1.81938e-29
1.11709e-29
3.50677e-30
1.1512e-30
9.03384e-32
3.29645e-30
3.16193e-29
1.17954e-28
5.76569e-28
2.15016e-28
4.57332e-27
2.3474e-25
3.58421e-25
2.43354e-26
2.37698e-25
6.65947e-27
8.20788e-27
1.05372e-26
2.33992e-28
3.36481e-30
1.61513e-28
7.25636e-29
8.7867e-29
1.34396e-28
8.64504e-29
1.27355e-28
1.05946e-28
1.43599e-28
1.12466e-28
1.18642e-28
1.31024e-28
1.71294e-28
1.41232e-28
1.45561e-28
1.59036e-28
1.86805e-28
1.67907e-28
1.78906e-28
1.69797e-28
1.80184e-28
1.89324e-28
2.08462e-28
1.94704e-28
2.03586e-28
1.87582e-28
1.86718e-28
2.05284e-28
2.23834e-28
2.00598e-28
1.88425e-28
1.79325e-28
1.68257e-28
1.67537e-28
1.5574e-28
1.3033e-28
1.24561e-28
1.14161e-28
9.03091e-29
8.48885e-29
6.94546e-29
3.69054e-29
1.6353e-29
6.70705e-30
1.13778e-30
1.74629e-31
1.09018e-29
6.06695e-29
3.53593e-28
1.06746e-27
9.93453e-28
6.02509e-27
5.89433e-25
2.07245e-24
1.78802e-26
6.16581e-25
7.91844e-26
4.45201e-26
1.34137e-26
7.41405e-28
3.78989e-30
1.97788e-28
1.19775e-28
1.21195e-28
1.79098e-28
1.34847e-28
1.64164e-28
1.63979e-28
1.85732e-28
1.67578e-28
1.62403e-28
1.95837e-28
2.27448e-28
2.07504e-28
2.02051e-28
2.3165e-28
2.54974e-28
2.4205e-28
2.48872e-28
2.42697e-28
2.54583e-28
2.70672e-28
2.89932e-28
2.77653e-28
2.85587e-28
2.65029e-28
2.6878e-28
2.91104e-28
3.11931e-28
2.84044e-28
2.67096e-28
2.53951e-28
2.42097e-28
2.41626e-28
2.26486e-28
2.00118e-28
1.84264e-28
1.50063e-28
1.30982e-28
1.22281e-28
9.7025e-29
5.15012e-29
2.48047e-29
9.14015e-30
2.27177e-30
2.52873e-31
1.10988e-29
9.82779e-29
4.1907e-28
1.53053e-27
9.07513e-28
1.93838e-26
9.74471e-25
2.19663e-24
1.98958e-25
2.33636e-24
7.82918e-25
1.55719e-25
6.51368e-26
9.71104e-28
6.63263e-30
2.00548e-28
1.3004e-28
1.26311e-28
1.78499e-28
1.42382e-28
1.62929e-28
1.71782e-28
1.85686e-28
1.74608e-28
1.62421e-28
2.01699e-28
2.29648e-28
2.13798e-28
2.02665e-28
2.37986e-28
2.57255e-28
2.48381e-28
2.50566e-28
2.4883e-28
2.57547e-28
2.76122e-28
2.94839e-28
2.83625e-28
2.89025e-28
2.71632e-28
2.72756e-28
2.96592e-28
3.19487e-28
2.90393e-28
2.72771e-28
2.62847e-28
2.50258e-28
2.56604e-28
2.39353e-28
2.1966e-28
1.88898e-28
1.43694e-28
1.39077e-28
1.28582e-28
1.00108e-28
5.58882e-29
2.57547e-29
1.1262e-29
3.10213e-30
1.1808e-31
1.22037e-29
8.19696e-29
3.83616e-28
1.28772e-27
7.71548e-28
2.52556e-26
1.48822e-24
3.17276e-24
1.21711e-24
4.58783e-24
3.70671e-24
2.48964e-25
2.27861e-25
2.36819e-27
1.68448e-29
2.20428e-28
1.48808e-28
1.29355e-28
1.91757e-28
1.40789e-28
1.73831e-28
1.73678e-28
1.96864e-28
1.76951e-28
1.69766e-28
2.05506e-28
2.40883e-28
2.17559e-28
2.07848e-28
2.44717e-28
2.65508e-28
2.54042e-28
2.5665e-28
2.54866e-28
2.64396e-28
2.84009e-28
3.03939e-28
2.90184e-28
2.97118e-28
2.78737e-28
2.79981e-28
3.06174e-28
3.33131e-28
2.9809e-28
2.83795e-28
2.73562e-28
2.64248e-28
2.73334e-28
2.5423e-28
2.35523e-28
1.86613e-28
1.42926e-28
1.52275e-28
1.36166e-28
1.0942e-28
6.07202e-29
2.97211e-29
1.47424e-29
5.42713e-30
1.24639e-31
1.16922e-29
6.54152e-29
3.40128e-28
9.90428e-28
5.69512e-28
3.73927e-26
2.42992e-24
4.2209e-24
5.03992e-24
6.35854e-24
1.09525e-23
2.63276e-25
5.66608e-25
6.12212e-27
4.40706e-29
2.62798e-28
1.73711e-28
1.4205e-28
2.10068e-28
1.42583e-28
1.8955e-28
1.79756e-28
2.13973e-28
1.82655e-28
1.82925e-28
2.16041e-28
2.6048e-28
2.26049e-28
2.21173e-28
2.58733e-28
2.83089e-28
2.66647e-28
2.71314e-28
2.68472e-28
2.80668e-28
3.01143e-28
3.23216e-28
3.06121e-28
3.15024e-28
2.94333e-28
2.97867e-28
3.27654e-28
3.5837e-28
3.1573e-28
3.05311e-28
2.93324e-28
2.88634e-28
2.96867e-28
2.77107e-28
2.56893e-28
1.98074e-28
1.53778e-28
1.70892e-28
1.5337e-28
1.27934e-28
6.96783e-29
3.90386e-29
2.14708e-29
1.129e-29
5.4054e-31
1.22092e-29
4.95066e-29
2.87671e-28
6.7582e-28
3.46685e-28
5.58821e-26
3.88931e-24
5.28875e-24
1.40219e-23
7.31781e-24
2.47689e-23
2.08953e-25
1.14802e-24
1.51696e-26
9.3006e-29
3.28431e-28
2.00571e-28
1.6283e-28
2.27648e-28
1.49129e-28
2.04286e-28
1.904e-28
2.31706e-28
1.90816e-28
1.98542e-28
2.31286e-28
2.83186e-28
2.37058e-28
2.38773e-28
2.76969e-28
3.04919e-28
2.8223e-28
2.90226e-28
2.8586e-28
3.02498e-28
3.23686e-28
3.46928e-28
3.26522e-28
3.3784e-28
3.14606e-28
3.22498e-28
3.55886e-28
3.88654e-28
3.37966e-28
3.31581e-28
3.17787e-28
3.18786e-28
3.25405e-28
3.07339e-28
2.87782e-28
2.20116e-28
1.72489e-28
1.94664e-28
1.83249e-28
1.55202e-28
8.5111e-29
5.62039e-29
3.49545e-29
2.51853e-29
3.42834e-30
1.72222e-29
4.05218e-29
2.31939e-28
4.22432e-28
2.21096e-28
7.48828e-26
5.91873e-24
7.00865e-24
3.02463e-23
7.215e-24
4.63976e-23
1.24486e-25
1.99632e-24
3.4041e-26
1.60309e-28
4.16935e-28
2.25554e-28
1.879e-28
2.46202e-28
1.5842e-28
2.17849e-28
2.04238e-28
2.49385e-28
2.01058e-28
2.15409e-28
2.49149e-28
3.07186e-28
2.49249e-28
2.58132e-28
2.9725e-28
3.29099e-28
2.99026e-28
3.11285e-28
3.05404e-28
3.27265e-28
3.47695e-28
3.73575e-28
3.49262e-28
3.62892e-28
3.37412e-28
3.5022e-28
3.86806e-28
4.21557e-28
3.62112e-28
3.6008e-28
3.45372e-28
3.53179e-28
3.57985e-28
3.47987e-28
3.3039e-28
2.58284e-28
2.01717e-28
2.23887e-28
2.29016e-28
1.94663e-28
1.11171e-28
8.69951e-29
6.20551e-29
5.74038e-29
1.62231e-29
3.92211e-29
5.39049e-29
2.18248e-28
3.61638e-28
5.08681e-28
9.46979e-26
8.57672e-24
9.64747e-24
5.38884e-23
6.67932e-24
7.66696e-23
5.83109e-26
3.11328e-24
7.11322e-26
2.5106e-28
5.46061e-28
2.4133e-28
2.14545e-28
2.68014e-28
1.68911e-28
2.31614e-28
2.21107e-28
2.67307e-28
2.12912e-28
2.33636e-28
2.70603e-28
3.32152e-28
2.62449e-28
2.79067e-28
3.20682e-28
3.54833e-28
3.16596e-28
3.34397e-28
3.26842e-28
3.54562e-28
3.74656e-28
4.02281e-28
3.72968e-28
3.90564e-28
3.62325e-28
3.80953e-28
4.21605e-28
4.56678e-28
3.87546e-28
3.91846e-28
3.77238e-28
3.93606e-28
3.98872e-28
4.0408e-28
3.88358e-28
3.16569e-28
2.4165e-28
2.62107e-28
2.98487e-28
2.53256e-28
1.55272e-28
1.42162e-28
1.18183e-28
1.30044e-28
6.06855e-29
1.16132e-28
1.43935e-28
3.57205e-28
8.33536e-28
2.48736e-27
1.08789e-25
1.19303e-23
1.4964e-23
8.44117e-23
5.9875e-24
1.15344e-22
4.14023e-26
4.43302e-24
1.38161e-25
3.81063e-28
7.33194e-28
2.44587e-28
2.42483e-28
2.94124e-28
1.8029e-28
2.4622e-28
2.40542e-28
2.85895e-28
2.27165e-28
2.52839e-28
2.94789e-28
3.58003e-28
2.77276e-28
3.01305e-28
3.465e-28
3.81947e-28
3.35985e-28
3.58998e-28
3.51012e-28
3.84043e-28
4.0304e-28
4.33546e-28
3.98959e-28
4.20327e-28
3.90161e-28
4.14763e-28
4.58997e-28
4.95283e-28
4.16348e-28
4.28166e-28
4.15737e-28
4.42148e-28
4.48616e-28
4.80697e-28
4.67198e-28
3.87663e-28
2.95838e-28
3.13585e-28
4.00182e-28
3.43069e-28
2.30692e-28
2.41244e-28
2.32956e-28
2.88463e-28
1.93643e-28
3.48929e-28
4.92628e-28
9.8875e-28
3.04847e-27
1.01007e-26
1.19355e-25
1.61026e-23
2.42845e-23
1.19445e-22
6.26866e-24
1.61811e-22
8.1994e-26
5.88448e-24
2.50116e-25
6.17971e-28
1.02706e-27
2.28886e-28
2.71891e-28
3.24486e-28
1.9271e-28
2.61247e-28
2.63177e-28
3.04851e-28
2.43265e-28
2.73514e-28
3.22582e-28
3.8432e-28
2.93475e-28
3.25139e-28
3.75763e-28
4.09741e-28
3.56879e-28
3.85336e-28
3.7774e-28
4.15756e-28
4.34827e-28
4.66474e-28
4.26687e-28
4.53287e-28
4.21096e-28
4.52831e-28
5.0142e-28
5.3781e-28
4.49197e-28
4.71059e-28
4.62414e-28
5.00327e-28
5.10029e-28
5.78221e-28
5.51466e-28
4.99368e-28
3.76589e-28
3.80066e-28
5.52162e-28
4.79901e-28
3.58217e-28
4.16484e-28
4.58107e-28
6.14017e-28
5.38557e-28
9.72636e-28
1.54965e-27
3.00696e-27
9.94091e-27
3.07573e-26
1.21821e-25
2.15077e-23
4.22972e-23
1.56214e-22
7.49723e-24
2.15166e-22
2.96386e-25
7.42157e-24
4.26958e-25
1.1519e-27
1.44691e-27
1.95899e-28
3.01156e-28
3.62848e-28
2.04375e-28
2.7843e-28
2.87064e-28
3.26043e-28
2.60603e-28
2.961e-28
3.52117e-28
4.12147e-28
3.10537e-28
3.50999e-28
4.06806e-28
4.39104e-28
3.7937e-28
4.13671e-28
4.07418e-28
4.49742e-28
4.67819e-28
5.02154e-28
4.57869e-28
4.89359e-28
4.5617e-28
4.95131e-28
5.48179e-28
5.8605e-28
4.88097e-28
5.21931e-28
5.19516e-28
5.70229e-28
5.84672e-28
7.10041e-28
6.61529e-28
6.19128e-28
5.03549e-28
4.70667e-28
7.69638e-28
6.90765e-28
5.70724e-28
7.20069e-28
8.76411e-28
1.24169e-27
1.32994e-27
2.42336e-27
4.18727e-27
8.13385e-27
2.65118e-26
7.42143e-26
1.25094e-25
2.90481e-23
7.12264e-23
1.91427e-22
1.18088e-23
2.74066e-22
7.47496e-25
8.94793e-24
6.78081e-25
2.41554e-27
2.06392e-27
1.44481e-28
3.32353e-28
4.09411e-28
2.1513e-28
2.97434e-28
3.12808e-28
3.49309e-28
2.78003e-28
3.2115e-28
3.84755e-28
4.40901e-28
3.2795e-28
3.79273e-28
4.41048e-28
4.69717e-28
4.02499e-28
4.45021e-28
4.39335e-28
4.86113e-28
5.05023e-28
5.40305e-28
4.91101e-28
5.30527e-28
4.95306e-28
5.4271e-28
6.03254e-28
6.40523e-28
5.33409e-28
5.83953e-28
5.89292e-28
6.55515e-28
6.8093e-28
8.8903e-28
7.8902e-28
7.73621e-28
6.8712e-28
5.90399e-28
1.08133e-27
1.01395e-27
9.1564e-28
1.23554e-27
1.629e-27
2.40037e-27
2.93463e-27
5.42738e-27
9.79356e-27
1.90681e-26
5.9528e-26
1.51398e-25
1.23366e-25
3.93191e-23
1.19897e-22
2.1853e-22
2.03345e-23
3.42022e-22
1.52034e-24
1.06747e-23
1.00895e-24
5.66182e-27
2.77464e-27
8.88108e-29
3.64678e-28
4.66344e-28
2.24787e-28
3.18137e-28
3.40174e-28
3.74294e-28
2.97192e-28
3.48085e-28
4.18301e-28
4.71332e-28
3.46614e-28
4.0996e-28
4.76352e-28
5.02413e-28
4.27488e-28
4.78949e-28
4.74494e-28
5.25223e-28
5.44107e-28
5.82509e-28
5.2852e-28
5.76213e-28
5.4043e-28
5.96302e-28
6.6426e-28
7.03912e-28
5.88193e-28
6.5796e-28
6.74325e-28
7.56566e-28
7.95391e-28
1.1043e-27
9.08595e-28
9.22081e-28
9.54767e-28
7.38288e-28
1.52357e-27
1.50027e-27
1.46733e-27
2.07486e-27
2.91512e-27
4.40375e-27
5.90798e-27
1.09658e-26
2.02933e-26
3.92295e-26
1.17212e-25
2.7317e-25
1.20634e-25
5.32067e-23
1.91841e-22
2.35367e-22
3.88851e-23
4.11115e-22
2.53606e-24
1.27346e-23
1.39227e-24
1.30754e-26
3.61874e-27
4.03593e-29
4.08022e-28
5.28071e-28
2.3556e-28
3.37972e-28
3.72176e-28
3.99024e-28
3.18396e-28
3.76562e-28
4.55404e-28
5.01948e-28
3.6677e-28
4.42913e-28
5.15111e-28
5.36059e-28
4.54285e-28
5.1621e-28
5.12562e-28
5.67404e-28
5.8811e-28
6.28055e-28
5.69627e-28
6.28334e-28
5.91238e-28
6.57397e-28
7.34982e-28
7.75895e-28
6.52164e-28
7.45095e-28
7.73025e-28
8.70216e-28
9.26031e-28
1.34325e-27
1.0605e-27
1.25783e-27
1.38195e-27
9.12465e-28
2.16784e-27
2.18372e-27
2.3024e-27
3.40373e-27
4.95585e-27
7.64424e-27
1.08989e-26
2.02396e-26
3.76621e-26
7.19712e-26
2.04367e-25
4.38704e-25
1.19608e-25
7.28071e-23
3.04819e-22
2.41983e-22
6.91495e-23
4.89775e-22
3.91781e-24
1.57376e-23
1.81715e-24
2.94516e-26
4.27924e-27
1.34479e-29
4.54897e-28
6.04076e-28
2.43028e-28
3.61024e-28
4.05457e-28
4.26223e-28
3.41373e-28
4.07129e-28
4.93088e-28
5.34752e-28
3.88248e-28
4.78694e-28
5.54806e-28
5.72228e-28
4.83587e-28
5.56865e-28
5.54447e-28
6.13228e-28
6.33802e-28
6.78759e-28
6.17107e-28
6.86408e-28
6.49605e-28
7.26421e-28
8.13928e-28
8.60442e-28
7.30501e-28
8.51644e-28
8.99005e-28
1.02347e-27
1.12193e-27
1.74396e-27
1.62089e-27
1.53763e-27
1.84371e-27
1.24987e-27
2.9853e-27
3.14525e-27
3.47255e-27
5.33159e-27
8.02178e-27