/*--------------------------------*- C++ -*----------------------------------*\
| =========                 |                                                 |
| \\      /  F ield         | OpenFOAM: The Open Source CFD Toolbox           |
|  \\    /   O peration     | Version:  2312                                  |
|   \\  /    A nd           | Website:  www.openfoam.com                      |
|    \\/     M anipulation  |                                                 |
\*---------------------------------------------------------------------------*/
FoamFile
{
    version     2.0;
    format      ascii;
    arch        "LSB;label=32;scalar=64";
    class       volScalarField;
    location    "520";
    object      p;
}
// * * * * * * * * * * * * * * * * * * * * * * * * * * * * * * * * * * * * * //

dimensions      [0 2 -2 0 0 0 0];

internalField   nonuniform List<scalar> 
144000
(
2.55393e-10
2.00544e-10
-1.01094e-10
-3.22821e-10
-3.17158e-10
-2.50271e-10
-1.65703e-10
-1.20978e-10
-7.79857e-11
-6.88027e-11
-4.64807e-11
-4.81876e-11
-3.15239e-11
-3.70713e-11
-2.1146e-11
-2.70959e-11
-1.39487e-11
-2.31892e-11
-7.88901e-12
-1.48778e-11
-5.00462e-13
-1.03239e-11
4.21257e-12
-5.0477e-12
9.58642e-12
2.0508e-13
1.41887e-11
3.20933e-12
1.75718e-11
7.34097e-12
2.21606e-11
1.2308e-11
2.54682e-11
1.30618e-11
2.67025e-11
1.58772e-11
2.90703e-11
1.84571e-11
3.02133e-11
1.86823e-11
2.9066e-11
1.95585e-11
2.92762e-11
1.91101e-11
2.82092e-11
1.8475e-11
2.67041e-11
2.1485e-11
2.66046e-11
2.42223e-11
2.61014e-11
2.9182e-11
1.83884e-11
1.98763e-11
-1.26755e-11
-4.87818e-12
-6.73948e-11
-1.46588e-10
-4.94726e-10
-9.71701e-11
2.7065e-10
2.08468e-10
-1.04464e-10
-3.26205e-10
-3.1875e-10
-2.50626e-10
-1.6589e-10
-1.21045e-10
-7.81822e-11
-6.89245e-11
-4.6687e-11
-4.82759e-11
-3.16988e-11
-3.7132e-11
-2.12835e-11
-2.7112e-11
-1.40737e-11
-2.32134e-11
-8.00274e-12
-1.48654e-11
-6.05652e-13
-1.03161e-11
4.11485e-12
-5.01538e-12
9.49851e-12
2.45174e-13
1.40991e-11
3.24526e-12
1.74858e-11
7.39263e-12
2.20853e-11
1.23708e-11
2.53883e-11
1.31095e-11
2.66267e-11
1.59467e-11
2.90065e-11
1.85279e-11
3.01553e-11
1.8735e-11
2.89617e-11
1.95052e-11
2.91403e-11
1.9189e-11
2.81826e-11
1.85753e-11
2.6698e-11
2.16182e-11
2.66381e-11
2.43553e-11
2.62093e-11
2.93527e-11
1.86123e-11
2.00234e-11
-1.22578e-11
-4.44936e-12
-6.50621e-11
-1.44444e-10
-5.05295e-10
-1.0487e-10
2.89463e-10
2.16223e-10
-1.08416e-10
-3.30145e-10
-3.20882e-10
-2.51305e-10
-1.66103e-10
-1.21193e-10
-7.83268e-11
-6.91428e-11
-4.68793e-11
-4.84749e-11
-3.18456e-11
-3.72984e-11
-2.1396e-11
-2.72148e-11
-1.41359e-11
-2.33291e-11
-8.08016e-12
-1.49412e-11
-6.49865e-13
-1.03968e-11
4.07128e-12
-5.06209e-12
9.47353e-12
2.05642e-13
1.40818e-11
3.1996e-12
1.74675e-11
7.36795e-12
2.20784e-11
1.23578e-11
2.53946e-11
1.30783e-11
2.66221e-11
1.59468e-11
2.90226e-11
1.8531e-11
3.01844e-11
1.8735e-11
2.89149e-11
1.93302e-11
2.90096e-11
1.91734e-11
2.82643e-11
1.86508e-11
2.67785e-11
2.17388e-11
2.67755e-11
2.4482e-11
2.63824e-11
2.95311e-11
1.89352e-11
2.02576e-11
-1.17507e-11
-4.15442e-12
-6.21664e-11
-1.38565e-10
-5.21443e-10
-1.13678e-10
3.1098e-10
2.22304e-10
-1.12219e-10
-3.34124e-10
-3.23929e-10
-2.52343e-10
-1.66348e-10
-1.21299e-10
-7.84181e-11
-6.93838e-11
-4.71018e-11
-4.87248e-11
-3.20165e-11
-3.75148e-11
-2.15365e-11
-2.73494e-11
-1.41849e-11
-2.34811e-11
-8.17882e-12
-1.50498e-11
-6.84105e-13
-1.05074e-11
4.02401e-12
-5.13144e-12
9.45849e-12
1.46342e-13
1.40838e-11
3.13131e-12
1.7459e-11
7.3231e-12
2.20875e-11
1.23286e-11
2.5437e-11
1.3025e-11
2.66335e-11
1.59286e-11
2.90737e-11
1.85167e-11
3.02637e-11
1.87343e-11
2.88943e-11
1.90801e-11
2.88221e-11
1.90706e-11
2.84253e-11
1.87271e-11
2.69284e-11
2.1848e-11
2.70248e-11
2.45781e-11
2.66837e-11
2.96566e-11
1.94916e-11
2.03868e-11
-1.09336e-11
-4.24974e-12
-5.7711e-11
-1.29938e-10
-5.42043e-10
-1.22232e-10
3.32039e-10
2.2345e-10
-1.14816e-10
-3.36379e-10
-3.27411e-10
-2.53709e-10
-1.66603e-10
-1.21309e-10
-7.84463e-11
-6.9638e-11
-4.73867e-11
-4.90364e-11
-3.22448e-11
-3.7787e-11
-2.1736e-11
-2.75145e-11
-1.42463e-11
-2.36633e-11
-8.32476e-12
-1.5183e-11
-7.28822e-13
-1.0636e-11
3.94908e-12
-5.21335e-12
9.43296e-12
8.07427e-14
1.40861e-11
3.05504e-12
1.74384e-11
7.27001e-12
2.20937e-11
1.22978e-11
2.54994e-11
1.29642e-11
2.66418e-11
1.59009e-11
2.91466e-11
1.84937e-11
3.03867e-11
1.87467e-11
2.89012e-11
1.87932e-11
2.85317e-11
1.88551e-11
2.86563e-11
1.88053e-11
2.71416e-11
2.19263e-11
2.73939e-11
2.46064e-11
2.71311e-11
2.96627e-11
2.03405e-11
2.02871e-11
-9.67924e-12
-4.97181e-12
-5.14492e-11
-1.19487e-10
-5.65705e-10
-1.27749e-10
3.5078e-10
2.15091e-10
-1.16043e-10
-3.34966e-10
-3.3058e-10
-2.55343e-10
-1.66837e-10
-1.21173e-10
-7.83821e-11
-6.98968e-11
-4.77424e-11
-4.94217e-11
-3.25445e-11
-3.81259e-11
-2.20083e-11
-2.77242e-11
-1.43311e-11
-2.38797e-11
-8.52703e-12
-1.53487e-11
-7.9093e-13
-1.07844e-11
3.83932e-12
-5.31298e-12
9.39198e-12
6.2106e-15
1.40847e-11
2.9703e-12
1.7401e-11
7.2054e-12
2.20941e-11
1.22626e-11
2.55799e-11
1.28959e-11
2.6645e-11
1.58568e-11
2.92431e-11
1.84549e-11
3.0561e-11
1.87729e-11
2.89562e-11
1.84728e-11
2.80987e-11
1.84886e-11
2.89592e-11
1.88761e-11
2.74222e-11
2.19438e-11
2.78948e-11
2.45278e-11
2.77535e-11
2.94801e-11
2.15348e-11
1.98415e-11
-7.86399e-12
-6.5488e-12
-4.32361e-11
-1.08015e-10
-5.91814e-10
-1.26349e-10
3.67191e-10
1.92611e-10
-1.16777e-10
-3.28112e-10
-3.32588e-10
-2.57156e-10
-1.67033e-10
-1.20843e-10
-7.81918e-11
-7.01435e-11
-4.81663e-11
-4.98836e-11
-3.2922e-11
-3.85361e-11
-2.23607e-11
-2.79891e-11
-1.4449e-11
-2.41323e-11
-8.79017e-12
-1.55547e-11
-8.77099e-13
-1.09543e-11
3.69022e-12
-5.43587e-12
9.33196e-12
-8.06844e-14
1.40757e-11
2.87618e-12
1.73441e-11
7.1255e-12
2.20874e-11
1.22191e-11
2.56761e-11
1.28194e-11
2.66438e-11
1.57884e-11
2.93658e-11
1.83917e-11
3.0795e-11
1.88098e-11
2.90996e-11
1.81158e-11
2.74642e-11
1.79313e-11
2.93383e-11
1.89285e-11
2.77784e-11
2.18699e-11
2.85411e-11
2.43035e-11
2.85879e-11
2.90378e-11
2.3133e-11
1.89311e-11
-5.35738e-12
-9.17201e-12
-3.29752e-11
-9.61203e-11
-6.2067e-10
-1.14227e-10
3.82688e-10
1.52042e-10
-1.18696e-10
-3.14324e-10
-3.32499e-10
-2.59044e-10
-1.67193e-10
-1.20282e-10
-7.78459e-11
-7.03599e-11
-4.86526e-11
-5.04193e-11
-3.33804e-11
-3.90176e-11
-2.27968e-11
-2.83147e-11
-1.46099e-11
-2.44202e-11
-9.11679e-12
-1.58055e-11
-9.95392e-13
-1.11456e-11
3.4978e-12
-5.58548e-12
9.24851e-12
-1.81335e-13
1.40533e-11
2.77288e-12
1.72649e-11
7.02846e-12
2.20712e-11
1.21655e-11
2.57829e-11
1.27355e-11
2.66382e-11
1.569e-11
2.95156e-11
1.82967e-11
3.10975e-11
1.88515e-11
2.93928e-11
1.76893e-11
2.65421e-11
1.71472e-11
2.98004e-11
1.89511e-11
2.82204e-11
2.1675e-11
2.93471e-11
2.38947e-11
2.96669e-11
2.82749e-11
2.51914e-11
1.7457e-11
-2.04928e-12
-1.29565e-11
-2.07125e-11
-8.40953e-11
-6.53116e-10
-8.83843e-11
3.99867e-10
9.04503e-11
-1.24111e-10
-2.92531e-10
-3.2933e-10
-2.60883e-10
-1.67348e-10
-1.19466e-10
-7.73218e-11
-7.05299e-11
-4.91946e-11
-5.1024e-11
-3.39204e-11
-3.95673e-11
-2.3317e-11
-2.87038e-11
-1.48228e-11
-2.47413e-11
-9.5072e-12
-1.61031e-11
-1.15334e-12
-1.13576e-11
3.25953e-12
-5.76373e-12
9.13736e-12
-2.96201e-13
1.40122e-11
2.66101e-12
1.7161e-11
6.91335e-12
2.20432e-11
1.21005e-11
2.58946e-11
1.26445e-11
2.6629e-11
1.55571e-11
2.96924e-11
1.81623e-11
3.14788e-11
1.88882e-11
2.99267e-11
1.71469e-11
2.52112e-11
1.61014e-11
3.0356e-11
1.89326e-11
2.87596e-11
2.13328e-11
3.03252e-11
2.32677e-11
3.10193e-11
2.71272e-11
2.77498e-11
1.5358e-11
2.1173e-12
-1.79081e-11
-6.64098e-12
-7.19647e-11
-6.90331e-10
-4.68963e-11
4.2162e-10
6.31304e-12
-1.35487e-10
-2.62156e-10
-3.22148e-10
-2.62532e-10
-1.67556e-10
-1.18396e-10
-7.66058e-11
-7.06413e-11
-4.97865e-11
-5.16924e-11
-3.45416e-11
-4.01814e-11
-2.392e-11
-2.91569e-11
-1.50952e-11
-2.50934e-11
-9.95969e-12
-1.64477e-11
-1.35759e-12
-1.15895e-11
2.9748e-12
-5.97145e-12
8.995e-12
-4.25325e-13
1.39473e-11
2.541e-12
1.70313e-11
6.77995e-12
2.20013e-11
1.20238e-11
2.60053e-11
1.25468e-11
2.66173e-11
1.53869e-11
2.98953e-11
1.79814e-11
3.19501e-11
1.8912e-11
3.08212e-11
1.64127e-11
2.3323e-11
1.4772e-11
3.10176e-11
1.88621e-11
2.94067e-11
2.08241e-11
3.14825e-11
2.23986e-11
3.2664e-11
2.55729e-11
3.08179e-11
1.26227e-11
7.13107e-12
-2.39223e-11
8.83871e-12
-5.94803e-11
-7.33231e-10
1.07856e-11
4.5087e-10
-1.00317e-10
-1.55264e-10
-2.23216e-10
-3.10121e-10
-2.63811e-10
-1.67894e-10
-1.17092e-10
-7.56953e-11
-7.06864e-11
-5.04242e-11
-5.24203e-11
-3.52438e-11
-4.08564e-11
-2.46039e-11
-2.96738e-11
-1.54333e-11
-2.54747e-11
-1.04716e-11
-1.68387e-11
-1.61349e-12
-1.18405e-11
2.64406e-12
-6.20878e-12
8.81851e-12
-5.68573e-13
1.38548e-11
2.4133e-12
1.68757e-11
6.62842e-12
2.19434e-11
1.19351e-11
2.61099e-11
1.24426e-11
2.66042e-11
1.51781e-11
3.01218e-11
1.77483e-11
3.25223e-11
1.89157e-11
3.22419e-11
1.53169e-11
2.06815e-11
1.315e-11
3.17957e-11
1.87293e-11
3.01678e-11
2.01396e-11
3.28181e-11
2.12778e-11
3.46021e-11
2.36129e-11
3.43674e-11
9.29604e-12
1.29037e-11
-3.07785e-11
2.52054e-11
-4.62166e-11
-7.82396e-10
8.38424e-11
4.89877e-10
-2.27893e-10
-1.8547e-10
-1.76314e-10
-2.92604e-10
-2.64497e-10
-1.68445e-10
-1.15609e-10
-7.45985e-11
-7.06616e-11
-5.11049e-11
-5.32051e-11
-3.60273e-11
-4.15901e-11
-2.53671e-11
-3.02534e-11
-1.58426e-11
-2.58843e-11
-1.104e-11
-1.72747e-11
-1.92561e-12
-1.21108e-11
2.26842e-12
-6.47539e-12
8.60544e-12
-7.25655e-13
1.37317e-11
2.27798e-12
1.66946e-11
6.45947e-12
2.18678e-11
1.18351e-11
2.62035e-11
1.23325e-11
2.65899e-11
1.4932e-11
3.03673e-11
1.74586e-11
3.32079e-11
1.88819e-11
3.4489e-11
1.36908e-11
1.69952e-11
1.12344e-11
3.26885e-11
1.85213e-11
3.104e-11
1.92799e-11
3.43233e-11
1.99124e-11
3.68121e-11
2.12793e-11
3.83318e-11
5.48195e-12
1.92779e-11
-3.81643e-11
4.18262e-11
-3.17371e-11
-8.37712e-10
1.7023e-10
5.40408e-10
-3.73546e-10
-2.27784e-10
-1.22686e-10
-2.6916e-10
-2.64283e-10
-1.69264e-10
-1.14018e-10
-7.33342e-11
-7.05649e-11
-5.18251e-11
-5.40436e-11
-3.68922e-11
-4.23803e-11
-2.62077e-11
-3.08943e-11
-1.6327e-11
-2.6322e-11
-1.16618e-11
-1.77538e-11
-2.29741e-12
-1.24008e-11
1.84934e-12
-6.77047e-12
8.35368e-12
-8.96304e-13
1.35762e-11
2.13513e-12
1.64882e-11
6.27433e-12
2.17725e-11
1.17245e-11
2.62818e-11
1.22178e-11
2.65733e-11
1.4653e-11
3.06243e-11
1.71119e-11
3.4007e-11
1.88077e-11
3.78886e-11
1.13963e-11
1.19803e-11
9.08431e-12
3.37007e-11
1.82342e-11
3.2013e-11
1.82574e-11
3.59641e-11
1.83333e-11
3.92484e-11
1.86375e-11
4.26066e-11
1.33451e-12
2.60397e-11
-4.57112e-11
5.81411e-11
-1.57832e-11
-8.98648e-10
2.67122e-10
6.02921e-10
-5.33238e-10
-2.82998e-10
-6.40474e-11
-2.3966e-10
-2.62838e-10
-1.70383e-10
-1.12414e-10
-7.19346e-11
-7.0396e-11
-5.25798e-11
-5.49324e-11
-3.78374e-11
-4.32247e-11
-2.71229e-11
-3.15945e-11
-1.68896e-11
-2.67882e-11
-1.23335e-11
-1.82736e-11
-2.73169e-12
-1.27116e-11
1.38873e-12
-7.09266e-12
8.0616e-12
-1.0804e-12
1.33864e-11
1.98476e-12
1.62572e-11
6.07504e-12
2.16554e-11
1.1605e-11
2.63393e-11
1.2101e-11
2.65507e-11
1.43513e-11
3.08754e-11
1.67293e-11
3.48637e-11
1.88077e-11
4.26066e-11
8.22687e-12
5.45847e-12
6.88758e-12
3.48697e-11
1.78949e-11
3.30794e-11
1.71019e-11
3.77079e-11
1.6589e-11
4.18435e-11
1.57838e-11
4.70557e-11
-2.95416e-12
3.29391e-11
-5.30365e-11
7.36054e-11
1.72325e-12
-9.63857e-10
3.71169e-10
6.76908e-10
-7.01875e-10
-3.50958e-10
-2.49364e-12
-2.04257e-10
-2.5983e-10
-1.71806e-10
-1.10911e-10
-7.04476e-11
-7.01576e-11
-5.33634e-11
-5.58677e-11
-3.88616e-11
-4.41212e-11
-2.811e-11
-3.23513e-11
-1.75318e-11
-2.72834e-11
-1.3052e-11
-1.88316e-11
-3.22995e-12
-1.30443e-11
8.88356e-13
-7.44015e-12
7.72779e-12
-1.27791e-12
1.31613e-11
1.82724e-12
1.60021e-11
5.86399e-12
2.15139e-11
1.14786e-11
2.63711e-11
1.19859e-11
2.65164e-11
1.40404e-11
3.11009e-11
1.63396e-11
3.56974e-11
1.89379e-11
4.94996e-11
1.6162e-12
-3.41442e-12
4.62262e-12
3.61517e-11
1.7523e-11
3.42222e-11
1.58518e-11
3.95049e-11
1.47446e-11
4.451e-11
1.28391e-11
5.15163e-11
-7.1653e-12
3.96993e-11
-5.97517e-11
8.77416e-11
2.07864e-11
-1.03164e-09
4.79352e-10
7.61049e-10
-8.75113e-10
-4.30778e-10
5.95253e-11
-1.63471e-10
-2.5487e-10
-1.73506e-10
-1.09644e-10
-6.89405e-11
-6.98578e-11
-5.41705e-11
-5.68464e-11
-3.99641e-11
-4.50686e-11
-2.91666e-11
-3.31622e-11
-1.82541e-11
-2.78084e-11
-1.38144e-11
-1.94248e-11
-3.79302e-12
-1.34002e-11
3.49666e-13
-7.81118e-12
7.35113e-12
-1.48877e-12
1.29002e-11
1.66304e-12
1.57231e-11
5.64399e-12
2.13455e-11
1.13477e-11
2.63728e-11
1.18752e-11
2.64668e-11
1.37266e-11
3.12966e-11
1.59403e-11
3.64983e-11
1.85059e-11
6.07036e-11
-2.32012e-12
-1.55655e-11
1.8321e-12
3.72373e-11
1.70688e-11
3.53873e-11
1.45528e-11
4.12859e-11
1.28758e-11
4.71435e-11
9.94264e-12
5.58104e-11
-1.10656e-11
4.60433e-11
-6.54919e-11
1.00127e-10
4.1288e-11
-1.0999e-09
5.85427e-10
8.53691e-10
-1.04376e-09
-5.21309e-10
1.19188e-10
-1.18193e-10
-2.47605e-10
-1.75394e-10
-1.08747e-10
-6.74947e-11
-6.95078e-11
-5.4994e-11
-5.78648e-11
-4.11437e-11
-4.60656e-11
-3.02903e-11
-3.40242e-11
-1.90554e-11
-2.83638e-11
-1.46182e-11
-2.00503e-11
-4.42053e-12
-1.37807e-11
-2.26228e-13
-8.20372e-12
6.93067e-12
-1.71275e-12
1.26026e-11
1.49302e-12
1.54196e-11
5.4181e-12
2.1147e-11
1.12154e-11
2.63392e-11
1.1775e-11
2.6391e-11
1.34333e-11
3.14205e-11
1.56331e-11
3.70403e-11
1.78737e-11
6.8254e-11
-1.49978e-14
-2.3197e-11
-6.2102e-13
3.80819e-11
1.65749e-11
3.65561e-11
1.32649e-11
4.29806e-11
1.10704e-11
4.96309e-11
7.24145e-12
5.9757e-11
-1.44307e-11
5.17224e-11
-6.99715e-11
1.106e-10
6.27913e-11
-1.16635e-09
6.86064e-10
9.51712e-10
-1.20349e-09
-6.2035e-10
1.73823e-10
-6.958e-11
-2.37736e-10
-1.77307e-10
-1.0834e-10
-6.62039e-11
-6.91231e-11
-5.58252e-11
-5.89175e-11
-4.23984e-11
-4.71106e-11
-3.14776e-11
-3.49341e-11
-1.99342e-11
-2.89501e-11
-1.54607e-11
-2.07048e-11
-5.11176e-12
-1.41866e-11
-8.38093e-13
-8.61523e-12
6.46612e-12
-1.94955e-12
1.22682e-11
1.31825e-12
1.50912e-11
5.19013e-12
2.09157e-11
1.10857e-11
2.62637e-11
1.16942e-11
2.62729e-11
1.31955e-11
3.14102e-11
1.55867e-11
3.70072e-11
1.84786e-11
6.14788e-11
-8.84122e-13
-1.53552e-11
-5.81417e-13
3.87722e-11
1.61571e-11
3.7731e-11
1.20692e-11
4.45217e-11
9.42376e-12
5.18592e-11
4.88397e-12
6.31843e-11
-1.70557e-11
5.65254e-11
-7.29798e-11
1.19104e-10
8.46648e-11
-1.22827e-09
7.77603e-10
1.05099e-09
-1.34839e-09
-7.2464e-10
2.21006e-10
-1.90181e-11
-2.2503e-10
-1.79036e-10
-1.08532e-10
-6.51741e-11
-6.87256e-11
-5.66552e-11
-5.99985e-11
-4.37255e-11
-4.82017e-11
-3.27253e-11
-3.58882e-11
-2.08876e-11
-2.95671e-11
-1.63396e-11
-2.13848e-11
-5.86495e-12
-1.46183e-11
-1.485e-12
-9.04319e-12
5.9574e-12
-2.19868e-12
1.18967e-11
1.14022e-12
1.47371e-11
4.96363e-12
2.0649e-11
1.09609e-11
2.61434e-11
1.16342e-11
2.6113e-11
1.30058e-11
3.12944e-11
1.56942e-11
3.66274e-11
1.89965e-11
5.04805e-11
3.92951e-12
-7.24121e-13
3.61132e-13
3.90892e-11
1.57277e-11
3.87995e-11
1.10125e-11
4.58324e-11
8.02399e-12
5.37171e-11
3.00714e-12
6.59354e-11
-1.87625e-11
6.02727e-11
-7.43542e-11
1.25638e-10
1.06328e-10
-1.28288e-09
8.5635e-10
1.14698e-09
-1.47278e-09
-8.30411e-10
2.58544e-10
3.18912e-11
-2.09386e-10
-1.8036e-10
-1.09417e-10
-6.45225e-11
-6.83479e-11
-5.74789e-11
-6.11031e-11
-4.51239e-11
-4.93391e-11
-3.40313e-11
-3.68836e-11
-2.19125e-11
-3.02149e-11
-1.72533e-11
-2.20875e-11
-6.67807e-12
-1.50762e-11
-2.16658e-12
-9.48532e-12
5.4047e-12
-2.45951e-12
1.14881e-11
9.60478e-13
1.43568e-11
4.74197e-12
2.0345e-11
1.08439e-11
2.59762e-11
1.15962e-11
2.59119e-11
1.28541e-11
3.1102e-11
1.58374e-11
3.61511e-11
1.89001e-11
4.33619e-11
1.08843e-11
9.04528e-12
9.6107e-13
3.91071e-11
1.53146e-11
3.97221e-11
1.01594e-11
4.68485e-11
6.95484e-12
5.51075e-11
1.73126e-12
6.78813e-11
-1.94069e-11
6.28304e-11
-7.39841e-11
1.30214e-10
1.27272e-10
-1.32737e-09
9.18775e-10
1.23563e-09
-1.57159e-09
-9.34018e-10
2.84517e-10
8.1496e-11
-1.90802e-10
-1.81039e-10
-1.1105e-10
-6.43614e-11
-6.80283e-11
-5.82924e-11
-6.2226e-11
-4.65917e-11
-5.05228e-11
-3.53944e-11
-3.79178e-11
-2.3005e-11
-3.08929e-11
-1.8201e-11
-2.28102e-11
-7.54835e-12
-1.55605e-11
-2.88302e-12
-9.93966e-12
4.80819e-12
-2.73115e-12
1.10426e-11
7.80773e-13
1.39487e-11
4.52825e-12
2.00013e-11
1.07382e-11
2.57592e-11
1.15858e-11
2.56613e-11
1.27589e-11
3.08116e-11
1.60605e-11
3.55312e-11
1.88547e-11
3.87833e-11
1.36755e-11
1.68465e-11
2.30068e-12
3.91365e-11
1.50424e-11
4.04675e-11
9.56723e-12
4.75168e-11
6.28416e-12
5.59495e-11
1.15021e-12
6.89245e-11
-1.88891e-11
6.41122e-11
-7.1812e-11
1.32914e-10
1.47064e-10
-1.35945e-09
9.61795e-10
1.31313e-09
-1.64073e-09
-1.03199e-09
2.97517e-10
1.28233e-10
-1.69407e-10
-1.8085e-10
-1.13447e-10
-6.47905e-11
-6.78087e-11
-5.90937e-11
-6.3361e-11
-4.8126e-11
-5.1752e-11
-3.68126e-11
-3.89885e-11
-2.41607e-11
-3.16003e-11
-1.91813e-11
-2.35509e-11
-8.47287e-12
-1.60706e-11
-3.63421e-12
-1.04044e-11
4.16873e-12
-3.01291e-12
1.0561e-11
6.02761e-13
1.35122e-11
4.32515e-12
1.96172e-11
1.06452e-11
2.54923e-11
1.16036e-11
2.53622e-11
1.27139e-11
3.04343e-11
1.63324e-11
3.48316e-11
1.89283e-11
3.56131e-11
1.54805e-11
2.3113e-11
4.07385e-12
3.91041e-11
1.48791e-11
4.09699e-11
9.27735e-12
4.77916e-11
6.07658e-12
5.61861e-11
1.33549e-12
6.90083e-11
-1.71436e-11
6.40832e-11
-6.78153e-11
1.33749e-10
1.65417e-10
-1.37712e-09
9.82847e-10
1.37625e-09
-1.67701e-09
-1.12124e-09
2.96705e-10
1.7074e-10
-1.45495e-10
-1.79635e-10
-1.16598e-10
-6.58944e-11
-6.77343e-11
-5.98836e-11
-6.45033e-11
-4.97232e-11
-5.30258e-11
-3.82833e-11
-4.00951e-11
-2.53755e-11
-3.23351e-11
-2.01927e-11
-2.43088e-11
-9.44893e-12
-1.66055e-11
-4.41965e-12
-1.08785e-11
3.48765e-12
-3.30462e-12
1.00438e-11
4.28138e-13
1.30474e-11
4.13462e-12
1.91929e-11
1.05649e-11
2.51763e-11
1.16487e-11
2.50189e-11
1.27076e-11
2.99937e-11
1.65982e-11
3.41552e-11
1.89826e-11
3.35054e-11
1.64761e-11
2.78827e-11
6.03874e-12
3.89796e-11
1.48538e-11
4.11991e-11
9.3156e-12
4.76502e-11
6.36027e-12
5.57948e-11
2.30832e-12
6.81245e-11
-1.41755e-11
6.27635e-11
-6.19811e-11
1.32565e-10
1.82321e-10
-1.37877e-09
9.7955e-10
1.42304e-09
-1.67783e-09
-1.19934e-09
2.81818e-10
2.08e-10
-1.19498e-10
-1.77322e-10
-1.20496e-10
-6.7754e-11
-6.78569e-11
-6.06696e-11
-6.56531e-11
-5.1384e-11
-5.43464e-11
-3.9806e-11
-4.12404e-11
-2.66476e-11
-3.30964e-11
-2.12341e-11
-2.50851e-11
-1.04753e-11
-1.71646e-11
-5.2392e-12
-1.13621e-11
2.76599e-12
-3.60689e-12
9.49136e-12
2.58392e-13
1.25551e-11
3.9578e-12
1.87297e-11
1.04964e-11
2.48121e-11
1.17212e-11
2.46346e-11
1.27338e-11
2.95014e-11
1.68508e-11
3.35187e-11
1.89985e-11
3.21607e-11
1.70102e-11
3.14058e-11
8.12188e-12
3.87832e-11
1.50131e-11
4.11435e-11
9.69625e-12
4.70906e-11
7.14696e-12
5.47889e-11
4.05849e-12
6.63167e-11
-1.0034e-11
6.02353e-11
-5.42219e-11
1.28883e-10
1.98636e-10
-1.36272e-09
9.49314e-10
1.45018e-09
-1.6408e-09
-1.26457e-09
2.52912e-10
2.39373e-10
-9.18519e-11
-1.73878e-10
-1.25131e-10
-7.04565e-11
-6.82342e-11
-6.14632e-11
-6.68113e-11
-5.31128e-11
-5.57171e-11
-4.13835e-11
-4.24279e-11
-2.79777e-11
-3.38815e-11
-2.23054e-11
-2.58801e-11
-1.15522e-11
-1.77458e-11
-6.09414e-12
-1.18549e-11
2.00275e-12
-3.91943e-12
8.90273e-12
9.6215e-14
1.20343e-11
3.79609e-12
1.82275e-11
1.04392e-11
2.44007e-11
1.1823e-11
2.42113e-11
1.27873e-11
2.89622e-11
1.70913e-11
3.29129e-11
1.90055e-11
3.13297e-11
1.73224e-11
3.39037e-11
1.02691e-11
3.85099e-11
1.53785e-11
4.07937e-11
1.04154e-11
4.61194e-11
8.42568e-12
5.31988e-11
6.5443e-12
6.36562e-11
-4.78606e-12
5.6518e-11
-4.42672e-11
1.21843e-10
2.14811e-10
-1.32713e-09
8.89455e-10
2.56203e-10
1.99508e-10
-1.02446e-10
-3.23958e-10
-3.18219e-10
-2.50848e-10
-1.66044e-10
-1.21238e-10
-7.8328e-11
-6.92752e-11
-4.70139e-11
-4.87289e-11
-3.20609e-11
-3.75895e-11
-2.16335e-11
-2.75491e-11
-1.42882e-11
-2.3412e-11
-8.04387e-12
-1.49964e-11
-5.61448e-13
-1.03514e-11
4.19718e-12
-5.07746e-12
9.56614e-12
1.43027e-13
1.41756e-11
3.17824e-12
1.75574e-11
7.26189e-12
2.21261e-11
1.21778e-11
2.54164e-11
1.28825e-11
2.66798e-11
1.57093e-11
2.91703e-11
1.83313e-11
3.05365e-11
1.87496e-11
2.98479e-11
2.02255e-11
2.9702e-11
1.96352e-11
2.85808e-11
1.87615e-11
2.70301e-11
2.18922e-11
2.71213e-11
2.48436e-11
2.6847e-11
3.00322e-11
1.95071e-11
2.11743e-11
-1.11365e-11
-3.17007e-12
-6.59432e-11
-1.46365e-10
-4.97122e-10
-9.79989e-11
2.71494e-10
2.07445e-10
-1.0583e-10
-3.27333e-10
-3.19802e-10
-2.51198e-10
-1.66225e-10
-1.21303e-10
-7.85249e-11
-6.94002e-11
-4.72238e-11
-4.88219e-11
-3.22403e-11
-3.76557e-11
-2.17764e-11
-2.75722e-11
-1.44161e-11
-2.34393e-11
-8.15948e-12
-1.49872e-11
-6.66476e-13
-1.03439e-11
4.09911e-12
-5.04654e-12
9.47777e-12
1.81888e-13
1.40884e-11
3.21693e-12
1.74736e-11
7.31563e-12
2.20517e-11
1.22421e-11
2.5337e-11
1.29335e-11
2.66025e-11
1.57831e-11
2.91031e-11
1.84098e-11
3.04751e-11
1.88207e-11
2.97703e-11
2.02394e-11
2.96191e-11
1.97328e-11
2.85584e-11
1.8864e-11
2.70265e-11
2.20267e-11
2.71573e-11
2.49789e-11
2.6957e-11
3.0207e-11
1.97364e-11
2.13278e-11
-1.07114e-11
-2.736e-12
-6.36023e-11
-1.44219e-10
-5.07701e-10
-1.05713e-10
2.90286e-10
2.15214e-10
-1.098e-10
-3.31251e-10
-3.21922e-10
-2.51871e-10
-1.66429e-10
-1.21449e-10
-7.86705e-11
-6.96234e-11
-4.74216e-11
-4.90278e-11
-3.23932e-11
-3.78296e-11
-2.18958e-11
-2.76845e-11
-1.44835e-11
-2.35595e-11
-8.23911e-12
-1.50672e-11
-7.10436e-13
-1.04243e-11
4.05603e-12
-5.09502e-12
9.4529e-12
1.40665e-13
1.40744e-11
3.17509e-12
1.74594e-11
7.29314e-12
2.20473e-11
1.22302e-11
2.53451e-11
1.29055e-11
2.65978e-11
1.57864e-11
2.91174e-11
1.8419e-11
3.05035e-11
1.88326e-11
2.97636e-11
2.01485e-11
2.9579e-11
1.97629e-11
2.86472e-11
1.89396e-11
2.71089e-11
2.21478e-11
2.72962e-11
2.5107e-11
2.71323e-11
3.03851e-11
2.00633e-11
2.15669e-11
-1.02041e-11
-2.43998e-12
-6.07008e-11
-1.38303e-10
-5.23834e-10
-1.1457e-10
3.11744e-10
2.21306e-10
-1.13631e-10
-3.35201e-10
-3.24933e-10
-2.52898e-10
-1.66664e-10
-1.21552e-10
-7.87618e-11
-6.98694e-11
-4.76507e-11
-4.92854e-11
-3.25715e-11
-3.80548e-11
-2.20446e-11
-2.78307e-11
-1.45407e-11
-2.37178e-11
-8.3409e-12
-1.5181e-11
-7.45424e-13
-1.05343e-11
4.00978e-12
-5.16628e-12
9.43775e-12
7.90863e-14
1.4079e-11
3.11172e-12
1.74561e-11
7.25155e-12
2.20592e-11
1.22031e-11
2.53888e-11
1.28569e-11
2.66083e-11
1.57731e-11
2.91646e-11
1.84126e-11
3.05793e-11
1.88349e-11
2.97945e-11
1.99907e-11
2.95268e-11
1.97507e-11
2.88233e-11
1.90144e-11
2.72614e-11
2.22577e-11
2.75467e-11
2.52042e-11
2.74362e-11
3.05108e-11
2.0622e-11
2.17013e-11
-9.3913e-12
-2.53622e-12
-5.62357e-11
-1.29616e-10
-5.44374e-10
-1.23193e-10
3.32707e-10
2.2246e-10
-1.16269e-10
-3.37428e-10
-3.2837e-10
-2.54248e-10
-1.66903e-10
-1.21553e-10
-7.87872e-11
-7.01274e-11
-4.79423e-11
-4.96051e-11
-3.28076e-11
-3.83365e-11
-2.22531e-11
-2.80089e-11
-1.46134e-11
-2.3908e-11
-8.49107e-12
-1.53205e-11
-7.92416e-13
-1.0662e-11
3.93631e-12
-5.24992e-12
9.41154e-12
1.08356e-14
1.40823e-11
3.04147e-12
1.74412e-11
7.20359e-12
2.20678e-11
1.21765e-11
2.54505e-11
1.2804e-11
2.66126e-11
1.5755e-11
2.92277e-11
1.84032e-11
3.06902e-11
1.88412e-11
2.98588e-11
1.97786e-11
2.94283e-11
1.9692e-11
2.90821e-11
1.90902e-11
2.74789e-11
2.23381e-11
2.79169e-11
2.52333e-11
2.7884e-11
3.05163e-11
2.14704e-11
2.16072e-11
-8.14434e-12
-3.26144e-12
-4.99616e-11
-1.19092e-10
-5.67941e-10
-1.28784e-10
3.51334e-10
2.14104e-10
-1.17547e-10
-3.35998e-10
-3.31487e-10
-2.5586e-10
-1.67117e-10
-1.21404e-10
-7.87163e-11
-7.03874e-11
-4.83037e-11
-4.99975e-11
-3.31144e-11
-3.86843e-11
-2.25342e-11
-2.82319e-11
-1.47119e-11
-2.41338e-11
-8.69854e-12
-1.54931e-11
-8.58506e-13
-1.08095e-11
3.82837e-12
-5.35064e-12
9.36919e-12
-6.63318e-14
1.40795e-11
2.9636e-12
1.74093e-11
7.14647e-12
2.20692e-11
1.21486e-11
2.5527e-11
1.2748e-11
2.66067e-11
1.57281e-11
2.9305e-11
1.83878e-11
3.08374e-11
1.88518e-11
2.99675e-11
1.95057e-11
2.92628e-11
1.95704e-11
2.94286e-11
1.91579e-11
2.77667e-11
2.23602e-11
2.8419e-11
2.51553e-11
2.85084e-11
3.03322e-11
2.26611e-11
2.11662e-11
-6.33806e-12
-4.84455e-12
-4.17355e-11
-1.07543e-10
-5.93928e-10
-1.27447e-10
3.67637e-10
1.91623e-10
-1.18343e-10
-3.29146e-10
-3.33445e-10
-2.57647e-10
-1.67289e-10
-1.21058e-10
-7.85153e-11
-7.06322e-11
-4.87316e-11
-5.04648e-11
-3.34976e-11
-3.91021e-11
-2.28944e-11
-2.85091e-11
-1.48448e-11
-2.43969e-11
-8.96784e-12
-1.57063e-11
-9.50414e-13
-1.09786e-11
3.68121e-12
-5.47358e-12
9.30703e-12
-1.55369e-13
1.40664e-11
2.87699e-12
1.73567e-11
7.07684e-12
2.20613e-11
1.21163e-11
2.56147e-11
1.26897e-11
2.65891e-11
1.5687e-11
2.93955e-11
1.83626e-11
3.10224e-11
1.8866e-11
3.0136e-11
1.91614e-11
2.90113e-11
1.9372e-11
2.98683e-11
1.9207e-11
2.81341e-11
2.22946e-11
2.90675e-11
2.49314e-11
2.93423e-11
2.98873e-11
2.42525e-11
2.02591e-11
-3.84026e-12
-7.47629e-12
-3.14606e-11
-9.55738e-11
-6.22654e-10
-1.15364e-10
3.83041e-10
1.51048e-10
-1.20333e-10
-3.15379e-10
-3.33314e-10
-2.59507e-10
-1.67423e-10
-1.20477e-10
-7.81547e-11
-7.08429e-11
-4.92194e-11
-5.10039e-11
-3.39598e-11
-3.95892e-11
-2.33368e-11
-2.88452e-11
-1.50213e-11
-2.4696e-11
-9.30155e-12
-1.59642e-11
-1.07616e-12
-1.11694e-11
3.49051e-12
-5.62187e-12
9.22057e-12
-2.57253e-13
1.4037e-11
2.78167e-12
1.72798e-11
6.99316e-12
2.20412e-11
1.20784e-11
2.57076e-11
1.26307e-11
2.65581e-11
1.56285e-11
2.94968e-11
1.83255e-11
3.12444e-11
1.88837e-11
3.03816e-11
1.87312e-11
2.86559e-11
1.90871e-11
3.04049e-11
1.92254e-11
2.85925e-11
2.21126e-11
2.9877e-11
2.45229e-11
3.04199e-11
2.91195e-11
2.63014e-11
1.87861e-11
-5.39057e-13
-1.1271e-11
-1.91835e-11
-8.34847e-11
-6.54972e-10
-8.95226e-11
4.00164e-10
8.94411e-11
-1.25827e-10
-2.93627e-10
-3.30117e-10
-2.61319e-10
-1.67551e-10
-1.19639e-10
-7.76127e-11
-7.10035e-11
-4.97603e-11
-5.16094e-11
-3.45014e-11
-4.01421e-11
-2.38618e-11
-2.92424e-11
-1.52493e-11
-2.50284e-11
-9.69986e-12
-1.62685e-11
-1.24315e-12
-1.13814e-11
3.25332e-12
-5.79733e-12
9.10546e-12
-3.72076e-13
1.3986e-11
2.67821e-12
1.71755e-11
6.89461e-12
2.20058e-11
1.20341e-11
2.57994e-11
1.25723e-11
2.65129e-11
1.555e-11
2.96061e-11
1.8275e-11
3.15024e-11
1.89048e-11
3.07239e-11
1.81986e-11
2.81824e-11
1.87086e-11
3.1042e-11
1.91999e-11
2.91539e-11
2.17886e-11
3.08611e-11
2.38965e-11
3.17707e-11
2.79671e-11
2.8848e-11
1.66853e-11
3.62319e-12
-1.62333e-11
-5.09553e-12
-7.13056e-11
-6.92077e-10
-4.79909e-11
4.21907e-10
5.28388e-12
-1.37285e-10
-2.63307e-10
-3.22922e-10
-2.62945e-10
-1.67732e-10
-1.18544e-10
-7.68769e-11
-7.11022e-11
-5.03486e-11
-5.22761e-11
-3.51219e-11
-4.07567e-11
-2.44677e-11
-2.97009e-11
-1.55357e-11
-2.53912e-11
-1.01608e-11
-1.66195e-11
-1.45779e-12
-1.16137e-11
2.96867e-12
-6.00076e-12
8.95819e-12
-4.99623e-13
1.39087e-11
2.56707e-12
1.70423e-11
6.78087e-12
2.1953e-11
1.19829e-11
2.5884e-11
1.2515e-11
2.64542e-11
1.54496e-11
2.97201e-11
1.82101e-11
3.17935e-11
1.89294e-11
3.11846e-11
1.75456e-11
2.75821e-11
1.8234e-11
3.17806e-11
1.9117e-11
2.98289e-11
2.13033e-11
3.20272e-11
2.30288e-11
3.34138e-11
2.64068e-11
3.19026e-11
1.39446e-11
8.63533e-12
-2.22584e-11
1.04027e-11
-5.87844e-11
-7.34899e-10
9.77144e-12
4.51195e-10
-1.01357e-10
-1.57134e-10
-2.24431e-10
-3.10903e-10
-2.6421e-10
-1.68046e-10
-1.17217e-10
-7.59456e-11
-7.11322e-11
-5.09801e-11
-5.3e-11
-3.58211e-11
-4.14295e-11
-2.51525e-11
-3.02204e-11
-1.58861e-11
-2.57822e-11
-1.06816e-11
-1.70161e-11
-1.72512e-12
-1.18656e-11
2.6367e-12
-6.23249e-12
8.7758e-12
-6.39657e-13
1.38017e-11
2.44865e-12
1.68799e-11
6.6517e-12
2.18807e-11
1.19243e-11
2.59566e-11
1.24588e-11
2.63832e-11
1.53259e-11
2.9836e-11
1.81296e-11
3.21139e-11
1.89569e-11
3.17833e-11
1.67537e-11
2.68512e-11
1.76663e-11
3.26178e-11
1.89651e-11
3.06234e-11
2.06461e-11
3.33742e-11
2.19104e-11
3.53505e-11
2.44393e-11
3.54376e-11
1.06087e-11
1.44084e-11
-2.91247e-11
2.67898e-11
-4.54881e-11
-7.84021e-10
8.2922e-11
4.90269e-10
-2.28924e-10
-1.87389e-10
-1.77595e-10
-2.93411e-10
-2.64893e-10
-1.68577e-10
-1.15712e-10
-7.48282e-11
-7.10906e-11
-5.16528e-11
-5.37787e-11
-3.65997e-11
-4.21585e-11
-2.59148e-11
-3.08001e-11
-1.63057e-11
-2.62001e-11
-1.1259e-11
-1.74568e-11
-2.0494e-12
-1.2137e-11
2.25836e-12
-6.49243e-12
8.55592e-12
-7.91977e-13
1.36623e-11
2.32296e-12
1.66888e-11
6.5072e-12
2.17876e-11
1.1858e-11
2.60134e-11
1.24029e-11
2.63019e-11
1.51782e-11
2.99502e-11
1.80329e-11
3.2458e-11
1.89831e-11
3.25388e-11
1.58226e-11
2.59919e-11
1.70125e-11
3.35445e-11
1.8736e-11
3.15361e-11
1.98173e-11
3.48898e-11
2.05476e-11
3.75593e-11
2.2097e-11
3.93869e-11
6.78197e-12
2.07843e-11
-3.65193e-11
4.34293e-11
-3.09741e-11
-8.3932e-10
1.69394e-10
5.40901e-10
-3.74558e-10
-2.29735e-10
-1.24027e-10
-2.70004e-10
-2.64688e-10
-1.69383e-10
-1.14101e-10
-7.35443e-11
-7.09765e-11
-5.23637e-11
-5.46097e-11
-3.74582e-11
-4.29419e-11
-2.6753e-11
-3.14387e-11
-1.67983e-11
-2.66445e-11
-1.18895e-11
-1.79396e-11
-2.4337e-12
-1.24286e-11
1.83512e-12
-6.78009e-12
8.29655e-12
-9.56561e-13
1.34895e-11
2.18986e-12
1.64699e-11
6.34772e-12
2.16725e-11
1.17839e-11
2.60516e-11
1.23464e-11
2.62117e-11
1.50072e-11
3.00589e-11
1.79202e-11
3.28177e-11
1.90024e-11
3.34599e-11
1.47721e-11
2.50216e-11
1.62852e-11
3.45449e-11
1.84284e-11
3.25572e-11
1.88293e-11
3.6545e-11
1.89711e-11
3.99942e-11
1.94452e-11
4.36462e-11
2.61866e-12
2.75479e-11
-4.40735e-11
5.97646e-11
-1.49876e-11
-9.00272e-10
2.66367e-10
6.03531e-10
-5.34236e-10
-2.8496e-10
-6.54362e-11
-2.40546e-10
-2.63262e-10
-1.70497e-10
-1.1248e-10
-7.21272e-11
-7.07906e-11
-5.31087e-11
-5.549e-11
-3.83959e-11
-4.37779e-11
-2.76643e-11
-3.21345e-11
-1.73671e-11
-2.71155e-11
-1.25693e-11
-1.84621e-11
-2.88044e-12
-1.27411e-11
1.36907e-12
-7.09446e-12
7.99632e-12
-1.13368e-12
1.32819e-11
2.04905e-12
1.62246e-11
6.17421e-12
2.15345e-11
1.17016e-11
2.60683e-11
1.22883e-11
2.61143e-11
1.48151e-11
3.01577e-11
1.77928e-11
3.318e-11
1.90063e-11
3.45283e-11
1.36667e-11
2.39962e-11
1.55012e-11
3.55936e-11
1.8049e-11
3.36685e-11
1.77079e-11
3.83023e-11
1.72278e-11
4.25872e-11
1.65801e-11
4.80794e-11
-1.68863e-12
3.44482e-11
-5.14057e-11
7.52512e-11
2.54933e-12
-9.65516e-10
3.70489e-10
6.77633e-10
-7.02844e-10
-3.52903e-10
-3.91329e-12
-2.05192e-10
-2.60274e-10
-1.71921e-10
-1.10965e-10
-7.06254e-11
-7.05365e-11
-5.38827e-11
-5.64166e-11
-3.94123e-11
-4.46647e-11
-2.86465e-11
-3.28854e-11
-1.80135e-11
-2.76138e-11