/*--------------------------------*- C++ -*----------------------------------*\
| =========                 |                                                 |
| \\      /  F ield         | OpenFOAM: The Open Source CFD Toolbox           |
|  \\    /   O peration     | Version:  2312                                  |
|   \\  /    A nd           | Website:  www.openfoam.com                      |
|    \\/     M anipulation  |                                                 |
\*---------------------------------------------------------------------------*/
FoamFile
{
    version     2.0;
    format      ascii;
    arch        "LSB;label=32;scalar=64";
    class       volScalarField;
    location    "520";
    object      pMean;
}
// * * * * * * * * * * * * * * * * * * * * * * * * * * * * * * * * * * * * * //

dimensions      [0 2 -2 0 0 0 0];

internalField   nonuniform List<scalar> 
144000
(
9.64795e-10
4.49541e-10
-5.31445e-10
-9.46942e-10
-7.81676e-10
-5.20588e-10
-2.8306e-10
-1.54672e-10
-4.53389e-11
-1.54501e-11
3.2959e-11
2.82099e-11
5.96378e-11
4.33364e-11
7.08051e-11
5.12452e-11
7.41666e-11
4.69439e-11
7.17561e-11
4.72461e-11
7.27766e-11
4.36183e-11
7.01367e-11
4.15775e-11
6.99927e-11
4.05963e-11
6.92881e-11
3.64413e-11
6.66638e-11
3.43352e-11
6.69618e-11
3.43359e-11
6.61189e-11
2.81778e-11
6.14378e-11
2.51439e-11
6.0063e-11
2.29779e-11
5.75088e-11
1.76282e-11
5.20094e-11
1.44801e-11
5.01741e-11
9.29198e-12
4.36281e-11
2.42145e-12
3.64353e-11
2.3848e-12
3.37587e-11
5.71981e-12
3.20292e-11
1.86853e-11
2.70155e-11
2.85094e-11
-2.34863e-12
4.33478e-11
-8.32421e-12
7.80237e-11
-1.32439e-09
-3.15298e-10
1.00349e-09
4.73214e-10
-5.41358e-10
-9.54781e-10
-7.84091e-10
-5.20693e-10
-2.83285e-10
-1.54962e-10
-4.58826e-11
-1.59246e-11
3.24078e-11
2.7854e-11
5.92112e-11
4.30898e-11
7.04754e-11
5.11138e-11
7.38968e-11
4.68191e-11
7.15086e-11
4.72062e-11
7.257e-11
4.35847e-11
6.99384e-11
4.15972e-11
6.98184e-11
4.06426e-11
6.91194e-11
3.64891e-11
6.64932e-11
3.44142e-11
6.68061e-11
3.44459e-11
6.59597e-11
2.82706e-11
6.12649e-11
2.5283e-11
5.99031e-11
2.31348e-11
5.73452e-11
1.77742e-11
5.17571e-11
1.45473e-11
4.9896e-11
9.51427e-12
4.34515e-11
2.68913e-12
3.62439e-11
2.73698e-12
3.35946e-11
6.09935e-12
3.19e-11
1.91427e-11
2.69742e-11
2.88944e-11
-2.36751e-12
4.31129e-11
-4.06442e-12
9.24391e-11
-1.34802e-09
-3.47596e-10
1.05596e-09
4.78973e-10
-5.57291e-10
-9.57226e-10
-7.84425e-10
-5.20054e-10
-2.82929e-10
-1.55093e-10
-4.62033e-11
-1.66056e-11
3.18102e-11
2.72016e-11
5.87745e-11
4.25544e-11
7.0148e-11
5.07412e-11
7.37253e-11
4.64582e-11
7.13198e-11
4.69396e-11
7.24904e-11
4.33331e-11
6.98573e-11
4.14055e-11
6.97949e-11
4.04818e-11
6.91238e-11
3.63214e-11
6.64861e-11
3.42788e-11
6.683e-11
3.43497e-11
6.60238e-11
2.81398e-11
6.12842e-11
2.52018e-11
5.99667e-11
2.30721e-11
5.74236e-11
1.77121e-11
5.16973e-11
1.43086e-11
4.978e-11
9.45417e-12
4.35663e-11
2.75942e-12
3.63083e-11
2.89007e-12
3.37297e-11
6.26965e-12
3.20318e-11
1.9359e-11
2.72834e-11
2.90081e-11
-1.8064e-12
4.08647e-11
2.1564e-13
1.16502e-10
-1.38925e-09
-3.69536e-10
1.11087e-09
4.46938e-10
-5.74677e-10
-9.48029e-10
-7.82063e-10
-5.18715e-10
-2.81839e-10
-1.54593e-10
-4.61151e-11
-1.72154e-11
3.11126e-11
2.63757e-11
5.82019e-11
4.18691e-11
6.9685e-11
5.02574e-11
7.35068e-11
4.59901e-11
7.10212e-11
4.6582e-11
7.23785e-11
4.30078e-11
6.97144e-11
4.11525e-11
6.97399e-11
4.02824e-11
6.91276e-11
3.61112e-11
6.64517e-11
3.41037e-11
6.68419e-11
3.42334e-11
6.6122e-11
2.79824e-11
6.12852e-11
2.50923e-11
6.00464e-11
2.29979e-11
5.75419e-11
1.76656e-11
5.1619e-11
1.39957e-11
4.95753e-11
9.26559e-12
4.3755e-11
2.83276e-12
3.64163e-11
3.00658e-12
3.40014e-11
6.33439e-12
3.2366e-11
1.93054e-11
2.8188e-11
2.83249e-11
1.48778e-13
3.49325e-11
1.00225e-11
1.38877e-10
-1.44249e-09
-3.60474e-10
1.15913e-09
3.58826e-10
-5.90635e-10
-9.17163e-10
-7.74903e-10
-5.17198e-10
-2.80378e-10
-1.53405e-10
-4.55573e-11
-1.76967e-11
3.02821e-11
2.53932e-11
5.74431e-11
4.10343e-11
6.9032e-11
4.96721e-11
7.31884e-11
4.54336e-11
7.05602e-11
4.61462e-11
7.21834e-11
4.26371e-11
6.94516e-11
4.08611e-11
6.96029e-11
4.00728e-11
6.90753e-11
3.58961e-11
6.63298e-11
3.39203e-11
6.67843e-11
3.41409e-11
6.61979e-11
2.78466e-11
6.12039e-11
2.49955e-11
6.00848e-11
2.29575e-11
5.76465e-11
1.7705e-11
5.14682e-11
1.37256e-11
4.91663e-11
8.94696e-12
4.39339e-11
2.98028e-12
3.65011e-11
3.09521e-12
3.4364e-11
6.26215e-12
3.29341e-11
1.88383e-11
2.98639e-11
2.64601e-11
4.08985e-12
2.47442e-11
2.70744e-11
1.53898e-10
-1.50454e-09
-3.04034e-10
1.20188e-09
2.04409e-10
-6.07354e-10
-8.59668e-10
-7.60566e-10
-5.16124e-10
-2.79054e-10
-1.51686e-10
-4.46087e-11
-1.80839e-11
2.92779e-11
2.42268e-11
5.64753e-11
4.00383e-11
6.81778e-11
4.89691e-11
7.27575e-11
4.48014e-11
6.99353e-11
4.56315e-11
7.1894e-11
4.22296e-11
6.9066e-11
4.053e-11
6.93769e-11
3.98572e-11
6.89579e-11
3.56842e-11
6.61111e-11
3.37334e-11
6.66498e-11
3.4074e-11
6.62351e-11
2.77431e-11
6.10299e-11
2.49096e-11
6.0069e-11
2.2957e-11
5.7727e-11
1.78599e-11
5.12451e-11
1.35245e-11
4.84813e-11
8.44568e-12
4.4067e-11
3.20582e-12
3.65651e-11
3.12538e-12
3.48366e-11
5.98241e-12
3.38099e-11
1.77797e-11
3.25224e-11
2.30668e-11
1.05477e-11
1.00047e-11
5.17363e-11
1.60028e-10
-1.57746e-09
-1.92047e-10
1.24558e-09
-1.80399e-11
-6.30686e-10
-7.73895e-10
-7.36657e-10
-5.15662e-10
-2.7836e-10
-1.49611e-10
-4.33378e-11
-1.84412e-11
2.80445e-11
2.28309e-11
5.52629e-11
3.88669e-11
6.71105e-11
4.81355e-11
7.22008e-11
4.41009e-11
6.91525e-11
4.50393e-11
7.1507e-11
4.17988e-11
6.85611e-11
4.01649e-11
6.90624e-11
3.96435e-11
6.87687e-11
3.54876e-11
6.57967e-11
3.35505e-11
6.64353e-11
3.40375e-11
6.62252e-11
2.76847e-11
6.07649e-11
2.48385e-11
5.99957e-11
2.29999e-11
5.7786e-11
1.81424e-11
5.10075e-11
1.34111e-11
4.74174e-11
7.69917e-12
4.41594e-11
3.50611e-12
3.66249e-11
3.04401e-12
3.54462e-11
5.41316e-12
3.50833e-11
1.59908e-11
3.63026e-11
1.79372e-11
1.96553e-11
-8.77711e-12
8.26755e-11
1.58617e-10
-1.6626e-09
-2.49161e-11
1.29639e-09
-2.99755e-10
-6.66203e-10
-6.62011e-10
-7.01345e-10
-5.15665e-10
-2.78702e-10
-1.47356e-10
-4.18033e-11
-1.88096e-11
2.6545e-11
2.11634e-11
5.3762e-11
3.74989e-11
6.58067e-11
4.71523e-11
7.14883e-11
4.33312e-11
6.82125e-11
4.43683e-11
7.10085e-11
4.13512e-11
6.7939e-11
3.97722e-11
6.86564e-11
3.94384e-11
6.85033e-11
3.53175e-11
6.53891e-11
3.33809e-11
6.61403e-11
3.4039e-11
6.61578e-11
2.76812e-11
6.04129e-11
2.47829e-11
5.98669e-11
2.30826e-11
5.78385e-11
1.85535e-11
5.08611e-11
1.33578e-11
4.58282e-11
6.6389e-12
4.42221e-11
3.86347e-12
3.67111e-11
2.80504e-12
3.62251e-11
4.49254e-12
3.68092e-11
1.34013e-11
4.11982e-11
1.12099e-11
3.10465e-11
-3.02249e-11
1.16804e-10
1.53134e-10
-1.75851e-09
1.85826e-10
1.35959e-09
-6.24229e-10
-7.18579e-10
-5.29664e-10
-6.53591e-10
-5.15597e-10
-2.80423e-10
-1.45133e-10
-4.00761e-11
-1.92121e-11
2.47409e-11
1.92076e-11
5.19522e-11
3.59173e-11
6.42518e-11
4.60014e-11
7.05892e-11
4.24854e-11
6.71103e-11
4.36149e-11
7.03794e-11
4.08855e-11
6.71969e-11
3.93542e-11
6.81526e-11
3.92432e-11
6.81535e-11
3.51804e-11
6.48893e-11
3.32315e-11
6.57658e-11
3.40818e-11
6.60256e-11
2.77378e-11
5.99847e-11
2.47427e-11
5.96884e-11
2.31912e-11
5.79121e-11
1.90774e-11
5.0976e-11
1.33184e-11
4.35101e-11
5.20868e-12
4.42863e-11
4.25837e-12
3.68546e-11
2.37789e-12
3.71865e-11
3.21149e-12
3.89844e-11
1.00682e-11
4.70259e-11
3.28251e-12
4.38938e-11
-5.24587e-11
1.50519e-10
1.47643e-10
-1.8617e-09
4.21765e-10
1.43667e-09
-9.71459e-10
-7.90285e-10
-3.84687e-10
-5.93436e-10
-5.14721e-10
-2.83721e-10
-1.43174e-10
-3.82179e-11
-1.96523e-11
2.26448e-11
1.69696e-11
4.98284e-11
3.41229e-11
6.24433e-11
4.4682e-11
6.94841e-11
4.15561e-11
6.58483e-11
4.27767e-11
6.96052e-11
4.03972e-11
6.63346e-11
3.89094e-11
6.75445e-11
3.90595e-11
6.771e-11
3.50722e-11
6.42991e-11
3.31026e-11
6.53118e-11
3.41659e-11
6.58203e-11
2.78543e-11
5.94885e-11
2.47146e-11
5.94662e-11
2.33134e-11
5.80317e-11
1.96935e-11
5.15661e-11
1.3197e-11
4.02119e-11
3.36693e-12
4.43892e-11
4.6692e-12
3.70804e-11
1.75678e-12
3.83205e-11
1.60211e-12
4.1536e-11
6.17395e-12
5.34415e-11
-5.1944e-12
5.71136e-11
-7.34416e-11
1.80509e-10
1.45268e-10
-1.966e-09
6.64464e-10
1.5254e-09
-1.31882e-09
-8.81356e-10
-2.36044e-10
-5.21982e-10
-5.12157e-10
-2.88626e-10
-1.41727e-10
-3.63365e-11
-2.01235e-11
2.02775e-11
1.44673e-11
4.73992e-11
3.21254e-11
6.039e-11
4.31951e-11
6.81653e-11
4.05432e-11
6.44292e-11
4.18555e-11
6.86779e-11
3.9881e-11
6.53527e-11
3.84372e-11
6.68272e-11
3.88811e-11
6.71672e-11
3.49908e-11
6.36229e-11
3.29966e-11
6.47773e-11
3.4288e-11
6.55367e-11
2.80239e-11
5.89349e-11
2.46991e-11
5.92019e-11
2.34288e-11
5.82347e-11
2.03799e-11
5.29004e-11
1.27721e-11
3.56315e-11
1.09951e-12
4.4563e-11
5.0841e-12
3.73849e-11
9.66078e-13
3.95754e-11
-2.54769e-13
4.43148e-11
1.98165e-12
6.0002e-11
-1.34986e-11
6.95783e-11
-9.1391e-11
2.04331e-10
1.47845e-10
-2.06379e-09
8.9593e-10
1.62062e-09
-1.64745e-09
-9.88893e-10
-9.20675e-11
-4.41227e-10
-5.07022e-10
-2.94996e-10
-1.41041e-10
-3.45444e-11
-2.06221e-11
1.7671e-11
1.17267e-11
4.46788e-11
2.99395e-11
5.81005e-11
4.15508e-11
6.66301e-11
3.94474e-11
6.28608e-11
4.08573e-11
6.75923e-11
3.9332e-11
6.42544e-11
3.79369e-11
6.59977e-11
3.87056e-11
6.65217e-11
3.49316e-11
6.28643e-11
3.29116e-11
6.41621e-11
3.44425e-11
6.51752e-11
2.82407e-11
5.8328e-11
2.46948e-11
5.88978e-11
2.35168e-11
5.85529e-11
2.10941e-11
5.54392e-11
1.18394e-11
2.93345e-11
-1.5565e-12
4.48282e-11
5.48513e-12
3.77398e-11
5.89632e-14
4.0893e-11
-2.24197e-12
4.71276e-11
-2.19272e-12
6.6242e-11
-2.09045e-11
8.03094e-11
-1.04965e-10
2.20577e-10
1.55942e-10
-2.14788e-09
1.10145e-09
1.7159e-09
-1.94155e-09
-1.10812e-09
3.98677e-11
-3.53799e-10
-4.98486e-10
-3.02478e-10
-1.41331e-10
-3.29916e-11
-2.11482e-11
1.4866e-11
8.78079e-12
4.16903e-11
2.75799e-11
5.55926e-11
3.97578e-11
6.4884e-11
3.82723e-11
6.11554e-11
3.97895e-11
6.63491e-11
3.87475e-11
6.30459e-11
3.74113e-11
6.50581e-11
3.85282e-11
6.57763e-11
3.48893e-11
6.20274e-11
3.28454e-11
6.34669e-11
3.46243e-11
6.47318e-11
2.84991e-11
5.76728e-11
2.47038e-11
5.8549e-11
2.35711e-11
5.89823e-11
2.18336e-11
5.96965e-11
1.01518e-11
2.08829e-11
-4.46302e-12
4.5208e-11
5.87654e-12
3.81108e-11
-9.01404e-13
4.21527e-11
-4.20063e-12
4.97661e-11
-6.02783e-12
7.17177e-11
-2.68301e-11
8.85891e-11
-1.13395e-10
2.28877e-10
1.68754e-10
-2.21232e-09
1.27089e-09
1.80446e-09
-2.19031e-09
-1.23331e-09
1.54141e-10
-2.62732e-10
-4.85898e-10
-3.10589e-10
-1.42754e-10
-3.18292e-11
-2.17107e-11
1.19058e-11
5.66815e-12
3.84586e-11
2.5071e-11
5.28881e-11
3.7835e-11
6.29367e-11
3.70244e-11
5.93272e-11
3.86602e-11
6.49524e-11
3.81264e-11
6.17356e-11
3.6864e-11
6.40116e-11
3.83456e-11
6.49335e-11
3.4859e-11
6.11176e-11
3.27971e-11
6.26948e-11
3.48288e-11
6.42033e-11
2.87953e-11
5.69676e-11
2.47409e-11
5.81328e-11
2.36226e-11
5.94318e-11
2.26823e-11
6.60236e-11
6.88529e-12
9.9209e-12
-7.36422e-12
4.5755e-11
6.3064e-12
3.84768e-11
-1.82746e-12
4.32643e-11
-5.97246e-12
5.20314e-11
-9.2262e-12
7.6072e-11
-3.08638e-11
9.40102e-11
-1.16466e-10
2.29776e-10
1.84661e-10
-2.25294e-09
1.39895e-09
1.87953e-09
-2.3869e-09
-1.35806e-09
2.46922e-10
-1.71255e-10
-4.68884e-10
-3.1877e-10
-1.45406e-10
-3.12221e-11
-2.23332e-11
8.83354e-12
2.42637e-12
3.50101e-11
2.24309e-11
5.00064e-11
3.57977e-11
6.08012e-11
3.57087e-11
5.73888e-11
3.74781e-11
6.34112e-11
3.74673e-11
6.03322e-11
3.62976e-11
6.28633e-11
3.81547e-11
6.39977e-11
3.48373e-11
6.01417e-11
3.27662e-11
6.1849e-11
3.50527e-11
6.35893e-11
2.91287e-11
5.62094e-11
2.4821e-11
5.76309e-11
2.37028e-11
5.98129e-11
2.35534e-11
7.56987e-11
6.41288e-13
-4.70941e-12
-1.03168e-11
4.63469e-11
6.77657e-12
3.87981e-11
-2.62372e-12
4.41315e-11
-7.41539e-12
5.375e-11
-1.15646e-11
7.90603e-11
-3.27795e-11
9.64598e-11
-1.14424e-10
2.24291e-10
2.01814e-10
-2.26711e-09
1.48366e-09
1.93517e-09
-2.52832e-09
-1.47602e-09
3.16156e-10
-8.25646e-11
-4.47379e-10
-3.2643e-10
-1.49317e-10
-3.13395e-11
-2.30548e-11
5.6863e-12
-9.08666e-13
3.13708e-11
1.96745e-11
4.69666e-11
3.3661e-11
5.84939e-11
3.433e-11
5.53527e-11
3.6252e-11
6.1736e-11
3.677e-11
5.88445e-11
3.57149e-11
6.16203e-11
3.7953e-11
6.29749e-11
3.48219e-11
5.91063e-11
3.27522e-11
6.09341e-11
3.52915e-11
6.2893e-11
2.94939e-11
5.54039e-11
2.4941e-11
5.7055e-11
2.37991e-11
6.01385e-11
2.38457e-11
9.15598e-11
-2.31271e-12
-2.3966e-11
-1.35963e-11
4.6442e-11
7.18937e-12
3.89618e-11
-3.23416e-12
4.46502e-11
-8.41715e-12
5.4786e-11
-1.28894e-11
8.05522e-11
-3.25211e-11
9.6084e-11
-1.07843e-10
2.13855e-10
2.18376e-10
-2.25378e-09
1.52605e-09
1.96634e-09
-2.61458e-09
-1.58121e-09
3.61323e-10
4.65408e-13
-4.21604e-10
-3.32985e-10
-1.54444e-10
-3.23381e-11
-2.39267e-11
2.49677e-12
-4.30211e-12
2.75649e-11
1.68157e-11
4.37869e-11
3.14402e-11
5.6032e-11
3.28942e-11
5.32313e-11
3.49893e-11
5.99395e-11
3.6035e-11
5.72801e-11
3.51184e-11
6.02895e-11
3.77383e-11
6.18731e-11
3.48106e-11
5.80181e-11
3.27545e-11
5.99539e-11
3.55441e-11
6.21162e-11
2.98951e-11
5.45374e-11
2.51365e-11
5.63357e-11
2.40912e-11
5.99933e-11
2.407e-11
1.01333e-10
-2.84207e-14
-3.60358e-11
-1.56285e-11
4.60705e-11
7.62703e-12
3.89712e-11
-3.56846e-12
4.47569e-11
-8.88692e-12
5.50528e-11
-1.31211e-11
8.0527e-11
-3.01743e-11
9.32401e-11
-9.74932e-11
2.00011e-10
2.32696e-10
-2.2131e-09
1.52922e-09
1.9698e-09
-2.64868e-09
-1.66882e-09
3.8322e-10
7.53815e-11
-3.92014e-10
-3.37897e-10
-1.60673e-10
-3.4347e-11
-2.50067e-11
-7.06462e-13
-7.72011e-12
2.36178e-11
1.38673e-11
4.04858e-11
2.9148e-11
5.34323e-11
3.1407e-11
5.10368e-11
3.36974e-11
5.80336e-11
3.5263e-11
5.56492e-11
3.45104e-11
5.8881e-11
3.75089e-11
6.06994e-11
3.48015e-11
5.68832e-11
3.27738e-11
5.89122e-11
3.58107e-11
6.12563e-11
3.03423e-11
5.35886e-11
2.54596e-11
5.53688e-11
2.48107e-11
5.88279e-11
2.54449e-11
8.95768e-11
7.66539e-13
-2.44957e-11
-1.42123e-11
4.55539e-11
8.26066e-12
3.8872e-11
-3.52898e-12
4.44243e-11
-8.75993e-12
5.45243e-11
-1.22462e-11
7.90663e-11
-2.59518e-11
8.84114e-11
-8.42556e-11
1.84127e-10
2.43442e-10
-2.14663e-09
1.4977e-09
1.94343e-09
-2.63504e-09
-1.73492e-09
3.83678e-10
1.40224e-10
-3.5931e-10
-3.40726e-10
-1.67825e-10
-3.74662e-11
-2.63595e-11
-3.90338e-12
-1.11319e-11
1.95543e-11
1.0843e-11
3.70793e-11
2.67958e-11
5.07112e-11
2.98731e-11
4.878e-11
3.23822e-11
5.60313e-11
3.44551e-11
5.39594e-11
3.38928e-11
5.74028e-11
3.72632e-11
5.94616e-11
3.47929e-11
5.57082e-11
3.28088e-11
5.78156e-11
3.60872e-11
6.0322e-11
3.08234e-11
5.25769e-11
2.58741e-11
5.42391e-11
2.5768e-11
5.71082e-11
2.68182e-11
7.15874e-11
6.05581e-12
-4.50728e-12
-1.11601e-11
4.44945e-11
8.94966e-12
3.85424e-11
-3.12316e-12
4.36144e-11
-8.03003e-12
5.3208e-11
-1.03284e-11
7.63318e-11
-2.01556e-11
8.21114e-11
-6.90279e-11
1.67437e-10
2.49775e-10
-2.05652e-09
1.4366e-09
1.88669e-09
-2.57894e-09
-1.77686e-09
3.65205e-10
1.93623e-10
-3.24339e-10
-3.41178e-10
-1.757e-10
-4.17652e-11
-2.80576e-11
-7.08712e-12
-1.45135e-11
1.53958e-11
7.75015e-12
3.35799e-11
2.43928e-11
4.78851e-11
2.8297e-11
4.64702e-11
3.10481e-11
5.39444e-11
3.36122e-11
5.22174e-11
3.32665e-11
5.58628e-11
3.70003e-11
5.81673e-11
3.47838e-11
5.4499e-11
3.28585e-11
5.66704e-11
3.63704e-11
5.93223e-11
3.13296e-11
5.15205e-11
2.63447e-11
5.30295e-11
2.67548e-11
5.53235e-11
2.75102e-11
5.97518e-11
1.41418e-11
9.54879e-12
-8.11102e-12
4.28788e-11
9.6458e-12
3.79277e-11
-2.35058e-12
4.2327e-11
-6.71531e-12
5.11664e-11
-7.47257e-12
7.25381e-11
-1.31297e-11
7.48831e-11
-5.26354e-11
1.50965e-10
2.51364e-10
-1.94561e-09
1.35105e-09
1.79969e-09
-2.48605e-09
-1.79286e-09
3.30864e-10
2.34752e-10
-2.88072e-10
-3.39109e-10
-1.84071e-10
-4.72733e-11
-3.01731e-11
-1.02622e-11
-1.78463e-11
1.11616e-11
4.5956e-12
2.99979e-11
2.1946e-11
4.49698e-11
2.6683e-11
4.41146e-11
2.96984e-11
5.17849e-11
3.27345e-11
5.04289e-11
3.26316e-11
5.42685e-11
3.67196e-11
5.68243e-11
3.47728e-11
5.32603e-11
3.29214e-11
5.54813e-11
3.66598e-11
5.82626e-11
3.18637e-11
5.0415e-11
2.68822e-11
5.17218e-11
2.77893e-11
5.34301e-11
2.80867e-11
5.20653e-11
1.8421e-11
1.97364e-11
-4.5269e-12
4.12462e-11
1.04788e-11
3.70651e-11
-1.19142e-12
4.06084e-11
-4.85478e-12
4.84918e-11
-3.81934e-12
6.7929e-11
-5.22143e-12
6.72144e-11
-3.57957e-11
1.35316e-10
2.48369e-10
-1.81666e-09
1.24554e-09
1.68384e-09
-2.36262e-09
-1.78258e-09
2.83948e-10
2.63468e-10
-2.5147e-10
-3.34511e-10
-1.92703e-10
-5.39727e-11
-3.27665e-11
-1.34377e-11
-2.11156e-11
6.87113e-12
1.38695e-12
2.63436e-11
1.94604e-11
4.1979e-11
2.50352e-11
4.17209e-11
2.83343e-11
4.95635e-11
3.18239e-11
4.85999e-11
3.19876e-11
5.26274e-11
3.64201e-11
5.54401e-11
3.47588e-11
5.19972e-11
3.29954e-11
5.42545e-11
3.69513e-11
5.71524e-11
3.24183e-11
4.92714e-11
2.74685e-11
5.03422e-11
2.88313e-11
5.15068e-11
2.87004e-11
4.66613e-11
2.09288e-11
2.7218e-11
-4.84804e-13
3.97122e-11
1.14677e-11
3.59523e-11
3.24719e-13
3.85101e-11
-2.51847e-12
4.52983e-11
4.60275e-13
6.27665e-11
3.23026e-12
5.95425e-11
-1.90746e-11
1.20792e-10
2.41204e-10
-1.67256e-09
1.12444e-09
1.54129e-09
-2.21518e-09
-1.74689e-09
2.27905e-10
2.80286e-10
-2.15423e-10
-3.27521e-10
-2.01377e-10
-6.18026e-11
-3.58843e-11
-1.66276e-11
-2.43123e-11
2.54229e-12
-1.86878e-12
2.26272e-11
1.69383e-11
3.89254e-11
2.33583e-11
3.92963e-11
2.69555e-11
4.72895e-11
3.08818e-11
4.67359e-11
3.1333e-11
5.09466e-11
3.61002e-11
5.40216e-11
3.47408e-11
5.0716e-11
3.30774e-11
5.29984e-11
3.72387e-11
5.60024e-11
3.29841e-11
4.81071e-11
2.80743e-11
4.89364e-11
2.98085e-11
4.96892e-11
2.92642e-11
4.28238e-11
2.2443e-11
3.25752e-11
3.76827e-12
3.82683e-11
1.25947e-11
3.45913e-11
2.14623e-12
3.60962e-11
2.08352e-13
4.17298e-11
5.18767e-12
5.73094e-11
1.19107e-11
5.22343e-11
-2.88742e-12
1.07365e-10
2.30393e-10
-1.51602e-09
9.92101e-10
1.37538e-09
-2.05068e-09
-1.68812e-09
1.66086e-10
2.86382e-10
-1.80653e-10
-3.18373e-10
-2.09925e-10
-7.06969e-11
-3.95691e-11
-1.98559e-11
-2.74395e-11
-1.81589e-12
-5.17056e-12
1.88549e-11
1.43757e-11
3.58162e-11
2.16556e-11
3.68472e-11
2.55583e-11
4.49687e-11
2.99097e-11
4.48416e-11
3.06643e-11
4.92321e-11
3.57568e-11
5.25738e-11
3.47177e-11
4.94225e-11
3.31641e-11
5.17204e-11
3.75156e-11
5.4821e-11
3.3555e-11
4.69354e-11
2.86804e-11
4.75293e-11
3.07e-11
4.80092e-11
2.97483e-11
4.01151e-11
2.34727e-11
3.62341e-11
8.02263e-12
3.69034e-11
1.38559e-11
3.30149e-11
4.21851e-12
3.34508e-11
3.2349e-12
3.794e-11
1.01859e-11
5.18105e-11
2.05541e-11
4.55753e-11
1.25651e-11
9.48054e-11
2.16431e-10
-1.34973e-09
8.52956e-10
1.19049e-09
-1.87486e-09
-1.6095e-09
1.0127e-10
2.83255e-10
-1.47691e-10
-3.07332e-10
-2.18212e-10
-8.05937e-11
-4.38616e-11
-2.31525e-11
-3.05023e-11
-6.2012e-12
-8.51932e-12
1.50263e-11
1.17669e-11
3.26537e-11
1.99318e-11
3.4377e-11
2.41405e-11
4.26035e-11
2.89107e-11
4.29188e-11
2.99792e-11
4.74858e-11
3.53886e-11
5.10995e-11
3.46905e-11
4.81196e-11
3.32529e-11
5.04249e-11
3.77771e-11
5.36145e-11
3.41289e-11
4.57652e-11
2.9274e-11
4.61302e-11
3.15065e-11
4.64571e-11
3.01704e-11
3.8199e-11
2.42921e-11
3.85334e-11
1.21478e-11
3.56147e-11
1.52516e-11
3.12692e-11
6.48008e-12
3.06557e-11
6.46284e-12
3.40756e-11
1.5285e-11
4.64792e-11
2.89586e-11
3.97425e-11
2.72643e-11
8.26686e-11
1.9977e-10
-1.1763e-09
7.10604e-10
9.67137e-10
4.51141e-10
-5.30607e-10
-9.46425e-10
-7.81156e-10
-5.18998e-10
-2.80948e-10
-1.5271e-10
-4.3979e-11
-1.48759e-11
3.29291e-11
2.77748e-11
5.89658e-11
4.25026e-11
6.99141e-11
5.03195e-11
7.33928e-11
4.6357e-11
7.13297e-11
4.68963e-11
7.25591e-11
4.3481e-11
7.00664e-11
4.14905e-11
6.99437e-11
4.04839e-11
6.92725e-11
3.64238e-11
6.67104e-11
3.42877e-11
6.69877e-11
3.42071e-11
6.60947e-11
2.79579e-11
6.14163e-11
2.4908e-11
6.01598e-11
2.27714e-11
5.78219e-11
1.77021e-11
5.28861e-11
1.54774e-11
5.05888e-11
9.78363e-12
4.37478e-11
2.24622e-12
3.60569e-11
2.0227e-12
3.32898e-11
5.31377e-12
3.14799e-11
1.82053e-11
2.65001e-11
2.83106e-11
-2.64117e-12
4.3716e-11
-7.87679e-12
7.70698e-11
-1.32715e-09
-3.16553e-10
1.00589e-09
4.74999e-10
-5.40572e-10
-9.54285e-10
-7.83544e-10
-5.19086e-10
-2.81152e-10
-1.52989e-10
-4.4519e-11
-1.53533e-11
3.23725e-11
2.74114e-11
5.85314e-11
4.22468e-11
6.95752e-11
5.01766e-11
7.3117e-11
4.62274e-11
7.10789e-11
4.68513e-11
7.23518e-11
4.34471e-11
6.98672e-11
4.15081e-11
6.97681e-11
4.05281e-11
6.91063e-11
3.6476e-11
6.65424e-11
3.43699e-11
6.68327e-11
3.43191e-11
6.59353e-11
2.80552e-11
6.12405e-11
2.50523e-11
5.99954e-11
2.29369e-11
5.76541e-11
1.78688e-11
5.26749e-11
1.56138e-11
5.0374e-11
1.00264e-11
4.3572e-11
2.51333e-12
3.58651e-11
2.37228e-12
3.31244e-11
5.69158e-12
3.13471e-11
1.86584e-11
2.64602e-11
2.86952e-11
-2.65337e-12
4.34936e-11
-3.59535e-12
9.15397e-11
-1.3508e-09
-3.49006e-10
1.05851e-09
4.81183e-10
-5.56575e-10
-9.5682e-10
-7.83861e-10
-5.1843e-10
-2.80765e-10
-1.53105e-10
-4.48281e-11
-1.60349e-11
3.17682e-11
2.67484e-11
5.80849e-11
4.16997e-11
6.92364e-11
4.97879e-11
7.29347e-11
4.58585e-11
7.08859e-11
4.65775e-11
7.22707e-11
4.31959e-11
6.97867e-11
4.13138e-11
6.97439e-11
4.03638e-11
6.91138e-11
3.63143e-11
6.65416e-11
3.42383e-11
6.68599e-11
3.42245e-11
6.60008e-11
2.79291e-11
6.12594e-11
2.49751e-11
6.00555e-11
2.28804e-11
5.77313e-11
1.78147e-11
5.26744e-11
1.5463e-11
5.03679e-11
1.00299e-11
4.36926e-11
2.58074e-12
3.59271e-11
2.52325e-12
3.32559e-11
5.86099e-12
3.1477e-11
1.88696e-11
2.67704e-11
2.8808e-11
-2.09335e-12
4.12366e-11
7.23908e-13
1.15845e-10
-1.39211e-09
-3.71474e-10
1.11351e-09
4.49762e-10
-5.74011e-10
-9.47753e-10
-7.81492e-10
-5.17069e-10
-2.79641e-10
-1.52576e-10
-4.47212e-11
-1.66409e-11
3.1065e-11
2.59115e-11
5.75013e-11
4.10011e-11
6.87603e-11
4.92845e-11
7.26997e-11
4.53791e-11
7.05814e-11
4.62107e-11
7.21552e-11
4.28712e-11
6.96455e-11
4.10582e-11
6.96882e-11
4.01595e-11
6.91185e-11
3.61112e-11
6.65153e-11
3.40691e-11
6.68764e-11
3.41109e-11
6.60994e-11
2.77784e-11
6.12583e-11
2.48719e-11
6.01289e-11
2.2813e-11
5.78443e-11
1.77567e-11
5.26754e-11
1.52394e-11
5.03255e-11
9.98347e-12
4.39038e-11
2.64652e-12
3.6037e-11
2.63843e-12
3.35263e-11
5.92236e-12
3.18114e-11
1.88018e-11
2.76824e-11
2.81184e-11
-1.355e-13
3.52869e-11
1.05542e-11
1.38571e-10
-1.44537e-09
-3.63124e-10
1.16159e-09
3.6223e-10
-5.89973e-10
-9.17015e-10
-7.74309e-10
-5.15548e-10
-2.78128e-10
-1.51343e-10
-4.41285e-11
-1.71104e-11
3.02333e-11
2.49205e-11
5.67323e-11
4.01531e-11
6.80943e-11
4.86775e-11
7.23594e-11
4.48078e-11
7.0113e-11
4.57639e-11
7.19534e-11
4.25014e-11
6.93856e-11
4.07651e-11
6.95494e-11
3.99443e-11
6.90633e-11
3.59046e-11
6.64026e-11
3.38954e-11
6.68227e-11
3.40252e-11
6.61719e-11
2.76545e-11
6.11701e-11
2.47886e-11
6.01522e-11
2.27852e-11
5.79324e-11
1.7758e-11
5.26287e-11
1.50142e-11
5.01326e-11
9.92363e-12
4.41337e-11
2.7825e-12
3.61256e-11
2.72713e-12
3.38931e-11
5.84724e-12
3.23837e-11
1.83256e-11
2.93628e-11
2.6241e-11
3.8005e-12
2.50798e-11
2.76233e-11
1.53913e-10
-1.50735e-09
-3.07397e-10
1.20413e-09
2.08245e-10
-6.06658e-10
-8.59639e-10
-7.59942e-10
-5.14453e-10
-2.76749e-10
-1.49567e-10
-4.3141e-11
-1.74802e-11
2.9231e-11
2.3748e-11
5.5757e-11
3.9147e-11
6.72286e-11
4.79544e-11
7.19038e-11
4.41588e-11
6.94789e-11
4.52379e-11
7.16541e-11
4.20946e-11
6.90035e-11
4.04341e-11
6.93208e-11
3.97232e-11
6.89382e-11
3.5702e-11
6.61919e-11
3.37226e-11
6.66894e-11
3.39709e-11
6.61995e-11
2.75706e-11
6.09802e-11
2.47282e-11
6.0109e-11
2.28071e-11
5.79795e-11
1.78427e-11
5.25298e-11
1.47949e-11
4.97325e-11
9.83392e-12
4.43592e-11
2.99168e-12
3.6198e-11
2.76271e-12
3.43743e-11
5.56478e-12
3.32699e-11
1.72537e-11
3.2022e-11
2.2835e-11
1.02508e-11
1.03083e-11
5.22822e-11
1.60358e-10
-1.58009e-09
-1.95915e-10
1.24743e-09
-1.39712e-11
-6.29915e-10
-7.7397e-10
-7.36019e-10
-5.13962e-10
-2.76e-10
-1.47435e-10
-4.1822e-11
-1.78073e-11
2.8007e-11
2.23517e-11
5.45409e-11
3.79689e-11
6.61526e-11
4.71035e-11
7.13215e-11
4.34404e-11
6.86853e-11
4.46346e-11
7.12544e-11
4.16641e-11
6.85021e-11
4.00715e-11
6.90022e-11
3.95056e-11
6.87364e-11
3.55155e-11
6.58823e-11
3.35591e-11
6.64716e-11
3.39546e-11
6.61727e-11
2.75414e-11
6.06873e-11
2.46991e-11
5.99899e-11
2.28895e-11
5.79783e-11
1.80252e-11
5.23973e-11
1.45804e-11
4.90778e-11
9.69827e-12
4.45857e-11
3.26995e-12
3.62732e-11
2.69552e-12
3.49979e-11
4.99652e-12
3.45582e-11
1.5453e-11
3.58031e-11
1.76971e-11
1.93532e-11
-8.51418e-12
8.32152e-11
1.59213e-10
-1.66496e-09
-2.90803e-11
1.29779e-09
-2.95655e-10
-6.65312e-10
-6.62161e-10
-7.00716e-10
-5.13937e-10
-2.76289e-10
-1.45122e-10
-4.02369e-11
-1.81378e-11
2.65209e-11
2.06871e-11
5.30403e-11
3.65987e-11
6.48433e-11
4.61076e-11
7.05845e-11
4.26528e-11
6.77331e-11
4.39529e-11
7.07408e-11
4.12162e-11
6.78824e-11
3.96841e-11
6.85902e-11
3.9299e-11
6.84536e-11
3.53563e-11
6.54748e-11
3.34148e-11
6.61677e-11
3.39848e-11
6.60779e-11
2.75792e-11
6.02922e-11
2.47043e-11
5.9792e-11
2.30363e-11
5.79293e-11
1.83133e-11
5.22686e-11
1.43551e-11
4.81423e-11
9.49561e-12
4.48179e-11
3.5971e-12
3.63807e-11
2.48094e-12
3.57979e-11
4.07966e-12
3.63016e-11
1.2855e-11
4.06991e-11
1.09589e-11
3.07499e-11
-3.0009e-11
1.17341e-10
1.53939e-10
-1.76059e-09
1.81571e-10
1.36059e-09
-6.2032e-10
-7.1759e-10
-5.29853e-10
-6.52979e-10
-5.13844e-10
-2.77962e-10
-1.42841e-10
-3.84529e-11
-1.84976e-11
2.47357e-11
1.87394e-11
5.12349e-11
3.50197e-11
6.32859e-11
4.49492e-11
6.96634e-11
4.17903e-11
6.66181e-11
4.31903e-11
7.00946e-11
4.07498e-11
6.71412e-11
3.92744e-11
6.8079e-11
3.9105e-11
6.80817e-11
3.52311e-11
6.49696e-11
3.32965e-11
6.57779e-11
3.40647e-11
6.59076e-11
2.76899e-11
5.98037e-11
2.47473e-11
5.95149e-11
2.32479e-11
5.78426e-11
1.87031e-11
5.21873e-11
1.40998e-11
4.68997e-11
9.22707e-12
4.50709e-11
3.94529e-12
3.65522e-11
2.08844e-12
3.67877e-11
2.80661e-12
3.84973e-11
9.517e-12
4.65281e-11
3.01839e-12
4.36093e-11
-5.22968e-11
1.51057e-10
1.48569e-10
-1.86355e-09
4.1768e-10
1.4374e-09
-9.67955e-10
-7.89258e-10
-3.84892e-10
-5.92853e-10
-5.1295e-10
-2.81216e-10
-1.40824e-10
-3.6539e-11
-1.88936e-11
2.26623e-11
1.65136e-11
4.91191e-11
3.32328e-11
6.14793e-11
4.36279e-11
6.85398e-11
4.08469e-11
6.53429e-11
4.23445e-11
6.93019e-11
4.02604e-11
6.62776e-11
3.88404e-11
6.74618e-11
3.89258e-11
6.76126e-11
3.5136e-11
6.43688e-11
3.32037e-11
6.53021e-11
3.41937e-11
6.56552e-11
2.78729e-11
5.92304e-11
2.48281e-11
5.9161e-11
2.35205e-11
5.7715e-11
1.91924e-11
5.22017e-11
1.37831e-11
4.5334e-11
8.88672e-12
4.53563e-11
4.28993e-12
3.68118e-11
1.51131e-12
3.79571e-11
1.20983e-12
4.10745e-11
5.62162e-12
5.29478e-11
-5.47301e-12
5.68518e-11
-7.33343e-11
1.81057e-10
1.46241e-10
-1.96772e-09
6.60808e-10
1.52604e-09
-1.31582e-09
-8.80366e-10
-2.36245e-10
-5.21439e-10
-5.10384e-10
-2.86089e-10
-1.39323e-10
-3.46056e-11
-1.9321e-11
2.03198e-11
1.40268e-11
4.67009e-11
3.12475e-11
5.94314e-11
4.2144e-11
6.72066e-11
3.98233e-11
6.3911e-11
4.1418e-11
6.83557e-11
3.97434e-11
6.52917e-11
3.8381e-11
6.67337e-11
3.8755e-11
6.70416e-11
3.50689e-11
6.36759e-11
3.3137e-11
6.47401e-11
3.43675e-11
6.53158e-11
2.81204e-11
5.85832e-11
2.49457e-11
5.87328e-11
2.38466e-11
5.75531e-11
1.97705e-11
5.23552e-11
1.33723e-11
4.3454e-11
8.47439e-12
4.56768e-11
4.6186e-12
3.71557e-11
7.71701e-13
3.92535e-11
-6.29971e-13
4.38815e-11
1.43067e-12
5.95161e-11
-1.37921e-11
6.9349e-11
-9.13326e-11
2.04896e-10
1.48815e-10
-2.06549e-09
8.92845e-10
1.62129e-09
-1.645e-09
-9.87982e-10
-9.22449e-11
-4.40734e-10
-5.05262e-10
-2.92436e-10
-1.38593e-10
-3.27696e-11
-1.97781e-11
1.77388e-11
1.13039e-11
4.39945e-11
2.90775e-11
5.71506e-11
4.05072e-11
6.56615e-11
3.87204e-11
6.23308e-11
4.04167e-11
6.72511e-11
3.91937e-11
6.41872e-11
3.78953e-11
6.58921e-11
3.85895e-11
6.6367e-11
3.50243e-11
6.28958e-11
3.30933e-11
6.40932e-11
3.45784e-11
6.48919e-11
2.84232e-11
5.78693e-11
2.50934e-11
5.82302e-11
2.42145e-11
5.73578e-11
2.04141e-11
5.26883e-11
1.28636e-11
4.12745e-11
8.01247e-12
4.60251e-11
4.92496e-12
3.75618e-11
-7.69555e-14
4.06163e-11
-2.59645e-12
4.67242e-11
-2.74077e-12
6.57665e-11
-2.1212e-11
8.01176e-11
-1.04944e-10
2.21155e-10
1.56881e-10
-2.14962e-09
1.09897e-09
1.71675e-09
-1.93965e-09
-1.10734e-09
3.97291e-11
-3.53359e-10
-4.96758e-10
-2.9991e-10
-1.3885e-10
-3.11808e-11
-2.02667e-11
1.49589e-11
8.37727e-12
4.10207e-11
2.67372e-11
5.46543e-11
3.8726e-11
6.39095e-11
3.75423e-11
6.06147e-11
3.93482e-11
6.59899e-11
3.86089e-11
6.29706e-11
3.73848e-11
6.49398e-11
3.84239e-11
6.55919e-11
3.49967e-11
6.20346e-11
3.30684e-11
6.33642e-11
3.48185e-11
6.43833e-11
2.87717e-11
5.70991e-11
2.52674e-11
5.76575e-11
2.46151e-11
5.71214e-11
2.10999e-11
5.32132e-11
1.2274e-11
3.88397e-11
7.52993e-12
4.6374e-11
5.21583e-12
3.79955e-11
-9.72926e-13
4.19258e-11
-4.53248e-12
4.93943e-11
-6.57024e-12
7.12538e-11
-2.71499e-11
8.84366e-11
-1.13401e-10
2.29471e-10
1.69645e-10
-2.2142e-09
1.26903e-09
1.80562e-09
-2.18895e-09
-1.23272e-09
1.5405e-10
-2.62334e-10
-4.84214e-10
-3.08025e-10
-1.40252e-10
-2.99915e-11
-2.07971e-11
1.20215e-11
5.28369e-12
3.7804e-11
2.42493e-11
5.19623e-11
3.68178e-11
6.19602e-11
3.62946e-11
5.87777e-11
3.82204e-11
6.45767e-11
3.79879e-11
6.16509e-11
3.68523e-11
6.38802e-11
3.82537e-11
6.47207e-11
3.49802e-11
6.10991e-11
3.30594e-11
6.25589e-11
3.50799e-11
6.37926e-11
2.91547e-11
5.62824e-11
2.54661e-11
5.70167e-11
2.50415e-11
5.68313e-11
2.18026e-11
5.39006e-11
1.16717e-11
3.62489e-11
7.06504e-12
4.66832e-11
5.51158e-12
3.84137e-11
-1.84004e-12
4.30841e-11
-6.28201e-12
5.1691e-11
-9.76091e-12
7.56219e-11
-3.11943e-11
9.38966e-11
-1.16486e-10
2.30389e-10
1.85487e-10
-2.25502e-09
1.39771e-09
1.88106e-09
-2.38602e-09
-1.35767e-09
2.4689e-10
-1.70892e-10
-4.67256e-10
-3.16227e-10
-1.42895e-10
-2.93678e-11
-2.13937e-11
8.96962e-12
2.06023e-12
3.43703e-11
2.16299e-11
4.90948e-11
3.47975e-11
5.98258e-11
3.4982e-11
5.68325e-11
3.7042e-11
6.30209e-11
3.73292e-11
6.02373e-11
3.62998e-11
6.27196e-11
3.80752e-11
6.37587e-11
3.49702e-11
6.00979e-11
3.30639e-11
6.16835e-11
3.53552e-11
6.31241e-11
2.95644e-11
5.54268e-11
2.56884e-11
5.63102e-11
2.54885e-11
5.64677e-11
2.24899e-11
5.46336e-11
1.11885e-11
3.37065e-11
6.66439e-12
4.68974e-11
5.83596e-12
3.87651e-11
-2.58953e-12
4.39916e-11
-7.70521e-12
5.34379e-11
-1.2091e-11
7.86237e-11
-3.31181e-11
9.63806e-11
-1.14446e-10
2.24924e-10
2.02571e-10
-2.26943e-09
1.48297e-09
1.93707e-09
-2.52783e-09
-1.47581e-09