/*--------------------------------*- C++ -*----------------------------------*\
| =========                 |                                                 |
| \\      /  F ield         | OpenFOAM: The Open Source CFD Toolbox           |
|  \\    /   O peration     | Version:  2312                                  |
|   \\  /    A nd           | Website:  www.openfoam.com                      |
|    \\/     M anipulation  |                                                 |
\*---------------------------------------------------------------------------*/
FoamFile
{
    version     2.0;
    format      ascii;
    arch        "LSB;label=32;scalar=64";
    class       volScalarField;
    location    "200";
    object      nut;
}
// * * * * * * * * * * * * * * * * * * * * * * * * * * * * * * * * * * * * * //

dimensions      [0 2 -1 0 0 0 0];

internalField   nonuniform List<scalar> 
144000
(
1.35394e-25
1.28472e-25
8.82698e-28
1.86582e-27
3.26457e-27
1.71427e-31
5.5264e-28
2.38572e-28
4.60457e-28
2.52e-28
3.95215e-28
2.86619e-28
3.86206e-28
2.84406e-28
3.37512e-28
3.16055e-28
5.02891e-28
5.20935e-28
5.45816e-28
5.11733e-28
5.65734e-28
5.51873e-28
5.90777e-28
6.61707e-28
7.31406e-28
7.72821e-28
7.89468e-28
7.2169e-28
6.4279e-28
6.31155e-28
6.58136e-28
7.41528e-28
8.9597e-28
9.69952e-28
1.01187e-27
1.02763e-27
9.37045e-28
8.16287e-28
7.41128e-28
6.90968e-28
7.14317e-28
7.33347e-28
9.85463e-28
7.33471e-28
6.3572e-28
5.40171e-28
3.61149e-28
2.65963e-28
1.73727e-28
1.16609e-28
2.01233e-29
5.02574e-31
2.46273e-29
4.06703e-28
2.05842e-27
1.50412e-27
1.38186e-25
3.82641e-24
4.99921e-24
2.63511e-25
5.84821e-24
1.6189e-25
1.74516e-25
4.21515e-26
5.54127e-27
4.28444e-30
9.1793e-28
6.94518e-28
6.69489e-28
8.84222e-28
6.083e-28
8.73591e-28
6.65869e-28
8.24017e-28
6.43301e-28
8.00483e-28
9.36793e-28
1.25767e-27
1.08808e-27
1.15358e-27
1.14896e-27
1.28458e-27
1.2224e-27
1.45196e-27
1.49343e-27
1.66159e-27
1.6156e-27
1.60952e-27
1.36619e-27
1.39682e-27
1.38493e-27
1.55852e-27
1.78169e-27
2.04213e-27
2.02716e-27
2.07328e-27
1.90779e-27
1.68946e-27
1.55848e-27
1.51364e-27
1.50514e-27
1.63336e-27
1.93214e-27
1.2994e-27
1.32234e-27
1.01896e-27
7.21609e-28
4.38219e-28
3.20168e-28
1.58962e-28
3.16002e-29
1.17619e-31
8.01986e-29
1.37599e-27
4.88514e-27
6.05442e-27
2.31202e-25
1.19266e-23
2.74283e-23
4.19155e-25
1.26916e-23
3.97057e-24
8.11162e-25
2.34758e-25
1.30964e-26
7.40271e-31
1.00385e-27
1.20032e-27
9.03974e-28
1.24786e-27
9.48668e-28
1.18493e-27
1.02917e-27
1.08775e-27
9.71951e-28
1.10796e-27
1.39088e-27
1.71039e-27
1.61012e-27
1.62668e-27
1.68529e-27
1.78852e-27
1.78101e-27
2.04948e-27
2.14627e-27
2.37773e-27
2.3194e-27
2.28837e-27
1.96508e-27
1.99439e-27
1.96763e-27
2.25926e-27
2.52421e-27
2.89394e-27
2.88329e-27
2.98379e-27
2.72846e-27
2.48212e-27
2.27142e-27
2.23719e-27
2.25713e-27
2.37315e-27
2.67076e-27
1.85464e-27
1.98016e-27
1.43688e-27
1.04904e-27
6.47077e-28
4.6038e-28
2.37847e-28
4.30221e-29
7.18474e-31
1.09825e-28
1.4755e-27
6.072e-27
7.26983e-27
6.10898e-25
1.96781e-23
3.15898e-23
6.55184e-24
3.31285e-23
2.66329e-23
2.05394e-24
1.47916e-24
1.42492e-26
1.16071e-31
1.10388e-27
1.23104e-27
9.63799e-28
1.26019e-27
1.01941e-27
1.19243e-27
1.08411e-27
1.08768e-27
1.0178e-27
1.12545e-27
1.46495e-27
1.79216e-27
1.69562e-27
1.67678e-27
1.75399e-27
1.84055e-27
1.85583e-27
2.12188e-27
2.25075e-27
2.4761e-27
2.40019e-27
2.36272e-27
1.99838e-27
2.03197e-27
2.02e-27
2.34487e-27
2.63085e-27
3.07125e-27
3.03435e-27
3.16609e-27
2.8673e-27
2.61534e-27
2.37456e-27
2.35349e-27
2.35184e-27
2.57425e-27
2.65567e-27
1.99592e-27
2.13368e-27
1.49591e-27
1.13539e-27
6.82176e-28
5.2872e-28
2.77834e-28
6.5145e-29
3.78181e-30
7.99553e-29
1.2923e-27
4.5241e-27
5.98874e-27
8.72016e-25
3.25371e-23
4.26709e-23
3.93694e-23
4.77442e-23
9.72831e-23
2.40306e-24
4.89383e-24
3.1519e-26
2.02319e-30
1.25215e-27
1.35397e-27
9.84935e-28
1.39042e-27
1.01659e-27
1.30108e-27
1.10185e-27
1.18703e-27
1.03211e-27
1.21673e-27
1.54256e-27
1.97965e-27
1.76852e-27
1.79837e-27
1.83491e-27
1.96439e-27
1.94048e-27
2.26093e-27
2.38564e-27
2.64321e-27
2.52694e-27
2.4943e-27
2.05428e-27
2.12332e-27
2.1061e-27
2.49473e-27
2.81875e-27
3.35163e-27
3.25141e-27
3.43951e-27
3.05724e-27
2.80357e-27
2.48352e-27
2.46605e-27
2.41684e-27
2.60814e-27
2.7085e-27
2.28441e-27
2.28612e-27
1.62738e-27
1.22695e-27
7.6481e-28
6.33792e-28
3.66152e-28
1.12059e-28
2.0322e-29
6.86209e-29
1.10914e-27
3.00164e-27
4.52768e-27
1.35478e-24
5.31315e-23
5.2834e-23
1.34142e-22
4.96533e-23
2.38333e-22
1.79528e-24
1.11675e-23
8.2993e-26
9.55435e-30
1.63743e-27
1.50053e-27
1.06761e-27
1.57198e-27
1.04531e-27
1.46134e-27
1.14937e-27
1.32617e-27
1.07544e-27
1.36089e-27
1.687e-27
2.25571e-27
1.89854e-27
2.0157e-27
1.97844e-27
2.18124e-27
2.08783e-27
2.5095e-27
2.61158e-27
2.94023e-27
2.75222e-27
2.73421e-27
2.18653e-27
2.30987e-27
2.27822e-27
2.77396e-27
3.14481e-27
3.79223e-27
3.61095e-27
3.87024e-27
3.36308e-27
3.09583e-27
2.6419e-27
2.60608e-27
2.47134e-27
2.8654e-27
2.97925e-27
2.73753e-27
2.54441e-27
1.87985e-27
1.38035e-27
9.4353e-28
8.19412e-28
5.55826e-28
2.26389e-28
9.7274e-29
1.10816e-28
8.3713e-28
1.91469e-27
2.7104e-27
1.92961e-24
7.93114e-23
6.77106e-23
3.05533e-22
4.83058e-23
4.55601e-22
9.82959e-25
2.03282e-23
2.12736e-25
1.85436e-29
2.55845e-27
1.55729e-27
1.2239e-27
1.75168e-27
1.12394e-27
1.61658e-27
1.24217e-27
1.46635e-27
1.15167e-27
1.53609e-27
1.89387e-27
2.58316e-27
2.07875e-27
2.29138e-27
2.17287e-27
2.45439e-27
2.27682e-27
2.83479e-27
2.90334e-27
3.33526e-27
3.04377e-27
3.0427e-27
2.35804e-27
2.55944e-27
2.50391e-27
3.15205e-27
3.56663e-27
4.35059e-27
4.06413e-27
4.41458e-27
3.7457e-27
3.46205e-27
2.83115e-27
2.78382e-27
2.56236e-27
3.06797e-27
3.36702e-27
3.39352e-27
2.93106e-27
2.24974e-27
1.62019e-27
1.25522e-27
1.15362e-27
9.52067e-28
5.26532e-28
4.01331e-28
3.79982e-28
1.09661e-27
2.56472e-27
4.75781e-27
2.31244e-24
1.09918e-22
1.08062e-22
5.37869e-22
4.46837e-23
7.38947e-22
5.43435e-25
3.15964e-23
5.11286e-25
6.21958e-30
4.24323e-27
1.53657e-27
1.41107e-27
1.96524e-27
1.23088e-27
1.77417e-27
1.37239e-27
1.61113e-27
1.25804e-27
1.73382e-27
2.15915e-27
2.9546e-27
2.3039e-27
2.60595e-27
2.41213e-27
2.76792e-27
2.50345e-27
3.22207e-27
3.25541e-27
3.80635e-27
3.3789e-27
3.40439e-27
2.55833e-27
2.85498e-27
2.76927e-27
3.60675e-27
4.06105e-27
5.02092e-27
4.60078e-27
5.07353e-27
4.20797e-27
3.91073e-27
3.05066e-27
2.98523e-27
2.65813e-27
3.42712e-27
3.85724e-27
4.26534e-27
3.48783e-27
2.78245e-27
2.00096e-27
1.7953e-27
1.77815e-27
1.79511e-27
1.3155e-27
1.48314e-27
1.65694e-27
3.34073e-27
1.16326e-26
2.99483e-26
2.57933e-24
1.46345e-22
1.86818e-22
7.94807e-22
5.12757e-23
1.05693e-21
7.32918e-25
4.31908e-23
1.11266e-24
2.32827e-29
7.39172e-27
1.3907e-27
1.62037e-27
2.25214e-27
1.34939e-27
1.95517e-27
1.53652e-27
1.77251e-27
1.39081e-27
1.9623e-27
2.49711e-27
3.37549e-27
2.57906e-27
2.96593e-27
2.71029e-27
3.11997e-27
2.77193e-27
3.6736e-27
3.67569e-27
4.35377e-27
3.77897e-27
3.81664e-27
2.78572e-27
3.2032e-27
3.0795e-27
4.14942e-27
4.65672e-27
5.82603e-27
5.24085e-27
5.89444e-27
4.79247e-27
4.49494e-27
3.35945e-27
3.30812e-27
2.87145e-27
4.01299e-27
4.29906e-27
5.53479e-27
4.312e-27
3.58822e-27
2.6158e-27
2.75447e-27
2.9802e-27
3.56062e-27
3.27876e-27
4.86087e-27
6.58724e-27
1.36286e-26
5.40782e-26
1.46626e-25
2.56775e-24
1.90478e-22
3.53499e-22
1.00863e-21
7.11146e-23
1.40822e-21
2.20516e-24
5.43892e-23
2.17732e-24
5.32079e-28
1.29274e-26
1.09207e-27
1.87803e-27
2.63644e-27
1.47498e-27
2.17291e-27
1.73075e-27
1.96258e-27
1.55447e-27
2.22995e-27
2.90566e-27
3.86018e-27
2.91397e-27
3.38116e-27
3.06765e-27
3.51828e-27
3.09548e-27
4.19269e-27
4.18027e-27
4.98438e-27
4.2433e-27
4.29071e-27
3.0588e-27
3.60762e-27
3.45195e-27
4.79443e-27
5.36423e-27
6.80586e-27
6.0315e-27
6.92538e-27
5.5583e-27
5.29747e-27
3.85607e-27
3.91901e-27
3.53405e-27
4.01702e-27
4.47297e-27
7.32624e-27
5.54467e-27
4.83736e-27
3.62448e-27
4.4484e-27
5.2387e-27
7.14712e-27
7.92783e-27
1.37167e-26
2.14963e-26
4.77951e-26
1.87372e-25
4.9119e-25
2.34021e-24
2.45261e-22
6.44012e-22
1.13148e-21
1.37808e-22
1.77507e-21
5.1483e-24
6.38567e-23
3.81527e-24
4.45379e-27
2.17081e-26
6.95117e-28
2.23026e-27
3.12305e-27
1.61611e-27
2.42305e-27
1.96746e-27
2.18391e-27
1.75005e-27
2.54889e-27
3.40001e-27
4.42212e-27
3.31399e-27
3.86708e-27
3.50042e-27
3.97015e-27
3.47791e-27
4.79485e-27
4.77837e-27
5.71479e-27
4.80159e-27
4.83348e-27
3.38363e-27
4.08384e-27
3.89892e-27
5.56412e-27
6.22352e-27
7.98582e-27
6.99445e-27
8.20938e-27
6.54866e-27
6.3652e-27
4.53955e-27
4.70918e-27
4.00805e-27
4.9165e-27
5.01255e-27
9.13923e-27
7.74186e-27
6.60094e-27
5.29199e-27
7.29294e-27
9.27145e-27
1.40927e-26
1.79099e-26
3.35937e-26
5.84032e-26
1.35103e-25
5.01562e-25
1.24678e-24
1.91821e-24
3.22743e-22
1.1732e-21
1.12614e-21
2.70465e-22
2.15507e-21
1.15421e-23
7.55863e-23
6.12589e-24
2.36007e-26
3.30468e-26
3.61085e-28
2.64587e-27
3.81128e-27
1.74675e-27
2.73086e-27
2.24106e-27
2.45304e-27
1.98136e-27
2.93008e-27
3.98203e-27
5.08525e-27
3.78858e-27
4.44029e-27
4.00817e-27
4.49107e-27
3.92852e-27
5.49561e-27
5.49013e-27
6.56621e-27
5.45091e-27
5.4673e-27
3.7807e-27
4.64173e-27
4.43663e-27
6.47281e-27
7.24836e-27
9.41585e-27
8.19069e-27
9.82977e-27
7.84319e-27
7.72585e-27
5.39288e-27
5.83639e-27
4.72306e-27
8.3571e-27
4.69617e-27
1.19422e-26
1.08373e-26
9.28939e-27
7.93677e-27
1.19512e-26
1.61161e-26
2.66875e-26
3.71368e-26
7.24003e-26
1.35466e-25
3.13854e-25
1.0905e-24
2.50916e-24
1.53108e-24
4.46238e-22
2.01418e-21
1.06635e-21
5.22175e-22
2.508e-21
2.13241e-23
9.24615e-23
8.7743e-24
8.52918e-26
4.78395e-26
1.30301e-28
3.32618e-27
4.67523e-27
1.87515e-27
3.09917e-27
2.56416e-27
2.77844e-27
2.24658e-27
3.3898e-27
4.68463e-27
5.86513e-27
4.34693e-27
5.12024e-27
4.61625e-27
5.0895e-27
4.44932e-27
6.31888e-27
6.33109e-27
7.5618e-27
6.2366e-27
6.20355e-27
4.24827e-27
5.30837e-27
5.0751e-27
7.55311e-27
8.52097e-27
1.11722e-26
9.71017e-27
1.19642e-26
9.67186e-27
9.91829e-27
7.68096e-27
1.08334e-26
1.25818e-26
7.72469e-27
2.00936e-27
1.87847e-26
1.35592e-26
1.42873e-26
1.16498e-26
1.9688e-26
2.74512e-26
4.80515e-26
7.09179e-26
1.41049e-25
2.73643e-25
6.22758e-25
2.01931e-24
4.268e-24
1.23812e-24
6.41549e-22
3.29531e-21
9.50321e-22
9.99578e-22
3.20038e-21
2.87397e-23
1.21423e-22
1.1588e-23
2.52974e-25
6.23456e-26
1.11908e-28
4.35776e-27
5.75523e-27
2.00613e-27
3.53167e-27
2.94953e-27
3.1664e-27
2.5687e-27
3.93594e-27
5.51746e-27
6.79089e-27
5.01325e-27
5.92408e-27
5.32362e-27
5.78341e-27
5.0667e-27
7.27796e-27
7.34208e-27
8.728e-27
7.15525e-27
7.06875e-27
4.80893e-27
6.0902e-27
5.84193e-27
8.83124e-27
1.00535e-26
1.33357e-26
1.16464e-26
1.47478e-26
1.23345e-26
1.34968e-26
1.22584e-26
2.09765e-26
2.8634e-26
5.02626e-28
3.56355e-27
1.87519e-26
1.88399e-26
2.11957e-26
1.71452e-26
3.16899e-26
4.53819e-26
8.18231e-26
1.25696e-25
2.51369e-25
4.88466e-25
1.07809e-24
3.26866e-24
6.29342e-24
1.18178e-24
9.35313e-22
5.06309e-21
8.63341e-22
1.78076e-21
4.40775e-21
3.04794e-23
1.71302e-22
1.43366e-23
6.56491e-25
7.04206e-26
4.40195e-28
5.86417e-27
7.1319e-27
2.13417e-27
4.02648e-27
3.43292e-27
3.61335e-27
2.96482e-27
4.58076e-27
6.53574e-27
7.87186e-27
5.80813e-27
6.87223e-27
6.16696e-27
6.57731e-27
5.80449e-27
8.40506e-27
8.55712e-27
1.00885e-26
8.25469e-27
8.06382e-27
5.46344e-27
7.0034e-27
6.73102e-27
1.02884e-26
1.18295e-26
1.57627e-26
1.37657e-26
1.76265e-26
1.47896e-26
1.55442e-26
1.34983e-26
2.23894e-26
8.81107e-27
4.49413e-26
2.74302e-26
7.81316e-27
3.39454e-26
2.6839e-26
2.66403e-26
4.79234e-26
7.26468e-26
1.30896e-25
2.065e-25
4.1162e-25
7.78859e-25
1.65279e-24
4.66846e-24
8.16312e-24
1.58562e-24
1.36279e-21
7.33461e-21
8.58333e-22
2.90566e-21
6.27669e-21
2.78301e-23
2.61977e-22
1.62096e-23
1.4492e-24
7.09248e-26
1.73948e-27
8.44249e-27
8.7649e-27
2.24801e-27
4.6346e-27
4.00266e-27
4.1571e-27
3.45175e-27
5.34958e-27
7.74875e-27
9.16139e-27
6.75432e-27
7.9946e-27
7.14268e-27
7.51085e-27
6.70638e-27
9.72556e-27
1.00315e-26
1.16692e-26
9.52518e-27
9.21926e-27
6.25411e-27
8.07059e-27
7.80054e-27
1.20086e-26
1.39994e-26
1.882e-26
1.66008e-26
2.16848e-26
1.8918e-26
2.1867e-26
2.50872e-26
7.05797e-26
1.14866e-25
1.17986e-25
4.99061e-30
1.32633e-26
3.99642e-26
4.10568e-26
3.69605e-26
7.20108e-26
1.09042e-25
1.97979e-25
3.13476e-25
6.18174e-25
1.12452e-24
2.27485e-24
5.96513e-24
9.53114e-24
2.83419e-24
1.96506e-21
1.01708e-20
1.05214e-21
4.39754e-21
8.96104e-21
2.26131e-23
4.06276e-22
1.57658e-23
2.69933e-24
6.33487e-26
5.10253e-27
1.28892e-26
1.06105e-26
2.34941e-27
5.37843e-27
4.6835e-27
4.82337e-27
4.03165e-27
6.28094e-27
9.23478e-27
1.06895e-26
7.86374e-27
9.32984e-27
8.33342e-27
8.60221e-27
7.79168e-27
1.12846e-26
1.17836e-26
1.34898e-26
1.104e-26
1.05416e-26
7.17715e-27
9.35035e-27
9.06606e-27
1.40657e-26
1.67762e-26
2.2704e-26
2.04165e-26
2.74428e-26
2.51869e-26
3.44909e-26
5.30361e-26
2.12576e-25
8.74655e-25
1.27705e-27
8.57026e-26
4.33809e-26
3.76769e-26
6.63837e-26
4.72045e-26
1.06108e-25
1.52974e-25
2.82989e-25
4.37997e-25
8.53155e-25
1.46756e-24
2.83825e-24
6.93255e-24
1.01202e-23
5.55226e-24
2.7767e-21
1.32952e-20
1.54469e-21
6.51547e-21
1.27153e-20
1.39018e-23
6.06163e-22
1.35988e-23
4.56807e-24
4.50343e-26
1.12435e-26
1.98795e-26
1.28401e-26
2.40768e-27
6.32616e-27
5.47702e-27
5.64393e-27
4.75788e-27
7.39832e-27
1.10064e-26
1.25385e-26
9.17485e-27
1.09403e-26
9.75803e-27
9.89776e-27
9.11052e-27
1.3108e-26
1.38642e-26
1.55689e-26
1.27634e-26
1.20595e-26
8.24989e-27
1.0812e-26
1.04987e-26
1.62753e-26
1.97001e-26
2.65009e-26
2.36029e-26
3.08478e-26
2.65187e-26
3.17466e-26
3.72453e-26
1.03188e-25
1.71509e-25
1.7006e-25
5.93947e-29
2.48593e-26
7.13354e-26
7.23141e-26
6.99241e-26
1.38926e-25
2.09042e-25
3.734e-25
5.69134e-25
1.06817e-24
1.73145e-24
3.23933e-24
7.36529e-24
9.57654e-24
1.05685e-23
3.81662e-21
1.66713e-20
2.60072e-21
8.86861e-21
1.78709e-20
5.43393e-24
8.95626e-22
1.04425e-23
7.21324e-24
2.28943e-26
2.0477e-26
3.18294e-26
1.50449e-26
2.48139e-27
7.45686e-27
6.45346e-27
6.6181e-27
5.68223e-27
8.72028e-27
1.31978e-26
1.47185e-26
1.07368e-26
1.28763e-26
1.1464e-26
1.14254e-26
1.07101e-26
1.52514e-26
1.63099e-26
1.7926e-26
1.4766e-26
1.37769e-26
9.50828e-27
1.25534e-26
1.21883e-26
1.88601e-26
2.32264e-26
3.09185e-26
2.73228e-26
3.47582e-26
2.88065e-26
3.06828e-26
2.64505e-26
4.43591e-26
1.62992e-26
9.25342e-26
7.76272e-26
2.45664e-26
1.07746e-25
8.22556e-26
9.36793e-26
1.76742e-25
2.66882e-25
4.63201e-25
6.82533e-25
1.24163e-24
1.9044e-24
3.34044e-24
7.08715e-24
7.92044e-24
1.99328e-23
5.07514e-21
1.96424e-20
4.67587e-21
1.1798e-20
2.49045e-20
7.09347e-25
1.31333e-21
6.54408e-24
1.02559e-23
7.40152e-27
3.35393e-26
5.28186e-26
1.68555e-26
2.60809e-27
8.83008e-27
7.61645e-27
7.81913e-27
6.89643e-27
1.03047e-26
1.58558e-26
1.73311e-26
1.26168e-26
1.52306e-26
1.3444e-26
1.3283e-26
1.26801e-26
1.77431e-26
1.9198e-26
2.05909e-26
1.7003e-26
1.573e-26
1.1039e-26
1.4599e-26
1.42271e-26
2.19321e-26
2.75153e-26
3.6553e-26
3.24751e-26
4.07428e-26
3.41337e-26
3.70619e-26
3.20608e-26
5.23658e-26
6.08885e-26
2.98687e-28
1.9698e-26
1.04654e-25
9.5271e-26
1.14795e-25
1.06225e-25
2.23387e-25
3.14222e-25
5.40304e-25
7.52243e-25
1.35341e-24
1.98147e-24
3.05216e-24
6.09813e-24
5.79907e-24
3.34078e-23
6.48071e-21
2.25207e-20
8.32743e-21
1.443e-20
3.41005e-20
3.61389e-25
1.80508e-21
3.74975e-24
1.38174e-23
6.51981e-28
4.60288e-26
8.376e-26
1.89689e-26
2.67724e-27
1.06665e-26
8.8947e-27
9.38619e-27
8.41833e-27
1.22522e-26
1.91362e-26
2.04392e-26
1.48171e-26
1.81146e-26
1.58241e-26
1.55208e-26
1.50603e-26
2.06676e-26
2.24986e-26
2.355e-26
1.95335e-26
1.78855e-26
1.28151e-26
1.6977e-26
1.64787e-26
2.52221e-26
3.21186e-26
4.20967e-26
3.68416e-26
4.44239e-26
3.51099e-26
3.51314e-26
2.47808e-26
3.16716e-26
2.95236e-26
2.69382e-26
1.71312e-26
1.78741e-25
1.06384e-25
1.30576e-25
1.25146e-25
2.57155e-25
3.53105e-25
5.81474e-25
7.72108e-25
1.32543e-24
1.79423e-24
2.47766e-24
4.56816e-24
3.61829e-24
5.24653e-23
7.98053e-21
2.42548e-20
1.4298e-20
1.70098e-20
4.56454e-20
5.26964e-24
2.30695e-21
2.37111e-24
1.69777e-23
1.5018e-27
5.68848e-26
1.2965e-25
2.12286e-26
2.71823e-27
1.30626e-26
1.02258e-26
1.14585e-26
1.03318e-26
1.46304e-26
2.3096e-26
2.4248e-26
1.73818e-26
2.16588e-26
1.86316e-26
1.82602e-26
1.79388e-26
2.40439e-26
2.62244e-26
2.67787e-26
2.2303e-26
2.02653e-26
1.48912e-26
1.97463e-26
1.90302e-26
2.8859e-26
3.72553e-26
4.80784e-26
4.11374e-26
4.75256e-26
3.54902e-26
3.36517e-26
2.02695e-26
1.96677e-26
1.42664e-26
4.1489e-26
5.11462e-26
1.80597e-25
1.33052e-25
1.32992e-25
1.43819e-25
2.74866e-25
3.73434e-25
5.79511e-25
7.46804e-25
1.14648e-24
1.39625e-24
1.74041e-24
2.8813e-24
1.76737e-24
7.46752e-23
9.49313e-21
2.51478e-20
2.34135e-20
1.87967e-20
6.04672e-20
2.8802e-23
2.82104e-21
3.39428e-24
1.9655e-23
1.79303e-26
6.76791e-26
2.0306e-25
2.25645e-26
2.91738e-27
1.56252e-26
1.18646e-26
1.39136e-26
1.28828e-26
1.73071e-26
2.80931e-26
2.86748e-26
2.0411e-26
2.58146e-26
2.20591e-26
2.14469e-26
2.14768e-26
2.7745e-26
3.03801e-26
3.01045e-26
2.52932e-26
2.27347e-26
1.72968e-26
2.29089e-26
2.17822e-26
3.28054e-26
4.29237e-26
5.45528e-26
4.54725e-26
5.0397e-26
3.5687e-26
3.32076e-26
1.87194e-26
1.51649e-26
8.7114e-27
4.48264e-26
9.91669e-26
1.88423e-25
1.40534e-25
1.37433e-25
1.48256e-25
2.78182e-25
3.61456e-25
5.27036e-25
6.32364e-25
8.84592e-25
9.3168e-25
9.91151e-25
1.41199e-24
5.93263e-25
1.00825e-22
1.09497e-20
2.43321e-20
3.6771e-20
2.15794e-20
7.87025e-20
1.13275e-22
3.25405e-21
8.50422e-24
2.20745e-23
8.63959e-26
7.69546e-26
3.1761e-25
2.3383e-26
3.31829e-27
1.8093e-26
1.41546e-26
1.6488e-26
1.67842e-26
1.99225e-26
3.45147e-26
3.35645e-26
2.43296e-26
3.03769e-26
2.63389e-26
2.50263e-26
2.619e-26
3.1477e-26
3.52942e-26
3.32861e-26
2.83814e-26
2.5242e-26
2.02938e-26
2.64562e-26
2.48102e-26
3.69519e-26
4.84686e-26
6.13189e-26
4.93558e-26
5.24136e-26
3.53956e-26
3.34435e-26
1.8298e-26
1.3159e-26
7.27268e-27
4.96313e-26
1.36098e-25
2.00033e-25
1.32087e-25
1.38128e-25
1.38411e-25
2.61661e-25
3.15452e-25
4.28994e-25
4.54064e-25
5.8937e-25
4.95241e-25
4.2724e-25
4.53731e-25
1.19268e-25
1.20749e-22
1.22479e-20
2.34518e-20
5.55278e-20
2.06178e-20
1.00875e-19
2.60946e-22
3.82222e-21
2.19568e-23
2.42888e-23
3.03856e-25
8.06775e-26
4.99701e-25
2.55881e-26
3.7366e-27
2.25761e-26
1.69629e-26
2.04487e-26
2.23196e-26
2.40258e-26
4.39817e-26
4.05455e-26
2.95433e-26
3.71683e-26
3.26775e-26
3.02031e-26
3.28889e-26
3.6567e-26
4.18958e-26
3.74356e-26
3.27359e-26
2.85661e-26
2.47242e-26
3.15599e-26
2.88193e-26
4.26476e-26
5.60394e-26
6.95689e-26
5.38064e-26
5.46105e-26
3.5636e-26
3.4723e-26
1.95344e-26
1.13675e-26
7.61209e-27
5.59276e-26
1.67046e-25
1.99553e-25
1.2364e-25
1.29559e-25
1.22958e-25
2.25802e-25
2.58583e-25
3.09266e-25
2.87368e-25
3.22166e-25
1.97193e-25
1.27236e-25
7.93961e-26
6.65339e-26
1.40338e-22
1.33188e-20
2.0326e-20
8.07238e-20
1.46739e-25
1.28304e-25
9.89917e-28
1.90193e-27
2.981e-27
3.02926e-31
5.23964e-28
2.55383e-28
4.43605e-28
2.61554e-28
3.88139e-28
2.91648e-28
3.82488e-28
2.87547e-28
3.40124e-28
3.15692e-28
5.0734e-28
5.18534e-28
5.53047e-28
5.10856e-28
5.72758e-28
5.53068e-28
5.99988e-28
6.65146e-28
7.48401e-28
7.77794e-28
8.08043e-28
7.35573e-28
6.5998e-28
6.52442e-28
6.82453e-28
7.73081e-28
9.33671e-28
1.02167e-27
1.06897e-27
1.09942e-27
1.01209e-27
8.92881e-28
8.11876e-28
7.68045e-28
7.34239e-28
7.54842e-28
8.51632e-28
7.42218e-28
6.36423e-28
5.51245e-28
3.54283e-28
2.71946e-28
1.71628e-28
1.1923e-28
2.03471e-29
5.65155e-31
2.44695e-29
4.00898e-28
2.09554e-27
1.50071e-27
1.36399e-25
3.86914e-24
5.12145e-24
2.57406e-25
6.01285e-24
1.6236e-25
1.78318e-25
4.23904e-26
5.13172e-27
5.50922e-30
8.68197e-28
7.4733e-28
6.34634e-28
9.24193e-28
5.9027e-28
8.95733e-28
6.54695e-28
8.42117e-28
6.4004e-28
8.12659e-28
9.37937e-28
1.26985e-27
1.0919e-27
1.17052e-27
1.15716e-27
1.30495e-27
1.23797e-27
1.47606e-27
1.52993e-27
1.68866e-27
1.6645e-27
1.65328e-27
1.41465e-27
1.45657e-27
1.45237e-27
1.64103e-27
1.88294e-27
2.17317e-27
2.17165e-27
2.24176e-27
2.08653e-27
1.85959e-27
1.71852e-27
1.66526e-27
1.56635e-27
1.70381e-27
1.63463e-27
1.37954e-27
1.30021e-27
1.04599e-27
7.06593e-28
4.49372e-28
3.15583e-28
1.62412e-28
3.14413e-29
1.09967e-31
8.01922e-29
1.36729e-27
4.94753e-27
6.09708e-27
2.27961e-25
1.20349e-23
2.79143e-23
4.17482e-25
1.28677e-23
3.98219e-24
8.15972e-25
2.35083e-25
1.23269e-26
1.62003e-30
9.43934e-28
1.29368e-27
8.472e-28
1.31602e-27
9.1709e-28
1.2206e-27
1.01373e-27
1.11283e-27
9.68537e-28
1.12842e-27
1.39592e-27
1.73519e-27
1.61626e-27
1.66307e-27
1.69678e-27
1.83515e-27
1.80106e-27
2.1043e-27
2.20075e-27
2.43778e-27
2.39806e-27
2.37263e-27
2.04353e-27
2.10119e-27
2.07705e-27
2.40124e-27
2.69008e-27
3.10708e-27
3.11251e-27
3.24859e-27
3.0015e-27
2.73761e-27
2.51216e-27
2.45379e-27
2.36161e-27
2.48867e-27
2.18126e-27
2.0702e-27
1.87083e-27
1.50491e-27
1.0139e-27
6.68988e-28
4.49153e-28
2.43277e-28
4.2125e-29
7.35658e-31
1.10621e-28
1.46719e-27
6.16323e-27
7.28859e-27
6.0605e-25
1.98374e-23
3.20912e-23
6.56694e-24
3.34459e-23
2.67077e-23
2.06329e-24
1.47952e-24
1.35138e-26
1.96623e-31
1.06201e-27
1.3143e-27
9.08501e-28
1.33691e-27
9.82823e-28
1.23658e-27
1.06764e-27
1.11807e-27
1.01578e-27
1.15452e-27
1.47597e-27
1.82385e-27
1.70919e-27
1.72679e-27
1.7704e-27
1.90475e-27
1.87689e-27
2.20274e-27
2.31064e-27
2.56666e-27
2.48957e-27
2.47254e-27
2.08552e-27
2.16543e-27
2.14205e-27
2.51854e-27
2.81708e-27
3.31966e-27
3.28546e-27
3.46208e-27
3.15842e-27
2.88768e-27
2.63438e-27
2.58754e-27
2.51293e-27
2.55655e-27
2.18751e-27
2.26722e-27
1.94077e-27
1.61088e-27
1.0728e-27
7.18833e-28
5.05714e-28
2.87833e-28
6.22274e-29
3.97259e-30
8.12562e-29
1.27027e-27
4.60591e-27
5.98759e-27
8.67824e-25
3.27326e-23
4.33129e-23
3.94899e-23
4.82011e-23
9.76193e-23
2.41409e-24
4.89707e-24
3.0661e-26
1.22988e-30
1.22885e-27
1.42556e-27
9.423e-28
1.47254e-27
9.81306e-28
1.35551e-27
1.08462e-27
1.22889e-27
1.03074e-27
1.25982e-27
1.5569e-27
2.02004e-27
1.79278e-27
1.86041e-27
1.85945e-27
2.0423e-27
1.96655e-27
2.36693e-27
2.45097e-27
2.76324e-27
2.62455e-27
2.62347e-27
2.14751e-27
2.27822e-27
2.23317e-27
2.69299e-27
3.01156e-27
3.62479e-27
3.50743e-27
3.75558e-27
3.35147e-27
3.0905e-27
2.7701e-27
2.73725e-27
2.64814e-27
2.61331e-27
2.28657e-27
2.50174e-27
2.05319e-27
1.78151e-27
1.13991e-27
8.1904e-28
5.95863e-28
3.85055e-28
1.05612e-28
2.16657e-29
6.97465e-29
1.08226e-27
3.06727e-27
4.49783e-27
1.35143e-24
5.34362e-23
5.3714e-23
1.34655e-22
5.01386e-23
2.39197e-22
1.8019e-24
1.11733e-23
8.19302e-26
6.69411e-30
1.62929e-27
1.56045e-27
1.03924e-27
1.65659e-27
1.01449e-27
1.52545e-27
1.133e-27
1.38039e-27
1.07533e-27
1.42053e-27
1.7024e-27
2.30879e-27
1.93424e-27
2.08963e-27
2.0127e-27
2.27072e-27
2.12257e-27
2.63826e-27
2.68363e-27
3.08753e-27
2.85545e-27
2.87873e-27
2.28393e-27
2.4819e-27
2.40519e-27
2.99288e-27
3.33466e-27
4.08471e-27
3.86287e-27
4.2042e-27
3.65825e-27
3.40996e-27
2.97757e-27
2.98245e-27
2.87002e-27
2.85564e-27
2.51515e-27
2.82543e-27
2.30934e-27
2.06122e-27
1.27801e-27
1.01709e-27
7.64981e-28
5.90058e-28
2.13516e-28
1.03966e-28
1.10867e-28
8.27345e-28
1.94633e-27
2.67616e-27
1.92984e-24
7.97569e-23
6.88595e-23
3.06756e-22
4.89831e-23
4.57541e-22
9.8304e-25
2.035e-23
2.11048e-25
1.39992e-29
2.56788e-27
1.60491e-27
1.20878e-27
1.83885e-27
1.09666e-27
1.69059e-27
1.2258e-27
1.53412e-27
1.15143e-27
1.61381e-27
1.90535e-27
2.65452e-27
2.12208e-27
2.37826e-27
2.21436e-27
2.5541e-27
2.31997e-27
2.98301e-27
2.97968e-27
3.50465e-27
3.14797e-27
3.19543e-27
2.45635e-27
2.74e-27
2.62443e-27
3.38187e-27
3.7405e-27
4.64963e-27
4.29862e-27
4.75507e-27
4.03394e-27
3.80631e-27
3.23731e-27
3.31065e-27
3.1851e-27
3.21124e-27
2.80795e-27
3.25789e-27
2.71691e-27
2.44856e-27
1.51292e-27
1.34871e-27
1.08152e-27
1.01021e-27
5.02014e-28
4.25896e-28
3.74409e-28
1.11048e-27
2.54323e-27
4.79671e-27
2.31599e-24
1.10608e-22
1.09975e-22
5.40407e-22
4.51967e-23
7.42277e-22
5.35911e-25
3.16428e-23
5.07755e-25
4.85705e-30
4.27022e-27
1.57115e-27
1.41103e-27
2.05467e-27
1.20658e-27
1.85778e-27
1.355e-27
1.69277e-27
1.25561e-27
1.83056e-27
2.16262e-27
3.0497e-27
2.34944e-27
2.70833e-27
2.45621e-27
2.87789e-27
2.55139e-27
3.38649e-27
3.33066e-27
3.99323e-27
3.4765e-27
3.55947e-27
2.65115e-27
3.03406e-27
2.87431e-27
3.83322e-27
4.20294e-27
5.30466e-27
4.79388e-27
5.3922e-27
4.46474e-27
4.26922e-27
3.53542e-27
3.7329e-27
3.58694e-27
3.70957e-27
3.19743e-27
3.81787e-27
3.29942e-27
2.99642e-27
1.89665e-27
1.91219e-27
1.68393e-27
1.89265e-27
1.2697e-27
1.5573e-27
1.62978e-27
3.43694e-27
1.14286e-26
3.04134e-26
2.59476e-24
1.47363e-22
1.8914e-22
7.98908e-22
5.18526e-23
1.06166e-21
7.14349e-25
4.32464e-23
1.10438e-24
2.69397e-29
7.45685e-27
1.40897e-27
1.63949e-27
2.34131e-27
1.32872e-27
2.04745e-27
1.51715e-27
1.86798e-27
1.38427e-27
2.07879e-27
2.48718e-27
3.4989e-27
2.62044e-27
3.08625e-27
2.75017e-27
3.24061e-27
2.81912e-27
3.85157e-27
3.74209e-27
4.55368e-27
3.86003e-27
3.9683e-27
2.8647e-27
3.37007e-27
3.15635e-27
4.35332e-27
4.74275e-27
6.05946e-27
5.35216e-27
6.13833e-27
4.96559e-27
4.81837e-27
3.90159e-27
4.29307e-27
4.10885e-27
4.40294e-27
3.72735e-27
4.55487e-27
4.14623e-27
3.80711e-27
2.52986e-27
2.89575e-27
2.85907e-27
3.7218e-27
3.2006e-27
5.04855e-27
6.49926e-27
1.39759e-26
5.33665e-26
1.48652e-25
2.58929e-24
1.91767e-22
3.5687e-22
1.01367e-21
7.18574e-23
1.41556e-21
2.15043e-24
5.44578e-23
2.16022e-24
5.54012e-28
1.30909e-26
1.09204e-27
1.92272e-27
2.71955e-27
1.46046e-27
2.27113e-27
1.70979e-27
2.07058e-27
1.5428e-27
2.3665e-27
2.87771e-27
4.01529e-27
2.94517e-27
3.52165e-27
3.09619e-27
3.65008e-27
3.13566e-27
4.38144e-27
4.22891e-27
5.19347e-27
4.29581e-27
4.43337e-27
3.11266e-27
3.75102e-27
3.48357e-27
4.9541e-27
5.36097e-27
6.9421e-27
6.00381e-27
7.01798e-27
5.56137e-27
5.47698e-27
4.34297e-27
5.05539e-27
4.81356e-27
5.26156e-27
4.46377e-27
5.5358e-27
5.36385e-27
5.04707e-27
3.58562e-27
4.60595e-27
5.08844e-27
7.4067e-27
7.80449e-27
1.41253e-26
2.12958e-26
4.87379e-26
1.8587e-25
4.97597e-25
2.36272e-24
2.46637e-22
6.48806e-22
1.13726e-21
1.39578e-22
1.78434e-21
5.02318e-24
6.39118e-23
3.78356e-24
4.46535e-27
2.20609e-26
6.81792e-28
2.30663e-27
3.1928e-27
1.61098e-27
2.52249e-27
1.94661e-27
2.30162e-27
1.73327e-27
2.70443e-27
3.35076e-27
4.61012e-27
3.32918e-27
4.02914e-27
3.51e-27
4.11322e-27
3.50419e-27
4.99229e-27
4.79825e-27
5.92817e-27
4.81026e-27
4.96014e-27
3.39724e-27
4.1923e-27
3.86413e-27
5.65561e-27
6.08942e-27
7.97346e-27
6.76305e-27
8.06365e-27
6.27108e-27
6.26849e-27
4.88754e-27
6.03274e-27
5.58992e-27
6.60733e-27
5.51107e-27
6.79512e-27
7.16599e-27
6.92066e-27
5.2959e-27
7.47736e-27
9.09132e-27
1.45004e-26
1.77307e-26
3.43837e-26
5.80388e-26
1.37205e-25
4.9895e-25
1.26141e-24
1.93778e-24
3.24277e-22
1.18232e-21
1.13266e-21
2.72379e-22
2.16678e-21
1.13971e-23
7.56409e-23
6.08115e-24
2.35359e-26
3.3546e-26
3.47455e-28
2.74846e-27
3.87014e-27
1.74994e-27
2.83098e-27
2.22002e-27
2.57999e-27
1.95805e-27
3.10524e-27
3.90765e-27
5.30859e-27
3.78041e-27
4.62664e-27
3.98974e-27
4.64701e-27
3.93205e-27
5.69994e-27
5.46808e-27
6.77845e-27
5.39748e-27
5.5693e-27
3.73588e-27
4.70261e-27
4.31109e-27
6.46784e-27
6.93235e-27
9.18787e-27
7.66189e-27
9.30889e-27
7.12904e-27
7.23085e-27
5.55405e-27
7.33964e-27
6.6607e-27
8.26365e-27
6.93645e-27
8.48487e-27
9.74261e-27
9.73163e-27
8.00026e-27
1.21785e-26
1.59378e-26
2.72865e-26
3.69146e-26
7.37631e-26
1.34907e-25
3.17791e-25
1.08661e-24
2.53392e-24
1.55248e-24
4.48199e-22
2.02503e-21
1.07377e-21
5.25578e-22
2.5242e-21
2.1084e-23
9.23077e-23
8.70848e-24
8.43753e-26
4.87498e-26
1.18578e-28
3.47144e-27
4.71219e-27
1.88907e-27
3.196e-27
2.54469e-27
2.91287e-27
2.21677e-27
3.58439e-27
4.58133e-27
6.12403e-27
4.30921e-27
5.33291e-27
4.55975e-27
5.25917e-27
4.42009e-27
6.52826e-27
6.25167e-27
7.76561e-27
6.09979e-27
6.2709e-27
4.12518e-27
5.30739e-27
4.82694e-27
7.40995e-27
7.9418e-27
1.0613e-26
8.72127e-27
1.08129e-26
8.16411e-27
8.39833e-27
6.40536e-27
9.15884e-27
8.22541e-27
1.0324e-26
8.71238e-27
1.07752e-26
1.33821e-26
1.38789e-26
1.21514e-26
1.97635e-26
2.74185e-26
4.88128e-26
7.07484e-26
1.43224e-25
2.72931e-25
6.29517e-25
2.01463e-24
4.30752e-24
1.25797e-24
6.43945e-22
3.3099e-21
9.5643e-22
1.00715e-21
3.22437e-21
2.83623e-23
1.21146e-22
1.15555e-23
2.51679e-25
6.35447e-26
1.0437e-28
4.54965e-27
5.76824e-27
2.03062e-27
3.62315e-27
2.93282e-27
3.30682e-27
2.53228e-27
4.1498e-27
5.37905e-27
7.08677e-27
4.94006e-27
6.16446e-27
5.21713e-27
5.96775e-27
4.99423e-27
7.48984e-27
7.18685e-27
8.91514e-27
6.91289e-27
7.09028e-27
4.58653e-27
6.00736e-27
5.43373e-27
8.50042e-27
9.1142e-27
1.23116e-26
9.99947e-27
1.2607e-26
9.41806e-27
9.82403e-27
7.53725e-27
1.17441e-26
1.04504e-26
1.20914e-26
1.13361e-26
1.36751e-26
1.8359e-26
1.98993e-26
1.82273e-26
3.15084e-26
4.56069e-26
8.27292e-26
1.25764e-25
2.54583e-25
4.87842e-25
1.08867e-24
3.26448e-24
6.35105e-24
1.19941e-24
9.38131e-22
5.08693e-21
8.70378e-22
1.79461e-21
4.43811e-21
3.00376e-23
1.70934e-22
1.43718e-23
6.58912e-25
7.13323e-26
4.33905e-28
6.08598e-27
7.13525e-27
2.16417e-27
4.11562e-27
3.41771e-27
3.75964e-27
2.91986e-27
4.81517e-27
6.35664e-27
8.20627e-27
5.69168e-27
7.14131e-27
5.99913e-27
6.77954e-27
5.6771e-27
8.61843e-27
8.30648e-27
1.02504e-26
7.88369e-27
8.03068e-27
5.12381e-27
6.82866e-27
6.14514e-27
9.76465e-27
1.05185e-26
1.43157e-26
1.15244e-26
1.47348e-26
1.09008e-26
1.14892e-26
8.81752e-27
1.47151e-26
1.23821e-26
1.57728e-26
1.48224e-26
1.69276e-26
2.52238e-26
2.81718e-26
2.6862e-26
4.86284e-26
7.24258e-26
1.32604e-25
2.06554e-25
4.16558e-25
7.78113e-25
1.66825e-24
4.6647e-24
8.2374e-24
1.6043e-24
1.36629e-21
7.37092e-21
8.66557e-22
2.92589e-21
6.31988e-21
2.74808e-23
2.61184e-22
1.61898e-23
1.44659e-24
7.20937e-26
1.74465e-27
8.72949e-27
8.75352e-27
2.28114e-27
4.72587e-27
3.98449e-27
4.31307e-27
3.39359e-27
5.61024e-27
7.51594e-27
9.53796e-27
6.58146e-27
8.29807e-27
6.9021e-27
7.73691e-27
6.50692e-27
9.94243e-27
9.6611e-27
1.17993e-26
9.00142e-27
9.12348e-27
5.77533e-27
7.78973e-27
6.9955e-27
1.12326e-26
1.21844e-26
1.67302e-26
1.34096e-26
1.73019e-26
1.27486e-26
1.35706e-26
1.03879e-26
1.8605e-26
1.59098e-26
2.11332e-26
1.85111e-26
2.1748e-26
3.36749e-26
3.94792e-26
3.8764e-26
7.2058e-26
1.09315e-25