/*--------------------------------*- C++ -*----------------------------------*\
| =========                 |                                                 |
| \\      /  F ield         | OpenFOAM: The Open Source CFD Toolbox           |
|  \\    /   O peration     | Version:  2312                                  |
|   \\  /    A nd           | Website:  www.openfoam.com                      |
|    \\/     M anipulation  |                                                 |
\*---------------------------------------------------------------------------*/
FoamFile
{
    version     2.0;
    format      ascii;
    arch        "LSB;label=32;scalar=64";
    class       volScalarField;
    location    "200";
    object      p;
}
// * * * * * * * * * * * * * * * * * * * * * * * * * * * * * * * * * * * * * //

dimensions      [0 2 -2 0 0 0 0];

internalField   nonuniform List<scalar> 
144000
(
8.78745e-10
2.97125e-10
-6.67864e-10
-1.10408e-09
-8.80301e-10
-5.68775e-10
-2.81891e-10
-1.40643e-10
-1.23234e-11
1.54666e-11
7.40998e-11
6.25808e-11
1.01269e-10
8.30189e-11
1.18791e-10
9.39401e-11
1.29696e-10
9.26644e-11
1.28847e-10
9.7797e-11
1.29152e-10
9.25711e-11
1.25356e-10
8.39119e-11
1.20909e-10
7.84237e-11
1.11486e-10
7.12948e-11
1.01494e-10
6.51161e-11
1.02589e-10
6.18438e-11
1.01216e-10
5.39385e-11
9.64254e-11
5.11225e-11
9.00184e-11
5.13997e-11
8.22357e-11
3.82773e-11
7.10625e-11
2.56941e-11
5.89084e-11
1.30569e-11
4.08853e-11
-6.95126e-13
2.43479e-11
-7.2717e-12
1.43545e-11
-1.53205e-11
1.6097e-13
-1.0434e-11
-2.25834e-11
-1.50059e-11
-7.72415e-11
-1.65967e-11
-1.07984e-10
-1.46491e-10
-1.60807e-09
-3.49754e-10
9.27939e-10
3.2256e-10
-6.8092e-10
-1.1137e-09
-8.84049e-10
-5.68844e-10
-2.82008e-10
-1.40652e-10
-1.28197e-11
1.51366e-11
7.35285e-11
6.23265e-11
1.00752e-10
8.28556e-11
1.18463e-10
9.37946e-11
1.2947e-10
9.2558e-11
1.28557e-10
9.78705e-11
1.28879e-10
9.26019e-11
1.25181e-10
8.39438e-11
1.20742e-10
7.8561e-11
1.11211e-10
7.14926e-11
1.0122e-10
6.52463e-11
1.02456e-10
6.19494e-11
1.01075e-10
5.40294e-11
9.62506e-11
5.13595e-11
8.97347e-11
5.17377e-11
8.20072e-11
3.84705e-11
7.08307e-11
2.57426e-11
5.857e-11
1.33357e-11
4.06819e-11
-3.46159e-13
2.41731e-11
-6.90267e-12
1.43335e-11
-1.49989e-11
1.90499e-13
-1.00054e-11
-2.23855e-11
-1.48099e-11
-7.69183e-11
-1.69297e-11
-1.01891e-10
-1.30925e-10
-1.64002e-09
-3.84542e-10
9.87991e-10
3.36373e-10
-6.9614e-10
-1.12038e-09
-8.87528e-10
-5.69014e-10
-2.81854e-10
-1.40693e-10
-1.31094e-11
1.45827e-11
7.29609e-11
6.17719e-11
1.00245e-10
8.24141e-11
1.18214e-10
9.33451e-11
1.29475e-10
9.2166e-11
1.28379e-10
9.77299e-11
1.28767e-10
9.23919e-11
1.25206e-10
8.36911e-11
1.20801e-10
7.84651e-11
1.11112e-10
7.15059e-11
1.01092e-10
6.51378e-11
1.02563e-10
6.17739e-11
1.01242e-10
5.3826e-11
9.63335e-11
5.13652e-11
8.96466e-11
5.19265e-11
8.20135e-11
3.84634e-11
7.08371e-11
2.54446e-11
5.83737e-11
1.32889e-11
4.07482e-11
-1.44547e-13
2.42385e-11
-6.72203e-12
1.46662e-11
-1.4922e-11
5.26636e-13
-9.80831e-12
-2.18998e-11
-1.46476e-11
-7.63232e-11
-1.92297e-11
-9.63592e-11
-1.00364e-10
-1.68829e-09
-4.16988e-10
1.05081e-09
3.23214e-10
-7.10371e-10
-1.11849e-09
-8.90557e-10
-5.69375e-10
-2.81497e-10
-1.40421e-10
-1.31789e-11
1.40153e-11
7.22319e-11
6.10401e-11
9.95788e-11
8.18417e-11
1.1786e-10
9.27775e-11
1.2953e-10
9.16645e-11
1.28116e-10
9.75349e-11
1.28644e-10
9.21205e-11
1.2522e-10
8.33405e-11
1.20888e-10
7.83301e-11
1.11007e-10
7.15136e-11
1.0092e-10
6.49737e-11
1.02712e-10
6.15256e-11
1.01526e-10
5.35383e-11
9.64526e-11
5.1329e-11
8.95737e-11
5.2144e-11
8.20854e-11
3.84588e-11
7.09001e-11
2.50031e-11
5.81126e-11
1.2987e-11
4.09353e-11
2.72931e-14
2.44383e-11
-6.68879e-12
1.53057e-11
-1.51265e-11
1.24813e-12
-1.00503e-11
-2.05755e-11
-1.55424e-11
-7.4485e-11
-2.51834e-11
-8.63331e-11
-6.34081e-11
-1.74833e-09
-4.31949e-10
1.10776e-09
2.59604e-10
-7.21863e-10
-1.09687e-09
-8.90042e-10
-5.70028e-10
-2.81126e-10
-1.39754e-10
-1.3017e-11
1.34417e-11
7.12048e-11
6.00691e-11
9.86324e-11
8.10834e-11
1.17285e-10
9.20665e-11
1.2952e-10
9.10661e-11
1.27669e-10
9.72865e-11
1.28432e-10
9.18125e-11
1.25131e-10
8.2932e-11
1.20916e-10
7.82008e-11
1.10834e-10
7.15497e-11
1.00648e-10
6.47941e-11
1.02829e-10
6.12677e-11
1.01852e-10
5.3237e-11
9.65192e-11
5.12999e-11
8.94615e-11
5.24213e-11
8.21782e-11
3.85297e-11
7.09619e-11
2.45467e-11
5.76739e-11
1.23948e-11
4.118e-11
2.00494e-13
2.47345e-11
-6.83192e-12
1.62359e-11
-1.5683e-11
2.43304e-12
-1.09449e-11
-1.82539e-11
-1.78213e-11
-7.0628e-11
-3.57504e-11
-6.97434e-11
-2.80638e-11
-1.81807e-09
-4.06626e-10
1.15942e-09
1.22744e-10
-7.34286e-10
-1.04633e-09
-8.81816e-10
-5.70998e-10
-2.80984e-10
-1.38642e-10
-1.25494e-11
1.28727e-11
6.98339e-11
5.87972e-11
9.73522e-11
8.00816e-11
1.1643e-10
9.11676e-11
1.29374e-10
9.03488e-11
1.26994e-10
9.69427e-11
1.28095e-10
9.14524e-11
1.24901e-10
8.2459e-11
1.20852e-10
7.80702e-11
1.10581e-10
7.16014e-11
1.00274e-10
6.45938e-11
1.02888e-10
6.10092e-11
1.0219e-10
5.29418e-11
9.6505e-11
5.12721e-11
8.93065e-11
5.27357e-11
8.22944e-11
3.86983e-11
7.10301e-11
2.41061e-11
5.69718e-11
1.14287e-11
4.1467e-11
3.6074e-13
2.51357e-11
-7.22193e-12
1.74727e-11
-1.6688e-11
4.18683e-12
-1.27201e-11
-1.45513e-11
-2.18763e-11
-6.39677e-11
-5.16802e-11
-4.53332e-11
7.14914e-13
-1.90023e-09
-3.20584e-10
1.21498e-09
-1.01104e-10
-7.56212e-10
-9.61092e-10
-8.6154e-10
-5.72226e-10
-2.81425e-10
-1.37067e-10
-1.16879e-11
1.23493e-11
6.81195e-11
5.72037e-11
9.57206e-11
7.88114e-11
1.15268e-10
9.00562e-11
1.29034e-10
8.95047e-11
1.26068e-10
9.64689e-11
1.27601e-10
9.10265e-11
1.24501e-10
8.1915e-11
1.20667e-10
7.79284e-11
1.10233e-10
7.16539e-11
9.97969e-11
6.43678e-11
1.02872e-10
6.07552e-11
1.02511e-10
5.26668e-11
9.63925e-11
5.12354e-11
8.91103e-11
5.30582e-11
8.24437e-11
3.8969e-11
7.11725e-11
2.36976e-11
5.58655e-11
9.99498e-12
4.17978e-11
4.82187e-13
2.56668e-11
-7.93406e-12
1.90443e-11
-1.82426e-11
6.62654e-12
-1.55914e-11
-9.27829e-12
-2.82821e-11
-5.3932e-11
-7.31432e-11
-1.29907e-11
2.16065e-11
-2.00039e-09
-1.63951e-10
1.28568e-09
-4.14651e-10
-7.97291e-10
-8.39317e-10
-8.25435e-10
-5.73532e-10
-2.82929e-10
-1.35095e-10
-1.03773e-11
1.19124e-11
6.60742e-11
5.52908e-11
9.37368e-11
7.7269e-11
1.13786e-10
8.87268e-11
1.28454e-10
8.85344e-11
1.24879e-10
9.58458e-11
1.26922e-10
9.05287e-11
1.23907e-10
8.13014e-11
1.20336e-10
7.77702e-11
1.09778e-10
7.16974e-11
9.92156e-11
6.4118e-11
1.02757e-10
6.05148e-11
1.02783e-10
5.2425e-11
9.61688e-11
5.11826e-11
8.88743e-11
5.33597e-11
8.26411e-11
3.93354e-11
7.15173e-11
2.32863e-11
5.41424e-11
8.00492e-12
4.21873e-11
5.36219e-13
2.63568e-11
-9.03241e-12
2.09734e-11
-2.04272e-11
9.84232e-12
-1.97043e-11
-2.33558e-12
-3.70372e-11
-4.04144e-11
-9.94992e-11
2.56987e-11
3.60347e-11
-2.12193e-09
6.23706e-11
1.38234e-09
-8.10783e-10
-8.66814e-10
-6.83122e-10
-7.70623e-10
-5.74426e-10
-2.85996e-10
-1.32891e-10
-8.60741e-12
1.159e-11
6.37126e-11
5.30691e-11
9.1408e-11
7.54609e-11
1.11984e-10
8.71865e-11
1.27598e-10
8.74426e-11
1.23431e-10
9.50664e-11
1.26037e-10
8.99569e-11
1.23106e-10
8.06247e-11
1.19839e-10
7.75918e-11
1.09207e-10
7.17243e-11
9.85307e-11
6.38492e-11
1.02528e-10
6.02979e-11
1.02978e-10
5.22254e-11
9.58278e-11
5.11069e-11
8.8604e-11
5.36071e-11
8.29134e-11
3.97766e-11
7.22688e-11
2.28161e-11
5.15095e-11
5.37398e-12
4.26638e-11
4.97485e-13
2.72284e-11
-1.05523e-11
2.32596e-11
-2.32718e-11
1.3876e-11
-2.5069e-11
6.21111e-12
-4.79162e-11
-2.38538e-11
-1.29277e-10
6.80874e-11
4.69962e-11
-2.2654e-09
3.4848e-10
1.51097e-09
-1.27199e-09
-9.70622e-10
-4.98812e-10
-6.9586e-10
-5.74135e-10
-2.91062e-10
-1.3072e-10
-6.41982e-12
1.1395e-11
6.10509e-11
5.05525e-11
8.8745e-11
7.33968e-11
1.09868e-10
8.54488e-11
1.26444e-10
8.62349e-11
1.21732e-10
9.41305e-11
1.24931e-10
8.93113e-11
1.22093e-10
7.98935e-11
1.19167e-10
7.73886e-11
1.08514e-10
7.17285e-11
9.7747e-11
6.35676e-11
1.02172e-10
6.0113e-11
1.03074e-10
5.20727e-11
9.53713e-11
5.10018e-11
8.83083e-11
5.37651e-11
8.32924e-11
4.02719e-11
7.37021e-11
2.21744e-11
4.76009e-11
2.04872e-12
4.32609e-11
3.52044e-13
2.82853e-11
-1.24858e-11
2.58633e-11
-2.67376e-11
1.85819e-11
-3.15309e-11
1.60592e-11
-6.03509e-11
-5.21419e-12
-1.60341e-10
1.10558e-10
5.79713e-11
-2.42685e-09
6.78623e-10
1.67273e-09
-1.77183e-09
-1.11034e-09
-2.96036e-10
-6.01306e-10
-5.71693e-10
-2.98409e-10
-1.28936e-10
-3.91629e-12
1.13243e-11
5.8107e-11
4.77564e-11
8.57603e-11
7.1087e-11
1.07447e-10
8.35292e-11
1.24979e-10
8.49156e-11
1.19799e-10
9.30433e-11
1.236e-10
8.85925e-11
1.20871e-10
7.91166e-11
1.18314e-10
7.71567e-11
1.07698e-10
7.17061e-11
9.68717e-11
6.32797e-11
1.01681e-10
5.9967e-11
1.03055e-10
5.19684e-11
9.48056e-11
5.08645e-11
8.79947e-11
5.38056e-11
8.38085e-11
4.0799e-11
7.61829e-11
2.11014e-11
4.19591e-11
-1.97135e-12
4.40026e-11
9.857e-14
2.95014e-11
-1.47781e-11
2.87013e-11
-3.07021e-11
2.37762e-11
-3.87781e-11
2.66838e-11
-7.34743e-11
1.41375e-11
-1.90173e-10
1.49243e-10
7.24125e-11
-2.5992e-09
1.02543e-09
1.86181e-09
-2.28025e-09
-1.28279e-09
-8.62042e-11
-4.887e-10
-5.66038e-10
-3.08101e-10
-1.27941e-10
-1.2581e-12
1.13605e-11
5.49026e-11
4.46985e-11
8.24671e-11
6.85407e-11
1.04732e-10
8.14441e-11
1.23198e-10
8.34885e-11
1.1765e-10
9.18138e-11
1.22043e-10
8.78002e-11
1.19445e-10
7.83013e-11
1.17284e-10
7.68937e-11
1.0676e-10
7.16541e-11
9.59135e-11
6.29918e-11
1.01049e-10
5.98661e-11
1.02912e-10
5.19121e-11
9.41383e-11
5.06989e-11
8.76647e-11
5.37064e-11
8.45012e-11
4.12955e-11
8.03505e-11
1.93952e-11
3.39729e-11
-6.63405e-12
4.48803e-11
-2.61515e-13
3.0815e-11
-1.73372e-11
3.16553e-11
-3.49634e-11
2.91708e-11
-4.63682e-11
3.73982e-11
-8.62418e-11
3.26485e-11
-2.16246e-10
1.80607e-10
9.25149e-11
-2.77158e-09
1.36276e-09
2.06845e-09
-2.77154e-09
-1.48245e-09
1.17893e-10
-3.61527e-10
-5.56062e-10
-3.19916e-10
-1.28128e-10
1.34265e-12
1.14769e-11
5.14696e-11
4.14041e-11
7.88828e-11
6.57688e-11
1.01739e-10
7.92103e-11
1.21106e-10
8.19576e-11
1.15302e-10
9.04536e-11
1.20267e-10
8.69325e-11
1.17829e-10
7.74544e-11
1.16079e-10
7.65992e-11
1.057e-10
7.15708e-11
9.48813e-11
6.27094e-11
1.00275e-10
5.98141e-11
1.02642e-10
5.19034e-11
9.33735e-11
5.0518e-11
8.73145e-11
5.34541e-11
8.53844e-11
4.17277e-11
8.68362e-11
1.67779e-11
2.30551e-11
-1.17062e-11
4.59081e-11
-6.93264e-13
3.2147e-11
-2.00379e-11
3.44997e-11
-3.92611e-11
3.44256e-11
-5.37586e-11
4.74387e-11
-9.7594e-11
4.88302e-11
-2.36475e-10
2.025e-10
1.18611e-10
-2.93133e-09
1.66859e-09
2.27962e-09
-3.20685e-09
-1.70118e-09
3.03665e-10
-2.24889e-10
-5.40801e-10
-3.33334e-10
-1.29863e-10
3.61482e-12
1.16263e-11
4.78453e-11
3.79045e-11
7.50287e-11
6.27841e-11
9.84873e-11
7.68462e-11
1.18711e-10
8.03285e-11
1.12776e-10
8.89761e-11
1.18283e-10
8.59869e-11
1.16036e-10
7.65842e-11
1.14705e-10
7.62755e-11
1.04521e-10
7.1455e-11
9.37847e-11
6.24374e-11
9.93598e-11
5.98131e-11
1.0224e-10
5.19445e-11
9.25089e-11
5.03501e-11
8.69147e-11
5.31088e-11
8.63115e-11
4.22646e-11
9.58807e-11
1.19298e-11
8.63523e-12
-1.67924e-11
4.71307e-11
-1.10396e-12
3.34378e-11
-2.27121e-11
3.70675e-11
-4.33026e-11
3.9178e-11
-6.03765e-11
5.60626e-11
-1.06578e-10
6.14438e-11
-2.49413e-10
2.14004e-10
1.49417e-10
-3.06536e-09
1.9238e-09
2.47862e-09
-3.56978e-09
-1.92659e-09
4.61055e-10
-8.43007e-11
-5.1951e-10
-3.47559e-10
-1.33417e-10
5.25686e-12
1.17445e-11
4.40691e-11
3.42353e-11
7.09275e-11
5.9599e-11
9.49973e-11
7.43698e-11
1.16028e-10
7.86079e-11
1.10091e-10
8.73944e-11
1.16108e-10
8.49612e-11
1.14082e-10
7.57004e-11
1.13164e-10
7.5926e-11
1.03225e-10
7.13055e-11
9.26332e-11
6.21783e-11
9.83069e-11
5.98628e-11
1.01707e-10
5.20406e-11
9.15351e-11
5.02365e-11
8.6414e-11
5.27671e-11
8.70986e-11
4.2941e-11
1.09853e-10
3.39204e-12
-1.103e-11
-2.19039e-11
4.83741e-11
-1.46296e-12
3.45914e-11
-2.51804e-11
3.91642e-11
-4.67958e-11
4.30658e-11
-6.57237e-11
6.26459e-11
-1.12459e-10
6.96444e-11
-2.5434e-10
2.1516e-10
1.82958e-10
-3.1622e-09
2.11464e-09
2.64796e-09
-3.84434e-09
-2.14361e-09
5.83003e-10
5.40172e-11
-4.91693e-10
-3.61553e-10
-1.38932e-10
5.96279e-12
1.17532e-11
4.01818e-11
3.04344e-11
6.66019e-11
5.62237e-11
9.12893e-11
7.17983e-11
1.13077e-10
7.68026e-11
1.07266e-10
8.57205e-11
1.13763e-10
8.38546e-11
1.1198e-10
7.48141e-11
1.11463e-10
7.55547e-11
1.01818e-10
7.11205e-11
9.1437e-11
6.19317e-11
9.71216e-11
5.99602e-11
1.01043e-10
5.21954e-11
9.04452e-11
5.02073e-11
8.58095e-11
5.24202e-11
8.77955e-11
4.30941e-11
1.32613e-10
-1.26401e-12
-3.69544e-11
-2.71038e-11
4.89324e-11
-1.83218e-12
3.54412e-11
-2.72918e-11
4.05921e-11
-4.94808e-11
4.57664e-11
-6.94096e-11
6.67599e-11
-1.14756e-10
7.30664e-11
-2.51182e-10
2.06818e-10
2.17006e-10
-3.21254e-09
2.23315e-09
2.7702e-09
-4.02077e-09
-2.33795e-09
6.6505e-10
1.83192e-10
-4.5725e-10
-3.7419e-10
-1.46415e-10
5.42969e-12
1.15518e-11
3.62193e-11
2.65421e-11
6.20772e-11
5.26689e-11
8.73833e-11
6.91477e-11
1.09877e-10
7.492e-11
1.04322e-10
8.39649e-11
1.11269e-10
8.26701e-11
1.09743e-10
7.39369e-11
1.09607e-10
7.51654e-11
1.00306e-10
7.08979e-11
9.02055e-11
6.16952e-11
9.58114e-11
6.01036e-11
1.00246e-10
5.24199e-11
8.9219e-11
5.03174e-11
8.51843e-11
5.23134e-11
8.77454e-11
4.32064e-11
1.48708e-10
-2.30302e-14
-5.55195e-11
-3.03572e-11
4.87831e-11
-2.07983e-12
3.5963e-11
-2.88685e-11
4.12084e-11
-5.1141e-11
4.70427e-11
-7.11772e-11
6.81969e-11
-1.13377e-10
7.17464e-11
-2.4065e-10
1.90409e-10
2.49115e-10
-3.21025e-09
2.27677e-09
2.83489e-09
-4.0967e-09
-2.49771e-09
7.05661e-10
2.98523e-10
-4.16739e-10
-3.8449e-10
-1.55755e-10
3.38524e-12
1.10246e-11
3.22122e-11
2.26003e-11
5.73802e-11
4.89465e-11
8.33007e-11
6.64337e-11
1.06452e-10
7.29669e-11
1.01277e-10
8.21377e-11
1.08637e-10
8.14125e-11
1.07383e-10
7.30808e-11
1.07606e-10
7.4761e-11
9.87019e-11
7.06355e-11
8.89488e-11
6.14671e-11
9.43823e-11
6.02933e-11
9.93085e-11
5.27274e-11
8.78235e-11
5.0618e-11
8.40596e-11
5.27639e-11
8.63084e-11
4.43056e-11
1.30613e-10
1.72802e-12
-3.63982e-11
-2.93368e-11
4.81791e-11
-2.00121e-12
3.61711e-11
-2.9753e-11
4.09293e-11
-5.16246e-11
4.67775e-11
-7.09276e-11
6.69628e-11
-1.08451e-10
6.6031e-11
-2.23618e-10
1.68122e-10
2.75665e-10
-3.15428e-09
2.24839e-09
2.83561e-09
-4.0757e-09
-2.61371e-09
7.05793e-10
3.96104e-10
-3.71262e-10
-3.91628e-10
-1.66694e-10
-3.68212e-13
1.00549e-11
2.81862e-11
1.86517e-11
5.25403e-11
4.50683e-11
7.90615e-11
6.36697e-11
1.02827e-10
7.09501e-11
9.81508e-11
8.02498e-11
1.05908e-10
8.00879e-11
1.04911e-10
7.22553e-11
1.05471e-10
7.43432e-11
9.70169e-11
7.03321e-11
8.76774e-11
6.1244e-11
9.28432e-11
6.05256e-11
9.82341e-11
5.31124e-11
8.62722e-11
5.1078e-11
8.27171e-11
5.3526e-11
8.41039e-11
4.54099e-11
1.0366e-10
8.4541e-12
-9.12951e-12
-2.58139e-11
4.67979e-11
-1.71836e-12
3.59112e-11
-2.9919e-11
3.969e-11
-5.08851e-11
4.49711e-11
-6.87301e-11
6.3195e-11
-1.00299e-10
5.66302e-11
-2.01361e-10
1.42392e-10
2.94827e-10
-3.04622e-09
2.15539e-09
2.77003e-09
-3.96724e-09
-2.68116e-09
6.6745e-10
4.73145e-10
-3.22259e-10
-3.94971e-10
-1.7886e-10
-5.9584e-12
8.51596e-12
2.41491e-11
1.4731e-11
4.75832e-11
4.10435e-11
7.46821e-11
6.08661e-11
9.90249e-11
6.88749e-11
9.49599e-11
7.83099e-11
1.03088e-10
7.87031e-11
1.02334e-10
7.14672e-11
1.03217e-10
7.39129e-11
9.52653e-11
6.99878e-11
8.6401e-11
6.10242e-11
9.12034e-11
6.07981e-11
9.70287e-11
5.35663e-11
8.4578e-11
5.16723e-11
8.12311e-11
5.43688e-11
8.16479e-11
4.62285e-11
8.84755e-11
1.79905e-11
1.1038e-11
-2.1832e-11
4.46031e-11
-1.29967e-12
3.50954e-11
-2.93615e-11
3.74945e-11
-4.89504e-11
4.17222e-11
-6.47273e-11
5.71281e-11
-8.94688e-11
4.46812e-11
-1.75454e-10
1.15251e-10
3.05439e-10
-2.89059e-09
2.00768e-09
2.6384e-09
-3.78427e-09
-2.69638e-09
6.00873e-10
5.27442e-10
-2.71514e-10
-3.94177e-10
-1.91829e-10
-1.34427e-11
6.27812e-12
2.00899e-11
1.08652e-11
4.25329e-11
3.68808e-11
7.01754e-11
5.80301e-11
9.50713e-11
6.67465e-11
9.17174e-11
7.63242e-11
1.00192e-10
7.72655e-11
9.9662e-11
7.07198e-11
1.00859e-10
7.34698e-11
9.34629e-11
6.9605e-11
8.5127e-11
6.08075e-11
8.94709e-11
6.11116e-11
9.56978e-11
5.40875e-11
8.2743e-11
5.23948e-11
7.95961e-11
5.5278e-11
7.89785e-11
4.71012e-11
7.79749e-11
2.33396e-11
2.50645e-11
-1.72405e-11
4.22719e-11
-5.7354e-13
3.37847e-11
-2.8064e-11
3.44314e-11
-4.59146e-11
3.71803e-11
-5.90903e-11
4.94318e-11
-7.66902e-11
3.11173e-11
-1.47444e-10
8.82146e-11
3.07121e-10
-2.69293e-09
1.81588e-09
2.44489e-09
-3.54159e-09
-2.65941e-09
5.11141e-10
5.58189e-10
-2.20796e-10
-3.89159e-10
-2.05134e-10
-2.27737e-11
3.24467e-12
1.59954e-11
7.07945e-12
3.74154e-11
3.25923e-11
6.55556e-11
5.5167e-11
9.09896e-11
6.45694e-11
8.84365e-11
7.42979e-11
9.72334e-11
7.57823e-11
9.6903e-11
7.00132e-11
9.84105e-11
7.30123e-11
9.16244e-11
6.91871e-11
8.38632e-11
6.05939e-11
8.76574e-11
6.14629e-11
9.42543e-11
5.46624e-11
8.07889e-11
5.32068e-11
7.7869e-11
5.61414e-11
7.62907e-11
4.80115e-11
7.04275e-11
2.60626e-11
3.51497e-11
-1.19127e-11
4.00891e-11
5.12674e-13
3.20118e-11
-2.60838e-11
3.06195e-11
-4.19208e-11
3.15419e-11
-5.21475e-11
4.05548e-11
-6.27001e-11
1.69148e-11
-1.18684e-10
6.24708e-11
3.0006e-10
-2.46034e-09
1.59138e-09
2.19592e-09
-3.25453e-09
-2.57347e-09
4.05621e-10
5.67517e-10
-1.71793e-10
-3.80131e-10
-2.18344e-10
-3.38277e-11
-6.52289e-13
1.18476e-11
3.39255e-12
3.22552e-11
2.81909e-11
6.08379e-11
5.22778e-11
8.6799e-11
6.23489e-11
8.51293e-11
7.22342e-11
9.4222e-11
7.42603e-11
9.40663e-11
6.93437e-11
9.58884e-11
7.2537e-11
8.97628e-11
6.87392e-11
8.26176e-11
6.03833e-11
8.57768e-11
6.18458e-11
9.27154e-11
5.52747e-11
7.87447e-11
5.4068e-11
7.61014e-11
5.68764e-11
7.3729e-11
4.88711e-11
6.49029e-11
2.76314e-11
4.23018e-11
-6.20942e-12
3.80168e-11
1.90046e-12
2.97964e-11
-2.3531e-11
2.61963e-11
-3.71231e-11
2.52218e-11
-4.43515e-11
3.10246e-11
-4.81704e-11
3.00063e-12
-9.02945e-11
3.86815e-11
2.84671e-10
-2.20026e-09
1.34602e-09
1.89995e-09
-2.93958e-09
-2.44397e-09
2.92026e-10
5.57894e-10
-1.25769e-10
-3.67489e-10
-2.31114e-10
-4.64591e-11
-5.47414e-12
7.61178e-12
-1.92615e-13
2.70645e-11
2.36819e-11
5.6033e-11
4.93553e-11
8.25198e-11
6.00884e-11
8.18069e-11
7.01334e-11
9.11629e-11
7.27044e-11
9.11603e-11
6.87035e-11
9.3305e-11
7.20378e-11
8.78875e-11
6.82665e-11
8.13977e-11
6.01754e-11
8.38446e-11
6.22531e-11
9.10981e-11
5.59111e-11
7.66388e-11
5.49463e-11
7.43251e-11
5.74565e-11
7.1321e-11
4.96503e-11
6.08412e-11
2.87625e-11
4.70967e-11
-5.09365e-13
3.60222e-11
3.55687e-12
2.7211e-11
-2.05239e-11
2.1336e-11
-3.17184e-11
1.84888e-11
-3.61079e-11
2.13882e-11
-3.37151e-11
-9.83949e-12
-6.30831e-11
1.7219e-11
2.61443e-10
-1.92074e-09
1.09237e-09
1.56655e-09
-2.61635e-09
-2.27729e-09
1.77253e-10
5.32751e-10
-8.3556e-11
-3.51688e-10
-2.43148e-10
-6.05138e-11
-1.12701e-11
3.24747e-12
-3.67251e-12
2.18493e-11
1.90684e-11
5.11439e-11
4.63891e-11
7.81569e-11
5.77944e-11
7.84763e-11
6.79973e-11
8.80566e-11
7.11213e-11
8.81899e-11
6.80849e-11
9.06677e-11
7.15097e-11
8.60026e-11
6.77767e-11
8.02055e-11
5.99698e-11
8.18731e-11
6.2679e-11
8.94187e-11
5.6563e-11
7.44928e-11
5.58232e-11
7.25521e-11
5.78815e-11
6.90485e-11
5.03812e-11
5.77959e-11
2.97663e-11
4.99918e-11
4.98014e-12
3.41141e-11
5.46567e-12
2.43535e-11
-1.71911e-11
1.62172e-11
-2.59327e-11
1.16236e-11
-2.77624e-11
1.21107e-11
-1.98363e-11
-2.10236e-11
-3.75433e-11
-1.92571e-12
2.31034e-10
-1.62958e-09
8.4191e-10
8.85818e-10
2.97938e-10
-6.69134e-10
-1.10418e-09
-8.79903e-10
-5.66941e-10
-2.79377e-10
-1.3828e-10
-1.06992e-11
1.61323e-11
7.40608e-11
6.21052e-11
1.00546e-10
8.21135e-11
1.17828e-10
9.29409e-11
1.28891e-10
9.20822e-11
1.28449e-10
9.74714e-11
1.2898e-10
9.24798e-11
1.25337e-10
8.38527e-11
1.20898e-10
7.8315e-11
1.11513e-10
7.13e-11
1.01593e-10
6.50666e-11
1.02654e-10
6.16709e-11
1.01213e-10
5.36339e-11
9.64188e-11
5.07797e-11
9.01579e-11
5.10732e-11
8.26199e-11
3.83158e-11
7.21308e-11
2.69745e-11
5.93284e-11
1.34974e-11
4.0944e-11
-1.10305e-12
2.37616e-11
-7.93695e-12
1.37034e-11
-1.6017e-11
-5.02514e-13
-1.11679e-11
-2.30285e-11
-1.52649e-11
-7.71006e-11
-1.58308e-11
-1.06505e-10
-1.46878e-10
-1.61413e-09
-3.49043e-10
9.35138e-10
3.23494e-10
-6.82237e-10
-1.11378e-09
-8.83637e-10
-5.66997e-10
-2.79466e-10
-1.38278e-10
-1.11909e-11
1.57971e-11
7.34816e-11
6.18394e-11
1.00018e-10
8.19387e-11
1.17488e-10
9.27807e-11
1.28657e-10
9.19694e-11
1.28154e-10
9.75382e-11
1.28705e-10
9.25101e-11
1.25161e-10
8.38819e-11
1.20729e-10
7.84495e-11
1.1124e-10
7.15037e-11
1.01323e-10
6.52015e-11
1.02522e-10
6.17796e-11
1.0107e-10
5.37318e-11
9.62394e-11
5.10248e-11
8.98667e-11
5.14233e-11
8.23849e-11
3.85353e-11
7.19527e-11
2.71072e-11
5.90781e-11
1.38094e-11
4.07399e-11
-7.58452e-13
2.35834e-11
-7.57346e-12
1.3679e-11
-1.56997e-11
-4.77807e-13
-1.07468e-11
-2.28303e-11
-1.50696e-11
-7.67729e-11
-1.61489e-11
-1.00371e-10
-1.31248e-10
-1.64617e-09
-3.8395e-10
9.95258e-10
3.37512e-10
-6.97492e-10
-1.12043e-09
-8.87074e-10
-5.67165e-10
-2.79284e-10
-1.38303e-10
-1.14688e-11
1.52409e-11
7.29044e-11
6.12695e-11
9.94971e-11
8.14803e-11
1.17223e-10
9.23094e-11
1.28648e-10
9.15669e-11
1.2797e-10
9.73881e-11
1.28592e-10
9.23005e-11
1.25186e-10
8.36256e-11
1.20787e-10
7.83493e-11
1.11145e-10
7.15251e-11
1.01202e-10
6.50983e-11
1.02632e-10
6.16071e-11
1.01238e-10
5.35358e-11
9.63194e-11
5.10372e-11
8.97732e-11
5.16204e-11
8.23886e-11
3.85345e-11
7.20406e-11
2.69055e-11
5.90246e-11
1.38689e-11
4.08262e-11
-5.65199e-13
2.36452e-11
-7.39845e-12
1.40081e-11
-1.56278e-11
-1.45476e-13
-1.05602e-11
-2.23446e-11
-1.49088e-11
-7.61795e-11
-1.84465e-11
-9.47927e-11
-1.00519e-10
-1.6945e-09
-4.16702e-10
1.05801e-09
3.24608e-10
-7.11736e-10
-1.11849e-09
-8.90039e-10
-5.67526e-10
-2.78894e-10
-1.38005e-10
-1.15175e-11
1.46762e-11
7.21654e-11
6.05205e-11
9.88144e-11
8.08895e-11
1.16851e-10
9.17153e-11
1.28681e-10
9.10502e-11
1.27699e-10
9.71806e-11
1.28462e-10
9.20299e-11
1.25202e-10
8.32717e-11
1.20872e-10
7.82085e-11
1.1104e-10
7.1543e-11
1.01039e-10
6.49431e-11
1.02785e-10
6.13649e-11
1.0152e-10
5.32598e-11
9.64329e-11
5.10123e-11
8.96911e-11
5.18463e-11
8.24546e-11
3.85041e-11
7.22185e-11
2.65467e-11
5.89631e-11
1.37933e-11
4.10649e-11
-4.07706e-13
2.38413e-11
-7.36897e-12
1.46448e-11
-1.58373e-11
5.73407e-13
-1.08148e-11
-2.10244e-11
-1.58049e-11
-7.43522e-11
-2.4406e-11
-8.4717e-11
-6.33187e-11
-1.7545e-09
-4.32075e-10
1.11474e-09
2.61247e-10
-7.23222e-10
-1.09684e-09
-8.89434e-10
-5.68172e-10
-2.78483e-10
-1.37298e-10
-1.1323e-11
1.41135e-11
7.11311e-11
5.9533e-11
9.78516e-11
8.01127e-11
1.16257e-10
9.09757e-11
1.28641e-10
9.04319e-11
1.27241e-10
9.69176e-11
1.2824e-10
9.17229e-11
1.25116e-10
8.28614e-11
1.20897e-10
7.80729e-11
1.10862e-10
7.15916e-11
1.00778e-10
6.47781e-11
1.02904e-10
6.11195e-11
1.01838e-10
5.29783e-11
9.64861e-11
5.10054e-11
8.95588e-11
5.21385e-11
8.25301e-11
3.85087e-11
7.24311e-11
2.61034e-11
5.87816e-11
1.35933e-11
4.14085e-11
-2.53557e-13
2.41363e-11
-7.51061e-12
1.55747e-11
-1.6397e-11
1.75782e-12
-1.17221e-11
-1.87112e-11
-1.80798e-11
-7.05102e-11
-3.4987e-11
-6.80836e-11
-2.76929e-11
-1.82408e-09
-4.07186e-10
1.166e-09
1.2458e-10
-7.35611e-10
-1.04629e-09
-8.81106e-10
-5.69122e-10
-2.78295e-10
-1.36134e-10
-1.08099e-11
1.35663e-11
6.97587e-11
5.82481e-11
9.65573e-11
7.90948e-11
1.15386e-10
9.00492e-11
1.28461e-10
8.96914e-11
1.26552e-10
9.65582e-11
1.27889e-10
9.13635e-11
1.2489e-10
8.23893e-11
1.20827e-10
7.79367e-11
1.10596e-10
7.16575e-11
1.00411e-10
6.45994e-11
1.02962e-10
6.08824e-11
1.02159e-10
5.27142e-11
9.6446e-11
5.10164e-11
8.93664e-11
5.24809e-11
8.26091e-11
3.85628e-11
7.26798e-11
2.55801e-11
5.84172e-11
1.3234e-11
4.18523e-11
-1.15286e-13
2.4542e-11
-7.88984e-12
1.68165e-11
-1.7402e-11
3.51441e-12
-1.35085e-11
-1.5022e-11
-2.21382e-11
-6.38632e-11
-5.09408e-11
-4.36518e-11
1.37392e-12
-1.90596e-09
-3.21526e-10
1.22104e-09
-9.91211e-11
-7.57463e-10
-9.61075e-10
-8.60745e-10
-5.7032e-10
-2.78686e-10
-1.34498e-10
-9.89235e-12
1.30762e-11
6.80502e-11
5.66473e-11
9.49158e-11
7.78129e-11
1.1421e-10
8.89138e-11
1.28086e-10
8.88221e-11
1.25609e-10
9.60685e-11
1.27376e-10
9.0938e-11
1.24491e-10
8.18498e-11
1.20634e-10
7.77917e-11
1.10228e-10
7.17259e-11
9.99358e-11
6.44031e-11
1.02936e-10
6.06605e-11
1.02451e-10
5.24845e-11
9.62904e-11
5.10407e-11
8.91086e-11
5.28539e-11
8.26881e-11
3.8673e-11
7.29824e-11
2.4966e-11
5.78131e-11
1.26837e-11
4.23989e-11
-1.96293e-14
2.50862e-11
-8.57835e-12
1.84008e-11
-1.89521e-11
5.96118e-12
-1.63879e-11
-9.7634e-12
-2.85416e-11
-5.38365e-11
-7.2435e-11
-1.13182e-11
2.25462e-11
-2.00572e-09
-1.65212e-10
1.29106e-09
-4.1257e-10
-7.98395e-10
-8.39359e-10
-8.24595e-10
-5.71592e-10
-2.80141e-10
-1.32461e-10
-8.51855e-12
1.26828e-11
6.60189e-11
5.47339e-11
9.29272e-11
7.62647e-11
1.12718e-10
8.7566e-11
1.2747e-10
8.78263e-11
1.24401e-10
9.54305e-11
1.26674e-10
9.04396e-11
1.23899e-10
8.12449e-11
1.20293e-10
7.76337e-11
1.09746e-10
7.17867e-11
9.93499e-11
6.41912e-11
1.02805e-10
6.04643e-11
1.0268e-10
5.23047e-11
9.60024e-11
5.10762e-11
8.87797e-11
5.32411e-11
8.27619e-11
3.88429e-11
7.33667e-11
2.42372e-11
5.69135e-11
1.19231e-11
4.30544e-11
-9.75291e-17
2.57998e-11
-9.63794e-12
2.03526e-11
-2.11264e-11
9.18891e-12
-2.05048e-11
-2.83415e-12
-3.72939e-11
-4.03212e-11
-9.88252e-11
2.73228e-11
3.72242e-11
-2.12673e-09
6.08669e-11
1.38702e-09
-8.08703e-10
-8.67767e-10
-6.83254e-10
-7.69776e-10
-5.72451e-10
-2.83161e-10
-1.3019e-10
-6.68213e-12
1.24119e-11
6.36789e-11
5.25189e-11
9.05993e-11
7.44572e-11
1.10911e-10
8.60139e-11
1.26582e-10
8.67107e-11
1.22932e-10
9.46377e-11
1.25761e-10
8.98666e-11
1.23096e-10
8.05809e-11
1.19783e-10
7.74596e-11
1.09141e-10
7.18325e-11
9.86522e-11
6.39685e-11
1.0255e-10
6.03036e-11
1.02818e-10
5.21853e-11
9.55733e-11
5.11204e-11
8.83778e-11
5.36258e-11
8.28281e-11
3.90712e-11
7.38725e-11
2.33644e-11
5.56638e-11
1.09423e-11
4.38266e-11
-8.96816e-14
2.67056e-11
-1.11034e-11
2.26725e-11
-2.39543e-11
1.32375e-11
-2.58687e-11
5.70108e-12
-4.81716e-11
-2.37537e-11
-1.28639e-10
6.96555e-11
4.8373e-11
-2.26966e-09
3.46892e-10
1.51504e-09
-1.27005e-09
-9.71437e-10
-4.99045e-10
-6.95052e-10
-5.72135e-10
-2.8818e-10
-1.27954e-10
-4.42844e-12
1.22733e-11
6.1045e-11
5.00157e-11
8.79428e-11
7.24007e-11
1.08794e-10
8.42716e-11
1.254e-10
8.54825e-11
1.21211e-10
9.36909e-11
1.24627e-10
8.92194e-11
1.22077e-10
7.98661e-11
1.19094e-10
7.72653e-11
1.08409e-10
7.18574e-11
9.78473e-11
6.37401e-11
1.02159e-10
6.01859e-11
1.02841e-10
5.2131e-11
9.50039e-11
5.11703e-11
8.7905e-11
5.39922e-11
8.28843e-11
3.9355e-11
7.45476e-11
2.23202e-11
5.40273e-11
9.74574e-12
4.47134e-11
-3.10514e-13
2.78058e-11
-1.29686e-11
2.53208e-11
-2.73964e-11
1.79665e-11
-3.2325e-11
1.55413e-11
-6.06066e-11
-5.09744e-12
-1.59739e-10
1.12072e-10
5.94666e-11
-2.43062e-09
6.77257e-10
1.67631e-09
-1.77009e-09
-1.111e-09
-2.96369e-10
-6.00583e-10
-5.69689e-10
-2.95489e-10
-1.26108e-10
-1.86264e-12
1.22604e-11
5.81329e-11
4.72386e-11
8.49692e-11
7.01049e-11
1.06376e-10
8.23544e-11
1.23912e-10
8.41475e-11
1.19258e-10
9.25959e-11
1.23266e-10
8.8499e-11
1.20845e-10
7.91084e-11
1.18224e-10
7.70464e-11
1.07551e-10
7.18571e-11
9.69433e-11
6.35104e-11
1.01625e-10
6.01165e-11
1.02738e-10
5.21413e-11
9.43017e-11
5.12225e-11
8.7366e-11
5.43264e-11
8.29234e-11
3.96894e-11
7.54343e-11
2.10817e-11
5.19899e-11
8.35561e-12
4.56959e-11
-6.64759e-13
2.90738e-11
-1.51821e-11
2.82127e-11
-3.13309e-11
2.31892e-11
-3.95626e-11
2.61623e-11
-7.37308e-11
1.42773e-11
-1.89601e-10
1.50699e-10
7.39885e-11
-2.60259e-09
1.02421e-09
1.86497e-09
-2.27874e-09
-1.28327e-09
-8.66224e-11
-4.88112e-10
-5.64064e-10
-3.05156e-10
-1.2506e-10
8.50582e-13
1.2352e-11
5.49616e-11
4.42032e-11
8.16904e-11
6.75777e-11
1.03669e-10
8.02777e-11
1.22115e-10
8.27096e-11
1.17088e-10
9.13619e-11
1.2168e-10
8.77054e-11
1.19408e-10
7.83141e-11
1.17174e-10
7.67997e-11
1.06569e-10
7.1828e-11
9.59506e-11
6.32834e-11
1.00945e-10
6.00987e-11
1.02503e-10
5.22116e-11
9.34788e-11
5.12758e-11
8.67655e-11
5.4619e-11
8.29337e-11
4.00605e-11
7.65601e-11
1.96731e-11
4.9556e-11
6.81344e-12
4.67305e-11
-1.13437e-12
3.04551e-11
-1.76529e-11
3.12217e-11
-3.55565e-11
2.86171e-11
-4.71394e-11
3.68778e-11
-8.64992e-11
3.28151e-11
-2.15694e-10
1.81991e-10
9.41503e-11
-2.7746e-09
1.36176e-09
2.07135e-09
-2.77007e-09
-1.48279e-09
1.1741e-10
-3.61107e-10
-5.54153e-10
-3.16961e-10
-1.25204e-10
3.4974e-12
1.25191e-11
5.15612e-11
4.09329e-11
7.81224e-11
6.48287e-11
1.00686e-10
7.80577e-11
1.20011e-10
8.11731e-11
1.14723e-10
9.00007e-11
1.19875e-10
8.6837e-11
1.17776e-10
7.7489e-11
1.15948e-10
7.65238e-11
1.05465e-10
7.17674e-11
9.488e-11
6.30618e-11
1.0012e-10
6.01325e-11
1.02136e-10
5.23348e-11
9.25475e-11
5.13333e-11
8.61057e-11
5.48663e-11
8.28975e-11
4.04547e-11
7.79081e-11
1.81435e-11
4.67773e-11
5.19272e-12
4.77557e-11
-1.68021e-12
3.18734e-11
-2.02575e-11
3.41314e-11
-3.9815e-11
3.39089e-11
-5.45135e-11
4.69239e-11
-9.78527e-11
4.90255e-11
-2.35938e-10
2.03823e-10
1.20281e-10
-2.93411e-09
1.66782e-09
2.28242e-09
-3.20563e-09
-1.70142e-09
3.03169e-10
-2.24639e-10
-5.38987e-10
-3.30393e-10
-1.2691e-10
5.80391e-12
1.2712e-11
4.79664e-11
3.74574e-11
7.42846e-11
6.1869e-11
9.74477e-11
7.57111e-11
1.17609e-10
7.9543e-11
1.12182e-10
8.85253e-11
1.17865e-10
8.58914e-11
1.15966e-10
7.664e-11
1.14553e-10
7.62192e-11
1.04243e-10
7.16728e-11
9.37436e-11
6.28475e-11
9.91544e-11
6.02148e-11
1.01642e-10
5.25033e-11
9.15191e-11
5.1404e-11
8.53866e-11
5.50722e-11
8.2782e-11
4.08729e-11
7.94e-11
1.65817e-11
4.37805e-11
3.59191e-12
4.86955e-11
-2.24424e-12
3.32434e-11
-2.28412e-11
3.67626e-11
-4.38176e-11
3.86999e-11
-6.11129e-11
5.55575e-11
-1.06838e-10
6.16671e-11
-2.48883e-10
2.15288e-10
1.51091e-10
-3.06802e-09
1.92332e-09
2.48138e-09
-3.56879e-09
-1.92673e-09
4.60589e-10
-8.40593e-11
-5.17799e-10
-3.44647e-10
-1.30451e-10
7.46771e-12
1.28651e-11
4.42158e-11
3.38106e-11
7.01986e-11
5.87091e-11
9.39725e-11
7.3255e-11
1.14925e-10
7.78252e-11
1.09484e-10
8.69483e-11
1.15667e-10
8.48661e-11
1.13995e-10
7.57757e-11
1.12993e-10
7.5888e-11
1.02909e-10
7.15413e-11
9.2554e-11
6.26394e-11
9.80566e-11
6.03396e-11
1.01027e-10
5.27116e-11
9.04011e-11
5.15e-11
8.46049e-11
5.5251e-11
8.25392e-11
4.13183e-11
8.08723e-11
1.51608e-11
4.08037e-11
2.11057e-12
4.94581e-11
-2.76201e-12
3.44458e-11
-2.52306e-11
3.89176e-11
-4.72743e-11
4.2626e-11
-6.64413e-11