/*--------------------------------*- C++ -*----------------------------------*\
| =========                 |                                                 |
| \\      /  F ield         | OpenFOAM: The Open Source CFD Toolbox           |
|  \\    /   O peration     | Version:  2312                                  |
|   \\  /    A nd           | Website:  www.openfoam.com                      |
|    \\/     M anipulation  |                                                 |
\*---------------------------------------------------------------------------*/
FoamFile
{
    version     2.0;
    format      ascii;
    arch        "LSB;label=32;scalar=64";
    class       volScalarField;
    location    "200";
    object      pMean;
}
// * * * * * * * * * * * * * * * * * * * * * * * * * * * * * * * * * * * * * //

dimensions      [0 2 -2 0 0 0 0];

internalField   nonuniform List<scalar> 
144000
(
1.76034e-09
7.31928e-10
-9.57492e-10
-1.52553e-09
-1.20953e-09
-7.74692e-10
-4.10197e-10
-2.07407e-10
-4.37605e-11
7.54554e-12
7.54592e-11
7.12042e-11
1.12732e-10
9.01533e-11
1.2464e-10
9.57362e-11
1.24853e-10
8.47062e-11
1.15017e-10
7.705e-11
1.10215e-10
6.64873e-11
1.01708e-10
5.8135e-11
9.74729e-11
5.23101e-11
9.35823e-11
4.33142e-11
8.74858e-11
3.68464e-11
8.57484e-11
3.38101e-11
8.38072e-11
2.40575e-11
7.68448e-11
1.75698e-11
7.48987e-11
1.33108e-11
7.24705e-11
5.83277e-12
6.70545e-11
1.72126e-12
6.7547e-11
-3.95253e-12
6.11074e-11
-1.31539e-11
5.29373e-11
-1.40059e-11
5.18837e-11
-7.52058e-12
5.34586e-11
1.57002e-11
5.76887e-11
5.27655e-11
4.40225e-11
1.21472e-10
1.07517e-10
4.63639e-10
-2.04914e-09
-5.17889e-10
1.81766e-09
7.71334e-10
-9.72492e-10
-1.53689e-09
-1.21198e-09
-7.74523e-10
-4.10533e-10
-2.08079e-10
-4.47262e-11
6.62087e-12
7.45435e-11
7.0514e-11
1.12055e-10
8.96666e-11
1.24124e-10
9.54369e-11
1.24451e-10
8.44392e-11
1.14653e-10
7.69121e-11
1.09927e-10
6.63726e-11
1.0143e-10
5.8099e-11
9.72323e-11
5.23207e-11
9.33587e-11
4.33368e-11
8.72547e-11
3.69125e-11
8.55329e-11
3.39257e-11
8.35916e-11
2.41622e-11
7.65951e-11
1.77413e-11
7.46568e-11
1.35209e-11
7.2211e-11
6.04817e-12
6.66715e-11
1.90552e-12
6.71548e-11
-3.5917e-12
6.07671e-11
-1.27264e-11
5.25283e-11
-1.34311e-11
5.14649e-11
-6.86456e-12
5.29901e-11
1.6495e-11
5.7192e-11
5.35294e-11
4.32806e-11
1.20476e-10
1.12439e-10
4.91175e-10
-2.08139e-09
-5.76e-10
1.90071e-09
7.68947e-10
-1.00107e-09
-1.53444e-09
-1.20845e-09
-7.72023e-10
-4.09503e-10
-2.08235e-10
-4.53149e-11
5.3804e-12
7.34632e-11
6.93358e-11
1.11276e-10
8.87143e-11
1.23541e-10
9.47422e-11
1.24135e-10
8.37989e-11
1.14337e-10
7.64162e-11
1.09797e-10
6.59234e-11
1.01308e-10
5.77293e-11
9.72104e-11
5.20063e-11
9.33851e-11
4.30198e-11
8.72653e-11
3.66361e-11
8.55943e-11
3.37136e-11
8.37185e-11
2.39043e-11
7.66509e-11
1.75427e-11
7.4776e-11
1.33572e-11
7.23418e-11
5.88665e-12
6.66264e-11
1.59558e-12
6.71095e-11
-3.68543e-12
6.09058e-11
-1.26966e-11
5.25576e-11
-1.32706e-11
5.15533e-11
-6.65242e-12
5.3008e-11
1.6761e-11
5.73559e-11
5.35191e-11
4.38273e-11
1.1536e-10
1.16869e-10
5.31793e-10
-2.14438e-09
-6.05961e-10
1.98477e-09
6.81373e-10
-1.03372e-09
-1.50488e-09
-1.19677e-09
-7.67269e-10
-4.06703e-10
-2.06976e-10
-4.50551e-11
4.34824e-12
7.22104e-11
6.78557e-11
1.1022e-10
8.74982e-11
1.22689e-10
9.38407e-11
1.23671e-10
8.29684e-11
1.13797e-10
7.57644e-11
1.09561e-10
6.5353e-11
1.01045e-10
5.72601e-11
9.70896e-11
5.1638e-11
9.33658e-11
4.26471e-11
8.71913e-11
3.63118e-11
8.55925e-11
3.34873e-11
8.38469e-11
2.36308e-11
7.66312e-11
1.73241e-11
7.48604e-11
1.32087e-11
7.24631e-11
5.77227e-12
6.64892e-11
1.24387e-12
6.69253e-11
-3.87686e-12
6.10616e-11
-1.2628e-11
5.25413e-11
-1.31165e-11
5.1725e-11
-6.55402e-12
5.32212e-11
1.65973e-11
5.8396e-11
5.20105e-11
4.70892e-11
1.02844e-10
1.31635e-10
5.60674e-10
-2.22721e-09
-5.62036e-10
2.05476e-09
4.75612e-10
-1.06529e-09
-1.4293e-09
-1.17353e-09
-7.61669e-10
-4.03049e-10
-2.04267e-10
-4.38031e-11
3.65648e-12
7.08078e-11
6.61593e-11
1.08867e-10
8.60541e-11
1.21522e-10
9.2761e-11
1.23002e-10
8.19837e-11
1.12975e-10
7.49729e-11
1.0915e-10
6.47038e-11
1.00558e-10
5.67243e-11
9.67986e-11
5.12527e-11
9.32136e-11
4.22742e-11
8.69391e-11
3.5985e-11
8.54339e-11
3.33182e-11
8.38812e-11
2.34216e-11
7.64269e-11
1.71611e-11
7.48053e-11
1.31592e-11
7.2468e-11
5.83602e-12
6.61406e-11
1.05002e-12
6.64071e-11
-4.11975e-12
6.10566e-11
-1.2351e-11
5.23277e-11
-1.29025e-11
5.18446e-11
-6.55742e-12
5.36411e-11
1.58227e-11
6.05883e-11
4.83671e-11
5.40924e-11
8.21903e-11
1.6007e-10
5.67767e-10
-2.32477e-09
-4.15155e-10
2.11649e-09
1.41945e-10
-1.10029e-09
-1.30173e-09
-1.13542e-09
-7.56955e-10
-3.99805e-10
-2.00605e-10
-4.18297e-11
3.19885e-12
6.91857e-11
6.42208e-11
1.07209e-10
8.43879e-11
1.20058e-10
9.15131e-11
1.22135e-10
8.08924e-11
1.11894e-10
7.40652e-11
1.08561e-10
6.40044e-11
9.98619e-11
5.61327e-11
9.63376e-11
5.08679e-11
9.29215e-11
4.19223e-11
8.65e-11
3.56745e-11
8.51109e-11
3.32156e-11
8.37894e-11
2.33012e-11
7.6019e-11
1.70629e-11
7.45791e-11
1.32356e-11
7.2321e-11
6.14371e-12
6.55467e-11
1.06769e-12
6.54534e-11
-4.46243e-12
6.08001e-11
-1.18371e-11
5.19097e-11
-1.26332e-11
5.19269e-11
-6.73879e-12
5.43687e-11
1.41742e-11
6.42782e-11
4.20783e-11
6.56985e-11
5.32884e-11
2.02399e-10
5.52567e-10
-2.44234e-09
-1.58994e-10
2.18296e-09
-3.10303e-10
-1.14907e-09
-1.12331e-09
-1.07941e-09
-7.53715e-10
-3.98129e-10
-1.96517e-10
-3.93901e-11
2.76909e-12
6.71999e-11
6.19374e-11
1.05179e-10
8.24782e-11
1.18289e-10
9.00885e-11
1.21067e-10
7.97218e-11
1.10585e-10
7.30664e-11
1.07811e-10
6.32958e-11
9.8982e-11
5.55148e-11
9.57219e-11
5.05135e-11
9.24881e-11
4.16247e-11
8.58862e-11
3.54077e-11
8.46231e-11
3.32007e-11
8.35622e-11
2.33011e-11
7.54131e-11
1.70549e-11
7.41733e-11
1.34637e-11
7.20155e-11
6.72874e-12
6.47705e-11
1.34496e-12
6.39337e-11
-4.97273e-12
6.02976e-11
-1.10697e-11
5.13043e-11
-1.23681e-11
5.19997e-11
-7.20383e-12
5.55297e-11
1.14916e-11
6.9631e-11
3.29386e-11
8.17978e-11
1.7856e-11
2.54894e-10
5.20352e-10
-2.58051e-09
1.94319e-10
2.26289e-09
-8.49853e-10
-1.2193e-09
-9.03246e-10
-1.00386e-09
-7.51766e-10
-3.98856e-10
-1.92483e-10
-3.66966e-11
2.21866e-12
6.47457e-11
5.91965e-11
1.02675e-10
8.02709e-11
1.16164e-10
8.84537e-11
1.19753e-10
7.84691e-11
1.09058e-10
7.19839e-11
1.0689e-10
6.25965e-11
9.79347e-11
5.4895e-11
9.49593e-11
5.02106e-11
9.19203e-11
4.14096e-11
8.51135e-11
3.52109e-11
8.39785e-11
3.3296e-11
8.31905e-11
2.34445e-11
7.46201e-11
1.71502e-11
7.35947e-11
1.3849e-11
7.1574e-11
7.60509e-12
6.3942e-11
1.86861e-12
6.16747e-11
-5.74105e-12
5.95613e-11
-1.00674e-11
5.05609e-11
-1.21543e-11
5.21076e-11
-8.01634e-12
5.71614e-11
7.75535e-12
7.64809e-11
2.1512e-11
1.01184e-10
-2.05598e-11
3.10109e-10
4.80261e-10
-2.73219e-09
6.09481e-10
2.36054e-09
-1.43105e-09
-1.31518e-09
-6.57501e-10
-9.09043e-10
-7.50057e-10
-4.02582e-10
-1.89021e-10
-3.39646e-11
1.45537e-12
6.17113e-11
5.59462e-11
9.96498e-11
7.77151e-11
1.13647e-10
8.6567e-11
1.18139e-10
7.71128e-11
1.07301e-10
7.0812e-11
1.05769e-10
6.19017e-11
9.67187e-11
5.42825e-11
9.40465e-11
4.99628e-11
9.12132e-11
4.12921e-11
8.41911e-11
3.5102e-11
8.31881e-11
3.35112e-11
8.26725e-11
2.37427e-11
7.3667e-11
1.73558e-11
7.28612e-11
1.4374e-11
7.10451e-11
8.75468e-12
6.32853e-11
2.60375e-12
5.84368e-11
-6.8287e-12
5.86459e-11
-8.85461e-12
4.97288e-11
-1.20159e-11
5.22579e-11
-9.13202e-12
5.9197e-11
3.21486e-12
8.4306e-11
8.85473e-12
1.21742e-10
-5.76097e-11
3.59923e-10
4.41839e-10
-2.88535e-09
1.03876e-09
2.47197e-09
-2.00546e-09
-1.43623e-09
-4.05293e-10
-7.97374e-10
-7.4715e-10
-4.09494e-10
-1.86615e-10
-3.13542e-11
4.49571e-13
5.81195e-11
5.2191e-11
9.60912e-11
7.48033e-11
1.10728e-10
8.44268e-11
1.16192e-10
7.56296e-11
1.05314e-10
6.95426e-11
1.04429e-10
6.11989e-11
9.5334e-11
5.36729e-11
9.29756e-11
4.97746e-11
9.03559e-11
4.12606e-11
8.31254e-11
3.50804e-11
8.22579e-11
3.38471e-11
8.20028e-11
2.41955e-11
7.25709e-11
1.7668e-11
7.19913e-11
1.50251e-11
7.04649e-11
1.01478e-11
6.30677e-11
3.44627e-12
5.39326e-11
-8.28739e-12
5.76166e-11
-7.46625e-12
4.88532e-11
-1.19417e-11
5.24246e-11
-1.04444e-11
6.14512e-11
-1.66788e-12
9.23078e-11
-3.53769e-12
1.41011e-10
-8.89983e-11
3.97729e-10
4.11514e-10
-3.02368e-09
1.43974e-09
2.58592e-09
-2.52427e-09
-1.57744e-09
-1.66265e-10
-6.73084e-10
-7.41404e-10
-4.19365e-10
-1.85711e-10
-2.91055e-11
-7.89869e-13
5.40139e-11
4.79677e-11
9.20205e-11
7.15536e-11
1.07425e-10
8.20328e-11
1.13908e-10
7.40165e-11
1.03095e-10
6.81768e-11
1.0286e-10
6.04742e-11
9.37789e-11
5.30629e-11
9.17403e-11
4.963e-11
8.9342e-11
4.13096e-11
8.19271e-11
3.51495e-11
8.11896e-11
3.42952e-11
8.11805e-11
2.47849e-11
7.13557e-11
1.80875e-11
7.09946e-11
1.57651e-11
6.99003e-11
1.17496e-11
6.36074e-11
4.14549e-12
4.78366e-11
-1.01407e-11
5.65331e-11
-5.91752e-12
4.7926e-11
-1.18786e-11
5.25065e-11
-1.17755e-11
6.36068e-11
-6.34888e-12
9.95845e-11
-1.42001e-11
1.56714e-10
-1.11449e-10
4.19499e-10
3.92053e-10
-3.12924e-09
1.77565e-09
2.68746e-09
-2.95364e-09
-1.72916e-09
4.35132e-11
-5.41781e-10
-7.31283e-10
-4.3159e-10
-1.86689e-10
-2.74274e-11
-2.24889e-12
4.94685e-11
4.33344e-11
8.7474e-11
6.79976e-11
1.03753e-10
7.94066e-11
1.1129e-10
7.22751e-11
1.00656e-10
6.67241e-11
1.01058e-10
5.97161e-11
9.20565e-11
5.24478e-11
9.03372e-11
4.95224e-11
8.81687e-11
4.14272e-11
8.06022e-11
3.53012e-11
7.99866e-11
3.48405e-11
8.02175e-11
2.54949e-11
7.00297e-11
1.86048e-11
6.98866e-11
1.65537e-11
6.94025e-11
1.34884e-11
6.54362e-11
4.46353e-12
3.96738e-11
-1.23206e-11
5.54544e-11
-4.24033e-12
4.69073e-11
-1.17318e-11
5.24196e-11
-1.29097e-11
6.53097e-11
-1.02467e-11
1.0531e-10
-2.18401e-11
1.6718e-10
-1.23042e-10
4.24073e-10
3.83235e-10
-3.18788e-09
2.02336e-09
2.76084e-09
-3.2693e-09
-1.87883e-09
2.12121e-10
-4.09743e-10
-7.15584e-10
-4.45195e-10
-1.89801e-10
-2.65857e-11
-3.91721e-12
4.45732e-11
3.8364e-11
8.25063e-11
6.41676e-11
9.97503e-11
7.65651e-11
1.08357e-10
7.04147e-11
9.80172e-11
6.5197e-11
9.9029e-11
5.89202e-11
9.01769e-11
5.18307e-11
8.8774e-11
4.94399e-11
8.68451e-11
4.15999e-11
7.91587e-11
3.55251e-11
7.86533e-11
3.54673e-11
7.91129e-11
2.63081e-11
6.8608e-11
1.92111e-11
6.86726e-11
1.73721e-11
6.89698e-11
1.53531e-11
6.917e-11
4.07418e-12
2.89358e-11
-1.4664e-11
5.44254e-11
-2.44104e-12
4.57603e-11
-1.14144e-11
5.1993e-11
-1.35999e-11
6.62414e-11
-1.28541e-11
1.08812e-10
-2.56482e-11
1.71519e-10
-1.23321e-10
4.1242e-10
3.82146e-10
-3.18983e-09
2.17134e-09
2.79318e-09
-3.46345e-09
-2.01415e-09
3.3322e-10
-2.83045e-10
-6.93592e-10
-4.59034e-10
-1.95128e-10
-2.6806e-11
-5.79941e-12
3.94185e-11
3.31396e-11
7.71732e-11
6.01185e-11
9.54613e-11
7.3548e-11
1.05136e-10
6.84529e-11
9.52047e-11
6.36081e-11
9.67853e-11
5.80865e-11
8.8154e-11
5.12153e-11
8.70588e-11
4.93737e-11
8.53791e-11
4.18156e-11
7.76062e-11
3.58127e-11
7.7201e-11
3.61603e-11
7.78694e-11
2.72082e-11
6.70957e-11
1.99149e-11
6.73339e-11
1.82487e-11
6.84915e-11
1.73978e-11
7.52644e-11
1.98078e-12
1.52067e-11
-1.69273e-11
5.35164e-11
-4.82163e-13
4.44738e-11
-1.08247e-11
5.11261e-11
-1.36459e-11
6.61595e-11
-1.37914e-11
1.09696e-10
-2.52957e-11
1.69642e-10
-1.13088e-10
3.87404e-10
3.84731e-10
-3.13183e-09
2.22023e-09
2.77488e-09
-3.53851e-09
-2.12374e-09
4.05431e-10
-1.67068e-10
-6.65247e-10
-4.71966e-10
-2.02595e-10
-2.83051e-11
-7.92481e-12
3.40903e-11
2.77389e-11
7.15322e-11
5.58898e-11
9.09244e-11
7.03853e-11
1.01656e-10
6.6403e-11
9.224e-11
6.19714e-11
9.43478e-11
5.72138e-11
8.60034e-11
5.06028e-11
8.52047e-11
4.93167e-11
8.37807e-11
4.20644e-11
7.59591e-11
3.61562e-11
7.56416e-11
3.69061e-11
7.64965e-11
2.81837e-11
6.54989e-11
2.07189e-11
6.58698e-11
1.91923e-11
6.79161e-11
1.93797e-11
8.54149e-11
-2.46561e-12
-2.59044e-12
-1.91972e-11
5.25656e-11
1.59652e-12
4.30101e-11
-9.86658e-12
4.97351e-11
-1.29152e-11
6.49193e-11
-1.28981e-11
1.07874e-10
-2.09025e-11
1.62129e-10
-9.40599e-11
3.52547e-10
3.86983e-10
-3.01555e-09
2.17909e-09
2.70166e-09
-3.50536e-09
-2.1993e-09
4.31337e-10
-6.61208e-11
-6.31091e-10
-4.82932e-10
-2.11979e-10
-3.12671e-11
-1.03447e-11
2.86594e-11
2.22353e-11
6.56396e-11
5.15138e-11
8.61779e-11
6.71063e-11
9.79529e-11
6.4278e-11
8.91453e-11
6.03001e-11
9.1739e-11
5.63044e-11
8.37413e-11
4.99947e-11
8.32272e-11
4.92621e-11
8.20644e-11
4.23393e-11
7.42316e-11
3.65467e-11
7.39899e-11
3.76883e-11
7.50102e-11
2.92138e-11
6.38405e-11
2.15951e-11
6.4323e-11
2.01491e-11
6.73211e-11
2.05813e-11
1.01569e-10
-3.31669e-12
-2.53688e-11
-2.16378e-11
5.09135e-11
3.62777e-12
4.12652e-11
-8.5263e-12
4.7748e-11
-1.13556e-11
6.24808e-11
-1.01945e-11
1.03513e-10
-1.29375e-11
1.50038e-10
-6.8437e-11
3.11921e-10
3.85449e-10
-2.847e-09
2.06286e-09
2.57217e-09
-3.37984e-09
-2.235e-09
4.16448e-10
1.66902e-11
-5.92204e-10
-4.91077e-10
-2.22943e-10
-3.58233e-11
-1.31284e-11
2.31819e-11
1.66955e-11
5.95448e-11
4.702e-11
8.12569e-11
6.37396e-11
9.4061e-11
6.20914e-11
8.59427e-11
5.86046e-11
8.89845e-11
5.536e-11
8.13819e-11
4.93907e-11
8.11419e-11
4.92037e-11
8.02479e-11
4.26325e-11
7.24397e-11
3.69753e-11
7.22597e-11
3.84963e-11
7.34253e-11
3.02944e-11
6.21111e-11
2.25784e-11
6.26097e-11
2.13499e-11
6.61383e-11
2.18e-11
1.10026e-10
-4.43268e-14
-3.85512e-11
-2.22832e-11
4.87299e-11
5.70135e-12
3.9296e-11
-6.75647e-12
4.51806e-11
-8.97247e-12
5.89096e-11
-5.84641e-12
9.69796e-11
-2.08533e-12
1.34735e-10
-3.85161e-11
2.69225e-10
3.77565e-10
-2.63431e-09
1.88825e-09
2.39054e-09
-3.18127e-09
-2.22871e-09
3.68209e-10
7.96813e-11
-5.49976e-10
-4.95765e-10
-2.3505e-10
-4.20287e-11
-1.63487e-11
1.77018e-11
1.11792e-11
5.32977e-11
4.24335e-11
7.61951e-11
6.03066e-11
9.00115e-11
5.98559e-11
8.26536e-11
5.6894e-11
8.61069e-11
5.43832e-11
7.89455e-11
4.87906e-11
7.89703e-11
4.91359e-11
7.83469e-11
4.2936e-11
7.05974e-11
3.74345e-11
7.04642e-11
3.93225e-11
7.17472e-11
3.14302e-11
6.0292e-11
2.37252e-11
6.06084e-11
2.30618e-11
6.37388e-11
2.43342e-11
9.64778e-11
1.66261e-12
-2.76345e-11
-1.89218e-11
4.65548e-11
8.02117e-12
3.72327e-11
-4.51168e-12
4.21158e-11
-5.82493e-12
5.43815e-11
-1.23827e-13
8.87919e-11
1.08093e-11
1.1769e-10
-6.55372e-12
2.27345e-10
3.62068e-10
-2.38774e-09
1.67302e-09
2.16313e-09
-2.9305e-09
-2.18129e-09
2.95194e-10
1.22483e-10
-5.06047e-10
-4.96622e-10
-2.47785e-10
-4.98679e-11
-2.008e-11
1.2245e-11
5.73649e-12
4.69446e-11
3.77812e-11
7.10207e-11
5.68247e-11
8.58327e-11
5.75804e-11
7.92975e-11
5.51745e-11
8.31286e-11
5.33756e-11
7.64457e-11
4.81926e-11
7.67276e-11
4.90533e-11
7.63779e-11
4.32428e-11
6.87197e-11
3.79146e-11
6.8621e-11
4.01522e-11
7e-11
3.25899e-11
5.8426e-11
2.49636e-11
5.84569e-11
2.50122e-11
6.07512e-11
2.68743e-11
7.54418e-11
6.76696e-12
-7.35812e-12
-1.3562e-11
4.39014e-11
1.03388e-11
3.49722e-11
-1.89188e-12
3.8612e-11
-2.06379e-12
4.91081e-11
6.60162e-12
7.95576e-11
2.48295e-11
1.00282e-10
2.53748e-11
1.88397e-10
3.38809e-10
-2.11783e-09
1.43417e-09
1.89868e-09
-2.64714e-09
-2.09595e-09
2.06178e-10
1.45928e-10
-4.62056e-10
-4.93576e-10
-2.60664e-10
-5.92661e-11
-2.43968e-11
6.81614e-12
4.03708e-13
4.05249e-11
3.30775e-11
6.57555e-11
5.33078e-11
8.15529e-11
5.52725e-11
7.58901e-11
5.34499e-11
8.00702e-11
5.23378e-11
7.38961e-11
4.75942e-11
7.44295e-11
4.89516e-11
7.43569e-11
4.35465e-11
6.68207e-11
3.84065e-11
6.67465e-11
4.09728e-11
6.82059e-11
3.37518e-11
5.65512e-11
2.62291e-11
5.6287e-11
2.69177e-11
5.78037e-11
2.85185e-11
6.10274e-11
1.49944e-11
7.59458e-12
-8.38824e-12
4.06167e-11
1.25064e-11
3.24885e-11
9.98805e-13
3.47693e-11
2.13991e-12
4.33683e-11
1.39385e-11
6.98995e-11
3.90892e-11
8.37044e-11
5.55921e-11
1.53982e-10
3.08468e-10
-1.83527e-09
1.18668e-09
1.60552e-09
-2.34854e-09
-1.97663e-09
1.09472e-10
1.5166e-10
-4.19619e-10
-4.86846e-10
-2.73244e-10
-7.00964e-11
-2.93644e-11
1.40044e-12
-4.79491e-12
3.40719e-11
2.83349e-11
6.04181e-11
4.97649e-11
7.71966e-11
5.29389e-11
7.24449e-11
5.17213e-11
7.69504e-11
5.12685e-11
7.13081e-11
4.69912e-11
7.20896e-11
4.88271e-11
7.22991e-11
4.38405e-11
6.49115e-11
3.89017e-11
6.48525e-11
4.17773e-11
6.63794e-11
3.49136e-11
5.46682e-11
2.75247e-11
5.4083e-11
2.87883e-11
5.48663e-11
2.98191e-11
5.15751e-11
2.05175e-11
1.76863e-11
-3.15678e-12
3.73782e-11
1.46721e-11
2.99071e-11
4.11348e-12
3.07505e-11
6.61089e-12
3.74448e-11
2.14947e-11
6.04043e-11
5.28278e-11
6.8893e-11
8.28598e-11
1.24737e-10
2.72441e-10
-1.54883e-09
9.42212e-10
1.29229e-09
-2.0501e-09
-1.82865e-09
1.23513e-11
1.42116e-10
-3.8007e-10
-4.76839e-10
-2.85144e-10
-8.2179e-11
-3.50239e-11
-4.02196e-12
-9.84443e-12
2.76162e-11
2.35657e-11
5.5025e-11
4.62017e-11
7.27835e-11
5.0584e-11
6.89745e-11
4.9988e-11
7.37855e-11
5.0169e-11
6.8693e-11
4.63794e-11
6.97209e-11
4.86755e-11
7.02182e-11
4.41191e-11
6.30034e-11
3.93914e-11
6.29524e-11
4.25553e-11
6.4539e-11
3.606e-11
5.27961e-11
2.88244e-11
5.18739e-11
3.05871e-11
5.19948e-11
3.10453e-11
4.49437e-11
2.38711e-11
2.46009e-11
2.35387e-12
3.44883e-11
1.68659e-11
2.72957e-11
7.35678e-12
2.67027e-11
1.11615e-11
3.16085e-11
2.88944e-11
5.15643e-11
6.54385e-11
5.65147e-11
1.06404e-10
1.00764e-10
2.32275e-10
-1.26606e-09
7.10249e-10
9.67176e-10
-1.76497e-09
-1.65809e-09
-7.89268e-11
1.20325e-10
-3.44387e-10
-4.64101e-10
-2.96061e-10
-9.52894e-11
-4.13899e-11
-9.47582e-12
-1.47399e-11
2.11842e-11
1.87801e-11
4.95916e-11
4.26202e-11
6.83316e-11
4.82131e-11
6.54907e-11
4.82466e-11
7.05888e-11
4.90396e-11
6.60606e-11
4.57531e-11
6.73348e-11
4.8492e-11
6.81263e-11
4.43774e-11
6.11075e-11
3.98668e-11
6.10608e-11
4.32941e-11
6.27032e-11
3.71736e-11
5.09618e-11
3.00875e-11
4.97158e-11
3.22433e-11
4.93149e-11
3.21752e-11
4.01122e-11
2.60608e-11
2.93295e-11
7.9553e-12
3.19541e-11
1.90246e-11
2.46894e-11
1.0611e-11
2.27574e-11
1.56133e-11
2.61158e-11
3.58256e-11
4.37707e-11
7.64848e-11
4.69823e-11
1.25778e-10
8.17492e-11
1.89236e-10
-9.93005e-10
4.98896e-10
6.38341e-10
-1.50529e-09
-1.47192e-09
-1.59523e-10
8.97178e-11
-3.13119e-10
-4.49219e-10
-3.05792e-10
-1.09218e-10
-4.84669e-11
-1.49978e-11
-1.9493e-11
1.47892e-11
1.39799e-11
4.41271e-11
3.90139e-11
6.38505e-11
4.58289e-11
6.20025e-11
4.649e-11
6.73689e-11
4.788e-11
6.34186e-11
4.5105e-11
6.49405e-11
4.82708e-11
6.60325e-11
4.46109e-11
5.92336e-11
4.03197e-11
5.91898e-11
4.39827e-11
6.08863e-11
3.8243e-11
4.91855e-11
3.12849e-11
4.76428e-11
3.37236e-11
4.68824e-11
3.31648e-11
3.6557e-11
2.76726e-11
3.24069e-11
1.33786e-11
2.9743e-11
2.11048e-11
2.21471e-11
1.37769e-11
1.90446e-11
1.98197e-11
2.11787e-11
4.20541e-11
3.73143e-11
8.5712e-11
4.04965e-11
1.40835e-10
6.73883e-11
1.43922e-10
-7.34646e-10
3.15495e-10
3.14109e-10
-1.27841e-09
-1.27721e-09
-2.26236e-10
5.33908e-11
-2.86493e-10
-4.32754e-10
-3.14211e-10
-1.23772e-10
-5.62534e-11
-2.06303e-11
-2.41206e-11
8.43509e-12
9.16412e-12
3.86324e-11
3.5374e-11
5.93435e-11
4.34351e-11
5.85158e-11
4.47129e-11
6.41291e-11
4.6692e-11
6.07713e-11
4.44294e-11
6.25418e-11
4.80076e-11
6.39423e-11
4.48176e-11
5.73874e-11
4.07438e-11
5.73467e-11
4.46127e-11
5.90979e-11
3.92634e-11
4.74794e-11
3.24e-11
4.56654e-11
3.50275e-11
4.4694e-11
3.40132e-11
3.39484e-11
2.89921e-11
3.42078e-11
1.84502e-11
2.78463e-11
2.30911e-11
1.97394e-11
1.67685e-11
1.56654e-11
2.36586e-11
1.69528e-11
4.74102e-11
3.23757e-11
9.30001e-11
3.71291e-11
1.51539e-10
5.74545e-11
9.67777e-11
-4.95367e-10
1.65218e-10
1.76189e-09
7.36851e-10
-9.53252e-10
-1.52298e-09
-1.20729e-09
-7.70982e-10
-4.05735e-10
-2.03312e-10
-4.07269e-11
9.20974e-12
7.60013e-11
7.09436e-11
1.11988e-10
8.90674e-11
1.234e-10
9.43894e-11
1.23662e-10
8.3749e-11
1.14299e-10
7.64542e-11
1.0981e-10
6.62107e-11
1.01551e-10
5.79771e-11
9.73755e-11
5.21495e-11
9.35392e-11
4.32952e-11
8.75626e-11
3.68327e-11
8.58185e-11
3.37138e-11
8.38105e-11
2.38543e-11
7.68294e-11
1.73361e-11
7.49811e-11
1.30945e-11
7.27262e-11
5.92335e-12
6.78755e-11
2.8578e-12
6.79336e-11
-3.49379e-12
6.09635e-11
-1.37187e-11
5.18944e-11
-1.50638e-11
5.04059e-11
-8.94726e-12
5.1483e-11
1.37923e-11
5.51941e-11
5.0746e-11
4.12353e-11
1.19829e-10
1.06031e-10
4.60968e-10
-2.05047e-09
-5.20573e-10
1.8193e-09
7.76672e-10
-9.6835e-10
-1.53442e-09
-1.2097e-09
-7.70783e-10
-4.06037e-10
-2.03965e-10
-4.16862e-11
8.28331e-12
7.50798e-11
7.02447e-11
1.11302e-10
8.85695e-11
1.22872e-10
9.40763e-11
1.23252e-10
8.34767e-11
1.13931e-10
7.63104e-11
1.0952e-10
6.60959e-11
1.01272e-10
5.79389e-11
9.7133e-11
5.21573e-11
9.33177e-11
4.33228e-11
8.73341e-11
3.69023e-11
8.56034e-11
3.38311e-11
8.35943e-11
2.39634e-11
7.65765e-11
1.75118e-11
7.47353e-11
1.33116e-11
7.24629e-11
6.15759e-12
6.75404e-11
3.10617e-12
6.76012e-11
-3.1195e-12
6.06189e-11
-1.32938e-11
5.14832e-11
-1.44949e-11
4.99821e-11
-8.29673e-12
5.10047e-11
1.45766e-11
5.4694e-11
5.15008e-11
4.04987e-11
1.18853e-10
1.10981e-10
4.88613e-10
-2.08271e-09
-5.79021e-10
1.90274e-09
7.7529e-10
-9.97081e-10
-1.53225e-09
-1.20616e-09
-7.68247e-10
-4.04952e-10
-2.04093e-10
-4.22492e-11
7.04894e-12
7.39936e-11
6.90554e-11
1.10511e-10
8.76043e-11
1.22276e-10
9.33624e-11
1.22921e-10
8.28266e-11
1.13609e-10
7.58059e-11
1.09388e-10
6.5647e-11
1.0115e-10
5.7566e-11
9.71099e-11
5.1838e-11
9.33462e-11
4.30125e-11
8.73523e-11
3.663e-11
8.56683e-11
3.36199e-11
8.37222e-11
2.37097e-11
7.66324e-11
1.73162e-11
7.48504e-11
1.31525e-11
7.2592e-11
6.00051e-12
6.75597e-11
2.88485e-12
6.7665e-11
-3.15514e-12
6.07552e-11
-1.32675e-11
5.15055e-11
-1.43378e-11
5.00612e-11
-8.08612e-12
5.10167e-11
1.48335e-11
5.48554e-11
5.14826e-11
4.10426e-11
1.1371e-10
1.15482e-10
5.29737e-10
-2.14593e-09
-6.10163e-10
1.98716e-09
6.89207e-10
-1.02981e-09
-1.5031e-09
-1.19454e-09
-7.63449e-10
-4.02093e-10
-2.02774e-10
-4.19505e-11
6.03187e-12
7.27395e-11
6.75646e-11
1.09444e-10
8.6374e-11
1.21409e-10
9.24374e-11
1.22436e-10
8.19821e-11
1.13063e-10
7.51429e-11
1.09146e-10
6.50771e-11
1.00889e-10
5.7094e-11
9.6988e-11
5.14628e-11
9.33261e-11
4.26472e-11
8.72879e-11
3.63122e-11
8.5673e-11
3.3395e-11
8.38512e-11
2.3442e-11
7.66111e-11
1.71025e-11
7.49282e-11
1.30081e-11
7.27063e-11
5.86601e-12
6.75076e-11
2.62375e-12
6.76479e-11
-3.19437e-12
6.09277e-11
-1.32104e-11
5.14921e-11
-1.41862e-11
5.02293e-11
-7.99541e-12
5.12294e-11
1.46386e-11
5.59135e-11
4.99506e-11
4.43209e-11
1.01153e-10
1.30269e-10
5.59345e-10
-2.22894e-09
-5.67834e-10
2.05693e-09
4.84858e-10
-1.06133e-09
-1.42793e-09
-1.17135e-09
-7.57866e-10
-3.98341e-10
-1.99977e-10
-4.0627e-11
5.37013e-12
7.13458e-11
6.58635e-11
1.08081e-10
8.49164e-11
1.2023e-10
9.13326e-11
1.21739e-10
8.09787e-11
1.12232e-10
7.43382e-11
1.08725e-10
6.44287e-11
1.00406e-10
5.65568e-11
9.66948e-11
5.10691e-11
9.31678e-11
4.22826e-11
8.70473e-11
3.5997e-11
8.55205e-11
3.32319e-11
8.38813e-11
2.32445e-11
7.64002e-11
1.69516e-11
7.48564e-11
1.29676e-11
7.26907e-11
5.87199e-12
6.72818e-11
2.46279e-12
6.73449e-11
-3.14093e-12
6.09751e-11
-1.2952e-11
5.12827e-11
-1.39756e-11
5.03585e-11
-8.00561e-12
5.16588e-11
1.38471e-11
5.81219e-11
4.62667e-11
5.13261e-11
8.04607e-11
1.58705e-10
5.67052e-10
-2.3265e-09
-4.2254e-10
2.11841e-09
1.52247e-10
-1.09617e-09
-1.30069e-09
-1.13329e-09
-7.53135e-10
-3.95004e-10
-1.96208e-10
-3.8582e-11
4.94916e-12
6.97365e-11
6.39239e-11
1.06419e-10
8.32429e-11
1.18755e-10
9.00624e-11
1.20841e-10
7.98671e-11
1.1114e-10
7.34177e-11
1.08123e-10
6.37297e-11
9.97156e-11
5.59664e-11
9.62312e-11
5.06763e-11
9.2864e-11
4.19394e-11
8.66185e-11
3.57031e-11
8.52004e-11
3.31424e-11
8.37781e-11
2.31443e-11
7.59746e-11
1.68794e-11
7.46015e-11
1.30603e-11
7.25068e-11
6.074e-12
6.68501e-11
2.43189e-12
6.66605e-11
-2.99948e-12
6.08309e-11
-1.24677e-11
5.08744e-11
-1.37036e-11
5.04588e-11
-8.19449e-12
5.24114e-11
1.21717e-11
6.18239e-11
3.99381e-11
6.2929e-11
5.14944e-11
2.00991e-10
5.52442e-10
-2.44389e-09
-1.67458e-10
2.18421e-09
-2.9944e-10
-1.14468e-09
-1.12253e-09
-1.07736e-09
-7.4987e-10
-3.93241e-10
-1.92023e-10
-3.60579e-11
4.57929e-12
6.77774e-11
6.16494e-11
1.0439e-10
8.13307e-11
1.16979e-10
8.86204e-11
1.19744e-10
7.86758e-11
1.0982e-10
7.24069e-11
1.07358e-10
6.30211e-11
9.88409e-11
5.53529e-11
9.56114e-11
5.03163e-11
9.2413e-11
4.16513e-11
8.60105e-11
3.54592e-11
8.47095e-11
3.31501e-11
8.35315e-11
2.31758e-11
7.53373e-11
1.69172e-11
7.41467e-11
1.33207e-11
7.21371e-11
6.50696e-12
6.62269e-11
2.55085e-12
6.55197e-11
-2.77897e-12
6.04987e-11
-1.17429e-11
5.02876e-11
-1.34238e-11
5.05591e-11
-8.6595e-12
5.36088e-11
9.46602e-12
6.71942e-11
3.07712e-11
7.90277e-11
1.59805e-11
2.53446e-10
5.20692e-10
-2.58171e-09
1.85255e-10
2.26335e-09
-8.3893e-10
-1.21453e-09
-9.026e-10
-1.00192e-09
-7.47901e-10
-3.93888e-10
-1.87899e-10
-3.32817e-11
4.09938e-12
6.53528e-11
5.89205e-11
1.01893e-10
7.91272e-11
1.14852e-10
8.69746e-11
1.18404e-10
7.74034e-11
1.0828e-10
7.13133e-11
1.06418e-10
6.23211e-11
9.77972e-11
5.4741e-11
9.4842e-11
5.00109e-11
9.18223e-11
4.14463e-11
8.52373e-11
3.52927e-11
8.40545e-11
3.32784e-11
8.31264e-11
2.33655e-11
7.44949e-11
1.70781e-11
7.34939e-11
1.37613e-11
7.15881e-11
7.18955e-12
6.54691e-11
2.81335e-12
6.39028e-11
-2.5136e-12
5.99815e-11
-1.07997e-11
4.95661e-11
-1.31821e-11
5.07056e-11
-9.46785e-12
5.52815e-11
5.71587e-12
7.40639e-11
1.93134e-11
9.84344e-11
-2.25304e-11
3.08646e-10
4.80943e-10
-2.73302e-09
6.00274e-10
2.36028e-09
-1.42061e-09
-1.31008e-09
-6.56851e-10
-9.07206e-10
-7.4618e-10
-3.97546e-10
-1.84344e-10
-3.04571e-11
3.41013e-12
6.2356e-11
5.56886e-11
9.88802e-11
7.65813e-11
1.12338e-10
8.50845e-11
1.16767e-10
7.60299e-11
1.06509e-10
7.01329e-11
1.05278e-10
6.16254e-11
9.65832e-11
5.414e-11
9.39212e-11
4.97644e-11
9.10871e-11
4.13405e-11
8.43077e-11
3.52212e-11
8.32458e-11
3.35367e-11
8.25622e-11
2.37249e-11
7.34722e-11
1.73747e-11
7.26523e-11
1.43854e-11
7.08897e-11
8.11251e-12
6.46398e-11
3.20706e-12
6.17869e-11
-2.18771e-12
5.93103e-11
-9.67813e-12
4.87612e-11
-1.30035e-11
5.09053e-11
-1.05721e-11
5.73646e-11
1.16921e-12
8.19135e-11
6.62337e-12
1.19022e-10
-5.96932e-11
3.58457e-10
4.42684e-10
-2.88595e-09
1.02996e-09
2.47123e-09
-1.99599e-09
-1.43094e-09
-4.04548e-10
-7.95614e-10
-7.43272e-10
-4.04401e-10
-1.81848e-10
-2.77593e-11
2.47549e-12
5.88047e-11
5.19564e-11
9.53375e-11
7.36855e-11
1.09428e-10
8.29483e-11
1.14804e-10
7.45339e-11
1.04509e-10
6.88576e-11
1.03917e-10
6.09218e-11
9.51976e-11
5.35452e-11
9.28405e-11
4.95819e-11
9.0198e-11
4.13229e-11
8.32295e-11
3.52425e-11
8.22893e-11
3.39243e-11
8.18372e-11
2.42526e-11
7.22886e-11
1.78089e-11
7.16361e-11
1.51859e-11
7.00402e-11
9.27093e-12
6.38103e-11
3.68803e-12
5.9157e-11
-1.8159e-12
5.85141e-11
-8.41328e-12
4.79163e-11
-1.2878e-11
5.1131e-11
-1.18651e-11
5.9677e-11
-3.71053e-12
8.99473e-11
-5.80032e-12
1.38341e-10
-9.11969e-11
3.96281e-10
4.12367e-10
-3.02424e-09
1.43189e-09
2.58506e-09
-2.51605e-09
-1.57219e-09
-1.65356e-10
-6.71375e-10
-7.37537e-10
-4.14234e-10
-1.80866e-10
-2.54329e-11
1.30231e-12
5.474e-11
4.77591e-11
9.12855e-11
7.0457e-11
1.06138e-10
8.05642e-11
1.1251e-10
7.29134e-11
1.02278e-10
6.7489e-11
1.02328e-10
6.01971e-11
9.36383e-11
5.29518e-11
9.15933e-11
4.94468e-11
8.91507e-11
4.1387e-11
8.20104e-11
3.53574e-11
8.1188e-11
3.44321e-11
8.09506e-11
2.49294e-11
7.09674e-11
1.83784e-11
7.04601e-11
1.61454e-11
6.90662e-11
1.06404e-11
6.3045e-11
4.20819e-12
5.60466e-11
-1.41403e-12
5.76124e-11
-7.01984e-12
4.70238e-11
-1.27557e-11
5.12796e-11
-1.31688e-11
6.18947e-11
-8.38234e-12
9.7265e-11
-1.64895e-11
1.54113e-10
-1.13752e-10
4.18089e-10
3.92805e-10
-3.12994e-09
1.76908e-09
2.68678e-09
-2.94681e-09
-1.72413e-09
4.46301e-11
-5.40102e-10
-7.27439e-10
-4.26435e-10
-1.81784e-10
-2.36937e-11
-9.77559e-14
5.02341e-11
4.3153e-11
8.67616e-11
6.69265e-11
1.02483e-10
7.79533e-11
1.09887e-10
7.11695e-11
9.98292e-11
6.60366e-11
1.00507e-10
5.94399e-11
9.19097e-11
5.23558e-11
9.01772e-11
4.93515e-11
8.79441e-11
4.15202e-11
8.06598e-11
3.55562e-11
7.99478e-11
3.5041e-11
7.99158e-11
2.57348e-11
6.95212e-11
1.90644e-11
6.91315e-11
1.72348e-11
6.79841e-11
1.21712e-11
6.24113e-11
4.74973e-12
5.249e-11
-9.54414e-13
5.66191e-11
-5.51267e-12
4.60536e-11
-1.25401e-11
5.12662e-11
-1.42696e-11
6.36626e-11
-1.22673e-11
1.03037e-10
-2.41497e-11
1.64659e-10
-1.25427e-10
4.22706e-10
3.83816e-10
-3.18888e-09
2.01821e-09
2.7606e-09
-3.26387e-09
-1.87419e-09
2.13466e-10
-4.08066e-10
-7.11782e-10
-4.40038e-10
-1.84854e-10
-2.28055e-11
-1.71566e-12
4.53761e-11
3.82113e-11
8.18158e-11
6.31262e-11
9.85015e-11
7.51323e-11
1.06955e-10
6.93125e-11
9.71829e-11
6.45131e-11
9.84614e-11
5.86462e-11
9.00218e-11
5.17577e-11
8.86006e-11
4.92829e-11
8.65871e-11
4.17084e-11
7.91879e-11
3.58258e-11
7.85763e-11
3.57322e-11
7.87378e-11
2.66465e-11
6.79715e-11
1.98518e-11
6.76695e-11
1.84292e-11
6.67954e-11
1.38176e-11
6.19361e-11
5.30964e-12
4.8557e-11
-4.12993e-13
5.55151e-11
-3.89455e-12
4.4969e-11
-1.21465e-11
5.09187e-11
-1.49221e-11
6.46619e-11
-1.48548e-11
1.06587e-10
-2.79693e-11
1.69082e-10
-1.25765e-10
4.11092e-10
3.82521e-10
-3.19125e-09
2.16763e-09
2.79363e-09
-3.45939e-09
-2.01004e-09
3.34778e-10
-2.81337e-10
-6.89842e-10
-4.53895e-10
-1.90159e-10
-2.2995e-11
-3.55736e-12
4.02537e-11
3.3014e-11
7.65041e-11
5.91082e-11
9.42333e-11
7.21386e-11
1.03739e-10
6.7358e-11
9.43654e-11
6.29307e-11
9.62037e-11
5.78153e-11
8.79899e-11
5.11606e-11
8.68723e-11
4.92312e-11
8.50906e-11
4.19383e-11
7.76065e-11
3.61557e-11
7.70877e-11
3.64864e-11
7.74274e-11
2.76387e-11
6.63398e-11
2.0728e-11
6.60899e-11
1.97046e-11
6.55e-11
1.55325e-11
6.16014e-11
5.93258e-12
4.43762e-11
2.42004e-13
5.42725e-11
-2.1551e-12
4.37291e-11
-1.14885e-11
5.01248e-11
-1.49306e-11
6.46481e-11
-1.57662e-11
1.07525e-10
-2.76202e-11
1.67289e-10
-1.15562e-10
3.86116e-10
3.8487e-10
-3.13378e-09
2.21791e-09
2.77618e-09
-3.5357e-09
-2.12027e-09
4.07187e-10
-1.65294e-10
-6.61555e-10
-4.66868e-10
-1.97625e-10
-2.44804e-11
-5.65279e-12
3.49537e-11
2.76391e-11
7.0884e-11
5.49083e-11
8.97195e-11
6.90024e-11
1.00269e-10
6.53189e-11
9.13987e-11
6.13031e-11
9.37548e-11
5.69463e-11
8.58297e-11
5.05649e-11
8.50063e-11
4.91881e-11
8.34657e-11
4.21984e-11
7.59319e-11
3.65356e-11
7.54979e-11
3.72851e-11
7.5999e-11
2.86914e-11
6.46441e-11
2.16789e-11
6.44094e-11
2.10404e-11
6.40865e-11
1.72618e-11
6.1281e-11
6.72441e-12
4.02198e-11
1.05239e-12
5.28522e-11
-2.88418e-13
4.22892e-11
-1.04761e-11
4.8798e-11
-1.41635e-11
6.34715e-11
-1.48432e-11
1.05756e-10
-2.32215e-11
1.59854e-10
-9.6533e-11
3.51298e-10
3.86876e-10
-3.01807e-09
2.17806e-09