/*--------------------------------*- C++ -*----------------------------------*\
| =========                 |                                                 |
| \\      /  F ield         | OpenFOAM: The Open Source CFD Toolbox           |
|  \\    /   O peration     | Version:  2312                                  |
|   \\  /    A nd           | Website:  www.openfoam.com                      |
|    \\/     M anipulation  |                                                 |
\*---------------------------------------------------------------------------*/
FoamFile
{
    version     2.0;
    format      ascii;
    arch        "LSB;label=32;scalar=64";
    class       volScalarField;
    location    "200";
    object      pPrime2Mean;
}
// * * * * * * * * * * * * * * * * * * * * * * * * * * * * * * * * * * * * * //

dimensions      [0 4 -4 0 0 0 0];

internalField   nonuniform List<scalar> 
144000
(
1.14753e-17
1.52895e-17
1.39845e-17
1.09402e-17
7.95566e-18
5.83226e-18
4.43473e-18
3.30471e-18
2.45812e-18
2.01884e-18
1.87923e-18
1.69856e-18
1.44356e-18
1.15618e-18
9.61986e-19
8.10247e-19
7.40506e-19
6.36706e-19
5.8964e-19
5.25836e-19
4.71752e-19
3.91498e-19
3.94476e-19
2.98405e-19
3.13725e-19
2.47823e-19
2.49095e-19
2.03242e-19
1.99696e-19
1.57908e-19
1.65053e-19
1.21418e-19
1.37688e-19
1.00399e-19
1.05675e-19
1.05371e-19
5.68894e-20
1.17708e-19
4.04201e-20
7.60377e-20
9.65236e-20
1.08881e-20
1.48842e-19
3.61833e-20
1.08492e-19
1.64239e-19
6.43186e-20
2.25005e-19
1.7549e-19
1.87824e-19
3.39375e-19
2.98376e-19
4.34861e-19
6.2859e-19
7.81922e-19
1.15652e-18
1.85366e-18
3.09452e-18
6.78415e-18
8.38125e-18
1.20335e-17
1.56295e-17
1.43552e-17
1.12143e-17
8.08637e-18
5.90898e-18
4.48486e-18
3.33679e-18
2.47598e-18
2.02957e-18
1.88823e-18
1.7065e-18
1.44935e-18
1.15998e-18
9.64592e-19
8.1228e-19
7.42421e-19
6.38264e-19
5.90734e-19
5.27243e-19
4.72899e-19
3.91955e-19
3.95432e-19
2.9917e-19
3.14091e-19
2.4863e-19
2.4947e-19
2.03851e-19
2.00141e-19
1.58284e-19
1.65619e-19
1.21684e-19
1.38234e-19
1.00918e-19
1.05827e-19
1.06725e-19
5.65032e-20
1.193e-19
4.11491e-20
7.60264e-20
9.95029e-20
1.00654e-20
1.51827e-19
3.82405e-20
1.0903e-19
1.70104e-19
6.55458e-20
2.30458e-19
1.82782e-19
1.92801e-19
3.51334e-19
3.10992e-19
4.50737e-19
6.54985e-19
8.15723e-19
1.20659e-18
1.93656e-18
3.20128e-18
7.10994e-18
8.572e-18
1.23744e-17
1.59179e-17
1.44698e-17
1.13045e-17
8.11809e-18
5.93299e-18
4.50947e-18
3.35654e-18
2.48802e-18
2.03721e-18
1.89635e-18
1.71424e-18
1.45518e-18
1.16354e-18
9.67149e-19
8.14224e-19
7.44802e-19
6.39906e-19
5.92017e-19
5.28934e-19
4.74387e-19
3.92244e-19
3.96994e-19
2.99786e-19
3.14952e-19
2.49459e-19
2.50221e-19
2.04552e-19
2.0098e-19
1.5869e-19
1.66693e-19
1.21954e-19
1.39288e-19
1.01657e-19
1.06251e-19
1.08866e-19
5.60008e-20
1.22037e-19
4.22158e-20
7.64761e-20
1.04118e-19
9.12109e-21
1.56866e-19
4.13849e-20
1.10725e-19
1.79048e-19
6.81666e-20
2.39383e-19
1.942e-19
2.01297e-19
3.69827e-19
3.30436e-19
4.74573e-19
6.92498e-19
8.61393e-19
1.26799e-18
2.02736e-18
3.309e-18
7.38241e-18
8.77649e-18
1.21729e-17
1.57781e-17
1.41513e-17
1.10471e-17
7.97448e-18
5.85066e-18
4.47013e-18
3.33818e-18
2.4771e-18
2.03052e-18
1.89447e-18
1.71471e-18
1.4557e-18
1.16351e-18
9.67118e-19
8.14279e-19
7.4586e-19
6.40429e-19
5.9226e-19
5.29978e-19
4.7541e-19
3.9199e-19
3.98251e-19
3.00171e-19
3.15603e-19
2.50233e-19
2.50926e-19
2.05257e-19
2.01811e-19
1.59113e-19
1.67868e-19
1.22221e-19
1.40512e-19
1.02498e-19
1.0672e-19
1.11411e-19
5.5402e-20
1.25328e-19
4.35294e-20
7.70641e-20
1.09616e-19
8.16014e-21
1.62752e-19
4.53304e-20
1.12714e-19
1.89526e-19
7.15047e-20
2.49553e-19
2.07611e-19
2.10975e-19
3.90317e-19
3.52181e-19
4.99261e-19
7.31018e-19
9.0451e-19
1.31979e-18
2.08873e-18
3.32768e-18
7.47201e-18
8.74245e-18
1.14912e-17
1.53908e-17
1.34683e-17
1.04729e-17
7.67076e-18
5.65855e-18
4.35898e-18
3.27325e-18
2.43588e-18
2.00256e-18
1.87574e-18
1.70179e-18
1.44659e-18
1.15701e-18
9.62434e-19
8.10813e-19
7.44025e-19
6.38637e-19
5.90448e-19
5.29302e-19
4.75131e-19
3.90741e-19
3.98469e-19
2.99957e-19
3.15693e-19
2.50585e-19
2.51308e-19
2.05719e-19
2.0239e-19
1.5938e-19
1.68907e-19
1.22377e-19
1.41657e-19
1.03286e-19
1.07068e-19
1.13981e-19
5.47355e-20
1.28573e-19
4.49411e-20
7.75702e-20
1.15157e-19
7.30965e-21
1.6835e-19
4.95756e-20
1.14444e-19
1.998e-19
7.50086e-20
2.58831e-19
2.20767e-19
2.19903e-19
4.0882e-19
3.72253e-19
5.19503e-19
7.62266e-19
9.36453e-19
1.35091e-18
2.11582e-18
3.26505e-18
7.44465e-18
8.57315e-18
1.068e-17
1.51969e-17
1.26342e-17
9.74074e-18
7.27697e-18
5.39586e-18
4.19036e-18
3.16767e-18
2.36694e-18
1.9537e-18
1.83905e-18
1.67396e-18
1.42632e-18
1.14271e-18
9.52154e-19
8.03036e-19
7.38547e-19
6.33897e-19
5.86031e-19
5.2626e-19
4.72972e-19
3.88165e-19
3.97204e-19
2.98783e-19
3.14981e-19
2.50244e-19
2.51174e-19
2.05763e-19
2.02539e-19
1.59364e-19
1.69616e-19
1.22313e-19
1.42523e-19
1.03887e-19
1.0716e-19
1.16282e-19
5.40048e-20
1.31445e-19
4.62837e-20
7.79159e-20
1.2014e-19
6.62879e-21
1.73037e-19
5.36035e-20
1.15722e-19
2.08547e-19
7.82672e-20
2.66248e-19
2.31952e-19
2.27328e-19
4.23166e-19
3.88625e-19
5.33942e-19
7.84436e-19
9.55952e-19
1.36485e-18
2.11502e-18
3.15571e-18
7.43121e-18
8.46442e-18
9.88032e-18
1.53843e-17
1.1766e-17
8.95383e-18
6.82663e-18
5.08214e-18
3.97647e-18
3.02935e-18
2.27502e-18
1.88724e-18
1.78646e-18
1.63224e-18
1.39536e-18
1.12086e-18
9.36403e-19
7.91059e-19
7.2941e-19
6.26145e-19
5.79015e-19
5.2071e-19
4.68796e-19
3.84142e-19
3.94271e-19
2.96432e-19
3.13303e-19
2.49097e-19
2.50337e-19
2.05309e-19
2.02138e-19
1.58993e-19
1.6987e-19
1.21985e-19
1.42976e-19
1.04235e-19
1.06929e-19
1.18148e-19
5.32147e-20
1.33725e-19
4.7438e-20
7.81207e-20
1.2428e-19
6.11033e-21
1.76683e-19
5.70659e-20
1.16621e-19
2.15405e-19
8.09778e-20
2.71804e-19
2.40527e-19
2.33222e-19
4.33362e-19
4.0074e-19
5.43114e-19
7.97941e-19
9.63888e-19
1.36557e-18
2.09047e-18
3.01745e-18
7.4765e-18
8.51287e-18
9.134e-18
1.59223e-17
1.09087e-17
8.16647e-18
6.33074e-18
4.72862e-18
3.72639e-18
2.86455e-18
2.16492e-18
1.80681e-18
1.72094e-18
1.57914e-18
1.35542e-18
1.09242e-18
9.15817e-19
7.75313e-19
7.16987e-19
6.15737e-19
5.69734e-19
5.1292e-19
4.62795e-19
3.7876e-19
3.89769e-19
2.92928e-19
3.10601e-19
2.47168e-19
2.4874e-19
2.04363e-19
2.01164e-19
1.58266e-19
1.69634e-19
1.21404e-19
1.42969e-19
1.04337e-19
1.06359e-19
1.19544e-19
5.23832e-20
1.35426e-19
4.83996e-20
7.81883e-20
1.27671e-19
5.69157e-21
1.79428e-19
5.99438e-20
1.17233e-19
2.20644e-19
8.30186e-20
2.76115e-19
2.46692e-19
2.37784e-19
4.40377e-19
4.09051e-19
5.47938e-19
8.04412e-19
9.61382e-19
1.35613e-18
2.04488e-18
2.85951e-18
7.5778e-18
8.68253e-18
8.45226e-18
1.66107e-17
1.00833e-17
7.4155e-18
5.80156e-18
4.34827e-18
3.45048e-18
2.68095e-18
2.04244e-18
1.71653e-18
1.64622e-18
1.51759e-18
1.30871e-18
1.05888e-18
8.91344e-19
7.56463e-19
7.01828e-19
6.03146e-19
5.58646e-19
5.0335e-19
4.55347e-19
3.72254e-19
3.8397e-19
2.88454e-19
3.06895e-19
2.44561e-19
2.46391e-19
2.02972e-19
1.99648e-19
1.57242e-19
1.68944e-19
1.20626e-19
1.42523e-19
1.04254e-19
1.05463e-19
1.20549e-19
5.1531e-20
1.36597e-19
4.92792e-20
7.80671e-20
1.30591e-19
5.27152e-21
1.81541e-19
6.24458e-20
1.17421e-19
2.24893e-19
8.42266e-20
2.79404e-19
2.50964e-19
2.40746e-19
4.44822e-19
4.13524e-19
5.4822e-19
8.04433e-19
9.48573e-19
1.33595e-18
1.97921e-18
2.68809e-18
7.69459e-18
8.84668e-18
7.83281e-18
1.71926e-17
9.30902e-18
6.71266e-18
5.25913e-18
3.95519e-18
3.16083e-18
2.48677e-18
1.91318e-18
1.62073e-18
1.56574e-18
1.45053e-18
1.25757e-18
1.0219e-18
8.64156e-19
7.35361e-19
6.84598e-19
5.88863e-19
5.46196e-19
4.92471e-19
4.46942e-19
3.64929e-19
3.77232e-19
2.83314e-19
3.02276e-19
2.41457e-19
2.43356e-19
2.01202e-19
1.97645e-19
1.55997e-19
1.67858e-19
1.19712e-19
1.41678e-19
1.04069e-19
1.04241e-19
1.21238e-19
5.06779e-20
1.37224e-19
5.02449e-20
7.75811e-20
1.33328e-19
4.7537e-21
1.8296e-19
6.48642e-20
1.1675e-19
2.28473e-19
8.43891e-20
2.81234e-19
2.53566e-19
2.41187e-19
4.46178e-19
4.13702e-19
5.42594e-19
7.96829e-19
9.23502e-19
1.30165e-18
1.88751e-18
2.50156e-18
7.76951e-18
8.82339e-18
7.25266e-18
1.73735e-17
8.59817e-18
6.04686e-18
4.72608e-18
3.56476e-18
2.86967e-18
2.28999e-18
1.78272e-18
1.5234e-18
1.4828e-18
1.38076e-18
1.20412e-18
9.83041e-19
8.35445e-19
7.12922e-19
6.65993e-19
5.73469e-19
5.32742e-19
4.80675e-19
4.38012e-19
3.57095e-19
3.69868e-19
2.77856e-19
2.96905e-19
2.38004e-19
2.39746e-19
1.99093e-19
1.95233e-19
1.54598e-19
1.6642e-19
1.1872e-19
1.40461e-19
1.0384e-19
1.02694e-19
1.21656e-19
4.98401e-20
1.37211e-19
5.14389e-20
7.65128e-20
1.35986e-19
4.07966e-21
1.8338e-19
6.73589e-20
1.1474e-19
2.31169e-19
8.3286e-20
2.80738e-19
2.54251e-19
2.38158e-19
4.43492e-19
4.08627e-19
5.29254e-19
7.7998e-19
8.85077e-19
1.25033e-18
1.76996e-18
2.29877e-18
7.72654e-18
8.49781e-18
6.69115e-18
1.701e-17
7.95247e-18
5.40952e-18
4.22071e-18
3.18986e-18
2.58736e-18
2.09712e-18
1.65534e-18
1.42783e-18
1.40013e-18
1.31053e-18
1.15008e-18
9.43637e-19
8.06194e-19
6.89922e-19
6.46662e-19
5.57445e-19
5.18649e-19
4.68288e-19
4.28842e-19
3.49027e-19
3.62115e-19
2.72384e-19
2.90977e-19
2.34353e-19
2.3569e-19
1.96683e-19
1.92472e-19
1.53089e-19
1.64652e-19
1.17694e-19
1.38911e-19
1.03593e-19
1.0081e-19
1.21785e-19
4.90419e-20
1.36416e-19
5.28867e-20
7.46968e-20
1.38483e-19
3.25394e-21
1.82489e-19
6.99e-20
1.11009e-19
2.32622e-19
8.08378e-20
2.77296e-19
2.52787e-19
2.31246e-19
4.36139e-19
3.98039e-19
5.08027e-19
7.53642e-19
8.34245e-19
1.18194e-18
1.63167e-18
2.08352e-18
7.5255e-18
7.84637e-18
6.12841e-18
1.60908e-17
7.35782e-18
4.79368e-18
3.75464e-18
2.83981e-18
2.32216e-18
1.91292e-18
1.53402e-18
1.33638e-18
1.31988e-18
1.24166e-18
1.0969e-18
9.04638e-19
7.77157e-19
6.6701e-19
6.27179e-19
5.41258e-19
5.04284e-19
4.55597e-19
4.19618e-19
3.40954e-19
3.54152e-19
2.67119e-19
2.84725e-19
2.30633e-19
2.31356e-19
1.94024e-19
1.89433e-19
1.51488e-19
1.62566e-19
1.16672e-19
1.37047e-19
1.03323e-19
9.8631e-20
1.21575e-19
4.83091e-20
1.34753e-19
5.45362e-20
7.2175e-20
1.40825e-19
2.33738e-21
1.80206e-19
7.23825e-20
1.05641e-19
2.32579e-19
7.71829e-20
2.7079e-19
2.49185e-19
2.20591e-19
4.2432e-19
3.82585e-19
4.79888e-19
7.19226e-19
7.74168e-19
1.10003e-18
1.48127e-18
1.86255e-18
7.15794e-18
6.93358e-18
5.55819e-18
1.47144e-17
6.79791e-18
4.20047e-18
3.33338e-18
2.52029e-18
2.07896e-18
1.74055e-18
1.42053e-18
1.25063e-18
1.2435e-18
1.17552e-18
1.04554e-18
8.66859e-19
7.48918e-19
6.44706e-19
6.07989e-19
5.25329e-19
4.89989e-19
4.42856e-19
4.10447e-19
3.33051e-19
3.461e-19
2.62183e-19
2.78336e-19
2.26945e-19
2.2689e-19
1.91188e-19
1.86188e-19
1.49819e-19
1.60187e-19
1.15679e-19
1.34909e-19
1.03019e-19
9.62329e-20
1.21004e-19
4.76696e-20
1.32269e-19
5.63015e-20
6.90681e-20
1.43192e-19
1.43095e-21
1.76849e-19
7.47508e-20
9.89401e-20
2.31026e-19
7.26614e-20
2.616e-19
2.43871e-19
2.07023e-19
4.08927e-19
3.63593e-19
4.46896e-19
6.79153e-19
7.09114e-19
1.00982e-18
1.32954e-18
1.64488e-18
6.6521e-18
5.88339e-18
4.98111e-18
1.3043e-17
6.25687e-18
3.63811e-18
2.95713e-18
2.23386e-18
1.86002e-18
1.58186e-18
1.31569e-18
1.17135e-18
1.17195e-18
1.11293e-18
9.9664e-19
8.30794e-19
7.21786e-19
6.23324e-19
5.89412e-19
5.0993e-19
4.76023e-19
4.303e-19
4.01413e-19
3.25444e-19
3.38058e-19
2.5762e-19
2.71959e-19
2.23362e-19
2.22408e-19
1.88259e-19
1.82822e-19
1.48116e-19
1.57564e-19
1.14738e-19
1.32557e-19
1.02674e-19
9.37205e-20
1.20094e-19
4.71611e-20
1.29086e-19
5.81368e-20
6.54805e-20
1.46173e-19
6.75905e-22
1.73266e-19
7.70406e-20
9.13105e-20
2.28179e-19
6.77143e-20
2.50273e-19
2.3744e-19
1.91573e-19
3.91095e-19
3.42632e-19
4.11295e-19
6.36112e-19
6.43299e-19
9.16622e-19
1.18487e-18
1.43838e-18
6.04704e-18
4.81968e-18
4.40486e-18
1.1253e-17
5.72422e-18
3.11811e-18
2.62272e-18
1.98072e-18
1.66576e-18
1.43757e-18
1.21958e-18
1.09872e-18
1.10558e-18
1.05432e-18
9.50566e-19
7.96664e-19
6.95939e-19
6.03046e-19
5.71647e-19
4.95228e-19
4.62569e-19
4.18127e-19
3.92575e-19
3.18222e-19
3.30108e-19
2.53424e-19
2.657e-19
2.1993e-19
2.18006e-19
1.85328e-19
1.79408e-19
1.46418e-19
1.54765e-19
1.13859e-19
1.30072e-19
1.02287e-19
9.12026e-20
1.18894e-19
4.68195e-20
1.25379e-19
5.99967e-20
6.1527e-20
1.50694e-19
1.87537e-22
1.70892e-19
7.93345e-20
8.31754e-20
2.24352e-19
6.27606e-20
2.37539e-19
2.30493e-19
1.75233e-19
3.71942e-19
3.21114e-19
3.75067e-19
5.92384e-19
5.8005e-19
8.24867e-19
1.05242e-18
1.2481e-18
5.39133e-18
3.84867e-18
3.84033e-18
9.48306e-18
5.19141e-18
2.64889e-18
2.32494e-18
1.75922e-18
1.49514e-18
1.30752e-18
1.13179e-18
1.03246e-18
1.04442e-18
9.99856e-19
9.07432e-19
7.64564e-19
6.71453e-19
5.83966e-19
5.54794e-19
4.81311e-19
4.49736e-19
4.06481e-19
3.83978e-19
3.11441e-19
3.22312e-19
2.4957e-19
2.59624e-19
2.16673e-19
2.13752e-19
1.82466e-19
1.76016e-19
1.44762e-19
1.51868e-19
1.13048e-19
1.27529e-19
1.01874e-19
8.875e-20
1.17494e-19
4.66092e-20
1.21415e-19
6.16607e-20
5.76606e-20
1.52959e-19
2.02043e-27
1.67129e-19
8.12626e-20
7.4955e-20
2.19821e-19
5.81299e-20
2.24012e-19
2.23503e-19
1.58814e-19
3.52383e-19
3.00111e-19
3.39675e-19
5.49779e-19
5.21327e-19
7.37423e-19
9.34662e-19
1.07664e-18
4.72416e-18
3.02392e-18
3.30177e-18
7.83444e-18
4.65665e-18
2.2353e-18
2.05841e-18
1.56671e-18
1.34632e-18
1.1911e-18
1.05173e-18
9.72121e-19
9.88269e-19
9.49493e-19
8.67224e-19
7.34478e-19
6.48329e-19
5.66087e-19
5.38886e-19
4.68209e-19
4.37572e-19
3.95457e-19
3.75653e-19
3.05126e-19
3.14751e-19
2.46023e-19
2.53787e-19
2.136e-19
2.09686e-19
1.79723e-19
1.72698e-19
1.4318e-19
1.48945e-19
1.12308e-19
1.24993e-19
1.01456e-19
8.6406e-20
1.15993e-19
4.64802e-20
1.1743e-19
6.29323e-20
5.42509e-20
1.47731e-19
1.6918e-22
1.57363e-19
8.24991e-20
6.69732e-20
2.14846e-19
5.4051e-20
2.1017e-19
2.16795e-19
1.4291e-19
3.33028e-19
2.80335e-19
3.06075e-19
5.09359e-19
4.6829e-19
6.56021e-19
8.31694e-19
9.25215e-19
4.07753e-18
2.36621e-18
2.80177e-18
6.36639e-18
4.12339e-18
1.87877e-18
1.81832e-18
1.39998e-18
1.21715e-18
1.08749e-18
9.78731e-19
9.17112e-19
9.36806e-19
9.03054e-19
8.29834e-19
7.06358e-19
6.26512e-19
5.49368e-19
5.23907e-19
4.55904e-19
4.26082e-19
3.85101e-19
3.67619e-19
2.99276e-19
3.07462e-19
2.4275e-19
2.48206e-19
2.10707e-19
2.05827e-19
1.77132e-19
1.69497e-19
1.41691e-19
1.46058e-19
1.11637e-19
1.22522e-19
1.01045e-19
8.42188e-20
1.14437e-19
4.64734e-20
1.13474e-19
6.39979e-20
5.11061e-20
1.40864e-19
6.89675e-22
1.46631e-19
8.35856e-20
5.93827e-20
2.09622e-19
5.0654e-20
1.96371e-19
2.10554e-19
1.27914e-19
3.14301e-19
2.62183e-19
2.74813e-19
4.71693e-19
4.21273e-19
5.81484e-19
7.42577e-19
7.93763e-19
3.47255e-18
1.87066e-18
2.35207e-18
5.10368e-18
3.59937e-18
1.57648e-18
1.60095e-18
1.25575e-18
1.10537e-18
9.95717e-19
9.12133e-19
8.66829e-19
8.89626e-19
8.60292e-19
7.95094e-19
6.80069e-19
6.05919e-19
5.33747e-19
5.0983e-19
4.44356e-19
4.15242e-19
3.75424e-19
3.59885e-19
2.93875e-19
3.00475e-19
2.3972e-19
2.42889e-19
2.0799e-19
2.02184e-19
1.74709e-19
1.66441e-19
1.40307e-19
1.43255e-19
1.11031e-19
1.20157e-19
1.00649e-19
8.22172e-20
1.12868e-19
4.66208e-20
1.0958e-19
6.50536e-20
4.80745e-20
1.35985e-19
1.6936e-21
1.3814e-19
8.48642e-20
5.22921e-20
2.04268e-19
4.80123e-20
1.82863e-19
2.04873e-19
1.14064e-19
2.96372e-19
2.45835e-19
2.46112e-19
4.37004e-19
3.80098e-19
5.13883e-19
6.65702e-19
6.81368e-19
2.92232e-18
1.5161e-18
1.96019e-18
4.04407e-18
3.09326e-18
1.32311e-18
1.40362e-18
1.13068e-18
1.00879e-18
9.14712e-19
8.51333e-19
8.20681e-19
8.46296e-19
8.20926e-19
7.62812e-19
6.55466e-19
5.86457e-19
5.19148e-19
4.9661e-19
4.33515e-19
4.05013e-19
3.66412e-19
3.52452e-19
2.8889e-19
2.9381e-19
2.36906e-19
2.37836e-19
2.05441e-19
1.98757e-19
1.72461e-19
1.63547e-19
1.3903e-19
1.40564e-19
1.10487e-19
1.17925e-19
1.0028e-19
8.04009e-20
1.11331e-19
4.6892e-20
1.05841e-19
6.60875e-20
4.52718e-20
1.32343e-19
3.03867e-21
1.30816e-19
8.62717e-20
4.58235e-20
1.98871e-19
4.61189e-20
1.69818e-19
1.99756e-19
1.01479e-19
2.79368e-19
2.31331e-19
2.20005e-19
4.05308e-19
3.44256e-19
4.5314e-19
5.99326e-19
5.86621e-19
2.43153e-18
1.27488e-18
1.63243e-18
3.17435e-18
2.61396e-18
1.11177e-18
1.22458e-18
1.02184e-18
9.25394e-19
8.43441e-19
7.95808e-19
7.78139e-19
8.06403e-19
7.84672e-19
7.32793e-19
6.32404e-19
5.68032e-19
5.05491e-19
4.84186e-19
4.23326e-19
3.95351e-19
3.58032e-19
3.45317e-19
2.8429e-19
2.87475e-19
2.34282e-19
2.33041e-19
2.03049e-19
1.9554e-19
1.70385e-19
1.60827e-19
1.37861e-19
1.38004e-19
1.10001e-19
1.15842e-19
9.99424e-20
7.87715e-20
1.09847e-19
4.72718e-20
1.02296e-19
6.70735e-20
4.27987e-20
1.29321e-19
4.59629e-21
1.24135e-19
8.77481e-20
4.00246e-20
1.93494e-19
4.4935e-20
1.57348e-19
1.95172e-19
9.02075e-20
2.63322e-19
2.18592e-19
1.96408e-19
3.76498e-19
3.13198e-19
3.98811e-19
5.41988e-19
5.07699e-19
2.00117e-18
1.11869e-18
1.37293e-18
2.47226e-18
2.17155e-18
9.35519e-19
1.06287e-18
9.26592e-19
8.5337e-19
7.80913e-19
7.45121e-19
7.38757e-19
7.69562e-19
7.51256e-19
7.04855e-19
6.10743e-19
5.50554e-19
4.92697e-19
4.72507e-19
4.13736e-19
3.86212e-19
3.50246e-19
3.38471e-19
2.80038e-19
2.81471e-19
2.31827e-19
2.28496e-19
2.00801e-19
1.92526e-19
1.68476e-19
1.58286e-19
1.36793e-19
1.35585e-19
1.09568e-19
1.13918e-19
9.96356e-20
7.733e-20
1.08425e-19
4.77591e-20
9.89479e-20
6.80231e-20
4.067e-20
1.26604e-19
6.31527e-21
1.17927e-19
8.92969e-20
3.48901e-20
1.88173e-19
4.44054e-20
1.45523e-19
1.9106e-19
8.02455e-20
2.48213e-19
2.07503e-19
1.75174e-19
3.50412e-19
2.86363e-19
3.5048e-19
4.92247e-19
4.42626e-19
1.62941e-18
1.02246e-18
1.18464e-18
1.91707e-18
1.77564e-18
7.88091e-19
9.18129e-19
8.42852e-19
7.91217e-19
7.26222e-19
6.989e-19
7.0216e-19
7.35427e-19
7.20417e-19
6.78822e-19
5.90347e-19
5.33937e-19
4.80688e-19
4.61514e-19
4.04692e-19
3.77555e-19
3.43006e-19
3.31905e-19
2.76098e-19
2.75792e-19
2.2952e-19
2.24189e-19
1.98684e-19
1.89704e-19
1.66725e-19
1.55926e-19
1.35821e-19
1.3331e-19
1.09183e-19
1.12156e-19
9.93582e-20
7.60737e-20
1.07071e-19
4.83467e-20
9.58013e-20
6.8951e-20
3.88665e-20
1.24018e-19
8.17902e-21
1.12124e-19
9.09055e-20
3.04064e-20
1.82933e-19
4.44599e-20
1.34399e-19
1.8735e-19
7.15589e-20
2.34005e-19
1.9792e-19
1.56148e-19
3.2683e-19
2.63224e-19
3.07662e-19
4.49014e-19
3.8976e-19
1.31344e-18
9.64406e-19
1.06909e-18
1.48152e-18
1.43393e-18
6.64182e-19
7.89759e-19
7.68893e-19
7.37674e-19
6.78567e-19
6.5683e-19
6.68042e-19
7.03691e-19
6.91918e-19
6.54531e-19
5.71091e-19
5.18099e-19
4.69391e-19
4.51151e-19
3.96147e-19
3.69337e-19
3.3627e-19
3.25605e-19
2.72438e-19
2.70427e-19
2.27346e-19
2.20106e-19
1.96688e-19
1.87063e-19
1.65125e-19
1.53747e-19
1.34941e-19
1.31178e-19
1.08842e-19
1.10557e-19
9.91095e-20
7.49974e-20
1.05792e-19
4.90227e-20
9.28664e-20
6.98593e-20
3.73689e-20
1.21535e-19
1.01713e-20
1.067e-19
9.25478e-20
2.65544e-20
1.77813e-19
4.50248e-20
1.24021e-19
1.83992e-19
6.40941e-20
2.20693e-19
1.89703e-19
1.39193e-19
3.05575e-19
2.43356e-19
2.69946e-19
4.11392e-19
3.4752e-19
1.04944e-18
9.25699e-19
1.14987e-17
1.53403e-17
1.40451e-17
1.09773e-17
7.97878e-18
5.8453e-18
4.44453e-18
3.31267e-18
2.46399e-18
2.02258e-18
1.88128e-18
1.69965e-18
1.44401e-18
1.15627e-18
9.61841e-19
8.1007e-19
7.4033e-19
6.36688e-19
5.89703e-19
5.25904e-19
4.71858e-19
3.91587e-19
3.94622e-19
2.98448e-19
3.13844e-19
2.47839e-19
2.49199e-19
2.03267e-19
1.99815e-19
1.57883e-19
1.65142e-19
1.21368e-19
1.37722e-19
1.0035e-19
1.0569e-19
1.05344e-19
5.69181e-20
1.17699e-19
4.04712e-20
7.60328e-20
9.6617e-20
1.08716e-20
1.48872e-19
3.61218e-20
1.08609e-19
1.644e-19
6.43203e-20
2.25218e-19
1.75567e-19
1.88038e-19
3.39582e-19
2.98639e-19
4.34804e-19
6.28881e-19
7.81516e-19
1.15619e-18
1.85258e-18
3.09183e-18
6.8235e-18
8.40482e-18
1.2056e-17
1.56831e-17
1.44162e-17
1.12532e-17
8.10944e-18
5.92202e-18
4.49472e-18
3.34472e-18
2.48186e-18
2.03329e-18
1.89026e-18
1.70757e-18
1.44979e-18
1.16006e-18
9.6443e-19
8.12086e-19
7.42237e-19
6.38238e-19
5.90795e-19
5.27307e-19
4.73004e-19
3.92044e-19
3.95577e-19
2.99211e-19
3.14209e-19
2.48644e-19
2.49574e-19
2.03877e-19
2.00261e-19
1.58261e-19
1.65708e-19
1.21635e-19
1.38266e-19
1.00873e-19
1.05841e-19
1.06701e-19
5.65293e-20
1.19292e-19
4.11985e-20
7.6022e-20
9.96008e-20
1.00483e-20
1.51861e-19
3.81761e-20
1.0915e-19
1.70275e-19
6.55491e-20
2.30678e-19
1.82867e-19
1.93016e-19
3.51548e-19
3.11254e-19
4.50652e-19
6.55245e-19
8.15267e-19
1.2062e-18
1.93508e-18
3.19849e-18
7.14987e-18
8.59527e-18
1.24029e-17
1.5973e-17
1.45301e-17
1.13433e-17
8.14042e-18
5.94517e-18
4.51885e-18
3.36438e-18
2.49381e-18
2.04091e-18
1.89836e-18
1.71527e-18
1.45559e-18
1.16359e-18
9.66963e-19
8.14006e-19
7.44602e-19
6.39869e-19
5.92076e-19
5.28991e-19
4.7449e-19
3.92331e-19
3.9714e-19
2.99823e-19
3.15068e-19
2.49472e-19
2.50327e-19
2.04582e-19
2.01105e-19
1.58669e-19
1.66784e-19
1.21908e-19
1.39319e-19
1.01616e-19
1.06263e-19
1.08847e-19
5.60254e-20
1.22035e-19
4.22655e-20
7.64707e-20
1.04224e-19
9.10336e-21
1.56914e-19
4.13119e-20
1.10855e-19
1.79236e-19
6.81763e-20
2.39612e-19
1.94298e-19
2.01524e-19
3.70067e-19
3.30725e-19
4.74521e-19
6.92858e-19
8.60988e-19
1.26765e-18
2.0258e-18
3.30798e-18
7.42113e-18
8.80204e-18
1.22023e-17
1.5836e-17
1.42071e-17
1.10829e-17
7.99512e-18
5.86112e-18
4.47902e-18
3.34567e-18
2.4828e-18
2.03412e-18
1.89641e-18
1.71568e-18
1.45605e-18
1.16353e-18
9.66899e-19
8.14027e-19
7.45634e-19
6.40377e-19
5.92313e-19
5.30027e-19
4.75508e-19
3.92075e-19
3.98396e-19
3.00205e-19
3.15715e-19
2.50244e-19
2.5103e-19
2.05292e-19
2.01937e-19
1.59097e-19
1.6796e-19
1.22178e-19
1.4054e-19
1.02463e-19
1.06728e-19
1.11398e-19
5.5423e-20
1.25325e-19
4.35795e-20
7.70579e-20
1.09746e-19
8.1433e-21
1.62815e-19
4.52361e-20
1.12863e-19
1.89735e-19
7.15231e-20
2.49806e-19
2.07735e-19
2.11224e-19
3.90615e-19
3.52535e-19
4.99277e-19
7.31496e-19
9.0435e-19
1.31981e-18
2.08782e-18
3.32942e-18
7.51383e-18
8.76999e-18
1.15126e-17
1.54449e-17
1.35163e-17
1.05033e-17
7.6885e-18
5.66857e-18
4.36684e-18
3.28026e-18
2.4413e-18
2.00605e-18
1.87757e-18
1.70272e-18
1.44688e-18
1.15697e-18
9.62179e-19
8.10516e-19
7.43763e-19
6.3856e-19
5.90485e-19
5.29341e-19
4.75216e-19
3.90826e-19
3.98612e-19
2.99991e-19
3.15799e-19
2.50594e-19
2.51404e-19
2.05762e-19
2.02518e-19
1.59372e-19
1.68996e-19
1.22342e-19
1.41678e-19
1.03258e-19
1.07071e-19
1.13975e-19
5.47483e-20
1.28578e-19
4.49907e-20
7.75601e-20
1.15304e-19
7.29579e-21
1.68433e-19
4.94415e-20
1.14615e-19
2.00038e-19
7.50416e-20
2.59108e-19
2.20918e-19
2.20197e-19
4.09196e-19
3.72694e-19
5.19675e-19
7.62947e-19
9.36632e-19
1.35144e-18
2.11599e-18
3.26661e-18
7.49035e-18
8.60037e-18
1.07045e-17
1.52424e-17
1.26751e-17
9.76553e-18
7.29129e-18
5.40457e-18
4.19746e-18
3.17421e-18
2.37229e-18
1.95717e-18
1.8408e-18
1.67478e-18
1.42654e-18
1.14262e-18
9.51857e-19
8.02695e-19
7.38244e-19
6.33797e-19
5.8605e-19
5.26285e-19
4.73041e-19
3.88247e-19
3.97341e-19
2.98819e-19
3.15077e-19
2.50253e-19
2.51258e-19
2.05815e-19
2.02665e-19
1.59368e-19
1.69701e-19
1.22288e-19
1.42531e-19
1.03871e-19
1.0715e-19
1.16289e-19
5.40093e-20
1.31457e-19
4.63305e-20
7.79008e-20
1.20313e-19
6.62086e-21
1.73146e-19
5.34072e-20
1.15918e-19
2.08811e-19
7.83183e-20
2.66545e-19
2.32135e-19
2.27669e-19
4.23603e-19
3.89155e-19
5.34242e-19
7.85309e-19
9.56416e-19
1.36585e-18
2.11602e-18
3.15817e-18
7.47866e-18
8.48867e-18
9.90477e-18
1.54199e-17
1.18004e-17
8.9737e-18
6.83869e-18
5.08962e-18
3.98297e-18
3.03569e-18
2.28028e-18
1.89062e-18
1.78811e-18
1.63294e-18
1.39552e-18
1.12072e-18
9.36068e-19
7.90679e-19
7.29064e-19
6.26015e-19
5.79013e-19
5.2072e-19
4.68843e-19
3.84222e-19
3.944e-19
2.96472e-19
3.13386e-19
2.49108e-19
2.50403e-19
2.05371e-19
2.02257e-19
1.59012e-19
1.69944e-19
1.21973e-19
1.42969e-19
1.04234e-19
1.06902e-19
1.18172e-19
5.32047e-20
1.33741e-19
4.74768e-20
7.80912e-20
1.24479e-19
6.11141e-21
1.76819e-19
5.67819e-20
1.16843e-19
2.15695e-19
8.10474e-20
2.72113e-19
2.40739e-19
2.33603e-19
4.33852e-19
4.01347e-19
5.43518e-19
7.98989e-19
9.64551e-19
1.36693e-18
2.09206e-18
3.02031e-18
7.52375e-18
8.53397e-18
9.15795e-18
1.595e-17
1.09373e-17
8.18233e-18
6.34084e-18
4.73495e-18
3.73232e-18
2.87075e-18
2.17012e-18
1.81011e-18
1.72254e-18
1.57977e-18
1.35552e-18
1.09224e-18
9.15451e-19
7.74903e-19
7.166e-19
6.1558e-19
5.69712e-19
5.1292e-19
4.62817e-19
3.78839e-19
3.89888e-19
2.92975e-19
3.10667e-19
2.47184e-19
2.48784e-19
2.04437e-19
2.0127e-19
1.58304e-19
1.69692e-19
1.2141e-19
1.42939e-19
1.04355e-19
1.06311e-19
1.19584e-19
5.23496e-20
1.35454e-19
4.84207e-20
7.81404e-20
1.27881e-19
5.70405e-21
1.79641e-19
5.95378e-20
1.17474e-19
2.20943e-19
8.31043e-20
2.76435e-19
2.46925e-19
2.38198e-19
4.40906e-19
4.09726e-19
5.48421e-19
8.05568e-19
9.62184e-19
1.35772e-18
2.04666e-18
2.86236e-18
7.62291e-18
8.70099e-18
8.47563e-18
1.66334e-17
1.01069e-17
7.42791e-18
5.80985e-18
4.35356e-18
3.4559e-18
2.68694e-18
2.04751e-18
1.71975e-18
1.64776e-18
1.51816e-18
1.30877e-18
1.05867e-18
8.90943e-19
7.56031e-19
7.01403e-19
6.02966e-19
5.58603e-19
5.03339e-19
4.55344e-19
3.72335e-19
3.84074e-19
2.88513e-19
3.06943e-19
2.44584e-19
2.4641e-19
2.0306e-19
1.99737e-19
1.57302e-19
1.68983e-19
1.20652e-19
1.42466e-19
1.04297e-19
1.05385e-19
1.20607e-19
5.14647e-20
1.36645e-19
4.92586e-20
7.79938e-20
1.30789e-19
5.29451e-21
1.81818e-19
6.18756e-20
1.17669e-19
2.25221e-19
8.43262e-20
2.79726e-19
2.51215e-19
2.41181e-19
4.45367e-19
4.14241e-19
5.48754e-19
8.05647e-19
9.49426e-19
1.33762e-18
1.9812e-18
2.69088e-18
7.73623e-18
8.86354e-18
7.85539e-18
1.72131e-17
9.32825e-18
6.72246e-18
5.26579e-18
3.95959e-18
3.16577e-18
2.49253e-18
1.91812e-18
1.62388e-18
1.56724e-18
1.45106e-18
1.25759e-18
1.02166e-18
8.63739e-19
7.34912e-19
6.84142e-19
5.88664e-19
5.46133e-19
4.92455e-19
4.46914e-19
3.65013e-19
3.77317e-19
2.83385e-19
3.02305e-19
2.41488e-19
2.43348e-19
2.01305e-19
1.97718e-19
1.5608e-19
1.67873e-19
1.19762e-19
1.41588e-19
1.04139e-19
1.04129e-19
1.21324e-19
5.05675e-20
1.37302e-19
5.01651e-20
7.75071e-20
1.33453e-19
4.78371e-21
1.83368e-19
6.408e-20
1.16994e-19
2.28818e-19
8.44995e-20
2.81549e-19
2.53827e-19
2.41629e-19
4.46729e-19
4.14429e-19
5.43123e-19
7.98045e-19
9.24372e-19
1.30333e-18
1.88945e-18
2.50426e-18
7.80692e-18
8.8398e-18
7.27409e-18
1.73929e-17
8.61413e-18
6.05455e-18
4.73132e-18
3.5684e-18
2.87416e-18
2.29551e-18
1.78754e-18
1.5265e-18
1.48426e-18
1.38125e-18
1.20411e-18
9.82788e-19
8.35014e-19
7.12462e-19
6.65512e-19
5.73252e-19
5.32656e-19
4.80657e-19
4.3796e-19
3.57183e-19
3.69933e-19
2.77939e-19
2.96914e-19
2.38044e-19
2.39711e-19
1.9921e-19
1.95283e-19
1.54707e-19
1.66409e-19
1.18797e-19
1.40338e-19
1.0394e-19
1.02537e-19
1.21781e-19
4.96756e-20
1.37323e-19
5.12513e-20
7.64177e-20
1.35932e-19
4.11068e-21
1.83891e-19
6.63131e-20
1.14963e-19
2.31529e-19
8.34024e-20
2.81037e-19
2.54511e-19
2.38591e-19
4.44033e-19
4.09337e-19
5.29779e-19
7.81142e-19
8.85911e-19
1.25183e-18
1.77179e-18
2.30123e-18
7.75885e-18
8.5142e-18
6.71137e-18
1.70288e-17
7.96576e-18
5.4155e-18
4.22473e-18
3.19274e-18
2.59141e-18
2.10239e-18
1.66004e-18
1.43086e-18
1.40156e-18
1.31099e-18
1.15007e-18
9.43369e-19
8.05751e-19
6.89449e-19
6.46161e-19
5.57215e-19
5.1854e-19
4.68267e-19
4.28766e-19
3.4912e-19
3.62164e-19
2.72483e-19
2.90967e-19
2.34403e-19
2.35631e-19
1.96813e-19
1.92498e-19
1.53221e-19
1.64614e-19
1.17799e-19
1.38752e-19
1.03725e-19
1.0061e-19
1.21949e-19
4.88102e-20
1.36582e-19
5.25533e-20
7.45867e-20
1.38098e-19
3.28336e-21
1.8303e-19
6.85522e-20
1.11212e-19
2.32985e-19
8.09551e-20
2.77572e-19
2.5304e-19
2.31654e-19
4.36652e-19
3.98705e-19
5.08522e-19
7.54701e-19
8.35025e-19
1.1832e-18
1.63334e-18
2.08572e-18
7.55244e-18
7.86262e-18
6.14712e-18
1.61087e-17
7.36904e-18
4.79824e-18
3.75761e-18
2.84215e-18
2.3258e-18
1.91792e-18
1.53858e-18
1.33935e-18
1.32128e-18
1.24212e-18
1.09686e-18
9.04374e-19
7.76714e-19
6.66533e-19
6.26662e-19
5.41024e-19
5.04154e-19
4.55576e-19
4.19521e-19
3.41052e-19
3.54184e-19
2.67231e-19
2.84698e-19
2.30692e-19
2.31272e-19
1.94166e-19
1.89435e-19
1.51642e-19
1.62502e-19
1.16802e-19
1.36851e-19
1.03487e-19
9.8384e-20
1.21778e-19
4.80051e-20
1.34986e-19
5.40294e-20
7.2011e-20
1.39743e-19
2.37489e-21
1.80589e-19
7.07103e-20
1.05806e-19
2.32932e-19
7.72996e-20
2.71039e-19
2.49423e-19
2.20964e-19
4.24794e-19
3.8319e-19
4.80346e-19
7.20145e-19
7.74872e-19
1.10099e-18
1.48274e-18
1.86445e-18
7.17957e-18
6.94888e-18
5.575e-18
1.47308e-17
6.80754e-18
4.20379e-18
3.33546e-18
2.52218e-18
2.0822e-18
1.74528e-18
1.42493e-18
1.25352e-18
1.24485e-18
1.17596e-18
1.04549e-18
8.666e-19
7.48463e-19
6.44223e-19
6.0746e-19
5.25089e-19
4.89839e-19
4.42836e-19
4.10332e-19
3.33153e-19
3.46117e-19
2.62307e-19
2.78293e-19
2.27011e-19
2.26784e-19
1.91339e-19
1.86168e-19
1.49992e-19
1.601e-19
1.15834e-19
1.34682e-19
1.03212e-19
9.59458e-20
1.21243e-19
4.73003e-20
1.32564e-19
5.56054e-20
6.88255e-20
1.40731e-19
1.49754e-21
1.76672e-19
7.27304e-20
9.90494e-20
2.31364e-19
7.27755e-20
2.61815e-19
2.4409e-19
2.07354e-19
4.09356e-19
3.64127e-19
4.47305e-19
6.79914e-19
7.09729e-19
1.01044e-18
1.3308e-18
1.64646e-18
6.66867e-18
5.89716e-18
4.99572e-18
1.3057e-17
6.2652e-18
3.64037e-18
2.95847e-18
2.23538e-18
1.8629e-18
1.58631e-18
1.31993e-18
1.17416e-18
1.17327e-18
1.11335e-18
9.96572e-19
8.3053e-19
7.21329e-19
6.2284e-19
5.88874e-19
5.09686e-19
4.75856e-19
4.30281e-19
4.01281e-19
3.25549e-19
3.38061e-19
2.57754e-19
2.71903e-19
2.23435e-19
2.22282e-19
1.88417e-19
1.82781e-19
1.48305e-19
1.57456e-19
1.14914e-19
1.32305e-19
1.02889e-19
9.34017e-20
1.20359e-19
4.67302e-20
1.29452e-19
5.72076e-20
6.52332e-20
1.41024e-19
7.68987e-22
1.71503e-19
7.46174e-20
9.13812e-20
2.28495e-19
6.78197e-20
2.50458e-19
2.37636e-19
1.91859e-19
3.91475e-19
3.43091e-19
4.11655e-19
6.36713e-19
6.43833e-19
9.16942e-19
1.18589e-18
1.43964e-18
6.05901e-18
4.83182e-18
4.41717e-18
1.12643e-17
5.73139e-18
3.11946e-18
2.62345e-18
1.98196e-18
1.66833e-18
1.44174e-18
1.22365e-18
1.10144e-18
1.10686e-18
1.05472e-18
9.5048e-19
7.96395e-19
6.95482e-19
6.02565e-19
5.71104e-19
4.94983e-19
4.62388e-19
4.18111e-19
3.92429e-19
3.18329e-19
3.30099e-19
2.53566e-19
2.65634e-19
2.20008e-19
2.17864e-19
1.8549e-19
1.79351e-19
1.46619e-19
1.54642e-19
1.14051e-19
1.29801e-19
1.02521e-19
9.08554e-20
1.19189e-19
4.6318e-20
1.25841e-19
5.87827e-20
6.14554e-20
1.40647e-19
2.87512e-22
1.65451e-19
7.6411e-20
8.32467e-20