/*--------------------------------*- C++ -*----------------------------------*\
| =========                 |                                                 |
| \\      /  F ield         | OpenFOAM: The Open Source CFD Toolbox           |
|  \\    /   O peration     | Version:  2312                                  |
|   \\  /    A nd           | Website:  www.openfoam.com                      |
|    \\/     M anipulation  |                                                 |
\*---------------------------------------------------------------------------*/
FoamFile
{
    version     2.0;
    format      ascii;
    arch        "LSB;label=32;scalar=64";
    class       volScalarField;
    location    "1000";
    object      nut;
}
// * * * * * * * * * * * * * * * * * * * * * * * * * * * * * * * * * * * * * //

dimensions      [0 2 -1 0 0 0 0];

internalField   nonuniform List<scalar> 
330000
(
7.99436e-25
1.22489e-25
9.43292e-27
4.83317e-28
1.51976e-30
3.58407e-30
6.18715e-29
5.38473e-29
8.63795e-29
6.17133e-29
8.1829e-29
8.76302e-29
1.09864e-28
1.13937e-28
1.30118e-28
1.54629e-28
1.60002e-28
1.53109e-28
1.81644e-28
1.95631e-28
2.21949e-28
2.17139e-28
2.57565e-28
2.66099e-28
3.06043e-28
3.14586e-28
3.59348e-28
3.50064e-28
4.15722e-28
4.17181e-28
4.84224e-28
4.88003e-28
5.5693e-28
5.33549e-28
6.24371e-28
6.31699e-28
7.12393e-28
6.96632e-28
7.98001e-28
7.38811e-28
8.73098e-28
8.20715e-28
9.40909e-28
8.80307e-28
9.88356e-28
8.26102e-28
9.3937e-28
7.95468e-28
8.365e-28
6.13863e-28
5.85731e-28
3.63919e-28
2.05596e-28
4.51357e-29
2.92003e-31
3.84246e-29
5.90377e-28
1.24439e-26
1.17636e-25
6.71888e-25
8.91943e-25
3.30357e-25
3.53967e-26
7.26569e-28
1.91435e-33
1.25567e-29
8.89932e-29
1.22149e-28
1.62034e-28
1.27011e-28
1.54427e-28
1.79666e-28
2.18907e-28
2.27551e-28
2.5698e-28
3.118e-28
3.18783e-28
3.06882e-28
3.56461e-28
3.91559e-28
4.38182e-28
4.33432e-28
5.06222e-28
5.3057e-28
6.02694e-28
6.22624e-28
7.10867e-28
6.9069e-28
8.15333e-28
8.2401e-28
9.51717e-28
9.54604e-28
1.09866e-27
1.0377e-27
1.22017e-27
1.22901e-27
1.37482e-27
1.35664e-27
1.54756e-27
1.42902e-27
1.6666e-27
1.58358e-27
1.78003e-27
1.68021e-27
1.87005e-27
1.54853e-27
1.73808e-27
1.46602e-27
1.52856e-27
1.07328e-27
1.02582e-27
5.8824e-28
3.47883e-28
3.92821e-29
1.31269e-32
2.04056e-28
1.69744e-27
2.64721e-26
3.19383e-25
1.05259e-24
1.55128e-24
5.01902e-25
3.97633e-26
1.36319e-27
1.23231e-32
1.89782e-29
1.31889e-28
1.54403e-28
2.39336e-28
1.68369e-28
2.34191e-28
2.37027e-28
3.35019e-28
2.9517e-28
3.90414e-28
4.07913e-28
4.68816e-28
4.16983e-28
5.24636e-28
5.28897e-28
6.36295e-28
5.93435e-28
7.33001e-28
7.27458e-28
8.71746e-28
8.55631e-28
1.02336e-27
9.54771e-28
1.167e-27
1.14582e-27
1.36823e-27
1.32053e-27
1.5713e-27
1.44357e-27
1.74425e-27
1.70628e-27
1.95383e-27
1.90408e-27
2.20103e-27
2.00627e-27
2.35688e-27
2.2359e-27
2.52952e-27
2.36153e-27
2.64429e-27
2.19517e-27
2.4632e-27
2.08559e-27
2.17379e-27
1.53176e-27
1.46701e-27
8.42245e-28
4.91983e-28
6.04565e-29
7.69037e-32
2.20735e-28
2.54757e-27
3.90149e-26
4.14515e-25
1.48408e-24
1.79912e-24
5.092e-25
4.17717e-26
1.25666e-27
1.18668e-31
1.63508e-29
1.47076e-28
1.37182e-28
2.59868e-28
1.51279e-28
2.59477e-28
2.16695e-28
3.64021e-28
2.70344e-28
4.22549e-28
3.75899e-28
4.97569e-28
3.95909e-28
5.50622e-28
5.04492e-28
6.61527e-28
5.73998e-28
7.61757e-28
7.03811e-28
9.00542e-28
8.31769e-28
1.05312e-27
9.33667e-28
1.19952e-27
1.12434e-27
1.40239e-27
1.29279e-27
1.60502e-27
1.42177e-27
1.7879e-27
1.67291e-27
1.99146e-27
1.88628e-27
2.23915e-27
1.99279e-27
2.3966e-27
2.22675e-27
2.56621e-27
2.35291e-27
2.67667e-27
2.20677e-27
2.51247e-27
2.09685e-27
2.21794e-27
1.55002e-27
1.52064e-27
8.57095e-28
5.27728e-28
6.12949e-29
2.53803e-32
2.03621e-28
2.36126e-27
3.81984e-26
5.03925e-25
1.74011e-24
2.18004e-24
5.96359e-25
5.05984e-26
1.23189e-27
5.71741e-31
1.5552e-29
1.48543e-28
1.34895e-28
2.672e-28
1.40416e-28
2.72061e-28
2.00678e-28
3.78963e-28
2.47805e-28
4.4076e-28
3.45332e-28
5.18198e-28
3.70699e-28
5.63387e-28
4.75214e-28
6.75043e-28
5.45776e-28
7.726e-28
6.71314e-28
9.10568e-28
7.95365e-28
1.06275e-27
8.95932e-28
1.2068e-27
1.08303e-27
1.40504e-27
1.24328e-27
1.60852e-27
1.37105e-27
1.78815e-27
1.60983e-27
1.99179e-27
1.82748e-27
2.23228e-27
1.93207e-27
2.38369e-27
2.16519e-27
2.54428e-27
2.28815e-27
2.65642e-27
2.15517e-27
2.49154e-27
2.04903e-27
2.19792e-27
1.51381e-27
1.514e-27
8.37439e-28
5.29858e-28
5.67394e-29
3.05782e-32
1.97667e-28
2.34616e-27
3.95569e-26
6.57054e-25
1.86486e-24
2.8864e-24
7.33232e-25
7.08387e-26
1.25815e-27
2.51748e-30
1.53349e-29
1.49037e-28
1.35124e-28
2.75498e-28
1.36837e-28
2.86458e-28
1.9314e-28
3.96411e-28
2.36507e-28
4.64962e-28
3.28113e-28
5.50471e-28
3.55531e-28
5.88511e-28
4.59817e-28
7.04599e-28
5.3221e-28
8.01681e-28
6.56801e-28
9.4137e-28
7.79939e-28
1.09726e-27
8.81005e-28
1.24378e-27
1.06823e-27
1.4398e-27
1.22553e-27
1.64931e-27
1.35509e-27
1.83065e-27
1.58822e-27
2.04234e-27
1.80998e-27
2.27892e-27
1.91569e-27
2.43189e-27
2.15132e-27
2.58416e-27
2.27398e-27
2.70085e-27
2.15005e-27
2.53154e-27
2.04204e-27
2.22629e-27
1.50846e-27
1.53863e-27
8.31022e-28
5.38418e-28
5.32703e-29
5.09725e-32
2.03896e-28
2.42024e-27
4.40625e-26
9.26058e-25
2.00524e-24
4.03823e-24
8.88141e-25
1.05674e-25
1.34253e-27
9.11693e-30
1.458e-29
1.50729e-28
1.35871e-28
2.85478e-28
1.35828e-28
3.01381e-28
1.8924e-28
4.1505e-28
2.30103e-28
4.91339e-28
3.18163e-28
5.88266e-28
3.44338e-28
6.20106e-28
4.5005e-28
7.4244e-28
5.23509e-28
8.39453e-28
6.48815e-28
9.82628e-28
7.72705e-28
1.14384e-27
8.74721e-28
1.29465e-27
1.06233e-27
1.48984e-27
1.221e-27
1.70816e-27
1.3522e-27
1.8918e-27
1.58391e-27
2.1173e-27
1.80881e-27
2.35215e-27
1.91726e-27
2.50952e-27
2.15489e-27
2.65607e-27
2.28346e-27
2.78022e-27
2.16435e-27
2.60079e-27
2.05463e-27
2.28208e-27
1.51794e-27
1.58108e-27
8.35503e-28
5.54584e-28
5.2447e-29
1.01696e-31
2.15038e-28
2.58582e-27
5.17977e-26
1.3223e-24
2.14855e-24
5.70958e-24
1.04018e-24
1.58278e-25
1.44555e-27
2.5904e-29
1.35169e-29
1.52705e-28
1.36662e-28
2.9419e-28
1.35941e-28
3.14304e-28
1.8637e-28
4.30593e-28
2.26208e-28
5.15374e-28
3.10815e-28
6.24426e-28
3.33373e-28
6.52558e-28
4.40741e-28
7.81005e-28
5.14623e-28
8.78978e-28
6.40565e-28
1.02476e-27
7.65229e-28
1.19158e-27
8.67766e-28
1.34772e-27
1.05522e-27
1.54174e-27
1.21585e-27
1.76798e-27
1.349e-27
1.95626e-27
1.58044e-27
2.1946e-27
1.80471e-27
2.42909e-27
1.91652e-27
2.59348e-27
2.15531e-27
2.73401e-27
2.28958e-27
2.86451e-27
2.17511e-27
2.67866e-27
2.06232e-27
2.34281e-27
1.52676e-27
1.62879e-27
8.38677e-28
5.74102e-28
5.27641e-29
2.25507e-31
2.35045e-28
2.89207e-27
6.37992e-26
1.84084e-24
2.2616e-24
7.93503e-24
1.17234e-24
2.31095e-25
1.59995e-27
6.11372e-29
1.23484e-29
1.55702e-28
1.36667e-28
3.02991e-28
1.36476e-28
3.25545e-28
1.84567e-28
4.44846e-28
2.23894e-28
5.37469e-28
3.06379e-28
6.58538e-28
3.23659e-28
6.85299e-28
4.32281e-28
8.19944e-28
5.05677e-28
9.19182e-28
6.32113e-28
1.06808e-27
7.57778e-28
1.24008e-27
8.60731e-28
1.40172e-27
1.04659e-27
1.59542e-27
1.2106e-27
1.82926e-27
1.34514e-27
2.02186e-27
1.57717e-27
2.2735e-27
1.79917e-27
2.50909e-27
1.91476e-27
2.68066e-27
2.15199e-27
2.81754e-27
2.29465e-27
2.95404e-27
2.18293e-27
2.75918e-27
2.06739e-27
2.40852e-27
1.53312e-27
1.67926e-27
8.42666e-28
5.97763e-28
5.42358e-29
5.78287e-31
2.71887e-28
3.41817e-27
8.08057e-26
2.47558e-24
2.34143e-24
1.07208e-23
1.28142e-24
3.24295e-25
1.8684e-27
1.22705e-28
1.18923e-29
1.59619e-28
1.35739e-28
3.11518e-28
1.37237e-28
3.35534e-28
1.83442e-28
4.57276e-28
2.23288e-28
5.5772e-28
3.03811e-28
6.89293e-28
3.15369e-28
7.17855e-28
4.2467e-28
8.58373e-28
4.97361e-28
9.60372e-28
6.23876e-28
1.11185e-27
7.50407e-28
1.28913e-27
8.53667e-28
1.45682e-27
1.0377e-27
1.65093e-27
1.2048e-27
1.89112e-27
1.34151e-27
2.09031e-27
1.57425e-27
2.35243e-27
1.79247e-27
2.59137e-27
1.91179e-27
2.77148e-27
2.14684e-27
2.90532e-27
2.29633e-27
3.04554e-27
2.18777e-27
2.84529e-27
2.06787e-27
2.4771e-27
1.53753e-27
1.73336e-27
8.4479e-28
6.24664e-28
5.61421e-29
1.54784e-30
3.35479e-28
4.25301e-27
1.03738e-25
3.19356e-24
2.38387e-24
1.40117e-23
1.36128e-24
4.38671e-25
2.25064e-27
2.17067e-28
1.24681e-29
1.65471e-28
1.3355e-28
3.21286e-28
1.37763e-28
3.45087e-28
1.83128e-28
4.69982e-28
2.23737e-28
5.77048e-28
3.03557e-28
7.17952e-28
3.09251e-28
7.50342e-28
4.18584e-28
8.971e-28
4.90143e-28
1.0024e-27
6.16574e-28
1.15744e-27
7.441e-28
1.33971e-27
8.47863e-28
1.5135e-27
1.02944e-27
1.70956e-27
1.20022e-27
1.95627e-27
1.339e-27
2.16152e-27
1.57274e-27
2.43403e-27
1.78761e-27
2.67808e-27
1.91048e-27
2.86637e-27
2.14178e-27
2.99992e-27
2.29903e-27
3.14377e-27
2.19208e-27
2.93512e-27
2.06827e-27
2.55225e-27
1.54023e-27
1.79124e-27
8.48057e-28
6.55658e-28
5.89393e-29
4.09791e-30
4.38993e-28
5.46198e-27
1.32485e-25
3.97121e-24
2.40826e-24
1.77478e-23
1.41704e-24
5.72261e-25
2.75554e-27
3.44977e-28
1.46311e-29
1.72735e-28
1.30621e-28
3.3141e-28
1.37964e-28
3.54558e-28
1.83105e-28
4.82079e-28
2.25195e-28
5.95566e-28
3.04367e-28
7.43591e-28
3.04863e-28
7.81878e-28
4.13686e-28
9.34871e-28
4.84188e-28
1.04487e-27
6.10124e-28
1.20347e-27
7.3844e-28
1.39085e-27
8.42618e-28
1.57109e-27
1.02209e-27
1.77018e-27
1.19569e-27
2.02266e-27
1.33738e-27
2.23544e-27
1.57177e-27
2.51605e-27
1.78345e-27
2.76668e-27
1.90919e-27
2.96386e-27
2.13697e-27
3.09818e-27
2.29958e-27
3.24357e-27
2.1948e-27
3.02925e-27
2.06573e-27
2.62964e-27
1.54158e-27
1.85271e-27
8.50213e-28
6.89506e-28
6.25665e-29
9.86971e-30
5.94806e-28
7.10773e-27
1.6702e-25
4.76587e-24
2.41825e-24
2.18295e-23
1.44811e-24
7.2428e-25
3.38732e-27
5.04919e-28
1.85503e-29
1.81955e-28
1.27013e-28
3.42929e-28
1.37652e-28
3.64444e-28
1.83406e-28
4.95096e-28
2.27061e-28
6.13773e-28
3.06429e-28
7.67667e-28
3.02339e-28
8.12513e-28
4.1027e-28
9.72288e-28
4.79584e-28
1.08735e-27
6.04859e-28
1.25063e-27
7.3389e-28
1.44288e-27
8.38695e-28
1.62968e-27
1.01586e-27
1.83299e-27
1.19224e-27
2.09186e-27
1.33681e-27
2.31118e-27
1.57169e-27
2.60017e-27
1.78124e-27
2.85789e-27
1.90949e-27
3.06363e-27
2.1328e-27
3.20058e-27
2.3005e-27
3.34788e-27
2.19698e-27
3.12501e-27
2.06288e-27
2.71148e-27
1.5411e-27
1.91682e-27
8.5301e-28
7.26675e-28
6.79515e-29
2.15198e-29
8.16554e-28
9.20697e-27
2.06383e-25
5.5548e-24
2.43242e-24
2.61826e-23
1.46326e-24
8.9242e-25
4.15067e-27
6.90038e-28
2.45558e-29
1.92201e-28
1.23169e-28
3.5535e-28
1.36831e-28
3.75184e-28
1.83577e-28
5.083e-28
2.29267e-28
6.31939e-28
3.08772e-28
7.89928e-28
3.01151e-28
8.41897e-28
4.08014e-28
1.00846e-27
4.76362e-28
1.12965e-27
6.00655e-28
1.29757e-27
7.30191e-28
1.49518e-27
8.35563e-28
1.68878e-27
1.01081e-27
1.89685e-27
1.18916e-27
2.16198e-27
1.33712e-27
2.38879e-27
1.57186e-27
2.68434e-27
1.77992e-27
2.94978e-27
1.9101e-27
3.16452e-27
2.12907e-27
3.30405e-27
2.29973e-27
3.45227e-27
2.198e-27
3.22307e-27
2.05752e-27
2.79347e-27
1.53929e-27
1.98297e-27
8.54753e-28
7.66849e-28
7.56535e-29
4.21795e-29
1.11347e-27
1.17809e-26
2.49995e-25
6.30137e-24
2.44944e-24
3.06842e-23
1.46178e-24
1.07648e-24
5.06031e-27
8.95913e-28
3.26488e-29
2.03816e-28
1.19272e-28
3.69389e-28
1.3557e-28
3.86912e-28
1.83788e-28
5.2296e-28
2.31369e-28
6.50385e-28
3.11727e-28
8.11821e-28
3.01203e-28
8.70423e-28
4.07085e-28
1.04419e-27
4.74419e-28
1.17151e-27
5.97782e-28
1.34508e-27
7.27696e-28
1.54792e-27
8.33849e-28
1.7485e-27
1.00708e-27
1.96193e-27
1.1874e-27
2.23433e-27
1.33827e-27
2.46739e-27
1.57285e-27
2.77028e-27
1.78024e-27
3.04295e-27
1.91218e-27
3.26636e-27
2.12603e-27
3.40925e-27
2.29948e-27
3.5595e-27
2.19818e-27
3.32089e-27
2.05197e-27
2.87811e-27
1.53556e-27
2.05049e-27
8.57257e-28
8.10974e-28
8.68224e-29
7.58253e-29
1.49512e-27
1.48043e-26
2.96466e-25
6.99342e-24
2.48779e-24
3.52638e-23
1.45143e-24
1.27314e-24
6.14348e-27
1.11611e-27
4.28966e-29
2.15756e-28
1.15865e-28
3.84007e-28
1.34081e-28
3.99719e-28
1.83792e-28
5.3811e-28
2.33502e-28
6.69515e-28
3.14619e-28
8.32927e-28
3.01983e-28
8.98041e-28
4.07132e-28
1.07875e-27
4.73703e-28
1.21286e-27
5.96082e-28
1.3921e-27
7.26249e-28
1.60053e-27
8.32973e-28
1.80822e-27
1.00468e-27
2.02751e-27
1.18632e-27
2.30698e-27
1.34015e-27
2.5469e-27
1.57433e-27
2.85621e-27
1.78134e-27
3.13577e-27
1.91442e-27
3.36768e-27
2.12366e-27
3.5142e-27
2.2982e-27
3.66519e-27
2.19708e-27
3.419e-27
2.0445e-27
2.96109e-27
1.53095e-27
2.11961e-27
8.59983e-28
8.59409e-28
1.02241e-28
1.26129e-28
1.96667e-27
1.82786e-26
3.45106e-25
7.60342e-24
2.54281e-24
3.97953e-23
1.43142e-24
1.48106e-24
7.43684e-27
1.34933e-27
5.51051e-29
2.28427e-28
1.12863e-28
3.99725e-28
1.32485e-28
4.13457e-28
1.83775e-28
5.54772e-28
2.35377e-28
6.89308e-28
3.17702e-28
8.54408e-28
3.03398e-28
9.25267e-28
4.08138e-28
1.113e-27
4.74032e-28
1.25358e-27
5.95614e-28
1.43931e-27
7.25953e-28
1.65306e-27
8.33429e-28
1.86807e-27
1.00353e-27
2.0935e-27
1.18653e-27
2.38089e-27
1.34274e-27
2.62645e-27
1.57661e-27
2.94317e-27
1.78348e-27
3.22852e-27
1.91772e-27
3.46843e-27
2.12177e-27
3.61889e-27
2.29727e-27
3.77144e-27
2.19507e-27
3.5149e-27
2.03671e-27
3.04485e-27
1.52504e-27
2.18944e-27
8.64318e-28
9.13306e-28
1.23093e-28
1.97677e-28
2.53458e-27
2.21964e-26
3.94459e-25
8.12236e-24
2.63179e-24
4.42261e-23
1.40976e-24
1.69528e-24
8.97126e-27
1.59149e-27
6.92153e-29
2.40966e-28
1.10301e-28
4.16189e-28
1.30821e-28
4.28349e-28
1.83508e-28
5.72177e-28
2.3713e-28
7.10072e-28
3.20433e-28
8.76052e-28
3.0513e-28
9.52327e-28
4.09736e-28
1.14655e-27
4.75312e-28
1.29393e-27
5.96087e-28
1.48572e-27
7.26647e-28
1.70534e-27
8.34763e-28
1.92762e-27
1.00348e-27
2.15924e-27
1.18751e-27
2.4544e-27
1.34612e-27
2.70623e-27
1.57917e-27
3.02913e-27
1.78607e-27
3.32022e-27
1.92114e-27
3.56764e-27
2.12001e-27
3.72141e-27
2.29549e-27
3.87482e-27
2.19219e-27
3.60955e-27
2.02711e-27
3.12574e-27
1.51881e-27
2.26e-27
8.69651e-28
9.73711e-28
1.50357e-28
2.94407e-28
3.20656e-27
2.65743e-26
4.43692e-25
8.52833e-24
2.74813e-24
4.84081e-23
1.38558e-24
1.91373e-24
1.0786e-26
1.84201e-27
8.50609e-29
2.53885e-28
1.08136e-28
4.33649e-28
1.2921e-28
4.44001e-28
1.83287e-28
5.91047e-28
2.38574e-28
7.31569e-28
3.2318e-28
8.98546e-28
3.07094e-28
9.79575e-28
4.11917e-28
1.1802e-27
4.77267e-28
1.33383e-27
5.97531e-28
1.53215e-27
7.28271e-28
1.75724e-27
8.37258e-28
1.98697e-27
1.00448e-27
2.2247e-27
1.18967e-27
2.52831e-27
1.35e-27
2.78532e-27
1.58237e-27
3.11511e-27
1.78915e-27
3.41079e-27
1.92515e-27
3.66528e-27
2.11828e-27
3.822e-27
2.2938e-27
3.97709e-27
2.18803e-27
3.7007e-27
2.0172e-27
3.20645e-27
1.51153e-27
2.33111e-27
8.7721e-28
1.04169e-27
1.85238e-28
4.22052e-28
3.99213e-27
3.14315e-26
4.91254e-25
8.82176e-24
2.91188e-24
5.23032e-23
1.36762e-24
2.13031e-24
1.29209e-26
2.09794e-27
1.02514e-28
2.6659e-28
1.06569e-28
4.51283e-28
1.27727e-28
4.60495e-28
1.83027e-28
6.10418e-28
2.39953e-28
7.54308e-28
3.25662e-28
9.21309e-28
3.0908e-28
1.00715e-27
4.14415e-28
1.2135e-27
4.79811e-28
1.37359e-27
5.99719e-28
1.57802e-27
7.30743e-28
1.8087e-27
8.40384e-28
2.04558e-27
1.00647e-27
2.28975e-27
1.19255e-27
2.60109e-27
1.3544e-27
2.86382e-27
1.58601e-27
3.1996e-27
1.7925e-27
3.49943e-27
1.9288e-27
3.76004e-27
2.11673e-27
3.92006e-27
2.29148e-27
4.07489e-27
2.18266e-27
3.78932e-27
2.00614e-27
3.28328e-27
1.50454e-27
2.40378e-27
8.87335e-28
1.11796e-27
2.29035e-28
5.85351e-28
4.90686e-27
3.67931e-26
5.36406e-25
8.99303e-24
3.1125e-24
5.57776e-23
1.35433e-24
2.34184e-24
1.54266e-26
2.35961e-27
1.21137e-28
2.79703e-28
1.05406e-28
4.69411e-28
1.26443e-28
4.7741e-28
1.82927e-28
6.30972e-28
2.4116e-28
7.77714e-28
3.28126e-28
9.44924e-28
3.11119e-28
1.03522e-27
4.17197e-28
1.2472e-27
4.82733e-28
1.4131e-27
6.02573e-28
1.62401e-27
7.33862e-28
1.85958e-27
8.44375e-28
2.10368e-27
1.00926e-27
2.35413e-27
1.1963e-27
2.67354e-27
1.35913e-27
2.94082e-27
1.59012e-27
3.28322e-27
1.79593e-27
3.58594e-27
1.93261e-27
3.85213e-27
2.11497e-27
4.01515e-27
2.28887e-27
4.16997e-27
2.17603e-27
3.87315e-27
1.99483e-27
3.35906e-27
1.49726e-27
2.47721e-27
9.00668e-28
1.20358e-27
2.83151e-28
7.9206e-28
5.963e-27
4.27352e-26
5.77655e-25
9.04387e-24
3.37271e-24
5.88474e-23
1.35299e-24
2.54159e-24
1.8345e-26
2.62444e-27
1.40508e-28
2.92739e-28
1.04448e-28
4.88253e-28
1.25215e-28
4.95237e-28
1.82758e-28
6.52136e-28
2.42344e-28
8.0215e-28
3.30233e-28
9.69227e-28
3.13164e-28
1.06395e-27
4.2004e-28
1.28105e-27
4.86015e-28
1.4528e-27
6.05788e-28
1.66944e-27
7.37556e-28
1.91022e-27
8.48858e-28
2.16101e-27
1.01267e-27
2.41764e-27
1.20054e-27
2.74456e-27
1.36438e-27
3.01667e-27
1.59419e-27
3.36433e-27
1.79942e-27
3.67006e-27
1.93608e-27
3.94079e-27
2.11274e-27
4.10625e-27
2.28537e-27
4.26011e-27
2.16871e-27
3.95354e-27
1.98234e-27
3.43083e-27
1.49079e-27
2.55162e-27
9.16873e-28
1.29998e-27
3.49266e-28
1.04853e-27
7.18909e-27
4.92738e-26
6.1418e-25
8.97058e-24
3.68366e-24
6.13649e-23
1.36199e-24
2.7268e-24
2.17207e-26
2.8892e-27
1.60123e-28
3.05895e-28
1.03772e-28
5.07591e-28
1.24166e-28
5.13302e-28
1.8279e-28
6.7418e-28
2.43414e-28
8.26869e-28
3.32317e-28
9.94252e-28
3.15176e-28
1.09314e-27
4.22996e-28
1.3154e-27
4.89406e-28
1.49242e-27
6.09359e-28
1.7149e-27
7.41514e-28
1.96014e-27
8.53865e-28
2.21769e-27
1.01651e-27
2.47996e-27
1.2053e-27
2.8146e-27
1.36957e-27
3.09051e-27
1.59831e-27
3.44356e-27
1.80244e-27
3.75104e-27
1.93913e-27
4.0261e-27
2.10972e-27
4.19299e-27
2.28091e-27
4.34638e-27
2.15955e-27
4.0286e-27
1.9693e-27
3.5012e-27
1.48387e-27
2.62698e-27
9.36231e-28
1.40813e-27
4.28745e-28
1.36515e-27
8.60122e-27
5.65417e-26
6.4486e-25
8.78546e-24
4.06888e-24
6.33702e-23
1.39175e-24
2.89129e-24
2.56081e-26
3.15161e-27
1.79471e-28
3.1885e-28
1.03493e-28
5.27001e-28
1.23252e-28
5.3203e-28
1.82929e-28
6.96451e-28
2.44538e-28
8.52705e-28
3.34306e-28
1.01949e-27
3.1713e-28
1.12298e-27
4.25996e-28
1.34984e-27
4.92946e-28
1.53233e-27
6.13161e-28
1.7601e-27
7.45841e-28
2.00974e-27
8.59026e-28
2.27334e-27
1.02079e-27
2.54153e-27
1.21034e-27
2.88271e-27
1.37484e-27
3.16264e-27
1.60245e-27
3.52001e-27
1.80535e-27
3.82888e-27
1.94139e-27
4.10693e-27
2.1063e-27
4.27587e-27
2.27566e-27
4.42639e-27
2.14917e-27
4.0996e-27
1.9557e-27
3.56674e-27
1.47798e-27
2.70438e-27
9.59769e-28
1.52864e-27
5.23937e-28
1.74936e-27
1.02416e-26
6.45868e-26
6.69359e-25
8.49906e-24
4.50828e-24
6.4749e-23
1.43775e-24
3.0317e-24
3.00643e-26
3.41116e-27
1.9765e-28
3.3188e-28
1.0356e-28
5.46419e-28
1.22593e-28
5.50772e-28
1.83327e-28
7.1934e-28
2.45669e-28
8.78644e-28
3.36353e-28
1.04516e-27
3.19073e-28
1.15316e-27
4.29055e-28
1.38474e-27
4.96494e-28
1.57213e-27
6.17145e-28
1.80543e-27
7.50208e-28
2.05854e-27
8.64424e-28
2.3282e-27
1.02528e-27
2.60177e-27
1.21555e-27
2.94947e-27
1.37981e-27
3.23218e-27
1.60642e-27
3.5941e-27
1.80751e-27
3.9029e-27
1.9429e-27
4.18357e-27
2.10194e-27
4.35381e-27
2.26912e-27
4.50152e-27
2.13698e-27
4.16446e-27
1.94158e-27
3.63033e-27
1.47211e-27
2.78296e-27
9.87297e-28
1.66278e-27
6.36351e-28
2.21483e-27
1.21293e-26
7.36249e-26
6.86967e-25
8.12047e-24
5.03114e-24
6.56281e-23
1.50609e-24
3.14274e-24
3.51536e-26
3.66876e-27
2.13896e-28
3.44916e-28
1.03619e-28
5.66819e-28
1.21931e-28
5.70486e-28
1.83691e-28
7.42754e-28
2.46862e-28
9.05371e-28
3.38169e-28
1.07146e-27
3.21072e-28
1.18395e-27
4.32073e-28
1.41993e-27
5.00159e-28
1.61225e-27
6.21118e-28
1.85035e-27
7.54765e-28
2.10724e-27
8.69889e-28
2.38213e-27
1.02984e-27
2.66092e-27
1.22078e-27
3.01431e-27
1.38483e-27
3.2997e-27
1.60983e-27
3.66472e-27
1.80935e-27
3.9736e-27
1.9437e-27
4.25547e-27
2.09657e-27
4.4266e-27
2.26141e-27
4.57062e-27
2.12409e-27
4.22461e-27
1.9266e-27
3.68944e-27
1.46755e-27
2.86267e-27
1.01885e-27
1.81241e-27
7.68718e-28
2.77152e-27
1.43316e-26
8.36289e-26
6.97454e-25
7.66067e-24
5.62515e-24
6.58728e-23
1.59274e-24
3.22252e-24
4.09171e-26
3.91747e-27
2.27565e-28
3.57465e-28
1.03978e-28
5.87176e-28
1.21492e-28
5.90015e-28
1.84284e-28
7.66402e-28
2.48063e-28
9.31677e-28
3.40008e-28
1.0979e-27
3.23024e-28
1.2147e-27
4.35107e-28
1.45526e-27
5.03722e-28
1.65208e-27
6.25102e-28
1.89499e-27
7.59074e-28
2.15482e-27
8.75286e-28
2.43504e-27
1.03424e-27
2.71816e-27
1.22575e-27
3.0772e-27
1.38908e-27
3.36424e-27
1.61255e-27
3.73203e-27
1.80979e-27
4.03953e-27
1.94308e-27
4.3226e-27
2.08953e-27
4.49306e-27
2.25152e-27
4.63393e-27
2.10857e-27
4.2784e-27
1.91037e-27
3.74627e-27
1.46232e-27
2.94361e-27
1.05372e-27
1.97858e-27
9.21895e-28
3.43608e-27
1.68681e-26
9.49016e-26
7.00654e-25
7.13641e-24
6.31478e-24
6.56106e-23
1.71224e-24
3.26804e-24
4.74468e-26
4.15638e-27
2.38218e-28
3.69609e-28
1.04675e-28
6.0749e-28
1.21191e-28
6.10172e-28
1.85033e-28
7.90132e-28
2.49361e-28
9.58922e-28
3.4193e-28
1.12421e-27
3.2499e-28
1.24591e-27
4.38214e-28
1.49048e-27
5.07334e-28
1.69205e-27
6.29103e-28
1.93925e-27
7.63506e-28
2.20202e-27
8.80521e-28
2.4867e-27
1.03863e-27
2.77441e-27
1.23061e-27
3.13763e-27
1.39294e-27
3.42637e-27
1.61475e-27
3.79571e-27
1.80971e-27
4.10146e-27
1.94128e-27
4.38403e-27
2.08152e-27
4.55463e-27
2.24061e-27
4.68972e-27
2.09171e-27
4.3271e-27
1.89378e-27
3.79755e-27
1.45831e-27
3.02671e-27
1.09388e-27
2.16129e-27
1.09971e-27
4.21818e-27
1.98197e-26
1.0752e-25
6.96759e-25
6.57013e-24
7.06318e-24
6.47498e-23
1.85446e-24
3.27692e-24
5.47677e-26
4.38414e-27
2.45007e-28
3.81226e-28
1.05806e-28
6.27115e-28
1.21231e-28
6.29892e-28
1.86084e-28
8.13881e-28
2.50757e-28
9.85651e-28
3.4397e-28
1.15033e-27
3.26964e-28
1.2769e-27
4.41365e-28
1.52561e-27
5.10867e-28
1.73146e-27
6.33096e-28
1.98315e-27
7.67636e-28
2.2479e-27
8.85558e-28
2.53708e-27
1.04277e-27
2.82863e-27
1.23498e-27
3.1958e-27
1.39586e-27
3.48504e-27
1.61611e-27
3.85579e-27
1.80803e-27
4.15819e-27
1.93783e-27
4.43994e-27
2.07179e-27
4.60956e-27
2.22737e-27
4.73893e-27
2.07233e-27
4.36872e-27
1.87602e-27
3.84598e-27
1.45396e-27
3.1111e-27
1.13818e-27
2.36199e-27
1.30288e-27
5.13851e-27
2.32051e-26
1.21829e-25
6.86093e-25
5.97031e-24
7.90578e-24
6.35247e-23
2.02395e-24
3.24858e-24
6.29537e-26
4.60642e-27
2.47462e-28
3.92995e-28
1.06806e-28
6.48022e-28
1.21244e-28
6.50726e-28
1.87097e-28
8.38196e-28
2.52229e-28
1.013e-27
3.45823e-28
1.177e-27
3.29065e-28
1.30822e-27
4.44503e-28
1.56079e-27
5.14494e-28
1.77085e-27
6.36979e-28
2.02638e-27
7.71832e-28
2.29346e-27
8.90464e-28
2.58618e-27
1.04665e-27
2.88141e-27
1.23902e-27
3.25158e-27
1.39844e-27
3.54092e-27
1.61642e-27
3.91174e-27
1.80564e-27
4.2108e-27
1.93328e-27
4.49e-27
2.06058e-27
4.65833e-27
2.21262e-27
4.78125e-27
2.05213e-27
4.40458e-27
1.85745e-27
3.88952e-27
1.45103e-27
3.19628e-27
1.18708e-27
2.58276e-27
1.5354e-27
6.20967e-27
2.71412e-26
1.37649e-25
6.6907e-25
5.35305e-24
8.82757e-24
6.18057e-23
2.21216e-24
3.18286e-24
7.19923e-26
4.81082e-27
2.45348e-28
4.03824e-28
1.08156e-28
6.68286e-28
1.21549e-28
6.7087e-28
1.88362e-28
8.62043e-28
2.53779e-28
1.03922e-27
3.47729e-28
1.20326e-27
3.31117e-28
1.33884e-27
4.47644e-28
1.59548e-27
5.17957e-28
1.80936e-27
6.40752e-28
2.0686e-27
7.7554e-28
2.3372e-27
8.94932e-28
2.6336e-27
1.04997e-27
2.9314e-27
1.24221e-27
3.30439e-27
1.39964e-27
3.59289e-27
1.61536e-27
3.96307e-27
1.80102e-27
4.25734e-27
1.9263e-27
4.53401e-27
2.04683e-27
4.6991e-27
2.19456e-27
4.81634e-27
2.02847e-27
4.43334e-27
1.83673e-27
3.92995e-27
1.44671e-27
3.28253e-27
1.23877e-27
2.82418e-27
1.79633e-27
7.45189e-27
3.16309e-26
1.55394e-25
6.4619e-25
4.73205e-24
9.84861e-24
5.97775e-23
2.44014e-24
3.08263e-24
8.20414e-26
4.99525e-27
2.38922e-28
4.14151e-28
1.09847e-28
6.88316e-28
1.22029e-28
6.91575e-28
1.89837e-28
8.85897e-28
2.55442e-28
1.06629e-27
3.49844e-28
1.22901e-27
3.33224e-28
1.36974e-27
4.50927e-28
1.62963e-27
5.21476e-28
1.84756e-27
6.4448e-28
2.10999e-27
7.7933e-28
2.38009e-27
8.99137e-28
2.67921e-27
1.05302e-27
2.97988e-27
1.24503e-27
3.35402e-27
1.40013e-27
3.64166e-27
1.61331e-27
4.0099e-27
1.79556e-27
4.29887e-27
1.91782e-27
4.57117e-27
2.03159e-27
4.73393e-27
2.17533e-27
4.84267e-27
2.00339e-27
4.45601e-27
1.81567e-27
3.96396e-27
1.44351e-27
3.37032e-27
1.29621e-27
3.08473e-27
2.091e-27
8.87314e-27
3.67732e-26
1.75105e-25
6.17846e-25
4.13119e-24
1.09082e-23
5.73735e-23
2.68761e-24
2.947e-24
9.29853e-26
5.15786e-27
2.27919e-28
4.23622e-28
1.12087e-28
7.0688e-28
1.22961e-28
7.11301e-28
1.91673e-28
9.09096e-28
2.57277e-28
1.09224e-27
3.52126e-28
1.25399e-27
3.35348e-28
1.39983e-27
4.54249e-28
1.66307e-27
5.24883e-28
1.88453e-27
6.48118e-28
2.15028e-27
7.82653e-28
2.42091e-27
9.0287e-28
2.7228e-27
1.0555e-27
3.02538e-27
1.24689e-27
3.40031e-27
1.39919e-27
3.68593e-27
1.60983e-27
4.05184e-27
1.78778e-27
4.33396e-27
1.90684e-27
4.60157e-27
2.0139e-27
4.76066e-27
2.15287e-27
4.861e-27
1.97519e-27
4.47087e-27
1.79272e-27
3.99415e-27
1.43927e-27
3.45875e-27
1.35713e-27
3.36538e-27
2.4177e-27
1.04951e-26
4.25539e-26
1.97081e-25
5.85089e-25
3.55345e-24
1.20484e-23
5.49078e-23
2.95442e-24
2.78207e-24
1.04849e-25
5.30692e-27
2.12707e-28
4.33642e-28
1.14113e-28
7.27066e-28
1.23846e-28
7.32333e-28
1.93461e-28
9.32977e-28
2.59167e-28
1.11871e-27
3.54154e-28
1.27955e-27
3.37624e-28
1.43e-27
4.57534e-28
1.69623e-27
5.28377e-28
1.92103e-27
6.51613e-28
2.18942e-27
7.85981e-28
2.46083e-27
9.06401e-28
2.76441e-27
1.05757e-27
3.06876e-27
1.24816e-27
3.44345e-27
1.39762e-27
3.72647e-27
1.60494e-27
4.08887e-27
1.77892e-27
4.36389e-27
1.8945e-27
4.62491e-27
1.99449e-27
4.78011e-27
2.12863e-27
4.87158e-27
1.94614e-27
4.47886e-27
1.76898e-27
4.0188e-27
1.43626e-27
3.54656e-27
1.4222e-27
3.66813e-27
2.78104e-27
1.23265e-26
4.91099e-26
2.20775e-25
5.48813e-25
3.01128e-24
1.32588e-23
5.21908e-23
3.22687e-24
2.58922e-24
1.1751e-25
5.42496e-27
1.93782e-28
4.42842e-28
1.16521e-28
7.46153e-28
1.25092e-28
7.5215e-28
1.95529e-28
9.55649e-28
2.61209e-28
1.14334e-27
3.5629e-28
1.30432e-27
3.39851e-28
1.45882e-27
4.60801e-28
1.72836e-27
5.31636e-28
1.95598e-27
6.54912e-28
2.22678e-27
7.88686e-28
2.49829e-27
9.09197e-28
2.80354e-27
1.05878e-27
3.10833e-27
1.24814e-27
3.48258e-27
1.39423e-27
3.76199e-27
1.59815e-27
4.11996e-27
1.76729e-27
4.38686e-27
1.87886e-27
4.6412e-27
1.97179e-27
4.79033e-27
2.10025e-27
4.87419e-27
1.91303e-27
4.47931e-27
1.74228e-27
4.03952e-27
1.43092e-27
3.63416e-27
1.48857e-27
3.99188e-27
3.17643e-27
1.43766e-26
5.63782e-26
2.46489e-25
5.09641e-25
2.51166e-24
1.45449e-23
4.93829e-23
3.5347e-24
2.37728e-24
1.31213e-25
5.50618e-27
1.723e-28
4.51647e-28
1.19309e-28
7.64783e-28
1.26544e-28
7.72503e-28
1.97848e-28
9.78363e-28
2.63351e-28
1.16888e-27
3.58695e-28
1.32808e-27
3.42108e-28
1.48786e-27
4.64226e-28
1.75942e-27
5.3492e-28
1.99017e-27
6.58073e-28
2.26277e-27
7.91423e-28
2.5341e-27
9.11655e-28
2.8401e-27
1.05949e-27
3.14563e-27
1.24754e-27
3.51748e-27
1.38984e-27
3.79335e-27
1.58996e-27
4.14555e-27
1.75456e-27
4.40328e-27
1.86156e-27
4.64935e-27
1.94732e-27
4.7935e-27
2.07072e-27
4.86651e-27
1.87859e-27
4.47253e-27
1.71526e-27
4.05248e-27
1.42632e-27
3.72148e-27
1.55986e-27
4.33252e-27
3.60867e-27
1.66429e-26
6.43894e-26
2.74073e-25
4.6788e-25
2.07143e-24
1.58165e-23
4.65385e-23
3.84254e-24
2.14648e-24
1.45574e-25
5.55057e-27
1.48756e-28
4.59818e-28
1.22792e-28
7.81268e-28
1.28563e-28
7.91333e-28
2.00599e-28
9.99744e-28
2.65741e-28
1.19271e-27
3.61353e-28
1.35062e-27
3.44383e-28
1.51557e-27
4.67664e-28
1.78926e-27
5.38013e-28
2.02252e-27
6.6104e-28
2.29695e-27
7.93553e-28
2.56718e-27
9.13355e-28
2.87387e-27
1.05934e-27
3.17897e-27
1.24561e-27
3.54799e-27
1.38365e-27
3.81908e-27
1.5799e-27
4.16499e-27
1.73908e-27
4.41243e-27
1.84109e-27
4.6498e-27
1.91987e-27
4.78756e-27
2.03746e-27
4.8501e-27
1.84071e-27
4.4575e-27
1.68576e-27
4.06052e-27
1.41974e-27
3.80742e-27
1.63284e-27
4.68951e-27
4.0716e-27
1.91285e-26
7.30406e-26
3.03462e-25
4.24914e-25
1.68701e-24
1.71293e-23
4.39594e-23
4.14402e-24
1.90813e-24
1.60512e-25
5.56651e-27
1.24299e-28
4.69177e-28
1.26055e-28
7.99619e-28
1.30527e-28
8.11723e-28
2.0326e-28
1.02199e-27
2.68113e-28
1.21702e-27
3.63555e-28
1.37381e-27
3.46765e-28
1.54311e-27
4.70929e-28
1.81849e-27
5.41113e-28
2.05391e-27
6.63752e-28
2.32945e-27
7.95506e-28
2.59865e-27
9.14722e-28
2.90479e-27
1.05862e-27
3.20928e-27
1.24275e-27
3.57437e-27
1.37654e-27
3.84002e-27
1.56812e-27
4.17859e-27
1.72212e-27
4.4151e-27
1.81916e-27
4.64197e-27
1.89068e-27
4.77311e-27
2.00225e-27
4.82498e-27
1.8021e-27
4.43448e-27
1.65549e-27
4.06192e-27
1.41391e-27
3.88965e-27
1.70784e-27
5.06419e-27
4.56773e-27
2.18256e-26
8.23975e-26
3.33512e-25
3.82034e-25
1.3618e-24
1.84862e-23
4.14636e-23
4.42299e-24
1.66394e-24
1.75676e-25
5.53917e-27
9.99009e-29
4.7871e-28
1.29704e-28
8.16813e-28
1.32891e-28
8.30582e-28
2.06208e-28
1.04252e-27
2.70673e-28
1.23897e-27
3.65879e-28
1.39612e-27
3.491e-28
1.56884e-27
4.74104e-28
1.84637e-27
5.43851e-28
2.08322e-27
6.66137e-28
2.35955e-27
7.96676e-28
2.62727e-27
9.15029e-28
2.93257e-27
1.0567e-27
3.2349e-27
1.23826e-27
3.5959e-27
1.36729e-27
3.85484e-27
1.5541e-27
4.18511e-27
1.70214e-27
4.41047e-27
1.79342e-27
4.62645e-27
1.85786e-27
4.7488e-27
1.96269e-27
4.79193e-27
1.75939e-27
4.40366e-27
1.62185e-27
4.05839e-27
1.40486e-27
3.96869e-27
1.78152e-27
5.45218e-27
5.08783e-27
2.47045e-26
9.2285e-26
3.64219e-25
3.39623e-25
1.09596e-24
1.98707e-23
3.9184e-23
4.71613e-24
1.42527e-24
1.91411e-25
5.45302e-27
7.70202e-29
4.88092e-28
1.33843e-28
8.3309e-28
1.35522e-28
8.49945e-28
2.09431e-28
1.06318e-27
2.73268e-28
1.26204e-27
3.68406e-28
1.41672e-27
3.51374e-28
1.5947e-27
4.77358e-28
1.87247e-27
5.46506e-28
2.11133e-27
6.68161e-28
2.38776e-27
7.97672e-28
2.65312e-27
9.14814e-28
2.95687e-27
1.05399e-27
3.25742e-27
1.23283e-27
3.61184e-27
1.35673e-27
3.86448e-27
1.53823e-27
4.18516e-27
1.68078e-27
4.39724e-27
1.76597e-27
4.60153e-27
1.82315e-27
4.71658e-27
1.92198e-27
4.74677e-27
1.71568e-27
4.3645e-27
1.58782e-27
4.04541e-27
1.39572e-27
4.0445e-27
1.85691e-27
5.84643e-27
5.63049e-27
2.7748e-26
1.02525e-25
3.94968e-25
2.97783e-25
8.95675e-25
2.1165e-23
3.71141e-23
4.98102e-24
1.19232e-24
2.07036e-25
5.31906e-27
5.63569e-29
4.97911e-28
1.38799e-28
8.47035e-28
1.38783e-28
8.67528e-28
2.13109e-28
1.08216e-27
2.76128e-28
1.28307e-27
3.71158e-28
1.43604e-27
3.53608e-28
1.61901e-27
4.80487e-28
1.89716e-27
5.48787e-28
2.13713e-27
6.69823e-28
2.41361e-27
7.97841e-28
2.67594e-27
9.13494e-28
2.97773e-27
1.05015e-27
3.27504e-27
1.22575e-27
3.62266e-27
1.34409e-27
3.86735e-27
1.52028e-27
4.17783e-27
1.65654e-27
4.3764e-27
1.73509e-27
4.56823e-27
1.78548e-27
4.67455e-27
1.87766e-27
4.69311e-27
1.66875e-27
4.31674e-27
1.55127e-27