/*--------------------------------*- C++ -*----------------------------------*\
| =========                 |                                                 |
| \\      /  F ield         | OpenFOAM: The Open Source CFD Toolbox           |
|  \\    /   O peration     | Version:  2312                                  |
|   \\  /    A nd           | Website:  www.openfoam.com                      |
|    \\/     M anipulation  |                                                 |
\*---------------------------------------------------------------------------*/
FoamFile
{
    version     2.0;
    format      ascii;
    arch        "LSB;label=32;scalar=64";
    class       volScalarField;
    location    "1000";
    object      p;
}
// * * * * * * * * * * * * * * * * * * * * * * * * * * * * * * * * * * * * * //

dimensions      [0 2 -2 0 0 0 0];

internalField   nonuniform List<scalar> 
330000
(
-1.30221e-09
-2.14575e-10
-8.57873e-10
-6.2419e-10
-5.02729e-10
-4.09978e-10
-2.57599e-10
-2.5373e-10
-1.11765e-10
-1.44667e-10
-4.79168e-11
-1.12693e-10
-1.42116e-11
-9.03568e-11
1.1389e-11
-6.88934e-11
4.93316e-11
-3.3648e-11
7.64261e-11
-1.94967e-11
9.80864e-11
-6.84348e-12
1.0762e-10
-7.58492e-12
1.17505e-10
1.04652e-12
1.35601e-10
1.13274e-11
1.45208e-10
1.00531e-11
1.53373e-10
1.67855e-11
1.719e-10
2.78521e-11
1.80048e-10
2.56545e-11
1.91474e-10
3.91796e-11
2.1457e-10
5.58724e-11
2.29498e-10
6.18303e-11
2.44046e-10
8.18009e-11
2.76673e-10
1.13408e-10
2.93426e-10
1.26495e-10
3.03945e-10
1.48937e-10
3.06126e-10
1.74166e-10
3.06822e-10
2.19961e-10
2.3762e-10
2.33583e-10
8.17547e-11
2.23066e-10
-2.92622e-10
9.62696e-10
-1.29261e-09
-2.15417e-10
-8.59823e-10
-6.25104e-10
-5.03229e-10
-4.09982e-10
-2.57809e-10
-2.53696e-10
-1.11924e-10
-1.44642e-10
-4.80575e-11
-1.12651e-10
-1.43577e-11
-9.03115e-11
1.12512e-11
-6.88358e-11
4.91957e-11
-3.35781e-11
7.62733e-11
-1.94194e-11
9.79323e-11
-6.75925e-12
1.07471e-10
-7.47459e-12
1.17349e-10
1.16144e-12
1.35432e-10
1.14461e-11
1.45042e-10
1.02028e-11
1.53194e-10
1.69379e-11
1.71706e-10
2.80079e-11
1.79856e-10
2.5842e-11
1.91272e-10
3.93723e-11
2.14345e-10
5.60668e-11
2.29274e-10
6.20656e-11
2.43803e-10
8.20329e-11
2.76407e-10
1.13645e-10
2.93156e-10
1.26774e-10
3.03662e-10
1.49238e-10
3.05852e-10
1.74483e-10
3.06611e-10
2.20343e-10
2.37541e-10
2.34143e-10
8.19259e-11
2.22452e-10
-2.955e-10
9.6032e-10
-1.28249e-09
-2.16413e-10
-8.62856e-10
-6.26356e-10
-5.03827e-10
-4.09963e-10
-2.57931e-10
-2.53725e-10
-1.12012e-10
-1.44696e-10
-4.81158e-11
-1.12687e-10
-1.44218e-11
-9.03595e-11
1.12103e-11
-6.88793e-11
4.91502e-11
-3.36154e-11
7.6214e-11
-1.94567e-11
9.78731e-11
-6.79947e-12
1.07438e-10
-7.47891e-12
1.17315e-10
1.14747e-12
1.3538e-10
1.14237e-11
1.45011e-10
1.02231e-11
1.53157e-10
1.69467e-11
1.71647e-10
2.80055e-11
1.79821e-10
2.58851e-11
1.91229e-10
3.94046e-11
2.1427e-10
5.60882e-11
2.2922e-10
6.21483e-11
2.43732e-10
8.20943e-11
2.76295e-10
1.13702e-10
2.93052e-10
1.26903e-10
3.03531e-10
1.49404e-10
3.05731e-10
1.74696e-10
3.06533e-10
2.20711e-10
2.376e-10
2.34899e-10
8.22105e-11
2.21899e-10
-3.01258e-10
9.61034e-10
-1.27177e-09
-2.18838e-10
-8.66435e-10
-6.282e-10
-5.04466e-10
-4.09853e-10
-2.57962e-10
-2.53674e-10
-1.1206e-10
-1.44743e-10
-4.81284e-11
-1.12719e-10
-1.44537e-11
-9.04184e-11
1.12086e-11
-6.8937e-11
4.91284e-11
-3.3675e-11
7.6179e-11
-1.95202e-11
9.7832e-11
-6.87397e-12
1.07439e-10
-7.50229e-12
1.17315e-10
1.10363e-12
1.35352e-10
1.13607e-11
1.4502e-10
1.02207e-11
1.53161e-10
1.69219e-11
1.71616e-10
2.79574e-11
1.79834e-10
2.59021e-11
1.91232e-10
3.93968e-11
2.14229e-10
5.60555e-11
2.29216e-10
6.22012e-11
2.43713e-10
8.21058e-11
2.76216e-10
1.13693e-10
2.93e-10
1.26987e-10
3.03452e-10
1.49522e-10
3.05688e-10
1.74863e-10
3.06562e-10
2.21052e-10
2.3789e-10
2.35717e-10
8.2979e-11
2.20813e-10
-3.08902e-10
9.64561e-10
-1.26059e-09
-2.22347e-10
-8.70336e-10
-6.30667e-10
-5.05148e-10
-4.09653e-10
-2.57927e-10
-2.53559e-10
-1.12094e-10
-1.44765e-10
-4.81233e-11
-1.12725e-10
-1.44803e-11
-9.04611e-11
1.12157e-11
-6.89804e-11
4.91003e-11
-3.37265e-11
7.61359e-11
-1.95778e-11
9.77754e-11
-6.94799e-12
1.07438e-10
-7.50913e-12
1.17313e-10
1.06863e-12
1.35308e-10
1.12973e-11
1.45025e-10
1.02377e-11
1.5316e-10
1.69078e-11
1.71568e-10
2.79112e-11
1.79845e-10
2.59411e-11
1.91232e-10
3.94002e-11
2.14168e-10
5.60212e-11
2.29208e-10
6.22771e-11
2.43691e-10
8.21215e-11
2.76114e-10
1.13673e-10
2.92942e-10
1.2708e-10
3.03371e-10
1.49642e-10
3.05673e-10
1.75021e-10
3.06664e-10
2.2138e-10
2.38406e-10
2.36558e-10
8.43011e-11
2.19048e-10
-3.17666e-10
9.699e-10
-1.24961e-09
-2.26292e-10
-8.74374e-10
-6.33727e-10
-5.05875e-10
-4.09377e-10
-2.57836e-10
-2.53391e-10
-1.12121e-10
-1.44768e-10
-4.81079e-11
-1.12711e-10
-1.45053e-11
-9.04898e-11
1.12273e-11
-6.90118e-11
4.90636e-11
-3.377e-11
7.60826e-11
-1.96302e-11
9.77017e-11
-7.02091e-12
1.07432e-10
-7.50005e-12
1.17305e-10
1.04301e-12
1.35246e-10
1.1235e-11
1.45022e-10
1.02742e-11
1.53153e-10
1.6905e-11
1.71503e-10
2.78695e-11
1.7985e-10
2.60027e-11
1.91224e-10
3.94166e-11
2.14086e-10
5.59884e-11
2.29191e-10
6.23774e-11
2.43662e-10
8.21441e-11
2.75987e-10
1.13648e-10
2.92873e-10
1.27183e-10
3.03285e-10
1.49769e-10
3.05678e-10
1.75175e-10
3.06826e-10
2.21701e-10
2.39135e-10
2.37408e-10
8.62098e-11
2.1658e-10
-3.27006e-10
9.7644e-10
-1.23973e-09
-2.30118e-10
-8.78293e-10
-6.37346e-10
-5.06629e-10
-4.09038e-10
-2.57692e-10
-2.53184e-10
-1.12143e-10
-1.44759e-10
-4.80851e-11
-1.12685e-10
-1.45282e-11
-9.05097e-11
1.12433e-11
-6.90368e-11
4.90203e-11
-3.38092e-11
7.60219e-11
-1.9682e-11
9.76144e-11
-7.09602e-12
1.07422e-10
-7.48005e-12
1.17295e-10
1.02242e-12
1.35172e-10
1.11704e-11
1.45015e-10
1.03249e-11
1.53143e-10
1.69086e-11
1.71424e-10
2.7829e-11
1.79853e-10
2.60812e-11
1.91215e-10
3.94412e-11
2.13988e-10
5.59536e-11
2.29169e-10
6.24962e-11
2.4363e-10
8.21687e-11
2.75841e-10
1.13617e-10
2.92794e-10
1.27294e-10
3.03195e-10
1.49901e-10
3.05702e-10
1.75326e-10
3.07043e-10
2.22011e-10
2.40067e-10
2.38239e-10
8.87481e-11
2.13362e-10
-3.36359e-10
9.83777e-10
-1.23187e-09
-2.33414e-10
-8.81801e-10
-6.41424e-10
-5.07385e-10
-4.08643e-10
-2.57496e-10
-2.52948e-10
-1.12165e-10
-1.44744e-10
-4.80588e-11
-1.1265e-10
-1.45508e-11
-9.05239e-11
1.12619e-11
-6.90582e-11
4.89697e-11
-3.38455e-11
7.59541e-11
-1.97349e-11
9.75143e-11
-7.17409e-12
1.07408e-10
-7.45131e-12
1.17283e-10
1.00546e-12
1.35085e-10
1.1103e-11
1.45004e-10
1.03877e-11
1.53131e-10
1.69171e-11
1.71333e-10
2.77895e-11
1.79852e-10
2.61745e-11
1.91203e-10
3.94731e-11
2.13876e-10
5.59172e-11
2.2914e-10
6.26316e-11
2.43594e-10
8.2195e-11
2.75676e-10
1.13581e-10
2.92705e-10
1.27413e-10
3.031e-10
1.50041e-10
3.05741e-10
1.75472e-10
3.07307e-10
2.2231e-10
2.41197e-10
2.39017e-10
9.19737e-11
2.09317e-10
-3.45146e-10
9.91604e-10
-1.22688e-09
-2.35882e-10
-8.84609e-10
-6.45907e-10
-5.08114e-10
-4.08191e-10
-2.57247e-10
-2.52689e-10
-1.1219e-10
-1.44727e-10
-4.80328e-11
-1.1261e-10
-1.45753e-11
-9.05344e-11
1.12802e-11
-6.9078e-11
4.89105e-11
-3.38792e-11
7.58787e-11
-1.97899e-11
9.74012e-11
-7.25484e-12
1.07389e-10
-7.41485e-12
1.17268e-10
9.91926e-13
1.34987e-10
1.10338e-11
1.44987e-10
1.04621e-11
1.53115e-10
1.69305e-11
1.71231e-10
2.77524e-11
1.79848e-10
2.62822e-11
1.91187e-10
3.95129e-11
2.1375e-10
5.58814e-11
2.29103e-10
6.27836e-11
2.43552e-10
8.22244e-11
2.75492e-10
1.13544e-10
2.92603e-10
1.2754e-10
3.02997e-10
1.50189e-10
3.0579e-10
1.75619e-10
3.07613e-10
2.22595e-10
2.42522e-10
2.39702e-10
9.59526e-11
2.04347e-10
-3.52839e-10
9.9971e-10
-1.22555e-09
-2.37322e-10
-8.86443e-10
-6.50715e-10
-5.08785e-10
-4.0768e-10
-2.56946e-10
-2.52415e-10
-1.1222e-10
-1.44711e-10
-4.80108e-11
-1.12569e-10
-1.46041e-11
-9.05432e-11
1.12957e-11
-6.90975e-11
4.88408e-11
-3.39111e-11
7.5795e-11
-1.98475e-11
9.72745e-11
-7.33792e-12
1.07364e-10
-7.37144e-12
1.17248e-10
9.81829e-13
1.34877e-10
1.09639e-11
1.44963e-10
1.05474e-11
1.53094e-10
1.69492e-11
1.71117e-10
2.77194e-11
1.79838e-10
2.64042e-11
1.91165e-10
3.95616e-11
2.13607e-10
5.58487e-11
2.29056e-10
6.29528e-11
2.43502e-10
8.2259e-11
2.75285e-10
1.13511e-10
2.92482e-10
1.27679e-10
3.02882e-10
1.5035e-10
3.05842e-10
1.75767e-10
3.07952e-10
2.22859e-10
2.44043e-10
2.40245e-10
1.00756e-10
1.9835e-10
-3.58977e-10
1.00797e-09
-1.22856e-09
-2.37626e-10
-8.87034e-10
-6.55764e-10
-5.09365e-10
-4.07105e-10
-2.56587e-10
-2.52127e-10
-1.12258e-10
-1.44698e-10
-4.79955e-11
-1.12529e-10
-1.46389e-11
-9.05517e-11
1.1306e-11
-6.91181e-11
4.8759e-11
-3.39418e-11
7.57021e-11
-1.99083e-11
9.71338e-11
-7.42306e-12
1.07331e-10
-7.3219e-12
1.17223e-10
9.75099e-13
1.34753e-10
1.08941e-11
1.44931e-10
1.06433e-11
1.53067e-10
1.69734e-11
1.7099e-10
2.76917e-11
1.79819e-10
2.65404e-11
1.91137e-10
3.96201e-11
2.13448e-10
5.58213e-11
2.28995e-10
6.31395e-11
2.43442e-10
8.23008e-11
2.75054e-10
1.13484e-10
2.9234e-10
1.27833e-10
3.02751e-10
1.50526e-10
3.05891e-10
1.75917e-10
3.08321e-10
2.23095e-10
2.45766e-10
2.40598e-10
1.06455e-10
1.91221e-10
-3.63187e-10
1.01636e-09
-1.23649e-09
-2.36759e-10
-8.8616e-10
-6.6097e-10
-5.09826e-10
-4.06456e-10
-2.56169e-10
-2.51829e-10
-1.12304e-10
-1.44692e-10
-4.79891e-11
-1.12493e-10
-1.46814e-11
-9.05611e-11
1.1309e-11
-6.91407e-11
4.86638e-11
-3.3972e-11
7.5599e-11
-1.99728e-11
9.69786e-11
-7.50998e-12
1.07288e-10
-7.26687e-12
1.17192e-10
9.71856e-13
1.34617e-10
1.08256e-11
1.44888e-10
1.07495e-11
1.53034e-10
1.70036e-11
1.7085e-10
2.76709e-11
1.7979e-10
2.66912e-11
1.91099e-10
3.96896e-11
2.13271e-10
5.58018e-11
2.28918e-10
6.33444e-11
2.43367e-10
8.23523e-11
2.74796e-10
1.13468e-10
2.92172e-10
1.28002e-10
3.02598e-10
1.5072e-10
3.05933e-10
1.76071e-10
3.08716e-10
2.23294e-10
2.47699e-10
2.40708e-10
1.13121e-10
1.82869e-10
-3.65171e-10
1.02491e-09
-1.24982e-09
-2.34751e-10
-8.83618e-10
-6.66252e-10
-5.10142e-10
-4.05723e-10
-2.55686e-10
-2.51521e-10
-1.12359e-10
-1.44692e-10
-4.79933e-11
-1.12461e-10
-1.47328e-11
-9.05722e-11
1.13031e-11
-6.91659e-11
4.85536e-11
-3.40022e-11
7.5485e-11
-2.0041e-11
9.68082e-11
-7.59832e-12
1.07234e-10
-7.2068e-12
1.17152e-10
9.72315e-13
1.34467e-10
1.07593e-11
1.44834e-10
1.08657e-11
1.52991e-10
1.70406e-11
1.70695e-10
2.76585e-11
1.79749e-10
2.68568e-11
1.91049e-10
3.97713e-11
2.13075e-10
5.57923e-11
2.28822e-10
6.35686e-11
2.43275e-10
8.24157e-11
2.74508e-10
1.13466e-10
2.91975e-10
1.2819e-10
3.02421e-10
1.50933e-10
3.05962e-10
1.76227e-10
3.09136e-10
2.23442e-10
2.49854e-10
2.4052e-10
1.20818e-10
1.73213e-10
-3.64716e-10
1.0337e-09
-1.26892e-09
-2.3168e-10
-8.79228e-10
-6.71536e-10
-5.10291e-10
-4.04896e-10
-2.55136e-10
-2.51201e-10
-1.12422e-10
-1.44698e-10
-4.8009e-11
-1.12434e-10
-1.47942e-11
-9.05853e-11
1.12864e-11
-6.91939e-11
4.84274e-11
-3.40328e-11
7.53591e-11
-2.01132e-11
9.6622e-11
-7.68765e-12
1.07169e-10
-7.14199e-12
1.17102e-10
9.76869e-13
1.34303e-10
1.06961e-11
1.44766e-10
1.0992e-11
1.52939e-10
1.70851e-11
1.70525e-10
2.76559e-11
1.79694e-10
2.70379e-11
1.90986e-10
3.98668e-11
2.12859e-10
5.57954e-11
2.28704e-10
6.38129e-11
2.43163e-10
8.24935e-11
2.74187e-10
1.13481e-10
2.91743e-10
1.28398e-10
3.02215e-10
1.51166e-10
3.05976e-10
1.76384e-10
3.09581e-10
2.23527e-10
2.52242e-10
2.39985e-10
1.296e-10
1.62197e-10
-3.61675e-10
1.04283e-09
-1.29404e-09
-2.27667e-10
-8.72841e-10
-6.7675e-10
-5.10258e-10
-4.03966e-10
-2.54514e-10
-2.50868e-10
-1.12492e-10
-1.44711e-10
-4.8037e-11
-1.12414e-10
-1.48663e-11
-9.06003e-11
1.12579e-11
-6.92248e-11
4.82841e-11
-3.4064e-11
7.52203e-11
-2.01891e-11
9.64195e-11
-7.77741e-12
1.0709e-10
-7.07262e-12
1.17041e-10
9.85981e-13
1.34124e-10
1.06373e-11
1.44684e-10
1.11286e-11
1.52874e-10
1.7138e-11
1.70338e-10
2.76647e-11
1.79623e-10
2.72352e-11
1.90906e-10
3.99775e-11
2.12619e-10
5.58134e-11
2.28562e-10
6.40785e-11
2.43027e-10
8.25882e-11
2.73831e-10
1.13516e-10
2.91475e-10
1.28627e-10
3.01978e-10
1.5142e-10
3.05971e-10
1.76538e-10
3.10053e-10
2.23533e-10
2.54877e-10
2.39054e-10
1.39513e-10
1.49778e-10
-3.55982e-10
1.05243e-09
-1.32535e-09
-2.22866e-10
-8.64326e-10
-6.81822e-10
-5.10032e-10
-4.02923e-10
-2.53818e-10
-2.5052e-10
-1.12569e-10
-1.44731e-10
-4.80779e-11
-1.12399e-10
-1.49497e-11
-9.06171e-11
1.12163e-11
-6.92582e-11
4.81228e-11
-3.40959e-11
7.50677e-11
-2.02684e-11
9.61997e-11
-7.86704e-12
1.06996e-10
-6.99867e-12
1.16968e-10
1.00025e-12
1.33928e-10
1.05839e-11
1.44585e-10
1.12756e-11
1.52796e-10
1.72005e-11
1.70133e-10
2.76865e-11
1.79533e-10
2.74495e-11
1.90809e-10
4.01051e-11
2.12356e-10
5.58487e-11
2.28391e-10
6.43666e-11
2.42864e-10
8.27022e-11
2.73436e-10
1.13575e-10
2.91165e-10
1.28878e-10
3.01706e-10
1.51695e-10
3.05946e-10
1.76685e-10
3.10555e-10
2.23445e-10
2.5777e-10
2.37686e-10
1.50589e-10
1.35941e-10
-3.47616e-10
1.06266e-09
-1.36292e-09
-2.17463e-10
-8.5358e-10
-6.86688e-10
-5.09602e-10
-4.01761e-10
-2.53047e-10
-2.50155e-10
-1.12652e-10
-1.44756e-10
-4.81318e-11
-1.1239e-10
-1.50449e-11
-9.06351e-11
1.11607e-11
-6.92938e-11
4.79426e-11
-3.41284e-11
7.49005e-11
-2.03508e-11
9.59623e-11
-7.95585e-12
1.06886e-10
-6.92004e-12
1.16882e-10
1.02035e-12
1.33716e-10
1.05371e-11
1.44469e-10
1.14334e-11
1.52702e-10
1.72736e-11
1.69908e-10
2.77227e-11
1.79422e-10
2.76817e-11
1.9069e-10
4.0251e-11
2.12066e-10
5.59034e-11
2.2819e-10
6.46782e-11
2.42671e-10
8.28375e-11
2.73e-10
1.13658e-10
2.90813e-10
1.29153e-10
3.01398e-10
1.5199e-10
3.059e-10
1.76821e-10
3.11089e-10
2.2325e-10
2.60932e-10
2.35843e-10
1.62844e-10
1.20688e-10
-3.36614e-10
1.07365e-09
-1.40675e-09
-2.11658e-10
-8.40517e-10
-6.91281e-10
-5.08967e-10
-4.00474e-10
-2.52201e-10
-2.49772e-10
-1.1274e-10
-1.44785e-10
-4.8199e-11
-1.12386e-10
-1.51523e-11
-9.06536e-11
1.10902e-11
-6.93308e-11
4.77428e-11
-3.41614e-11
7.4718e-11
-2.04356e-11
9.57064e-11
-8.04315e-12
1.06759e-10
-6.83646e-12
1.1678e-10
1.04705e-12
1.33486e-10
1.04981e-11
1.44332e-10
1.16026e-11
1.52592e-10
1.73585e-11
1.69662e-10
2.77749e-11
1.79289e-10
2.79328e-11
1.90549e-10
4.04169e-11
2.11748e-10
5.59798e-11
2.27956e-10
6.50145e-11
2.42446e-10
8.29964e-11
2.72521e-10
1.13767e-10
2.90414e-10
1.29452e-10
3.01051e-10
1.52304e-10
3.05832e-10
1.76942e-10
3.11659e-10
2.22935e-10
2.6437e-10
2.33497e-10
1.76284e-10
1.04046e-10
-3.2305e-10
1.08554e-09
-1.45672e-09
-2.05674e-10
-8.25083e-10
-6.9554e-10
-5.08126e-10
-3.99057e-10
-2.51279e-10
-2.49369e-10
-1.12834e-10
-1.44819e-10
-4.82796e-11
-1.12386e-10
-1.52721e-11
-9.0672e-11
1.10042e-11
-6.93685e-11
4.7523e-11
-3.41945e-11
7.45192e-11
-2.05222e-11
9.54314e-11
-8.12814e-12
1.06613e-10
-6.74763e-12
1.16661e-10
1.08114e-12
1.33237e-10
1.04679e-11
1.44175e-10
1.17835e-11
1.52463e-10
1.74563e-11
1.69393e-10
2.78446e-11
1.7913e-10
2.82037e-11
1.90383e-10
4.06043e-11
2.114e-10
5.60798e-11
2.27687e-10
6.53764e-11
2.42185e-10
8.31807e-11
2.71996e-10
1.13906e-10
2.89967e-10
1.29774e-10
3.00664e-10
1.52636e-10
3.05741e-10
1.77044e-10
3.12267e-10
2.22489e-10
2.68089e-10
2.30625e-10
1.90899e-10
8.60604e-11
-3.07054e-10
1.09847e-09
-1.51267e-09
-1.99742e-10
-8.07242e-10
-6.99401e-10
-5.07079e-10
-3.97507e-10
-2.50283e-10
-2.48944e-10
-1.12933e-10
-1.44856e-10
-4.83741e-11
-1.1239e-10
-1.5405e-11
-9.06894e-11
1.09022e-11
-6.94063e-11
4.72824e-11
-3.42274e-11
7.43037e-11
-2.06099e-11
9.51369e-11
-8.21004e-12
1.06448e-10
-6.65317e-12
1.16525e-10
1.12345e-12
1.32968e-10
1.04479e-11
1.43995e-10
1.19766e-11
1.52313e-10
1.75683e-11
1.69101e-10
2.79331e-11
1.78946e-10
2.84953e-11
1.90189e-10
4.08147e-11
2.1102e-10
5.62052e-11
2.27379e-10
6.57648e-11
2.41885e-10
8.33919e-11
2.71424e-10
1.14074e-10
2.89471e-10
1.3012e-10
3.00235e-10
1.52985e-10
3.05628e-10
1.77122e-10
3.12915e-10
2.219e-10
2.72092e-10
2.27213e-10
2.06666e-10
6.68011e-11
-2.88778e-10
1.11254e-09
-1.57436e-09
-1.94109e-10
-7.86982e-10
-7.02805e-10
-5.0583e-10
-3.95824e-10
-2.49214e-10
-2.48496e-10
-1.13037e-10
-1.44896e-10
-4.84825e-11
-1.12397e-10
-1.5551e-11
-9.07049e-11
1.07834e-11
-6.94432e-11
4.70207e-11
-3.42597e-11
7.40706e-11
-2.06978e-11
9.48222e-11
-8.28805e-12
1.06263e-10
-6.55262e-12
1.1637e-10
1.17483e-12
1.32679e-10
1.0439e-11
1.43791e-10
1.21827e-11
1.52142e-10
1.76955e-11
1.68783e-10
2.80417e-11
1.78733e-10
2.88086e-11
1.89966e-10
4.10495e-11
2.10608e-10
5.63578e-11
2.27032e-10
6.61807e-11
2.41546e-10
8.36318e-11
2.70802e-10
1.14272e-10
2.88923e-10
1.3049e-10
2.99763e-10
1.53348e-10
3.05491e-10
1.77172e-10
3.13604e-10
2.21162e-10
2.76376e-10
2.23252e-10
2.23545e-10
4.6352e-11
-2.68405e-10
1.12786e-09
-1.64147e-09
-1.8902e-10
-7.64316e-10
-7.05691e-10
-5.04384e-10
-3.94005e-10
-2.48075e-10
-2.48025e-10
-1.13147e-10
-1.44938e-10
-4.86052e-11
-1.12406e-10
-1.57106e-11
-9.07178e-11
1.06475e-11
-6.94784e-11
4.67374e-11
-3.42911e-11
7.38194e-11
-2.07852e-11
9.44868e-11
-8.36139e-12
1.06057e-10
-6.44546e-12
1.16195e-10
1.23612e-12
1.32369e-10
1.04423e-11
1.43563e-10
1.24022e-11
1.51947e-10
1.78392e-11
1.68439e-10
2.81717e-11
1.78491e-10
2.91446e-11
1.89713e-10
4.131e-11
2.1016e-10
5.65391e-11
2.26644e-10
6.66247e-11
2.41163e-10
8.39015e-11
2.7013e-10
1.14502e-10
2.88323e-10
1.30883e-10
2.99249e-10
1.53725e-10
3.05331e-10
1.77192e-10
3.14336e-10
2.20269e-10
2.80937e-10
2.18745e-10
2.41485e-10
2.48206e-11
-2.46136e-10
1.1445e-09
-1.71363e-09
-1.84723e-10
-7.39286e-10
-7.08005e-10
-5.02747e-10
-3.92053e-10
-2.46867e-10
-2.47528e-10
-1.13262e-10
-1.44982e-10
-4.87425e-11
-1.12417e-10
-1.58842e-11
-9.07272e-11
1.0494e-11
-6.95111e-11
4.64323e-11
-3.43211e-11
7.35496e-11
-2.08713e-11
9.41302e-11
-8.42923e-12
1.05828e-10
-6.33121e-12
1.15999e-10
1.30816e-12
1.32036e-10
1.0459e-11
1.43308e-10
1.26357e-11
1.51727e-10
1.80005e-11
1.68067e-10
2.83242e-11
1.78218e-10
2.95041e-11
1.89427e-10
4.15974e-11
2.09677e-10
5.67505e-11
2.26212e-10
6.70975e-11
2.40736e-10
8.42023e-11
2.69405e-10
1.14764e-10
2.87669e-10
1.31299e-10
2.9869e-10
1.54114e-10
3.05147e-10
1.77179e-10
3.15109e-10
2.19217e-10
2.85764e-10
2.13698e-10
2.60419e-10
2.33104e-12
-2.22211e-10
1.16253e-09
-1.79039e-09
-1.81459e-10
-7.11951e-10
-7.09689e-10
-5.00927e-10
-3.89969e-10
-2.45594e-10
-2.47005e-10
-1.13382e-10
-1.45028e-10
-4.88946e-11
-1.12429e-10
-1.60722e-11
-9.07323e-11
1.03226e-11
-6.95404e-11
4.61048e-11
-3.43494e-11
7.32605e-11
-2.09552e-11
9.37519e-11
-8.49082e-12
1.05577e-10
-6.20936e-12
1.15781e-10
1.39173e-12
1.3168e-10
1.04901e-11
1.43026e-10
1.28839e-11
1.51482e-10
1.81803e-11
1.67666e-10
2.85003e-11
1.77912e-10
2.98878e-11
1.89106e-10
4.19127e-11
2.09157e-10
5.69934e-11
2.25736e-10
6.75998e-11
2.40263e-10
8.45352e-11
2.68627e-10
1.15058e-10
2.8696e-10
1.31737e-10
2.98085e-10
1.54513e-10
3.04939e-10
1.7713e-10
3.15922e-10
2.18004e-10
2.90846e-10
2.0813e-10
2.80269e-10
-2.09719e-11
-1.96874e-10
1.18194e-09
-1.87128e-09
-1.79473e-10
-6.82401e-10
-7.10689e-10
-4.98931e-10
-3.87758e-10
-2.44259e-10
-2.46455e-10
-1.13508e-10
-1.45074e-10
-4.90617e-11
-1.12442e-10
-1.62747e-11
-9.07323e-11
1.01328e-11
-6.95658e-11
4.57548e-11
-3.43754e-11
7.29518e-11
-2.10361e-11
9.33515e-11
-8.54544e-12
1.05302e-10
-6.07938e-12
1.15539e-10
1.48757e-12
1.31301e-10
1.05364e-11
1.42717e-10
1.31473e-11
1.51209e-10
1.83796e-11
1.67236e-10
2.8701e-11
1.77572e-10
3.02966e-11
1.8875e-10
4.22571e-11
2.08598e-10
5.72689e-11
2.25214e-10
6.81319e-11
2.39742e-10
8.49011e-11
2.67795e-10
1.15386e-10
2.86196e-10
1.32197e-10
2.97435e-10
1.54922e-10
3.04706e-10
1.77045e-10
3.16771e-10
2.16633e-10
2.96166e-10
2.02063e-10
3.00942e-10
-4.49337e-11
-1.70382e-10
1.20276e-09
-1.95577e-09
-1.78999e-10
-6.50741e-10
-7.10951e-10
-4.96767e-10
-3.85424e-10
-2.42863e-10
-2.45876e-10
-1.1364e-10
-1.45121e-10
-4.92437e-11
-1.12454e-10
-1.64921e-11
-9.07264e-11
9.92453e-12
-6.95862e-11
4.53821e-11
-3.4399e-11
7.26229e-11
-2.11134e-11
9.29287e-11
-8.59241e-12
1.05004e-10
-5.94075e-12
1.15274e-10
1.59641e-12
1.30897e-10
1.05989e-11
1.42379e-10
1.34264e-11
1.50907e-10
1.85994e-11
1.66774e-10
2.89271e-11
1.77198e-10
3.07312e-11
1.88357e-10
4.26312e-11
2.08e-10
5.75781e-11
2.24645e-10
6.86945e-11
2.39171e-10
8.53007e-11
2.66908e-10
1.15746e-10
2.85377e-10
1.32678e-10
2.96738e-10
1.55339e-10
3.04446e-10
1.76922e-10
3.17654e-10
2.15105e-10
3.01702e-10
1.95528e-10
3.22332e-10
-6.93815e-11
-1.42997e-10
1.22494e-09
-2.04326e-09
-1.80257e-10
-6.17112e-10
-7.10427e-10
-4.94443e-10
-3.82972e-10
-2.4141e-10
-2.45266e-10
-1.13777e-10
-1.45166e-10
-4.94409e-11
-1.12464e-10
-1.67245e-11
-9.0714e-11
9.69743e-12
-6.96012e-11
4.49864e-11
-3.44198e-11
7.22733e-11
-2.11862e-11
9.24829e-11
-8.63103e-12
1.0468e-10
-5.79297e-12
1.14984e-10
1.71891e-12
1.30468e-10
1.06784e-11
1.42011e-10
1.37218e-11
1.50576e-10
1.88404e-11
1.66281e-10
2.91796e-11
1.76788e-10
3.11922e-11
1.87926e-10
4.30361e-11
2.07361e-10
5.79218e-11
2.24028e-10
6.9288e-11
2.3855e-10
8.57348e-11
2.65965e-10
1.16139e-10
2.84501e-10
1.3318e-10
2.95994e-10
1.55764e-10
3.04159e-10
1.76762e-10
3.18565e-10
2.13426e-10
3.07431e-10
1.88566e-10
3.44324e-10
-9.41286e-11
-1.15e-10
1.24842e-09
-2.13312e-09
-1.83447e-10
-5.8167e-10
-7.09068e-10
-4.91966e-10
-3.80411e-10
-2.39903e-10
-2.44626e-10
-1.13918e-10
-1.45211e-10
-4.9653e-11
-1.12473e-10
-1.69721e-11
-9.06941e-11
9.45158e-12
-6.961e-11
4.45675e-11
-3.44373e-11
7.19028e-11
-2.12539e-11
9.2014e-11
-8.66071e-12
1.04332e-10
-5.63561e-12
1.14668e-10
1.85563e-12
1.30014e-10
1.07757e-11
1.41614e-10
1.4034e-11
1.50215e-10
1.91035e-11
1.65755e-10
2.94591e-11
1.76341e-10
3.16802e-11
1.87456e-10
4.34722e-11
2.06681e-10
5.8301e-11
2.23363e-10
6.99126e-11
2.37878e-10
8.62037e-11
2.64965e-10
1.16565e-10
2.83567e-10
1.33704e-10
2.95201e-10
1.56195e-10
3.03842e-10
1.76564e-10
3.19497e-10
2.11604e-10
3.13323e-10
1.81221e-10
3.6679e-10
-1.18974e-10
-8.66727e-11
1.27309e-09
-2.22471e-09
-1.88774e-10
-5.44594e-10
-7.06828e-10
-4.89344e-10
-3.77747e-10
-2.38345e-10
-2.43952e-10
-1.14063e-10
-1.45253e-10
-4.98798e-11
-1.12479e-10
-1.72347e-11
-9.0666e-11
9.18689e-12
-6.96121e-11
4.41254e-11
-3.44514e-11
7.15111e-11
-2.13158e-11
9.15215e-11
-8.68087e-12
1.03958e-10
-5.46819e-12
1.14326e-10
2.00714e-12
1.29534e-10
1.08915e-11
1.41185e-10
1.43634e-11
1.49822e-10
1.93894e-11
1.65196e-10
2.97663e-11
1.75857e-10
3.21959e-11
1.86946e-10
4.39402e-11
2.0596e-10
5.87163e-11
2.22648e-10
7.05686e-11
2.37152e-10
8.6708e-11
2.63909e-10
1.17024e-10
2.82577e-10
1.34247e-10
2.94359e-10
1.56633e-10
3.03494e-10
1.76331e-10
3.20444e-10
2.09649e-10
3.19348e-10
1.73546e-10
3.89594e-10
-1.43712e-10
-5.82916e-11
1.29885e-09
-2.31735e-09
-1.96422e-10
-5.0608e-10
-7.03659e-10
-4.86579e-10
-3.74989e-10
-2.36738e-10
-2.43242e-10
-1.14212e-10
-1.45292e-10
-5.01205e-11
-1.1248e-10
-1.75122e-11
-9.06289e-11
8.90349e-12
-6.96068e-11
4.36602e-11
-3.44619e-11
7.10977e-11
-2.13712e-11
9.10053e-11
-8.69099e-12
1.03558e-10
-5.29026e-12
1.13958e-10
2.17389e-12
1.29027e-10
1.10264e-11
1.40725e-10
1.47106e-11
1.49398e-10
1.96987e-11
1.64603e-10
3.01017e-11
1.75335e-10
3.27397e-11
1.86394e-10
4.44406e-11
2.05195e-10
5.91684e-11
2.21883e-10
7.12564e-11
2.36373e-10
8.7248e-11
2.62794e-10
1.17515e-10
2.81529e-10
1.3481e-10
2.93466e-10
1.57076e-10
3.03113e-10
1.76063e-10
3.21396e-10
2.07572e-10
3.2547e-10
1.65599e-10
4.12585e-10
-1.68128e-10
-3.01244e-11
1.32554e-09
-2.41031e-09
-2.06554e-10
-4.66354e-10
-6.99521e-10
-4.83679e-10
-3.72148e-10
-2.35084e-10
-2.42496e-10
-1.14361e-10
-1.45326e-10
-5.0375e-11
-1.12477e-10
-1.78045e-11
-9.0582e-11
8.60153e-12
-6.95935e-11
4.31719e-11
-3.44683e-11
7.06625e-11
-2.14195e-11
9.04651e-11
-8.69052e-12
1.03132e-10
-5.10141e-12
1.13562e-10
2.35635e-12
1.28493e-10
1.11811e-11
1.40234e-10
1.5076e-11
1.4894e-10
2.0032e-11
1.63975e-10
3.0466e-11
1.74775e-10
3.33121e-11
1.85801e-10
4.49738e-11
2.04388e-10
5.96579e-11
2.21067e-10
7.19762e-11
2.3554e-10
8.78239e-11
2.61622e-10
1.1804e-10
2.80423e-10
1.35393e-10
2.92523e-10
1.57525e-10
3.02695e-10
1.75763e-10
3.22345e-10
2.05388e-10
3.3165e-10
1.57445e-10
4.3561e-10
-1.91996e-10
-2.45311e-12
1.35297e-09
-2.50286e-09
-2.19303e-10
-4.25653e-10
-6.94376e-10
-4.80646e-10
-3.69234e-10
-2.33387e-10
-2.41711e-10
-1.14512e-10
-1.45354e-10
-5.06422e-11
-1.12468e-10
-1.81112e-11
-9.05244e-11
8.28145e-12
-6.95717e-11
4.26604e-11
-3.44705e-11
7.02054e-11
-2.14602e-11
8.99006e-11
-8.67903e-12
1.0268e-10
-4.90126e-12
1.13138e-10
2.55487e-12
1.27933e-10
1.1356e-11
1.39711e-10
1.54599e-11
1.48449e-10
2.03897e-11
1.63313e-10
3.08594e-11
1.74175e-10
3.39135e-11
1.85166e-10
4.55401e-11
2.03537e-10
6.01851e-11
2.20201e-10
7.27282e-11
2.34652e-10
8.84358e-11
2.60392e-10
1.18597e-10
2.79258e-10
1.35995e-10
2.91528e-10
1.57979e-10
3.02239e-10
1.75434e-10
3.23279e-10
2.03113e-10
3.37846e-10
1.49153e-10
4.58509e-10
-2.15082e-10
2.44484e-11
1.38091e-09
-2.59424e-09
-2.34813e-10
-3.84233e-10
-6.88185e-10
-4.7748e-10
-3.66257e-10
-2.31648e-10
-2.40885e-10
-1.14661e-10
-1.45375e-10
-5.09214e-11
-1.12452e-10
-1.84318e-11
-9.04555e-11
7.94359e-12
-6.95409e-11
4.21259e-11
-3.44684e-11
6.97261e-11
-2.14926e-11
8.93118e-11
-8.65609e-12
1.022e-10
-4.68943e-12
1.12686e-10
2.7698e-12
1.27344e-10
1.15518e-11
1.39155e-10
1.58627e-11
1.47925e-10
2.07724e-11
1.62615e-10
3.12826e-11
1.73536e-10
3.45443e-11
1.84487e-10
4.61398e-11
2.02642e-10
6.07505e-11
2.19283e-10
7.35123e-11
2.33708e-10
8.90837e-11
2.59103e-10
1.19185e-10
2.78036e-10
1.36616e-10
2.9048e-10
1.58438e-10
3.0174e-10
1.75079e-10
3.24185e-10
2.00763e-10
3.44014e-10
1.40796e-10
4.81113e-10
-2.37158e-10
5.03227e-11
1.40916e-09
-2.68371e-09
-2.53206e-10
-3.4236e-10
-6.8091e-10
-4.74178e-10
-3.63227e-10
-2.29869e-10
-2.40014e-10
-1.14807e-10
-1.45387e-10
-5.12113e-11
-1.12428e-10
-1.87656e-11
-9.03742e-11
7.58851e-12
-6.95004e-11
4.15689e-11
-3.44617e-11
6.92246e-11
-2.15163e-11
8.86985e-11
-8.6213e-12
1.01694e-10
-4.46554e-12
1.12206e-10
3.00143e-12
1.26728e-10
1.17688e-11
1.38567e-10
1.62848e-11
1.47365e-10
2.11805e-11
1.61881e-10
3.17356e-11
1.72857e-10
3.52048e-11
1.83766e-10
4.67729e-11
2.01703e-10
6.13543e-11
2.18314e-10
7.43287e-11
2.32709e-10
8.97676e-11
2.57756e-10
1.19805e-10
2.76754e-10
1.37255e-10
2.89377e-10
1.58904e-10
3.01196e-10
1.74704e-10
3.25052e-10
1.98358e-10
3.50108e-10
1.3245e-10
5.03247e-10
-2.5799e-10
7.49279e-11
1.43746e-09
-2.7705e-09
-2.74573e-10
-3.0032e-10
-6.72517e-10
-4.70739e-10
-3.60156e-10
-2.28052e-10
-2.39097e-10
-1.14947e-10
-1.45388e-10
-5.15108e-11
-1.12394e-10
-1.91121e-11
-9.02798e-11
7.21675e-12
-6.94496e-11
4.09893e-11
-3.44502e-11
6.87008e-11
-2.15305e-11
8.80606e-11
-8.57425e-12
1.01161e-10
-4.22923e-12
1.11697e-10
3.25004e-12
1.26084e-10
1.20075e-11
1.37945e-10
1.67265e-11
1.46771e-10
2.16144e-11
1.6111e-10
3.22188e-11
1.72138e-10
3.58954e-11
1.83001e-10
4.74396e-11
2.0072e-10
6.19967e-11
2.17293e-10
7.51774e-11
2.31655e-10
9.04875e-11
2.5635e-10
1.20456e-10
2.75414e-10
1.37914e-10
2.8822e-10
1.59375e-10
3.00603e-10
1.74311e-10
3.25866e-10
1.95919e-10
3.56078e-10
1.24196e-10
5.24737e-10
-2.77341e-10
9.80124e-11
1.46552e-09
-2.85385e-09
-2.98983e-10
-2.58411e-10
-6.62979e-10
-4.67157e-10
-3.57056e-10
-2.26197e-10
-2.38131e-10
-1.15079e-10
-1.45377e-10
-5.18184e-11
-1.12351e-10
-1.94704e-11
-9.01715e-11
6.82921e-12
-6.93882e-11
4.03873e-11
-3.44339e-11
6.81548e-11
-2.1535e-11
8.7398e-11
-8.51466e-12
1.006e-10
-3.98018e-12
1.1116e-10
3.51581e-12
1.25412e-10
1.22682e-11
1.37291e-10
1.71882e-11
1.46142e-10
2.20743e-11
1.60303e-10
3.27323e-11
1.71378e-10
3.66162e-11
1.82191e-10
4.81398e-11
1.99691e-10
6.26779e-11
2.16221e-10
7.60583e-11
2.30544e-10
9.1243e-11
2.54885e-10
1.21138e-10
2.74015e-10
1.3859e-10
2.87005e-10
1.59853e-10
2.99957e-10
1.73908e-10
3.26611e-10
1.93466e-10
3.61875e-10
1.16115e-10
5.45405e-10
-2.9497e-10
1.19335e-10
1.49305e-09
-2.93295e-09
-3.2652e-10
-2.16937e-10
-6.52264e-10
-4.63424e-10
-3.53937e-10
-2.24306e-10
-2.37112e-10
-1.15201e-10
-1.45352e-10
-5.21325e-11
-1.12296e-10
-1.98397e-11
-9.00484e-11
6.42663e-12
-6.93153e-11
3.97634e-11
-3.44127e-11
6.75866e-11
-2.1529e-11
8.67107e-11
-8.44222e-12
1.00013e-10
-3.71806e-12
1.10593e-10
3.79897e-12
1.24711e-10
1.25513e-11
1.36603e-10
1.76701e-11
1.45478e-10
2.25606e-11
1.59459e-10
3.32764e-11
1.70577e-10
3.73675e-11
1.81338e-10
4.88736e-11
1.98618e-10
6.33978e-11
2.15097e-10
7.69713e-11
2.29378e-10
9.2034e-11
2.53362e-10
1.21849e-10
2.72557e-10
1.39285e-10
2.85733e-10
1.60338e-10
2.99253e-10
1.73498e-10
3.27273e-10
1.91021e-10
3.67447e-10
1.08291e-10
5.65073e-10
-3.10651e-10
1.38678e-10
1.51975e-09
-3.00709e-09
-3.57253e-10
-1.76205e-10
-6.40342e-10
-4.59526e-10
-3.50808e-10
-2.22379e-10
-2.36037e-10
-1.15309e-10
-1.4531e-10
-5.24512e-11
-1.12228e-10
-2.02186e-11
-8.99096e-11
6.01e-12
-6.92302e-11
3.9118e-11
-3.43865e-11
6.69962e-11
-2.1512e-11
8.59988e-11
-8.35669e-12
9.93976e-11
-3.44255e-12
1.09997e-10
4.09971e-12
1.23982e-10
1.2857e-11
1.35882e-10
1.81723e-11
1.44779e-10
2.30735e-11
1.58579e-10
3.38509e-11
1.69736e-10
3.81494e-11
1.80441e-10
4.96408e-11
1.975e-10
6.41564e-11
2.13921e-10
7.79161e-11
2.28156e-10
9.28602e-11
2.51781e-10
1.2259e-10
2.7104e-10
1.39998e-10
2.84402e-10
1.60832e-10
2.98488e-10
1.73088e-10
3.27835e-10
1.88608e-10
3.72743e-10
1.00805e-10
5.83558e-10
-3.24157e-10
1.5584e-10
1.54533e-09
-3.0755e-09
-3.91215e-10
-1.36533e-10
-6.27189e-10
-4.55451e-10
-3.4768e-10
-2.20415e-10
-2.34902e-10
-1.15399e-10
-1.4525e-10
-5.27725e-11
-1.12145e-10
-2.06062e-11
-8.97543e-11
5.58027e-12
-6.91322e-11
3.84512e-11
-3.43554e-11
6.63839e-11
-2.14836e-11
8.5262e-11
-8.25783e-12
9.87553e-11
-3.15332e-12
1.09372e-10
4.41818e-12
1.23224e-10
1.31856e-11
1.35128e-10
1.86952e-11
1.44044e-10
2.36133e-11
1.5766e-10
3.4456e-11
1.68854e-10
3.89621e-11
1.79499e-10
5.04413e-11
1.96338e-10
6.49536e-11
2.12693e-10
7.88927e-11
2.26879e-10
9.37214e-11
2.50141e-10
1.23359e-10
2.69464e-10
1.40729e-10
2.83009e-10
1.61334e-10
2.97657e-10
1.72685e-10
3.28282e-10
1.86248e-10
3.77712e-10
9.37403e-11
6.00685e-10
-3.3526e-10
1.70613e-10
1.56945e-09
-3.13745e-09
-4.28414e-10
-9.8244e-11
-6.12785e-10
-4.51184e-10
-3.44563e-10
-2.18414e-10
-2.33704e-10
-1.1547e-10
-1.45169e-10
-5.30944e-11
-1.12048e-10
-2.10012e-11
-8.95817e-11
5.13878e-12
-6.90208e-11
3.77633e-11
-3.43193e-11
6.57498e-11
-2.14431e-11
8.45006e-11
-8.14548e-12
9.80859e-11
-2.85011e-12
1.08718e-10
4.75448e-12
1.22438e-10
1.35373e-11
1.3434e-10
1.92389e-11
1.43273e-10
2.41802e-11
1.56705e-10
3.50915e-11
1.67931e-10
3.98056e-11
1.78513e-10
5.12748e-11