/*--------------------------------*- C++ -*----------------------------------*\
| =========                 |                                                 |
| \\      /  F ield         | OpenFOAM: The Open Source CFD Toolbox           |
|  \\    /   O peration     | Version:  2312                                  |
|   \\  /    A nd           | Website:  www.openfoam.com                      |
|    \\/     M anipulation  |                                                 |
\*---------------------------------------------------------------------------*/
FoamFile
{
    version     2.0;
    format      ascii;
    arch        "LSB;label=32;scalar=64";
    class       volScalarField;
    location    "1000";
    object      pMean;
}
// * * * * * * * * * * * * * * * * * * * * * * * * * * * * * * * * * * * * * //

dimensions      [0 2 -2 0 0 0 0];

internalField   nonuniform List<scalar> 
330000
(
-6.54213e-09
-1.52361e-09
-3.97785e-09
-3.04154e-09
-2.07555e-09
-1.54319e-09
-8.00945e-10
-6.77006e-10
-1.12444e-10
-1.7522e-10
2.06756e-10
1.86865e-12
3.782e-10
1.12544e-10
4.86774e-10
1.81997e-10
6.13101e-10
2.82669e-10
6.96848e-10
3.09948e-10
7.61478e-10
3.3202e-10
7.89974e-10
3.11706e-10
8.18111e-10
3.13921e-10
8.70493e-10
3.23099e-10
9.00754e-10
2.97372e-10
9.28051e-10
2.89842e-10
9.84722e-10
2.95613e-10
1.01549e-09
2.62966e-10
1.05598e-09
2.68176e-10
1.13056e-09
2.85034e-10
1.18698e-09
2.71899e-10
1.24632e-09
2.92157e-10
1.35895e-09
3.51012e-10
1.43768e-09
3.64368e-10
1.51508e-09
4.16343e-10
1.58691e-09
4.98685e-10
1.67857e-09
6.92762e-10
1.61451e-09
9.48316e-10
1.32002e-09
1.41795e-09
-1.92689e-09
6.99551e-09
-6.48685e-09
-1.52095e-09
-3.98654e-09
-3.04583e-09
-2.07743e-09
-1.54351e-09
-8.0199e-10
-6.77401e-10
-1.13322e-10
-1.75585e-10
2.06039e-10
1.63533e-12
3.77542e-10
1.12389e-10
4.8619e-10
1.81933e-10
6.12554e-10
2.82687e-10
6.96275e-10
3.10019e-10
7.60917e-10
3.3215e-10
7.89433e-10
3.11935e-10
8.17552e-10
3.14194e-10
8.69892e-10
3.23414e-10
9.00155e-10
2.97803e-10
9.27397e-10
2.90309e-10
9.8401e-10
2.96135e-10
1.01475e-09
2.63611e-10
1.05518e-09
2.68886e-10
1.12966e-09
2.85806e-10
1.18603e-09
2.72845e-10
1.24526e-09
2.93167e-10
1.35776e-09
3.52147e-10
1.43637e-09
3.6573e-10
1.51361e-09
4.17946e-10
1.58527e-09
5.00592e-10
1.67677e-09
6.95303e-10
1.61238e-09
9.52133e-10
1.31887e-09
1.42268e-09
-1.94748e-09
6.97459e-09
-6.42976e-09
-1.52185e-09
-3.9979e-09
-3.05097e-09
-2.07918e-09
-1.54354e-09
-8.02679e-10
-6.77966e-10
-1.14009e-10
-1.76322e-10
2.05578e-10
1.05011e-12
3.77153e-10
1.11835e-10
4.85943e-10
1.81446e-10
6.1234e-10
2.82252e-10
6.96067e-10
3.09599e-10
7.60744e-10
3.31749e-10
7.89361e-10
3.11641e-10
8.17501e-10
3.13885e-10
8.69813e-10
3.23093e-10
9.00158e-10
2.97604e-10
9.27394e-10
2.90077e-10
9.83966e-10
2.95888e-10
1.01477e-09
2.6348e-10
1.05519e-09
2.68736e-10
1.12959e-09
2.85649e-10
1.18601e-09
2.7287e-10
1.24518e-09
2.93154e-10
1.35756e-09
3.52191e-10
1.43613e-09
3.66023e-10
1.51322e-09
4.18479e-10
1.58472e-09
5.01486e-10
1.67598e-09
6.9709e-10
1.61102e-09
9.55694e-10
1.31831e-09
1.42944e-09
-1.98489e-09
6.97207e-09
-6.37272e-09
-1.53331e-09
-4.00866e-09
-3.057e-09
-2.08044e-09
-1.54274e-09
-8.0291e-10
-6.78228e-10
-1.14562e-10
-1.77007e-10
2.05269e-10
4.82358e-13
3.76867e-10
1.11241e-10
4.85827e-10
1.80905e-10
6.12207e-10
2.81732e-10
6.95949e-10
3.09077e-10
7.60646e-10
3.31222e-10
7.89415e-10
3.11255e-10
8.17583e-10
3.1345e-10
8.69842e-10
3.22612e-10
9.00319e-10
2.97285e-10
9.27561e-10
2.89686e-10
9.84065e-10
2.95446e-10
1.01499e-09
2.63195e-10
1.05541e-09
2.68388e-10
1.1297e-09
2.85247e-10
1.18623e-09
2.72698e-10
1.24535e-09
2.9288e-10
1.35756e-09
3.51928e-10
1.43614e-09
3.66043e-10
1.51307e-09
4.18716e-10
1.58447e-09
5.02069e-10
1.6755e-09
6.98591e-10
1.61011e-09
9.58799e-10
1.31968e-09
1.43305e-09
-2.03043e-09
6.98659e-09
-6.32012e-09
-1.55307e-09
-4.01612e-09
-3.06345e-09
-2.08108e-09
-1.54103e-09
-8.02754e-10
-6.78186e-10
-1.15095e-10
-1.77628e-10
2.04983e-10
-2.11605e-14
3.76563e-10
1.10682e-10
4.85711e-10
1.80401e-10
6.12022e-10
2.81233e-10
6.95782e-10
3.08569e-10
7.60474e-10
3.30701e-10
7.89434e-10
3.1092e-10
8.17628e-10
3.1305e-10
8.69798e-10
3.22144e-10
9.0044e-10
2.97036e-10
9.27687e-10
2.89343e-10
9.84086e-10
2.95034e-10
1.01517e-09
2.62994e-10
1.05557e-09
2.68099e-10
1.12971e-09
2.84877e-10
1.18637e-09
2.72629e-10
1.24544e-09
2.92666e-10
1.35743e-09
3.51703e-10
1.43603e-09
3.66157e-10
1.51279e-09
4.19054e-10
1.58409e-09
5.02762e-10
1.67486e-09
7.00232e-10
1.60919e-09
9.61736e-10
1.323e-09
1.4317e-09
-2.07661e-09
7.01195e-09
-6.27783e-09
-1.5775e-09
-4.01819e-09
-3.06982e-09
-2.0809e-09
-1.53835e-09
-8.02201e-10
-6.77888e-10
-1.15643e-10
-1.78229e-10
2.04671e-10
-5.04832e-13
3.76203e-10
1.10127e-10
4.85558e-10
1.79908e-10
6.1176e-10
2.80737e-10
6.95544e-10
3.08062e-10
7.60212e-10
3.30177e-10
7.89396e-10
3.10627e-10
8.1762e-10
3.12682e-10
8.69664e-10
3.21689e-10
9.00501e-10
2.96854e-10
9.27753e-10
2.8905e-10
9.84013e-10
2.94662e-10
1.01529e-09
2.62883e-10
1.05566e-09
2.67885e-10
1.1296e-09
2.84558e-10
1.18642e-09
2.7268e-10
1.24543e-09
2.9254e-10
1.35712e-09
3.51556e-10
1.43575e-09
3.66409e-10
1.51229e-09
4.19564e-10
1.58347e-09
5.03669e-10
1.6739e-09
7.02172e-10
1.608e-09
9.6463e-10
1.3282e-09
1.42446e-09
-2.1188e-09
7.04452e-09
-6.25147e-09
-1.60354e-09
-4.01296e-09
-3.07566e-09
-2.07971e-09
-1.53466e-09
-8.01189e-10
-6.77349e-10
-1.16194e-10
-1.78829e-10
2.04323e-10
-1.0016e-12
3.75778e-10
1.09546e-10
4.85358e-10
1.79394e-10
6.11413e-10
2.8022e-10
6.95232e-10
3.07529e-10
7.5986e-10
3.29628e-10
7.893e-10
3.10352e-10
8.17561e-10
3.12324e-10
8.69448e-10
3.21227e-10
9.00507e-10
2.96718e-10
9.27768e-10
2.88787e-10
9.83859e-10
2.94315e-10
1.01535e-09
2.6284e-10
1.05569e-09
2.67727e-10
1.12938e-09
2.84275e-10
1.18638e-09
2.72835e-10
1.24531e-09
2.92489e-10
1.35664e-09
3.5149e-10
1.43528e-09
3.66805e-10
1.51155e-09
4.2027e-10
1.58256e-09
5.04841e-10
1.67251e-09
7.04487e-10
1.60641e-09
9.6745e-10
1.33537e-09
1.41057e-09
-2.15333e-09
7.08175e-09
-6.24569e-09
-1.62892e-09
-3.99866e-09
-3.08061e-09
-2.07735e-09
-1.52989e-09
-7.99656e-10
-6.76563e-10
-1.16727e-10
-1.79426e-10
2.03937e-10
-1.52219e-12
3.75284e-10
1.08927e-10
4.85099e-10
1.78843e-10
6.10974e-10
2.79671e-10
6.94841e-10
3.06958e-10
7.59412e-10
3.29049e-10
7.8914e-10
3.10084e-10
8.17446e-10
3.11968e-10
8.69148e-10
3.20756e-10
9.00452e-10
2.96621e-10
9.27727e-10
2.8855e-10
9.8362e-10
2.93993e-10
1.01534e-09
2.62865e-10
1.05564e-09
2.67628e-10
1.12905e-09
2.84037e-10
1.18623e-09
2.73098e-10
1.24508e-09
2.92527e-10
1.35596e-09
3.51529e-10
1.43459e-09
3.67375e-10
1.51053e-09
4.21221e-10
1.58127e-09
5.06344e-10
1.67057e-09
7.07238e-10
1.60433e-09
9.70088e-10
1.34465e-09
1.38943e-09
-2.17715e-09
7.12153e-09
-6.26414e-09
-1.65188e-09
-3.97381e-09
-3.08439e-09
-2.07373e-09
-1.52401e-09
-7.9756e-10
-6.75522e-10
-1.1722e-10
-1.80007e-10
2.03522e-10
-2.06587e-12
3.74722e-10
1.0827e-10
4.84774e-10
1.78252e-10
6.10433e-10
2.79086e-10
6.94364e-10
3.06345e-10
7.58863e-10
3.28435e-10
7.88905e-10
3.09818e-10
8.17265e-10
3.11614e-10
8.68755e-10
3.20278e-10
9.00323e-10
2.96562e-10
9.27619e-10
2.88341e-10
9.83286e-10
2.93705e-10
1.01524e-09
2.62961e-10
1.05551e-09
2.67599e-10
1.12858e-09
2.83861e-10
1.18594e-09
2.73486e-10
1.24469e-09
2.92681e-10
1.35505e-09
3.51714e-10
1.43363e-09
3.68163e-10
1.50915e-09
4.22475e-10
1.57952e-09
5.08248e-10
1.66799e-09
7.10467e-10
1.60173e-09
9.72386e-10
1.35626e-09
1.36058e-09
-2.18794e-09
7.16207e-09
-6.30963e-09
-1.67124e-09
-3.93717e-09
-3.0867e-09
-2.06879e-09
-1.51703e-09
-7.94878e-10
-6.74228e-10
-1.17653e-10
-1.80561e-10
2.03085e-10
-2.62702e-12
3.74097e-10
1.07577e-10
4.84384e-10
1.77621e-10
6.0979e-10
2.78467e-10
6.93801e-10
3.0569e-10
7.58208e-10
3.2779e-10
7.88587e-10
3.09552e-10
8.17009e-10
3.11263e-10
8.68262e-10
3.19797e-10
9.00109e-10
2.96542e-10
9.27433e-10
2.88167e-10
9.82845e-10
2.9346e-10
1.01506e-09
2.63137e-10
1.05527e-09
2.67654e-10
1.12795e-09
2.83769e-10
1.18549e-09
2.74018e-10
1.24413e-09
2.9298e-10
1.35387e-09
3.52085e-10
1.43234e-09
3.69216e-10
1.50736e-09
4.24091e-10
1.57723e-09
5.10615e-10
1.6647e-09
7.14187e-10
1.59862e-09
9.74143e-10
1.37044e-09
1.32373e-09
-2.18401e-09
7.20208e-09
-6.38403e-09
-1.68636e-09
-3.88775e-09
-3.0873e-09
-2.06252e-09
-1.50895e-09
-7.916e-10
-6.7269e-10
-1.18016e-10
-1.81082e-10
2.02637e-10
-3.19933e-12
3.73419e-10
1.06858e-10
4.8393e-10
1.76953e-10
6.09045e-10
2.77816e-10
6.93151e-10
3.04995e-10
7.57447e-10
3.27115e-10
7.88181e-10
3.09288e-10
8.16672e-10
3.10917e-10
8.67667e-10
3.19318e-10
8.99802e-10
2.96564e-10
9.27159e-10
2.88033e-10
9.82287e-10
2.93268e-10
1.01476e-09
2.63403e-10
1.05491e-09
2.67807e-10
1.12716e-09
2.83781e-10
1.18486e-09
2.74714e-10
1.24335e-09
2.93454e-10
1.35238e-09
3.52684e-10
1.43069e-09
3.70578e-10
1.50509e-09
4.2612e-10
1.57434e-09
5.13487e-10
1.66063e-09
7.18377e-10
1.59509e-09
9.75128e-10
1.38745e-09
1.27869e-09
-2.16436e-09
7.24082e-09
-6.48843e-09
-1.69708e-09
-3.82491e-09
-3.08594e-09
-2.05492e-09
-1.49979e-09
-7.87736e-10
-6.70925e-10
-1.18306e-10
-1.81568e-10
2.02181e-10
-3.77748e-12
3.72694e-10
1.06119e-10
4.83417e-10
1.76257e-10
6.08203e-10
2.77139e-10
6.92417e-10
3.04267e-10
7.56581e-10
3.26418e-10
7.87685e-10
3.09029e-10
8.16252e-10
3.10581e-10
8.66964e-10
3.18849e-10
8.99392e-10
2.96633e-10
9.26786e-10
2.87947e-10
9.81603e-10
2.93143e-10
1.01433e-09
2.63768e-10
1.05441e-09
2.68075e-10
1.12618e-09
2.83919e-10
1.18401e-09
2.75598e-10
1.24233e-09
2.94136e-10
1.35054e-09
3.5355e-10
1.42861e-09
3.72291e-10
1.50229e-09
4.28604e-10
1.5708e-09
5.1689e-10
1.65579e-09
7.22984e-10
1.59122e-09
9.75099e-10
1.40752e-09
1.22547e-09
-2.12858e-09
7.27791e-09
-6.623e-09
-1.70365e-09
-3.7483e-09
-3.08242e-09
-2.04604e-09
-1.48961e-09
-7.83304e-10
-6.68952e-10
-1.18526e-10
-1.82021e-10
2.01719e-10
-4.35913e-12
3.71927e-10
1.05367e-10
4.82848e-10
1.7554e-10
6.07267e-10
2.76442e-10
6.91604e-10
3.03511e-10
7.55613e-10
3.25706e-10
7.87097e-10
3.08779e-10
8.15743e-10
3.10263e-10
8.66151e-10
3.184e-10
8.98873e-10
2.96756e-10
9.26308e-10
2.8792e-10
9.80782e-10
2.93096e-10
1.01376e-09
2.64247e-10
1.05374e-09
2.68475e-10
1.12499e-09
2.84207e-10
1.18292e-09
2.7669e-10
1.24103e-09
2.95055e-10
1.34833e-09
3.54717e-10
1.42608e-09
3.74388e-10
1.49894e-09
4.31572e-10
1.56658e-09
5.20826e-10
1.65018e-09
7.27932e-10
1.58716e-09
9.73827e-10
1.43082e-09
1.16424e-09
-2.0768e-09
7.31332e-09
-6.78716e-09
-1.70655e-09
-3.65779e-09
-3.07657e-09
-2.03595e-09
-1.47844e-09
-7.78333e-10
-6.66797e-10
-1.18686e-10
-1.8245e-10
2.01247e-10
-4.94492e-12
3.71119e-10
1.04607e-10
4.82224e-10
1.74808e-10
6.06241e-10
2.75732e-10
6.90712e-10
3.02736e-10
7.54545e-10
3.24988e-10
7.86416e-10
3.08545e-10
8.15143e-10
3.09971e-10
8.65226e-10
3.1798e-10
8.98238e-10
2.96941e-10
9.25713e-10
2.87964e-10
9.79815e-10
2.93144e-10
1.01303e-09
2.64853e-10
1.0529e-09
2.69025e-10
1.12357e-09
2.84667e-10
1.18157e-09
2.78013e-10
1.23943e-09
2.96238e-10
1.34571e-09
3.56215e-10
1.42307e-09
3.76893e-10
1.49499e-09
4.35039e-10
1.56166e-09
5.25282e-10
1.64383e-09
7.33131e-10
1.58303e-09
9.71119e-10
1.45743e-09
1.09538e-09
-2.00963e-09
7.34714e-09
-6.97953e-09
-1.7065e-09
-3.55352e-09
-3.06822e-09
-2.02473e-09
-1.46636e-09
-7.72861e-10
-6.64488e-10
-1.18802e-10
-1.82867e-10
2.00754e-10
-5.53875e-12
3.70269e-10
1.03841e-10
4.81544e-10
1.74067e-10
6.05128e-10
2.75014e-10
6.89744e-10
3.0195e-10
7.5338e-10
3.24272e-10
7.85641e-10
3.08335e-10
8.1445e-10
3.09714e-10
8.64187e-10
3.17602e-10
8.9748e-10
2.97196e-10
9.24996e-10
2.88092e-10
9.78694e-10
2.93299e-10
1.01214e-09
2.65601e-10
1.05187e-09
2.69743e-10
1.12192e-09
2.8532e-10
1.17994e-09
2.79584e-10
1.2375e-09
2.97709e-10
1.34266e-09
3.58067e-10
1.41955e-09
3.79822e-10
1.49045e-09
4.3901e-10
1.55605e-09
5.30232e-10
1.63681e-09
7.38486e-10
1.57898e-09
9.66827e-10
1.48731e-09
1.01943e-09
-1.9281e-09
7.37955e-09
-7.19818e-09
-1.7043e-09
-3.43584e-09
-3.05725e-09
-2.01249e-09
-1.45345e-09
-7.66932e-10
-6.62057e-10
-1.18891e-10
-1.83286e-10
2.0023e-10
-6.14647e-12
3.69369e-10
1.0307e-10
4.80805e-10
1.73319e-10
6.03925e-10
2.74291e-10
6.88699e-10
3.01159e-10
7.52116e-10
3.23566e-10
7.84769e-10
3.08157e-10
8.1366e-10
3.09503e-10
8.63031e-10
3.17276e-10
8.96593e-10
2.97533e-10
9.24148e-10
2.88314e-10
9.7741e-10
2.93577e-10
1.01106e-09
2.66502e-10
1.05064e-09
2.70645e-10
1.12001e-09
2.86184e-10
1.178e-09
2.8142e-10
1.23523e-09
2.99487e-10
1.33917e-09
3.60289e-10
1.41551e-09
3.83185e-10
1.48529e-09
4.43479e-10
1.54976e-09
5.35639e-10
1.62915e-09
7.43907e-10
1.5751e-09
9.60858e-10
1.52035e-09
9.37135e-10
-1.83355e-09
7.41066e-09
-7.4406e-09
-1.70092e-09
-3.30531e-09
-3.04351e-09
-1.99933e-09
-1.43977e-09
-7.60593e-10
-6.59532e-10
-1.18974e-10
-1.83722e-10
1.99661e-10
-6.77544e-12
3.68413e-10
1.02292e-10
4.8e-10
1.72566e-10
6.02632e-10
2.73568e-10
6.87574e-10
3.0037e-10
7.50754e-10
3.22878e-10
7.83798e-10
3.08015e-10
8.1277e-10
3.09345e-10
8.61757e-10
3.17014e-10
8.95573e-10
2.97959e-10
9.23162e-10
2.88644e-10
9.75957e-10
2.9399e-10
1.0098e-09
2.6757e-10
1.04919e-09
2.71745e-10
1.11784e-09
2.87276e-10
1.17576e-09
2.83533e-10
1.23261e-09
3.01585e-10
1.33522e-09
3.62892e-10
1.41094e-09
3.86982e-10
1.47953e-09
4.48434e-10
1.54282e-09
5.41466e-10
1.62093e-09
7.49316e-10
1.57149e-09
9.53172e-10
1.55633e-09
8.49326e-10
-1.72752e-09
7.44062e-09
-7.70391e-09
-1.69733e-09
-3.16265e-09
-3.0269e-09
-1.98536e-09
-1.42541e-09
-7.53893e-10
-6.56942e-10
-1.19073e-10
-1.8419e-10
1.99032e-10
-7.43343e-12
3.67392e-10
1.01505e-10
4.79122e-10
1.71809e-10
6.01245e-10
2.72844e-10
6.86367e-10
2.99587e-10
7.49291e-10
3.22214e-10
7.82724e-10
3.07918e-10
8.11775e-10
3.09249e-10
8.60361e-10
3.16824e-10
8.94415e-10
2.98483e-10
9.22032e-10
2.89092e-10
9.74329e-10
2.9455e-10
1.00834e-09
2.68816e-10
1.04752e-09
2.73055e-10
1.1154e-09
2.88608e-10
1.17319e-09
2.85933e-10
1.22962e-09
3.04013e-10
1.33082e-09
3.65882e-10
1.40585e-09
3.91211e-10
1.47318e-09
4.53857e-10
1.53525e-09
5.47674e-10
1.61219e-09
7.54643e-10
1.5682e-09
9.43783e-10
1.59496e-09
7.56964e-10
-1.61172e-09
7.46949e-09
-7.98479e-09
-1.69449e-09
-3.00882e-09
-3.00733e-09
-1.9707e-09
-1.41045e-09
-7.46877e-10
-6.54311e-10
-1.19207e-10
-1.84704e-10
1.98328e-10
-8.12845e-12
3.66295e-10
1.00705e-10
4.78165e-10
1.71048e-10
5.9976e-10
2.72122e-10
6.85074e-10
2.98814e-10
7.47726e-10
3.21578e-10
7.81545e-10
3.07868e-10
8.10672e-10
3.09221e-10
8.58841e-10
3.16715e-10
8.93113e-10
2.99111e-10
9.20753e-10
2.89667e-10
9.72521e-10
2.95266e-10
1.00668e-09
2.70247e-10
1.04562e-09
2.74585e-10
1.11269e-09
2.90192e-10
1.1703e-09
2.88625e-10
1.22626e-09
3.0678e-10
1.32596e-09
3.69259e-10
1.40024e-09
3.95864e-10
1.46625e-09
4.5973e-10
1.52708e-09
5.54224e-10
1.60298e-09
7.59835e-10
1.56527e-09
9.32752e-10
1.63585e-09
6.61105e-10
-1.48799e-09
7.4972e-09
-8.2797e-09
-1.6933e-09
-2.84486e-09
-2.98475e-09
-1.95543e-09
-1.39499e-09
-7.39592e-10
-6.51661e-10
-1.19395e-10
-1.85279e-10
1.97536e-10
-8.86754e-12
3.65113e-10
9.98881e-11
4.7712e-10
1.70282e-10
5.98172e-10
2.714e-10
6.83688e-10
2.98053e-10
7.46054e-10
3.20975e-10
7.80255e-10
3.07871e-10
8.09456e-10
3.09267e-10
8.57193e-10
3.16695e-10
8.91664e-10
2.9985e-10
9.1932e-10
2.90376e-10
9.70529e-10
2.96147e-10
1.00481e-09
2.71872e-10
1.04348e-09
2.76342e-10
1.1097e-09
2.92034e-10
1.16708e-09
2.91615e-10
1.22254e-09
3.09887e-10
1.32065e-09
3.73022e-10
1.39412e-09
4.00932e-10
1.45876e-09
4.66031e-10
1.51834e-09
5.6108e-10
1.59336e-09
7.64851e-10
1.56272e-09
9.20184e-10
1.67857e-09
5.62882e-10
-1.35822e-09
7.52352e-09
-8.58498e-09
-1.69468e-09
-2.67196e-09
-2.95908e-09
-1.93967e-09
-1.37911e-09
-7.32081e-10
-6.4901e-10
-1.19653e-10
-1.85924e-10
1.96642e-10
-9.65666e-12
3.63838e-10
9.90526e-11
4.75979e-10
1.6951e-10
5.96477e-10
2.70678e-10
6.82205e-10
2.97308e-10
7.44273e-10
3.20409e-10
7.78851e-10
3.0793e-10
8.08124e-10
3.09391e-10
8.55417e-10
3.16769e-10
8.90064e-10
3.00704e-10
9.17728e-10
2.91227e-10
9.68351e-10
2.97198e-10
1.00273e-09
2.73694e-10
1.04111e-09
2.78332e-10
1.10644e-09
2.9414e-10
1.16353e-09
2.94903e-10
1.21843e-09
3.13335e-10
1.31489e-09
3.77167e-10
1.3875e-09
4.06403e-10
1.45072e-09
4.72739e-10
1.50906e-09
5.68212e-10
1.58335e-09
7.69663e-10
1.56053e-09
9.06221e-10
1.72263e-09
4.6343e-10
-1.22424e-09
7.54824e-09
-8.8969e-09
-1.69946e-09
-2.49143e-09
-2.93029e-09
-1.92347e-09
-1.36288e-09
-7.24385e-10
-6.46371e-10
-1.19993e-10
-1.86648e-10
1.95636e-10
-1.05003e-11
3.6246e-10
9.81955e-11
4.74736e-10
1.68732e-10
5.9467e-10
2.69954e-10
6.80621e-10
2.9658e-10
7.42379e-10
3.1988e-10
7.7733e-10
3.08046e-10
8.0667e-10
3.09598e-10
8.53508e-10
3.16941e-10
8.8831e-10
3.01677e-10
9.15973e-10
2.92223e-10
9.65984e-10
2.98424e-10
1.00043e-09
2.75719e-10
1.03849e-09
2.80558e-10
1.10289e-09
2.96515e-10
1.15965e-09
2.98489e-10
1.21396e-09
3.17125e-10
1.30869e-09
3.81687e-10
1.38039e-09
4.12265e-10
1.44216e-09
4.79833e-10
1.49926e-09
5.75589e-10
1.573e-09
7.74255e-10
1.55867e-09
8.91041e-10
1.76749e-09
3.63899e-10
-1.08783e-09
7.57097e-09
-9.21158e-09
-1.70833e-09
-2.30464e-09
-2.89839e-09
-1.90694e-09
-1.34641e-09
-7.16542e-10
-6.43753e-10
-1.20428e-10
-1.87458e-10
1.94509e-10
-1.1402e-11
3.60974e-10
9.73152e-11
4.73385e-10
1.67947e-10
5.92749e-10
2.6923e-10
6.7893e-10
2.9587e-10
7.4037e-10
3.19391e-10
7.75687e-10
3.08221e-10
8.05091e-10
3.09888e-10
8.51465e-10
3.17217e-10
8.864e-10
3.0277e-10
9.14053e-10
2.93369e-10
9.63426e-10
2.99828e-10
9.97917e-10
2.77947e-10
1.03563e-09
2.83022e-10
1.09907e-09
2.99159e-10
1.15544e-09
3.02371e-10
1.20912e-09
3.21254e-10
1.30206e-09
3.86575e-10
1.3728e-09
4.18505e-10
1.43309e-09
4.87291e-10
1.48897e-09
5.83184e-10
1.56233e-09
7.78623e-10
1.5571e-09
8.74847e-10
1.81259e-09
2.65459e-10
-9.50731e-10
7.59123e-09
-9.5253e-09
-1.72182e-09
-2.11301e-09
-2.8634e-09
-1.89014e-09
-1.32977e-09
-7.08591e-10
-6.41166e-10
-1.20965e-10
-1.88357e-10
1.93254e-10
-1.23635e-11
3.59374e-10
9.64107e-11
4.71921e-10
1.67155e-10
5.90708e-10
2.68503e-10
6.77128e-10
2.95179e-10
7.38241e-10
3.18944e-10
7.7392e-10
3.08457e-10
8.03384e-10
3.10265e-10
8.49285e-10
3.17597e-10
8.84332e-10
3.03985e-10
9.11965e-10
2.94667e-10
9.60677e-10
3.01412e-10
9.95189e-10
2.80381e-10
1.03253e-09
2.85725e-10
1.09497e-09
3.02073e-10
1.15092e-09
3.06547e-10
1.20392e-09
3.25716e-10
1.29501e-09
3.91822e-10
1.36475e-09
4.25107e-10
1.42353e-09
4.95092e-10
1.47822e-09
5.90975e-10
1.55135e-09
7.82772e-10
1.55574e-09
8.57868e-10
1.85735e-09
1.69264e-10
-8.14559e-10
7.60836e-09
-9.83443e-09
-1.74048e-09
-1.91799e-09
-2.82533e-09
-1.87312e-09
-1.31305e-09
-7.00564e-10
-6.38611e-10
-1.21611e-10
-1.89347e-10
1.91865e-10
-1.33854e-11
3.57656e-10
9.54819e-11
4.70339e-10
1.66355e-10
5.88547e-10
2.67774e-10
6.75212e-10
2.94509e-10
7.35992e-10
3.1854e-10
7.72025e-10
3.08754e-10
8.01546e-10
3.10728e-10
8.46968e-10
3.18085e-10
8.82103e-10
3.05324e-10
9.09708e-10
2.96119e-10
9.57736e-10
3.03178e-10
9.92244e-10
2.8302e-10
1.02919e-09
2.88666e-10
1.09061e-09
3.05256e-10
1.14607e-09
3.11011e-10
1.19836e-09
3.30508e-10
1.28755e-09
3.97417e-10
1.35625e-09
4.32059e-10
1.41351e-09
5.03214e-10
1.46703e-09
5.98939e-10
1.5401e-09
7.86716e-10
1.55451e-09
8.40348e-10
1.90117e-09
7.63896e-11
-6.80764e-10
7.62173e-09
-1.01356e-08
-1.76469e-09
-1.72103e-09
-2.78424e-09
-1.85592e-09
-1.29633e-09
-6.92493e-10
-6.3609e-10
-1.22368e-10
-1.90428e-10
1.90338e-10
-1.44666e-11
3.55816e-10
9.45292e-11
4.68638e-10
1.65549e-10
5.86263e-10
2.67042e-10
6.73179e-10
2.93861e-10
7.3362e-10
3.18178e-10
7.70002e-10
3.09113e-10
7.99574e-10
3.1128e-10
8.44513e-10
3.18682e-10
8.79714e-10
3.06786e-10
9.07278e-10
2.97725e-10
9.54604e-10
3.05125e-10
9.89084e-10
2.85863e-10
1.0256e-09
2.91843e-10
1.08597e-09
3.08706e-10
1.1409e-09
3.15761e-10
1.19245e-09
3.35622e-10
1.27968e-09
4.0335e-10
1.34732e-09
4.39343e-10
1.40305e-09
5.11636e-10
1.45543e-09
6.07058e-10
1.52857e-09
7.90477e-10
1.55332e-09
8.22543e-10
1.94346e-09
-1.21516e-11
-5.50621e-10
7.63066e-09
-1.04254e-08
-1.79467e-09
-1.52358e-09
-2.74019e-09
-1.83859e-09
-1.2797e-09
-6.84412e-10
-6.33601e-10
-1.23238e-10
-1.916e-10
1.88673e-10
-1.56055e-11
3.53854e-10
9.35543e-11
4.66815e-10
1.64739e-10
5.83856e-10
2.66307e-10
6.71027e-10
2.93236e-10
7.31123e-10
3.17861e-10
7.67847e-10
3.09534e-10
7.97468e-10
3.1192e-10
8.41917e-10
3.19388e-10
8.77163e-10
3.08371e-10
9.04677e-10
2.99486e-10
9.51281e-10
3.07252e-10
9.85708e-10
2.8891e-10
1.02177e-09
2.95255e-10
1.08107e-09
3.12421e-10
1.13543e-09
3.20788e-10
1.1862e-09
3.41052e-10
1.27143e-09
4.09609e-10
1.33797e-09
4.46944e-10
1.39215e-09
5.20338e-10
1.44344e-09
6.15316e-10
1.51678e-09
7.94085e-10
1.55206e-09
8.04719e-10
1.98364e-09
-9.53886e-11
-4.25281e-10
7.63434e-09
-1.07009e-08
-1.83051e-09
-1.32703e-09
-2.69326e-09
-1.82115e-09
-1.26323e-09
-6.76347e-10
-6.31144e-10
-1.24222e-10
-1.92859e-10
1.86867e-10
-1.67995e-11
3.51768e-10
9.2559e-11
4.64869e-10
1.63924e-10
5.81325e-10
2.6557e-10
6.68754e-10
2.92635e-10
7.28502e-10
3.17589e-10
7.6556e-10
3.10018e-10
7.95224e-10
3.12649e-10
8.39181e-10
3.20205e-10
8.7445e-10
3.10078e-10
9.01902e-10
3.014e-10
9.47767e-10
3.09559e-10
9.82119e-10
2.92157e-10
1.01771e-09
2.98898e-10
1.07591e-09
3.16397e-10
1.12966e-09
3.26088e-10
1.1796e-09
3.46788e-10
1.26281e-09
4.16181e-10
1.32823e-09
4.54845e-10
1.38086e-09
5.29298e-10
1.43108e-09
6.23697e-10
1.50472e-09
7.97574e-10
1.55062e-09
7.87141e-10
2.02117e-09
-1.72428e-10
-3.05746e-10
7.63191e-09
-1.09594e-08
-1.87229e-09
-1.13273e-09
-2.64355e-09
-1.80362e-09
-1.24701e-09
-6.68327e-10
-6.28711e-10
-1.25318e-10
-1.942e-10
1.84922e-10
-1.80449e-11
3.4956e-10
9.15459e-11
4.62801e-10
1.63108e-10
5.7867e-10
2.64832e-10
6.66359e-10
2.9206e-10
7.25755e-10
3.17363e-10
7.63141e-10
3.10563e-10
7.92843e-10
3.13465e-10
8.36306e-10
3.21132e-10
8.71576e-10
3.11907e-10
8.98955e-10
3.03468e-10
9.44066e-10
3.12043e-10
9.78319e-10
2.95602e-10
1.01341e-09
3.02768e-10
1.07049e-09
3.20629e-10
1.12359e-09
3.31652e-10
1.17268e-09
3.52822e-10
1.25382e-09
4.23053e-10
1.31809e-09
4.63029e-10
1.36918e-09
5.38497e-10
1.41836e-09
6.3219e-10
1.4924e-09
8.00985e-10
1.54888e-09
7.70075e-10
2.0555e-09
-2.42495e-10
-1.92797e-10
7.62259e-09
-1.11984e-08
-1.91999e-09
-9.41958e-10
-2.59112e-09
-1.78598e-09
-1.23108e-09
-6.60374e-10
-6.26295e-10
-1.26522e-10
-1.95619e-10
1.82839e-10
-1.93369e-11
3.4723e-10
9.05181e-11
4.60611e-10
1.62292e-10
5.75892e-10
2.64094e-10
6.63841e-10
2.91513e-10
7.22883e-10
3.17184e-10
7.60589e-10
3.11172e-10
7.90323e-10
3.1437e-10
8.3329e-10
3.2217e-10
8.68541e-10
3.13857e-10
8.95835e-10
3.05689e-10
9.40177e-10
3.14703e-10
9.74309e-10
2.99243e-10
1.00889e-09
3.06861e-10
1.06483e-09
3.25113e-10
1.11723e-09
3.37474e-10
1.16544e-09
3.59144e-10
1.24448e-09
4.3021e-10
1.3076e-09
4.71479e-10
1.35713e-09
5.47913e-10
1.40532e-09
6.40783e-10
1.4798e-09
8.04362e-10
1.54673e-09
7.53777e-10
2.08613e-09
-3.04919e-10
-8.70289e-11
7.60564e-09
-1.14158e-08
-1.97345e-09
-7.5592e-10
-2.53609e-09
-1.76825e-09
-1.21553e-09
-6.52513e-10
-6.23889e-10
-1.27829e-10
-1.97109e-10
1.80622e-10
-2.06711e-11
3.4478e-10
8.94791e-11
4.58301e-10
1.61479e-10
5.72993e-10
2.63356e-10
6.61201e-10
2.90994e-10
7.19885e-10
3.17051e-10
7.57904e-10
3.11843e-10
7.87666e-10
3.15362e-10
8.30135e-10
3.23318e-10
8.65346e-10
3.15926e-10
8.92543e-10
3.08059e-10
9.36104e-10
3.17536e-10
9.70094e-10
3.03075e-10
1.00413e-09
3.11171e-10
1.05892e-09
3.29843e-10
1.11059e-09
3.43544e-10
1.15788e-09
3.65742e-10
1.23481e-09
4.37638e-10
1.29675e-09
4.80179e-10
1.34474e-09
5.57528e-10
1.39196e-09
6.49468e-10
1.46693e-09
8.0775e-10
1.54404e-09
7.38494e-10
2.11263e-09
-3.59107e-10
1.10866e-11
7.58023e-09
-1.16096e-08
-2.03241e-09
-5.75722e-10
-2.47859e-09
-1.7504e-09
-1.20041e-09
-6.44764e-10
-6.21485e-10
-1.29235e-10
-1.98662e-10
1.78273e-10
-2.20421e-11
3.42213e-10
8.84327e-11
4.55873e-10
1.60671e-10
5.69973e-10
2.62621e-10
6.58439e-10
2.90506e-10
7.16763e-10
3.16967e-10
7.55087e-10
3.12578e-10
7.84871e-10
3.16441e-10
8.26842e-10
3.24576e-10
8.61993e-10
3.18112e-10
8.89082e-10
3.10578e-10
9.31849e-10
3.2054e-10
9.65675e-10
3.07096e-10
9.99151e-10
3.15694e-10
1.05277e-09
3.34812e-10
1.10368e-09
3.49854e-10
1.15003e-09
3.72607e-10
1.22481e-09
4.45322e-10
1.28557e-09
4.89109e-10
1.33203e-09
5.67322e-10
1.3783e-09
6.58237e-10
1.45377e-09
8.11198e-10
1.54068e-09
7.24461e-10
2.13456e-09
-4.04567e-10
1.01204e-10
7.54559e-09
-1.17784e-08
-2.09661e-09
-4.02374e-10
-2.41869e-09
-1.73241e-09
-1.18578e-09
-6.37144e-10
-6.1907e-10
-1.30732e-10
-2.00271e-10
1.75798e-10
-2.3444e-11
3.39533e-10
8.7383e-11
4.53331e-10
1.59872e-10
5.66836e-10
2.61889e-10
6.55556e-10
2.90051e-10
7.13518e-10
3.16932e-10
7.52138e-10
3.13375e-10
7.81938e-10
3.17605e-10
8.23412e-10
3.25943e-10
8.58483e-10
3.20414e-10
8.85451e-10
3.13243e-10
9.27415e-10
3.2371e-10
9.61057e-10
3.11299e-10
9.93954e-10
3.20422e-10
1.04639e-09
3.40014e-10
1.0965e-09
3.56395e-10
1.14188e-09
3.79725e-10
1.21451e-09
4.53248e-10
1.27407e-09
4.98252e-10
1.31901e-09
5.77277e-10
1.36436e-09
6.67084e-10
1.44031e-09
8.14753e-10
1.53655e-09
7.11893e-10
2.15159e-09
-4.40925e-10
1.83179e-10
7.50106e-09
-1.19211e-08
-2.16581e-09
-2.36782e-10
-2.35651e-09
-1.71425e-09
-1.17168e-09
-6.29669e-10
-6.16634e-10
-1.32311e-10
-2.01928e-10
1.73203e-10
-2.48705e-11
3.36743e-10
8.63341e-11
4.50676e-10
1.59084e-10
5.63583e-10
2.61163e-10
6.52552e-10
2.89629e-10
7.10151e-10
3.16947e-10
7.4906e-10
3.14236e-10
7.78871e-10
3.18855e-10
8.19846e-10
3.27419e-10
8.54819e-10
3.22831e-10
8.81655e-10
3.16052e-10
9.22805e-10
3.27043e-10
9.56245e-10
3.15682e-10
9.88543e-10
3.25351e-10
1.03979e-09
3.45442e-10
1.08908e-09
3.63156e-10
1.13346e-09
3.87085e-10
1.20392e-09
4.61398e-10
1.26228e-09
5.07591e-10
1.30571e-09
5.87373e-10
1.35016e-09
6.76005e-10
1.42653e-09
8.18464e-10
1.53152e-09
7.00986e-10
2.16339e-09
-4.67924e-10
2.57011e-10
7.44607e-09
-1.20366e-08
-2.23962e-09
-7.97407e-11
-2.29214e-09
-1.69587e-09
-1.15815e-09
-6.22352e-10
-6.14163e-10
-1.33964e-10
-2.03622e-10
1.70493e-10
-2.63155e-11
3.33848e-10
8.52905e-11
4.47913e-10
1.5831e-10
5.60216e-10
2.60443e-10
6.4943e-10
2.89243e-10
7.06664e-10
3.17011e-10
7.45854e-10
3.1516e-10
7.75668e-10
3.20189e-10
8.16146e-10
3.29003e-10
8.51003e-10
3.25359e-10
8.77694e-10
3.19002e-10
9.18022e-10
3.30536e-10
9.51241e-10
3.2024e-10
9.82924e-10
3.30472e-10
1.03297e-09
3.51088e-10
1.0814e-09
3.70129e-10
1.12477e-09
3.94674e-10
1.19306e-09
4.69758e-10
1.25021e-09
5.17109e-10
1.29214e-09
5.97595e-10
1.3357e-09
6.84994e-10
1.41242e-09
8.22376e-10
1.5255e-09
6.91915e-10
2.1697e-09
-4.85382e-10
3.22791e-10
7.38008e-09
-1.21242e-08
-2.31763e-09
6.80569e-11
-2.2257e-09
-1.67724e-09
-1.14523e-09
-6.15205e-10
-6.11646e-10
-1.35682e-10
-2.05346e-10
1.67674e-10
-2.77727e-11
3.30852e-10
8.42567e-11
4.45046e-10
1.57554e-10
5.56739e-10
2.59732e-10
6.46192e-10
2.88895e-10
7.03058e-10
3.17127e-10
7.42521e-10
3.16147e-10
7.72334e-10
3.21606e-10
8.12315e-10
3.30693e-10
8.47037e-10
3.27998e-10
8.73573e-10
3.2209e-10
9.13071e-10
3.34185e-10
9.46052e-10
3.24966e-10
9.77104e-10
3.3578e-10
1.02593e-09
3.56944e-10
1.07349e-09
3.77302e-10
1.11582e-09
4.0248e-10
1.18193e-09
4.78312e-10
1.23787e-09
5.26788e-10
1.27831e-09
6.07925e-10
1.32099e-09
6.94049e-10
1.39795e-09
8.26534e-10
1.51837e-09
6.8483e-10
2.17034e-09
-4.93218e-10
3.80675e-10
7.3026e-09
-1.21838e-08
-2.39947e-09
2.06039e-10
-2.15728e-09
-1.6583e-09
-1.13294e-09
-6.08235e-10
-6.09069e-10
-1.37456e-10
-2.07088e-10
1.64754e-10
-2.92355e-11
3.27761e-10
8.32372e-11
4.4208e-10
1.56819e-10
5.53153e-10
2.5903e-10
6.42839e-10
2.88586e-10
6.99335e-10
3.17294e-10
7.39064e-10
3.17197e-10
7.68869e-10
3.23104e-10
8.08355e-10
3.32488e-10
8.42925e-10
3.30744e-10
8.69294e-10
3.25313e-10
9.07956e-10
3.37985e-10
9.40682e-10
3.29856e-10
9.71087e-10
3.41267e-10
1.0187e-09
3.63002e-10
1.06535e-09
3.84665e-10
1.10663e-09
4.10489e-10
1.17055e-09
4.87043e-10
1.22529e-09
5.36612e-10
1.26426e-09
6.18346e-10
1.30606e-09
7.03166e-10
1.38312e-09
8.30977e-10
1.51006e-09
6.79859e-10
2.16515e-09
-4.91444e-10
4.30972e-10
7.2133e-09
-1.22152e-08
-2.4848e-09
3.33739e-10
-2.08696e-09
-1.63899e-09
-1.1213e-09
-6.01446e-10
-6.06416e-10
-1.39271e-10
-2.08839e-10
1.61742e-10
-3.06965e-11
3.2458e-10
8.22364e-11
4.39018e-10
1.56108e-10
5.49463e-10
2.5834e-10
6.39374e-10
2.88319e-10
6.95498e-10
3.17512e-10
7.35484e-10
3.1831e-10
7.65276e-10
3.24684e-10
8.04268e-10
3.34387e-10
8.38669e-10
3.33596e-10
8.64861e-10
3.28667e-10
9.0268e-10
3.41931e-10
9.35136e-10
3.34905e-10
9.64882e-10
3.46924e-10
1.01127e-09
3.69254e-10
1.057e-09
3.92207e-10
1.09721e-09
4.18688e-10
1.15894e-09
4.95936e-10
1.21248e-09
5.46563e-10
1.24998e-09
6.28843e-10
1.29091e-09
7.12345e-10
1.36791e-09
8.35743e-10
1.50047e-09
6.77099e-10
2.15404e-09
-4.80171e-10
4.74082e-10
7.11195e-09
-1.22186e-08
-2.5732e-09
4.50812e-10
-2.01483e-09
-1.61927e-09
-1.11032e-09
-5.9484e-10
-6.03672e-10
-1.41117e-10
-2.10587e-10
1.58645e-10
-3.21494e-11
3.21314e-10
8.12591e-11
4.35867e-10
1.55426e-10
5.45671e-10
2.57663e-10
6.35799e-10
2.88094e-10
6.91549e-10
3.17783e-10
7.31786e-10
3.19486e-10
7.61557e-10
3.26342e-10
8.00057e-10
3.36389e-10
8.34274e-10
3.3655e-10
8.60278e-10
3.3215e-10
8.97248e-10
3.4602e-10
9.29421e-10
3.40107e-10
9.58495e-10
3.52746e-10
1.00366e-09
3.7569e-10
1.04844e-09
3.99919e-10
1.08757e-09
4.27065e-10
1.14712e-09
5.04976e-10
1.19946e-09
5.56627e-10
1.23551e-09
6.394e-10
1.27555e-09
7.21581e-10
1.3523e-09
8.40862e-10
1.48954e-09
6.76622e-10
2.13696e-09
-4.59569e-10
5.10445e-10
6.99838e-09
-1.21944e-08
-2.66426e-09
5.57005e-10
-1.94098e-09
-1.59907e-09
-1.10001e-09
-5.88419e-10
-6.00824e-10
-1.42982e-10
-2.12324e-10
1.55472e-10
-3.35876e-11
3.1797e-10
8.03095e-11
4.32633e-10
1.54774e-10
5.4178e-10
2.56999e-10
6.32118e-10
2.87913e-10
6.87491e-10
3.18105e-10
7.2797e-10
3.20725e-10
7.57717e-10
3.28079e-10
7.95725e-10
3.38491e-10
8.29741e-10
3.39604e-10
8.5555e-10
3.35758e-10
8.91665e-10
3.50245e-10
9.23541e-10
3.45456e-10
9.51932e-10
3.58724e-10
9.95867e-10
3.82302e-10
1.03969e-09
4.07787e-10
1.07772e-09
4.35606e-10
1.13509e-09
5.14146e-10
1.18624e-09
5.66786e-10
1.22085e-09
6.50003e-10
1.25999e-09
7.30874e-10
1.33628e-09
8.46361e-10
1.47722e-09
6.78476e-10
2.11392e-09
-4.29891e-10
5.40515e-10
6.87251e-09
-1.21431e-08
-2.75762e-09
6.52184e-10
-1.86546e-09
-1.57834e-09