/*--------------------------------*- C++ -*----------------------------------*\
| =========                 |                                                 |
| \\      /  F ield         | OpenFOAM: The Open Source CFD Toolbox           |
|  \\    /   O peration     | Version:  2312                                  |
|   \\  /    A nd           | Website:  www.openfoam.com                      |
|    \\/     M anipulation  |                                                 |
\*---------------------------------------------------------------------------*/
FoamFile
{
    version     2.0;
    format      ascii;
    arch        "LSB;label=32;scalar=64";
    class       volScalarField;
    location    "1000";
    object      pPrime2Mean;
}
// * * * * * * * * * * * * * * * * * * * * * * * * * * * * * * * * * * * * * //

dimensions      [0 4 -4 0 0 0 0];

internalField   nonuniform List<scalar> 
330000
(
1.14223e-16
4.06331e-17
2.89315e-17
2.38339e-17
2.32878e-17
2.16714e-17
2.02638e-17
1.81118e-17
1.72712e-17
1.58894e-17
1.54864e-17
1.44386e-17
1.44117e-17
1.34417e-17
1.34608e-17
1.24555e-17
1.26667e-17
1.18614e-17
1.18294e-17
1.13188e-17
1.11759e-17
1.06535e-17
1.07752e-17
9.81994e-18
1.05071e-17
9.17857e-18
1.01923e-17
8.79734e-18
9.74663e-18
8.5357e-18
9.29559e-18
8.32275e-18
8.92031e-18
8.13217e-18
8.57515e-18
7.98504e-18
8.31992e-18
7.82968e-18
8.18547e-18
7.64234e-18
8.1379e-18
7.54332e-18
8.16758e-18
7.52123e-18
8.29781e-18
7.46527e-18
8.61852e-18
7.65882e-18
9.10195e-18
8.26158e-18
9.81235e-18
8.96595e-18
1.23255e-17
7.6358e-18
1.90485e-17
6.77502e-18
2.69034e-17
2.03366e-17
8.10493e-18
9.88739e-17
1.13153e-16
4.04486e-17
2.89199e-17
2.38327e-17
2.32857e-17
2.16767e-17
2.02666e-17
1.81155e-17
1.7271e-17
1.58896e-17
1.54848e-17
1.44379e-17
1.44101e-17
1.34413e-17
1.34596e-17
1.24555e-17
1.26659e-17
1.18617e-17
1.18289e-17
1.13189e-17
1.11757e-17
1.06538e-17
1.07748e-17
9.82069e-18
1.05061e-17
9.17967e-18
1.01911e-17
8.79836e-18
9.74559e-18
8.53629e-18
9.29482e-18
8.32285e-18
8.91972e-18
8.13184e-18
8.57472e-18
7.98422e-18
8.31961e-18
7.82841e-18
8.18514e-18
7.64077e-18
8.13738e-18
7.54146e-18
8.16671e-18
7.51928e-18
8.2966e-18
7.46312e-18
8.61697e-18
7.65669e-18
9.09963e-18
8.25982e-18
9.81066e-18
8.96197e-18
1.2329e-17
7.62823e-18
1.90521e-17
6.78297e-18
2.6863e-17
2.04493e-17
8.20075e-18
9.83076e-17
1.12087e-16
4.03252e-17
2.88773e-17
2.38173e-17
2.32872e-17
2.16889e-17
2.02746e-17
1.81223e-17
1.72727e-17
1.58907e-17
1.5485e-17
1.44381e-17
1.44102e-17
1.34416e-17
1.346e-17
1.24557e-17
1.26663e-17
1.18623e-17
1.18292e-17
1.13198e-17
1.11763e-17
1.06546e-17
1.07758e-17
9.82136e-18
1.05071e-17
9.18037e-18
1.0192e-17
8.7991e-18
9.74665e-18
8.53689e-18
9.29605e-18
8.32324e-18
8.92105e-18
8.13209e-18
8.57624e-18
7.98426e-18
8.32138e-18
7.82822e-18
8.18724e-18
7.64046e-18
8.13978e-18
7.54112e-18
8.16926e-18
7.5193e-18
8.29972e-18
7.46319e-18
8.62095e-18
7.65757e-18
9.1037e-18
8.26285e-18
9.81655e-18
8.96394e-18
1.23456e-17
7.62276e-18
1.90808e-17
6.79221e-18
2.68253e-17
2.06113e-17
8.3861e-18
9.80439e-17
1.10948e-16
4.02876e-17
2.87642e-17
2.37642e-17
2.32808e-17
2.17002e-17
2.02822e-17
1.81298e-17
1.72746e-17
1.58926e-17
1.54864e-17
1.44393e-17
1.44113e-17
1.34424e-17
1.34613e-17
1.24562e-17
1.26672e-17
1.18634e-17
1.18299e-17
1.13212e-17
1.11773e-17
1.06556e-17
1.07776e-17
9.82199e-18
1.0509e-17
9.18097e-18
1.01936e-17
8.79988e-18
9.74836e-18
8.53767e-18
9.29784e-18
8.32389e-18
8.92286e-18
8.13268e-18
8.57824e-18
7.98476e-18
8.32363e-18
7.82855e-18
8.18989e-18
7.64071e-18
8.14278e-18
7.54139e-18
8.17242e-18
7.52016e-18
8.30357e-18
7.46414e-18
8.62584e-18
7.6593e-18
9.10864e-18
8.26724e-18
9.82255e-18
8.96765e-18
1.23621e-17
7.61855e-18
1.9102e-17
6.80287e-18
2.67469e-17
2.07688e-17
8.62516e-18
9.80209e-17
1.09693e-16
4.02983e-17
2.8537e-17
2.36414e-17
2.32448e-17
2.16955e-17
2.02798e-17
1.81325e-17
1.72732e-17
1.5893e-17
1.5487e-17
1.44399e-17
1.44118e-17
1.34427e-17
1.3462e-17
1.24562e-17
1.26673e-17
1.18643e-17
1.183e-17
1.13225e-17
1.1178e-17
1.06565e-17
1.07794e-17
9.82246e-18
1.05111e-17
9.18151e-18
1.01952e-17
8.80071e-18
9.75006e-18
8.53853e-18
9.29961e-18
8.3246e-18
8.9246e-18
8.13334e-18
8.58016e-18
7.98532e-18
8.32579e-18
7.82891e-18
8.19241e-18
7.64101e-18
8.14559e-18
7.54168e-18
8.17523e-18
7.52114e-18
8.30697e-18
7.46506e-18
8.63018e-18
7.6607e-18
9.11274e-18
8.27089e-18
9.82677e-18
8.96987e-18
1.23734e-17
7.61335e-18
1.90998e-17
6.81845e-18
2.65931e-17
2.08855e-17
8.88109e-18
9.81089e-17
1.0837e-16
4.02905e-17
2.81751e-17
2.34298e-17
2.31611e-17
2.16617e-17
2.02585e-17
1.81245e-17
1.72649e-17
1.58892e-17
1.54845e-17
1.44382e-17
1.441e-17
1.34411e-17
1.34608e-17
1.24547e-17
1.26659e-17
1.18641e-17
1.1829e-17
1.13232e-17
1.11779e-17
1.06568e-17
1.07809e-17
9.82251e-18
1.05128e-17
9.18177e-18
1.01965e-17
8.80135e-18
9.75158e-18
8.53927e-18
9.30126e-18
8.3252e-18
8.92618e-18
8.1339e-18
8.58194e-18
7.98577e-18
8.3278e-18
7.82913e-18
8.19474e-18
7.64118e-18
8.14812e-18
7.54182e-18
8.17756e-18
7.52205e-18
8.30972e-18
7.46571e-18
8.63369e-18
7.66126e-18
9.1158e-18
8.27251e-18
9.82917e-18
8.96819e-18
1.23785e-17
7.60545e-18
1.90651e-17
6.84202e-18
2.63431e-17
2.09375e-17
9.12132e-18
9.81831e-17
1.07094e-16
4.01714e-17
2.76749e-17
2.31252e-17
2.302e-17
2.15899e-17
2.02113e-17
1.81007e-17
1.7246e-17
1.58786e-17
1.54768e-17
1.44322e-17
1.44044e-17
1.34364e-17
1.34568e-17
1.24507e-17
1.2662e-17
1.18622e-17
1.18261e-17
1.13225e-17
1.11765e-17
1.06561e-17
1.07815e-17
9.82181e-18
1.05141e-17
9.18145e-18
1.01975e-17
8.80152e-18
9.75283e-18
8.53961e-18
9.30272e-18
8.32545e-18
8.92758e-18
8.13417e-18
8.58357e-18
7.98596e-18
8.32966e-18
7.82909e-18
8.19686e-18
7.64112e-18
8.15033e-18
7.54169e-18
8.17933e-18
7.52276e-18
8.31164e-18
7.46589e-18
8.6362e-18
7.66052e-18
9.11767e-18
8.27106e-18
9.82966e-18
8.96072e-18
1.23761e-17
7.5936e-18
1.89911e-17
6.87604e-18
2.59839e-17
2.0914e-17
9.31629e-18
9.80986e-17
1.06004e-16
3.98599e-17
2.70397e-17
2.27352e-17
2.28192e-17
2.14759e-17
2.01336e-17
1.80571e-17
1.72135e-17
1.58587e-17
1.5462e-17
1.44205e-17
1.43937e-17
1.34274e-17
1.34488e-17
1.24435e-17
1.26547e-17
1.18579e-17
1.18208e-17
1.132e-17
1.11733e-17
1.0654e-17
1.0781e-17
9.82004e-18
1.05145e-17
9.18028e-18
1.01977e-17
8.80096e-18
9.75368e-18
8.53931e-18
9.3039e-18
8.32515e-18
8.92871e-18
8.13398e-18
8.58497e-18
7.98573e-18
8.3313e-18
7.82863e-18
8.19868e-18
7.64067e-18
8.15212e-18
7.54117e-18
8.18039e-18
7.52311e-18
8.31251e-18
7.46535e-18
8.63741e-18
7.65801e-18
9.11795e-18
8.26572e-18
9.82761e-18
8.9462e-18
1.23647e-17
7.57751e-18
1.88731e-17
6.92231e-18
2.55104e-17
2.08166e-17
9.44205e-18
9.77188e-17
1.05243e-16
3.92995e-17
2.62763e-17
2.22747e-17
2.25622e-17
2.132e-17
2.00242e-17
1.79916e-17
1.71654e-17
1.5828e-17
1.54385e-17
1.44019e-17
1.43768e-17
1.34134e-17
1.34361e-17
1.24324e-17
1.26436e-17
1.18505e-17
1.18125e-17
1.1315e-17
1.11679e-17
1.06501e-17
1.07788e-17
9.81692e-18
1.05137e-17
9.17798e-18
1.01971e-17
8.79939e-18
9.75397e-18
8.53814e-18
9.30467e-18
8.32408e-18
8.92946e-18
8.13314e-18
8.58604e-18
7.98491e-18
8.33262e-18
7.82761e-18
8.20011e-18
7.6397e-18
8.15332e-18
7.54013e-18
8.18053e-18
7.52294e-18
8.31209e-18
7.46383e-18
8.63702e-18
7.65339e-18
9.11611e-18
8.25612e-18
9.82217e-18
8.92434e-18
1.23425e-17
7.55802e-18
1.87096e-17
6.98184e-18
2.49272e-17
2.06594e-17
9.48315e-18
9.6938e-17
1.04938e-16
3.84724e-17
2.5394e-17
2.17602e-17
2.22562e-17
2.11259e-17
1.98842e-17
1.79037e-17
1.71007e-17
1.57853e-17
1.54056e-17
1.43756e-17
1.43531e-17
1.33938e-17
1.34181e-17
1.24171e-17
1.2628e-17
1.18398e-17
1.18008e-17
1.13073e-17
1.11599e-17
1.06441e-17
1.07746e-17
9.81217e-18
1.05114e-17
9.17431e-18
1.01955e-17
8.79658e-18
9.75355e-18
8.53587e-18
9.3049e-18
8.32208e-18
8.92972e-18
8.13151e-18
8.58667e-18
7.98337e-18
8.3335e-18
7.82588e-18
8.20101e-18
7.63809e-18
8.1538e-18
7.53846e-18
8.17957e-18
7.52212e-18
8.31014e-18
7.46118e-18
8.6347e-18
7.6466e-18
9.11158e-18
8.24241e-18
9.81247e-18
8.89579e-18
1.23083e-17
7.53689e-18
1.8502e-17
7.05496e-18
2.42471e-17
2.04636e-17
9.43199e-18
9.57105e-17
1.05193e-16
3.73977e-17
2.44065e-17
2.12083e-17
2.19101e-17
2.08994e-17
1.97167e-17
1.77944e-17
1.70196e-17
1.57304e-17
1.53627e-17
1.43412e-17
1.43221e-17
1.33683e-17
1.33946e-17
1.23973e-17
1.26078e-17
1.18256e-17
1.17857e-17
1.12966e-17
1.1149e-17
1.06356e-17
1.07683e-17
9.80559e-18
1.05075e-17
9.16906e-18
1.01926e-17
8.79233e-18
9.75227e-18
8.53233e-18
9.30448e-18
8.319e-18
8.92936e-18
8.12897e-18
8.58674e-18
7.981e-18
8.33382e-18
7.82338e-18
8.20125e-18
7.63577e-18
8.15339e-18
7.53612e-18
8.17733e-18
7.52056e-18
8.30649e-18
7.45736e-18
8.6302e-18
7.6378e-18
9.10383e-18
8.22515e-18
9.79778e-18
8.86193e-18
1.22613e-17
7.51617e-18
1.8255e-17
7.14136e-18
2.34892e-17
2.02527e-17
9.28862e-18
9.40515e-17
1.06083e-16
3.61172e-17
2.33304e-17
2.06327e-17
2.15325e-17
2.06467e-17
1.95259e-17
1.7666e-17
1.6923e-17
1.56636e-17
1.53101e-17
1.4299e-17
1.42838e-17
1.33368e-17
1.33654e-17
1.23731e-17
1.2583e-17
1.18077e-17
1.17668e-17
1.12827e-17
1.11352e-17
1.06247e-17
1.07596e-17
9.79703e-18
1.05018e-17
9.1621e-18
1.01884e-17
8.7865e-18
9.75003e-18
8.52742e-18
9.30326e-18
8.31474e-18
8.92825e-18
8.12544e-18
8.58612e-18
7.97776e-18
8.33346e-18
7.82005e-18
8.20069e-18
7.63272e-18
8.15195e-18
7.53311e-18
8.17367e-18
7.51826e-18
8.301e-18
7.45242e-18
8.62329e-18
7.62731e-18
9.0925e-18
8.20513e-18
9.77761e-18
8.82445e-18
1.22016e-17
7.4978e-18
1.79747e-17
7.24025e-18
2.26751e-17
2.00486e-17
9.05847e-18
9.20191e-17
1.07648e-16
3.46825e-17
2.21853e-17
2.00443e-17
2.11312e-17
2.03738e-17
1.93161e-17
1.75209e-17
1.68124e-17
1.55858e-17
1.52481e-17
1.42491e-17
1.42385e-17
1.32996e-17
1.33306e-17
1.23445e-17
1.25536e-17
1.17862e-17
1.17444e-17
1.12657e-17
1.11184e-17
1.06112e-17
1.07485e-17
9.7864e-18
1.04942e-17
9.15332e-18
1.01828e-17
8.77902e-18
9.74669e-18
8.52106e-18
9.30114e-18
8.30927e-18
8.92628e-18
8.1209e-18
8.58469e-18
7.97362e-18
8.33229e-18
7.81589e-18
8.19922e-18
7.62896e-18
8.14934e-18
7.52944e-18
8.1685e-18
7.51524e-18
8.2936e-18
7.4465e-18
8.61383e-18
7.61552e-18
9.07737e-18
8.18317e-18
9.75172e-18
8.78502e-18
1.21296e-17
7.48323e-18
1.76678e-17
7.3506e-18
2.18253e-17
1.98685e-17
8.75213e-18
8.96966e-17
1.09901e-16
3.31438e-17
2.09926e-17
1.9452e-17
2.07129e-17
2.00859e-17
1.90915e-17
1.73618e-17
1.66894e-17
1.54978e-17
1.51774e-17
1.4192e-17
1.41865e-17
1.32569e-17
1.32905e-17
1.23116e-17
1.25197e-17
1.17612e-17
1.17185e-17
1.12456e-17
1.10987e-17
1.0595e-17
1.07349e-17
9.77366e-18
1.04847e-17
9.14271e-18
1.01757e-17
8.76988e-18
9.74217e-18
8.51327e-18
9.298e-18
8.30258e-18
8.92333e-18
8.11537e-18
8.58233e-18
7.9686e-18
8.33019e-18
7.81094e-18
8.19671e-18
7.62451e-18
8.14546e-18
7.52518e-18
8.16175e-18
7.51156e-18
8.28424e-18
7.43976e-18
8.60176e-18
7.60283e-18
9.05841e-18
8.16002e-18
9.72011e-18
8.74508e-18
1.20463e-17
7.47333e-18
1.73412e-17
7.47123e-18
2.0958e-17
1.97244e-17
8.38374e-18
8.71732e-17
1.1282e-16
3.15473e-17
1.97748e-17
1.88619e-17
2.02827e-17
1.97872e-17
1.88556e-17
1.71913e-17
1.65557e-17
1.54007e-17
1.50987e-17
1.41284e-17
1.41284e-17
1.32092e-17
1.32454e-17
1.22748e-17
1.24817e-17
1.17329e-17
1.16894e-17
1.12224e-17
1.10763e-17
1.05763e-17
1.07191e-17
9.75883e-18
1.04733e-17
9.13028e-18
1.0167e-17
8.7591e-18
9.73636e-18
8.50409e-18
9.29374e-18
8.29474e-18
8.91929e-18
8.10889e-18
8.57894e-18
7.96276e-18
8.32707e-18
7.80524e-18
8.19308e-18
7.61946e-18
8.14024e-18
7.52038e-18
8.15339e-18
7.50729e-18
8.27293e-18
7.43237e-18
8.58709e-18
7.58952e-18
9.0357e-18
8.13626e-18
9.68297e-18
8.70573e-18
1.19528e-17
7.46846e-18
1.70008e-17
7.60101e-18
2.00878e-17
1.96234e-17
7.9708e-18
8.45339e-17
1.1636e-16
2.99307e-17
1.85543e-17
1.82786e-17
1.9845e-17
1.94807e-17
1.86112e-17
1.70114e-17
1.64129e-17
1.52955e-17
1.50127e-17
1.40587e-17
1.40645e-17
1.31566e-17
1.31956e-17
1.22343e-17
1.24398e-17
1.17015e-17
1.16572e-17
1.11964e-17
1.10513e-17
1.05551e-17
1.0701e-17
9.74194e-18
1.04599e-17
9.11609e-18
1.01567e-17
8.7468e-18
9.72919e-18
8.49361e-18
9.28825e-18
8.28582e-18
8.91408e-18
8.10152e-18
8.57444e-18
7.95615e-18
8.32284e-18
7.79886e-18
8.18827e-18
7.61384e-18
8.13363e-18
7.5151e-18
8.14344e-18
7.50247e-18
8.25971e-18
7.42446e-18
8.56992e-18
7.57582e-18
9.00946e-18
8.1123e-18
9.64062e-18
8.66767e-18
1.18504e-17
7.46857e-18
1.66515e-17
7.73881e-18
1.92268e-17
1.95686e-17
7.53186e-18
8.18512e-17
1.2045e-16
2.83252e-17
1.7353e-17
1.77049e-17
1.9403e-17
1.91691e-17
1.83607e-17
1.6824e-17
1.62624e-17
1.51831e-17
1.492e-17
1.39835e-17
1.39953e-17
1.30998e-17
1.31415e-17
1.21904e-17
1.23942e-17
1.1667e-17
1.16221e-17
1.11676e-17
1.10239e-17
1.05315e-17
1.06809e-17
9.72307e-18
1.04448e-17
9.10026e-18
1.01448e-17
8.73308e-18
9.72059e-18
8.48195e-18
9.28148e-18
8.27593e-18
8.90763e-18
8.09335e-18
8.56877e-18
7.94885e-18
8.31746e-18
7.79186e-18
8.18222e-18
7.60771e-18
8.12564e-18
7.50937e-18
8.13193e-18
7.49714e-18
8.24463e-18
7.41611e-18
8.55035e-18
7.56182e-18
8.97993e-18
8.08838e-18
9.59345e-18
8.63132e-18
1.17404e-17
7.47335e-18
1.62973e-17
7.88358e-18
1.83837e-17
1.956e-17
7.0858e-18
7.91857e-17
1.24999e-16
2.67547e-17
1.61912e-17
1.71427e-17
1.89594e-17
1.88542e-17
1.81058e-17
1.66308e-17
1.61053e-17
1.50643e-17
1.48215e-17
1.39032e-17
1.39214e-17
1.30389e-17
1.30834e-17
1.21432e-17
1.23454e-17
1.16298e-17
1.15845e-17
1.11361e-17
1.09943e-17
1.05056e-17
1.06588e-17
9.70231e-18
1.04279e-17
9.08289e-18
1.01313e-17
8.7181e-18
9.71048e-18
8.46925e-18
9.27335e-18
8.26516e-18
8.89989e-18
8.08447e-18
8.56187e-18
7.94091e-18
8.31089e-18
7.78428e-18
8.17494e-18
7.60112e-18
8.11627e-18
7.5032e-18
8.1189e-18
7.49133e-18
8.22777e-18
7.40735e-18
8.52854e-18
7.54759e-18
8.94737e-18
8.06465e-18
9.54185e-18
8.59684e-18
1.16238e-17
7.48229e-18
1.59413e-17
8.03423e-18
1.75652e-17
1.95947e-17
6.64989e-18
7.65836e-17
1.29897e-16
2.52383e-17
1.5088e-17
1.65934e-17
1.85163e-17
1.85372e-17
1.7848e-17
1.64329e-17
1.59428e-17
1.494e-17
1.47175e-17
1.38184e-17
1.38432e-17
1.29744e-17
1.30217e-17
1.20931e-17
1.22935e-17
1.15899e-17
1.15445e-17
1.11022e-17
1.09628e-17
1.04774e-17
1.0635e-17
9.67975e-18
1.04094e-17
9.06413e-18
1.01161e-17
8.70201e-18
9.69883e-18
8.45565e-18
9.26381e-18
8.25363e-18
8.89083e-18
8.07495e-18
8.55373e-18
7.93241e-18
8.30312e-18
7.77619e-18
8.16642e-18
7.59407e-18
8.10556e-18
7.49659e-18
8.10443e-18
7.48502e-18
8.20923e-18
7.39821e-18
8.50462e-18
7.53313e-18
8.91202e-18
8.04116e-18
9.48621e-18
8.56423e-18
1.15017e-17
7.49482e-18
1.5586e-17
8.18965e-18
1.67759e-17
1.96676e-17
6.23949e-18
7.40775e-17
1.35016e-16
2.37897e-17
1.40594e-17
1.60578e-17
1.80754e-17
1.82193e-17
1.75884e-17
1.62313e-17
1.57758e-17
1.48108e-17
1.46087e-17
1.37293e-17
1.3761e-17
1.29065e-17
1.29568e-17
1.20403e-17
1.22388e-17
1.15475e-17
1.15023e-17
1.1066e-17
1.09295e-17
1.04472e-17
1.06096e-17
9.6555e-18
1.03892e-17
9.04413e-18
1.00993e-17
8.68499e-18
9.68559e-18
8.44129e-18
9.25284e-18
8.24145e-18
8.88043e-18
8.06487e-18
8.54433e-18
7.92339e-18
8.29416e-18
7.7676e-18
8.15668e-18
7.58657e-18
8.09355e-18
7.48954e-18
8.08857e-18
7.4782e-18
8.18909e-18
7.38866e-18
8.47875e-18
7.5184e-18
8.8741e-18
8.01791e-18
9.42692e-18
8.53335e-18
1.13752e-17
7.51031e-18
1.52331e-17
8.34869e-18
1.60192e-17
1.97715e-17
5.86675e-18
7.16869e-17
1.4022e-16
2.24194e-17
1.3118e-17
1.55361e-17
1.76381e-17
1.79011e-17
1.73278e-17
1.60271e-17
1.56052e-17
1.46774e-17
1.44956e-17
1.36364e-17
1.36752e-17
1.28356e-17
1.28889e-17
1.1985e-17
1.21817e-17
1.15028e-17
1.14582e-17
1.10276e-17
1.08946e-17
1.04149e-17
1.05828e-17
9.62968e-18
1.03674e-17
9.02305e-18
1.00809e-17
8.66719e-18
9.67074e-18
8.42629e-18
9.24041e-18
8.22871e-18
8.86869e-18
8.05428e-18
8.5337e-18
7.91388e-18
8.284e-18
7.75853e-18
8.14576e-18
7.57863e-18
8.08028e-18
7.48201e-18
8.07138e-18
7.47083e-18
8.16743e-18
7.37867e-18
8.45104e-18
7.50337e-18
8.8338e-18
7.99488e-18
9.36431e-18
8.50397e-18
1.12451e-17
7.52815e-18
1.4884e-17
8.51013e-18
1.52969e-17
1.98982e-17
5.54064e-18
6.94219e-17
1.45365e-16
2.11348e-17
1.22731e-17
1.50287e-17
1.72056e-17
1.75833e-17
1.7067e-17
1.5821e-17
1.54317e-17
1.45403e-17
1.43787e-17
1.35401e-17
1.35862e-17
1.27619e-17
1.28184e-17
1.19273e-17
1.21223e-17
1.14559e-17
1.14123e-17
1.09871e-17
1.08584e-17
1.03808e-17
1.05546e-17
9.60242e-18
1.03442e-17
9.00102e-18
1.00608e-17
8.64876e-18
9.65427e-18
8.4108e-18
9.22651e-18
8.2155e-18
8.85562e-18
8.04325e-18
8.52184e-18
7.90391e-18
8.27269e-18
7.749e-18
8.13368e-18
7.57023e-18
8.06582e-18
7.47398e-18
8.05294e-18
7.46288e-18
8.14434e-18
7.36819e-18
8.42161e-18
7.48801e-18
8.79126e-18
7.97203e-18
9.29872e-18
8.47584e-18
1.11121e-17
7.54776e-18
1.45398e-17
8.67266e-18
1.46099e-17
2.0038e-17
5.26665e-18
6.72833e-17
1.50305e-16
1.99404e-17
1.15304e-17
1.45359e-17
1.67789e-17
1.72663e-17
1.68064e-17
1.56137e-17
1.5256e-17
1.44002e-17
1.42585e-17
1.34406e-17
1.34944e-17
1.26857e-17
1.27455e-17
1.18677e-17
1.2061e-17
1.14071e-17
1.13648e-17
1.09447e-17
1.08209e-17
1.03449e-17
1.05252e-17
9.57386e-18
1.03196e-17
8.9782e-18
1.00391e-17
8.62983e-18
9.63618e-18
8.3949e-18
9.21117e-18
8.20189e-18
8.84125e-18
8.03181e-18
8.50878e-18
7.89351e-18
8.26026e-18
7.73901e-18
8.12049e-18
7.56134e-18
8.05022e-18
7.46543e-18
8.0333e-18
7.45432e-18
8.11989e-18
7.35719e-18
8.39056e-18
7.47229e-18
8.74661e-18
7.94932e-18
9.23045e-18
8.44867e-18
1.0977e-17
7.56859e-18
1.4201e-17
8.83494e-18
1.39581e-17
2.01805e-17
5.04744e-18
6.52632e-17
1.54895e-16
1.88391e-17
1.08915e-17
1.4058e-17
1.6359e-17
1.69506e-17
1.65466e-17
1.54056e-17
1.50787e-17
1.42576e-17
1.41355e-17
1.33385e-17
1.33999e-17
1.26072e-17
1.26706e-17
1.18062e-17
1.19979e-17
1.13565e-17
1.13159e-17
1.09005e-17
1.07824e-17
1.03073e-17
1.04947e-17
9.54411e-18
1.02935e-17
8.95473e-18
1.00158e-17
8.61054e-18
9.61649e-18
8.3787e-18
9.19441e-18
8.18794e-18
8.8256e-18
8.02e-18
8.49457e-18
7.88269e-18
8.24674e-18
7.72856e-18
8.10625e-18
7.55197e-18
8.03353e-18
7.45633e-18
8.01252e-18
7.44512e-18
8.09418e-18
7.34563e-18
8.35797e-18
7.4562e-18
8.69997e-18
7.92671e-18
9.15984e-18
8.42219e-18
1.08405e-17
7.59019e-18
1.38684e-17
8.99558e-18
1.33411e-17
2.0315e-17
4.88311e-18
6.3347e-17
1.59004e-16
1.7832e-17
1.03547e-17
1.35954e-17
1.59467e-17
1.66366e-17
1.6288e-17
1.51975e-17
1.49004e-17
1.4113e-17
1.40101e-17
1.32339e-17
1.33033e-17
1.25266e-17
1.25938e-17
1.1743e-17
1.19332e-17
1.13042e-17
1.12658e-17
1.08547e-17
1.0743e-17
1.02683e-17
1.04633e-17
9.51334e-18
1.02662e-17
8.93075e-18
9.9909e-18
8.591e-18
9.59524e-18
8.36228e-18
9.17625e-18
8.17372e-18
8.80873e-18
8.00786e-18
8.47924e-18
7.87148e-18
8.23218e-18
7.71766e-18
8.09099e-18
7.54209e-18
8.0158e-18
7.44667e-18
7.99066e-18
7.43525e-18
8.06728e-18
7.3335e-18
8.32393e-18
7.43977e-18
8.65146e-18
7.90416e-18
9.08719e-18
8.39614e-18
1.0703e-17
7.61215e-18
1.35423e-17
9.15318e-18
1.27576e-17
2.04311e-17
4.77187e-18
6.15163e-17
1.62511e-16
1.69192e-17
9.91496e-18
1.31483e-17
1.55429e-17
1.63246e-17
1.60309e-17
1.49897e-17
1.47217e-17
1.39671e-17
1.38829e-17
1.31273e-17
1.32047e-17
1.24443e-17
1.25155e-17
1.16784e-17
1.18673e-17
1.12505e-17
1.12146e-17
1.08073e-17
1.07027e-17
1.02278e-17
1.04309e-17
9.48167e-18
1.02376e-17
8.90638e-18
9.96449e-18
8.57129e-18
9.57246e-18
8.34571e-18
9.15675e-18
8.15928e-18
8.79068e-18
7.99541e-18
8.46285e-18
7.85987e-18
8.21663e-18
7.70631e-18
8.07478e-18
7.53171e-18
7.9971e-18
7.43645e-18
7.96779e-18
7.42471e-18
8.03926e-18
7.32079e-18
8.2885e-18
7.42301e-18
8.60118e-18
7.88163e-18
9.01283e-18
8.3703e-18
1.05651e-17
7.63414e-18
1.3223e-17
9.30632e-18
1.22062e-17
2.05196e-17
4.71049e-18
5.97503e-17
1.65314e-16
1.60993e-17
9.56499e-18
1.27171e-17
1.51482e-17
1.60151e-17
1.57758e-17
1.47827e-17
1.4543e-17
1.38202e-17
1.37542e-17
1.30191e-17
1.31045e-17
1.23604e-17
1.24359e-17
1.16126e-17
1.18003e-17
1.11955e-17
1.11625e-17
1.07586e-17
1.06619e-17
1.01861e-17
1.03978e-17
9.44925e-18
1.02077e-17
8.88173e-18
9.93662e-18
8.55151e-18
9.54823e-18
8.32906e-18
9.13595e-18
8.14466e-18
8.77151e-18
7.98268e-18
8.44545e-18
7.84789e-18
8.20015e-18
7.69451e-18
8.05766e-18
7.52082e-18
7.97747e-18
7.42567e-18
7.94397e-18
7.4135e-18
8.01022e-18
7.30752e-18
8.25178e-18
7.40599e-18
8.54928e-18
7.85912e-18
8.9371e-18
8.34447e-18
1.04273e-17
7.65592e-18
1.29109e-17
9.45364e-18
1.16851e-17
2.05717e-17
4.69499e-18
5.80253e-17
1.67331e-16
1.53701e-17
9.29538e-18
1.23022e-17
1.47634e-17
1.57085e-17
1.55228e-17
1.45769e-17
1.43647e-17
1.36728e-17
1.36246e-17
1.29096e-17
1.30029e-17
1.22753e-17
1.23551e-17
1.15458e-17
1.17324e-17
1.11394e-17
1.11097e-17
1.07086e-17
1.06204e-17
1.01434e-17
1.03639e-17
9.41621e-18
1.01767e-17
8.85692e-18
9.90736e-18
8.53173e-18
9.52262e-18
8.31237e-18
9.11393e-18
8.12991e-18
8.75127e-18
7.96971e-18
8.42711e-18
7.83556e-18
8.18279e-18
7.68228e-18
8.03971e-18
7.50946e-18
7.95699e-18
7.41435e-18
7.91927e-18
7.40163e-18
7.98025e-18
7.29373e-18
8.21383e-18
7.38877e-18
8.4959e-18
7.83661e-18
8.86033e-18
8.31853e-18
1.029e-17
7.67729e-18
1.26063e-17
9.59385e-18
1.11926e-17
2.05802e-17
4.72108e-18
5.63174e-17
1.68501e-16
1.47287e-17
9.09533e-18
1.1904e-17
1.43891e-17
1.54052e-17
1.52725e-17
1.43727e-17
1.41873e-17
1.35253e-17
1.34944e-17
1.27992e-17
1.29003e-17
1.2189e-17
1.22735e-17
1.14781e-17
1.16638e-17
1.10824e-17
1.10564e-17
1.06576e-17
1.05786e-17
1.00996e-17
1.03294e-17
9.3827e-18
1.01447e-17
8.83205e-18
9.87678e-18
8.51201e-18
9.49569e-18
8.29571e-18
9.09074e-18
8.11506e-18
8.73004e-18
7.95652e-18
8.40788e-18
7.8229e-18
8.16463e-18
7.66965e-18
8.02097e-18
7.49763e-18
7.9357e-18
7.40252e-18
7.89377e-18
7.38912e-18
7.94943e-18
7.27948e-18
8.17474e-18
7.37142e-18
8.44122e-18
7.81409e-18
8.78286e-18
8.29241e-18
1.01536e-17
7.69809e-18
1.23093e-17
9.72574e-18
1.07271e-17
2.054e-17
4.78451e-18
5.46042e-17
1.6879e-16
1.41713e-17
8.95326e-18
1.15228e-17
1.4026e-17
1.51059e-17
1.5025e-17
1.41705e-17
1.40111e-17
1.33782e-17
1.33639e-17
1.26881e-17
1.2797e-17
1.21019e-17
1.21911e-17
1.14098e-17
1.15947e-17
1.10246e-17
1.10025e-17
1.06057e-17
1.05364e-17
1.00551e-17
1.02943e-17
9.34885e-18
1.01116e-17
8.8072e-18
9.84498e-18
8.4924e-18
9.46755e-18
8.2791e-18
9.06648e-18
8.10017e-18
8.7079e-18
7.94315e-18
8.38785e-18
7.80994e-18
8.14572e-18
7.65664e-18
8.00151e-18
7.48538e-18
7.91368e-18
7.39023e-18
7.86756e-18
7.37604e-18
7.91787e-18
7.26484e-18
8.13463e-18
7.35403e-18
8.38543e-18
7.79158e-18
8.70504e-18
8.26606e-18
1.00184e-17
7.71822e-18
1.20202e-17
9.84821e-18
1.02871e-17
2.04475e-17
4.88127e-18
5.28663e-17
1.68188e-16
1.36935e-17
8.85768e-18
1.11589e-17
1.36744e-17
1.48108e-17
1.47809e-17
1.39705e-17
1.38364e-17
1.32318e-17
1.32336e-17
1.25768e-17
1.26933e-17
1.20142e-17
1.21083e-17
1.1341e-17
1.15252e-17
1.09662e-17
1.09484e-17
1.05529e-17
1.04939e-17
1.00099e-17
1.02587e-17
9.31476e-18
1.00776e-17
8.78245e-18
9.81204e-18
8.47296e-18
9.43828e-18
8.26259e-18
9.04121e-18
8.08525e-18
8.6849e-18
7.92963e-18
8.36707e-18
7.79671e-18
8.12614e-18
7.64328e-18
7.9814e-18
7.47275e-18
7.891e-18
7.3775e-18
7.84072e-18
7.36242e-18
7.88566e-18
7.2499e-18
8.0936e-18
7.33669e-18
8.32875e-18
7.76912e-18
8.62717e-18
8.23949e-18
9.88492e-18
7.73759e-18
1.17394e-17
9.96029e-18
9.87122e-18
2.03012e-17
5.00765e-18
5.10861e-17
1.66708e-16
1.329e-17
8.79744e-18
1.08125e-17
1.33349e-17
1.45206e-17
1.45403e-17
1.37732e-17
1.36635e-17
1.30863e-17
1.31039e-17
1.24656e-17
1.25893e-17
1.19262e-17
1.20251e-17
1.12719e-17
1.14555e-17
1.09074e-17
1.08941e-17
1.04996e-17
1.04513e-17
9.96414e-18
1.02225e-17
9.28056e-18
1.00427e-17
8.75789e-18
9.77808e-18
8.45372e-18
9.40799e-18
8.24622e-18
9.01502e-18
8.07036e-18
8.66113e-18
7.91599e-18
8.34564e-18
7.78325e-18
8.10596e-18
7.62963e-18
7.96071e-18
7.45979e-18
7.86774e-18
7.36441e-18
7.81335e-18
7.34835e-18
7.85291e-18
7.23476e-18
8.05178e-18
7.31949e-18
8.27139e-18
7.74673e-18
8.54958e-18
8.21277e-18
9.75332e-18
7.75616e-18
1.14671e-17
1.00612e-17
9.47855e-18
2.0101e-17
5.16038e-18
4.925e-17
1.64381e-16
1.29551e-17
8.76213e-18
1.04838e-17
1.30077e-17
1.42356e-17
1.43036e-17
1.35788e-17
1.34928e-17
1.29422e-17
1.29748e-17
1.23546e-17
1.24854e-17
1.18379e-17
1.19417e-17
1.12026e-17
1.13857e-17
1.08482e-17
1.08398e-17
1.04458e-17
1.04086e-17
9.91804e-18
1.0186e-17
9.24635e-18
1.00071e-17
8.73356e-18
9.7432e-18
8.43473e-18
9.37677e-18
8.23e-18
8.988e-18
8.05552e-18
8.63667e-18
7.90227e-18
8.32361e-18
7.76959e-18
8.08525e-18
7.61573e-18
7.9395e-18
7.44655e-18
7.84398e-18
7.35101e-18
7.78555e-18
7.3339e-18
7.81972e-18
7.21953e-18
8.00929e-18
7.30252e-18
8.21359e-18
7.72447e-18
8.47255e-18
8.18597e-18
9.62395e-18
7.77385e-18
1.12036e-17
1.01502e-17
9.10833e-18
1.98487e-17
5.33652e-18
4.73482e-17
1.61262e-16
1.26828e-17
8.74234e-18
1.01729e-17
1.26932e-17
1.39564e-17
1.40711e-17
1.33876e-17
1.33243e-17
1.27996e-17
1.28469e-17
1.22443e-17
1.23817e-17
1.17497e-17
1.18584e-17
1.11333e-17
1.1316e-17
1.07888e-17
1.07855e-17
1.03917e-17
1.03658e-17
9.8717e-18
1.0149e-17
9.21223e-18
9.97082e-18
8.70952e-18
9.70751e-18
8.41602e-18
9.34473e-18
8.21398e-18
8.96023e-18
8.04076e-18
8.6116e-18
7.88852e-18
8.30106e-18
7.75578e-18
8.06408e-18
7.60163e-18
7.91785e-18
7.4331e-18
7.81979e-18
7.33736e-18
7.7574e-18
7.31915e-18
7.78619e-18
7.2043e-18
7.96628e-18
7.28585e-18
8.15558e-18
7.70239e-18
8.39634e-18
8.15918e-18
9.49709e-18
7.79062e-18
1.09493e-17
1.0227e-17
8.7601e-18
1.95479e-17
5.53336e-18
4.53761e-17
1.5742e-16
1.24664e-17
8.73021e-18
9.87976e-18
1.23914e-17
1.36833e-17
1.38432e-17
1.31999e-17
1.31584e-17
1.26588e-17
1.27202e-17
1.21348e-17
1.22786e-17
1.16618e-17
1.17752e-17
1.10641e-17
1.12465e-17
1.07294e-17
1.07314e-17
1.03375e-17
1.0323e-17
9.82525e-18
1.01118e-17
9.17828e-18
9.93391e-18
8.68582e-18
9.6711e-18
8.39761e-18
9.31198e-18
8.19818e-18
8.93181e-18
8.02613e-18
8.58599e-18
7.87475e-18
8.27808e-18
7.74186e-18
8.04252e-18
7.58739e-18
7.89582e-18
7.41949e-18
7.79526e-18
7.32354e-18
7.729e-18
7.30421e-18
7.75242e-18
7.18919e-18
7.9229e-18
7.26958e-18
8.09759e-18
7.68059e-18
8.32121e-18
8.13253e-18
9.37301e-18
7.80642e-18
1.07044e-17
1.0291e-17
8.43371e-18
1.92027e-17
5.74814e-18
4.3333e-17
1.52936e-16
1.22993e-17
8.71925e-18
9.60437e-18
1.21025e-17
1.34168e-17
1.362e-17
1.30159e-17
1.29953e-17
1.25199e-17
1.25949e-17
1.20263e-17
1.21762e-17
1.15742e-17
1.16923e-17
1.09952e-17
1.11773e-17
1.06701e-17
1.06774e-17
1.02831e-17
1.02804e-17
9.7788e-18
1.00742e-17
9.14458e-18
9.89648e-18
8.66249e-18
9.63409e-18
8.37953e-18
9.2786e-18
8.18261e-18
8.90281e-18
8.01163e-18
8.55993e-18
7.86101e-18
8.25473e-18
7.72788e-18
8.02063e-18
7.57306e-18
7.87348e-18
7.40578e-18
7.77047e-18
7.3096e-18
7.70045e-18
7.28915e-18
7.71852e-18
7.1743e-18
7.87929e-18
7.25377e-18
8.03985e-18
7.65912e-18
8.24736e-18
8.10613e-18
9.25194e-18
7.82118e-18
1.04692e-17
1.03422e-17
8.12919e-18
1.88186e-17
5.97816e-18
4.12223e-17
1.47901e-16
1.21742e-17
8.70437e-18
9.34659e-18
1.18264e-17
1.31572e-17
1.34019e-17
1.28359e-17
1.2835e-17
1.23832e-17
1.24713e-17
1.19191e-17
1.20746e-17
1.14873e-17
1.16099e-17
1.09266e-17
1.11085e-17
1.06109e-17
1.06239e-17
1.02288e-17
1.02378e-17
9.73248e-18
1.00365e-17
9.1112e-18
9.85862e-18
8.63957e-18
9.59657e-18
8.3618e-18
9.24471e-18
8.16732e-18
8.87333e-18
7.99731e-18
8.53349e-18
7.84734e-18
8.23108e-18
7.71389e-18
7.99849e-18
7.5587e-18
7.85091e-18
7.39204e-18
7.74551e-18
7.29563e-18
7.67182e-18
7.27408e-18
7.68458e-18
7.15972e-18
7.83561e-18
7.23848e-18
7.98257e-18
7.63806e-18
8.17499e-18
8.08009e-18
9.13411e-18
7.83484e-18
1.0244e-17
1.03806e-17
7.84678e-18
1.84014e-17
6.22051e-18
3.9051e-17
1.42412e-16
1.20843e-17
8.68175e-18
9.10617e-18
1.15632e-17
1.29047e-17
1.31891e-17
1.266e-17
1.26778e-17
1.22487e-17
1.23495e-17
1.18133e-17
1.19741e-17
1.14011e-17
1.1528e-17
1.08585e-17
1.10401e-17
1.05519e-17
1.05706e-17
1.01748e-17
1.01953e-17
9.68638e-18
9.99855e-18
9.07819e-18
9.82039e-18
8.61708e-18
9.55865e-18
8.34444e-18
9.21039e-18
8.15231e-18
8.84344e-18
7.98319e-18
8.50675e-18
7.83377e-18
8.2072e-18
7.69992e-18
7.97616e-18
7.54437e-18
7.82818e-18
7.37833e-18
7.72044e-18
7.28169e-18
7.64321e-18
7.25908e-18
7.65071e-18
7.14555e-18
7.79201e-18
7.22378e-18
7.92595e-18
7.61751e-18
8.10427e-18
8.05452e-18
9.01974e-18
7.84733e-18
1.00289e-17
1.04061e-17
7.58679e-18
1.79574e-17
6.47208e-18
3.683e-17
1.36568e-16
1.20226e-17
8.64912e-18
8.88285e-18
1.13127e-17
1.26597e-17
1.29817e-17
1.24884e-17
1.25237e-17
1.21167e-17
1.22296e-17
1.1709e-17
1.18748e-17
1.13157e-17
1.14468e-17
1.0791e-17
1.09724e-17
1.04933e-17
1.05178e-17
1.0121e-17
1.01531e-17
9.6406e-18
9.96051e-18
9.0456e-18
9.78189e-18
8.59503e-18
9.52041e-18
8.32746e-18
9.17573e-18
8.13761e-18
8.81324e-18
7.96929e-18
8.47977e-18
7.82032e-18
8.18315e-18
7.68603e-18
7.95369e-18
7.53011e-18
7.80534e-18
7.36469e-18
7.69535e-18
7.26785e-18
7.61468e-18
7.24425e-18
7.61698e-18
7.13185e-18
7.74863e-18
7.2097e-18
7.87015e-18
7.59753e-18
8.03533e-18
8.02951e-18
8.909e-18
7.85857e-18
9.82416e-18
1.04191e-17
7.34963e-18
1.74928e-17
6.72927e-18
3.45729e-17
1.30468e-16
1.19825e-17
8.60526e-18
8.67636e-18
1.10748e-17
1.24225e-17
1.278e-17
1.23212e-17
1.2373e-17
1.19871e-17
1.21117e-17
1.16063e-17
1.17767e-17
1.12314e-17
1.13665e-17
1.0724e-17
1.09052e-17
1.04352e-17
1.04655e-17
1.00676e-17
1.01111e-17
9.59523e-18
9.92239e-18
9.01349e-18
9.74317e-18
8.57346e-18
9.48194e-18
8.31088e-18
9.14083e-18
8.12322e-18
8.78279e-18
7.95563e-18
8.45263e-18
7.80704e-18
8.15899e-18
7.67226e-18
7.93115e-18
7.51598e-18
7.78246e-18
7.35119e-18
7.67031e-18
7.25417e-18
7.58632e-18
7.22965e-18
7.5835e-18
7.1187e-18
7.70561e-18
7.1963e-18
7.81536e-18
7.5782e-18
7.9683e-18
8.00515e-18
8.80206e-18
7.86848e-18
9.6299e-18
1.04197e-17
7.13568e-18
1.70136e-17
6.9883e-18
3.22965e-17
1.24209e-16
1.19572e-17
8.54991e-18
8.48632e-18
1.08493e-17
1.21931e-17
1.2584e-17
1.21586e-17
1.22256e-17
1.18601e-17
1.1996e-17
1.15054e-17
1.16801e-17
1.11482e-17
1.1287e-17
1.06579e-17
1.08387e-17
1.03775e-17
1.04137e-17
1.00147e-17
1.00694e-17
9.55033e-18
9.88424e-18
8.98189e-18
9.70431e-18
8.55236e-18
9.44332e-18
8.2947e-18
9.10575e-18
8.10917e-18
8.75217e-18
7.94223e-18
8.42538e-18
7.79395e-18
8.13478e-18
7.65865e-18
7.90858e-18
7.50202e-18
7.75959e-18
7.33787e-18
7.64537e-18
7.24071e-18
7.55817e-18
7.21538e-18
7.55035e-18
7.10615e-18
7.66308e-18