/*--------------------------------*- C++ -*----------------------------------*\
| =========                 |                                                 |
| \\      /  F ield         | OpenFOAM: The Open Source CFD Toolbox           |
|  \\    /   O peration     | Version:  2312                                  |
|   \\  /    A nd           | Website:  www.openfoam.com                      |
|    \\/     M anipulation  |                                                 |
\*---------------------------------------------------------------------------*/
FoamFile
{
    version     2.0;
    format      ascii;
    arch        "LSB;label=32;scalar=64";
    class       volScalarField;
    location    "200";
    object      k;
}
// * * * * * * * * * * * * * * * * * * * * * * * * * * * * * * * * * * * * * //

dimensions      [0 2 -2 0 0 0 0];

internalField   nonuniform List<scalar> 
144000
(
2.11112e-05
2.11058e-05
2.11137e-05
2.11024e-05
2.11865e-05
2.11066e-05
2.11915e-05
2.11822e-05
2.11917e-05
2.11162e-05
2.11107e-05
2.11074e-05
2.1114e-05
2.11082e-05
2.11838e-05
2.11852e-05
2.11113e-05
2.11131e-05
2.11098e-05
2.11836e-05
2.11831e-05
2.11171e-05
2.11108e-05
2.11908e-05
2.11158e-05
2.1107e-05
2.11851e-05
2.11138e-05
2.11063e-05
2.11813e-05
2.10994e-05
2.11926e-05
2.11143e-05
2.11932e-05
2.11847e-05
2.11975e-05
2.11208e-05
2.11958e-05
2.112e-05
2.1113e-05
2.1192e-05
2.11054e-05
2.11159e-05
2.11092e-05
2.11894e-05
2.11868e-05
2.11124e-05
2.11195e-05
2.11089e-05
2.11132e-05
2.11016e-05
2.11793e-05
2.11068e-05
2.11177e-05
2.1182e-05
2.11888e-05
2.11105e-05
2.11136e-05
2.11056e-05
2.11027e-05
4.14628e-05
4.14538e-05
4.14619e-05
4.14556e-05
4.1409e-05
4.14387e-05
4.14142e-05
4.13893e-05
4.13886e-05
4.1436e-05
4.14535e-05
4.14513e-05
4.14585e-05
4.1457e-05
4.14143e-05
4.13919e-05
4.14317e-05
4.14519e-05
4.14593e-05
4.14152e-05
4.13826e-05
4.14308e-05
4.14544e-05
4.14121e-05
4.14453e-05
4.14563e-05
4.14097e-05
4.14441e-05
4.14545e-05
4.14086e-05
4.14313e-05
4.14042e-05
4.14432e-05
4.14164e-05
4.13917e-05
4.13937e-05
4.14452e-05
4.14147e-05
4.14463e-05
4.1458e-05
4.14187e-05
4.14372e-05
4.1457e-05
4.14566e-05
4.14179e-05
4.13948e-05
4.14307e-05
4.146e-05
4.14576e-05
4.14632e-05
4.14575e-05
4.14042e-05
4.14295e-05
4.14607e-05
4.14133e-05
4.13935e-05
4.14323e-05
4.14505e-05
4.14542e-05
4.14502e-05
4.89097e-05
4.88992e-05
4.89011e-05
4.89016e-05
4.88451e-05
4.88737e-05
4.88434e-05
4.88171e-05
4.88031e-05
4.88527e-05
4.88865e-05
4.88888e-05
4.88941e-05
4.88978e-05
4.88533e-05
4.88175e-05
4.88564e-05
4.8881e-05
4.88979e-05
4.88555e-05
4.8808e-05
4.88482e-05
4.88868e-05
4.88399e-05
4.88709e-05
4.88963e-05
4.88437e-05
4.88731e-05
4.88952e-05
4.88462e-05
4.88714e-05
4.88289e-05
4.88699e-05
4.88429e-05
4.88175e-05
4.88054e-05
4.88626e-05
4.88351e-05
4.88685e-05
4.88919e-05
4.88494e-05
4.88724e-05
4.88896e-05
4.88961e-05
4.88525e-05
4.88203e-05
4.88538e-05
4.88869e-05
4.88955e-05
4.89011e-05
4.8905e-05
4.88458e-05
4.88621e-05
4.88919e-05
4.88515e-05
4.88163e-05
4.88576e-05
4.88792e-05
4.88945e-05
4.88934e-05
5.1381e-05
5.13724e-05
5.13667e-05
5.13717e-05
5.13288e-05
5.13434e-05
5.13208e-05
5.13012e-05
5.1279e-05
5.13086e-05
5.13443e-05
5.13529e-05
5.13559e-05
5.13634e-05
5.13357e-05
5.12991e-05
5.1321e-05
5.13394e-05
5.13598e-05
5.13371e-05
5.12932e-05
5.13102e-05
5.1346e-05
5.13152e-05
5.13308e-05
5.13597e-05
5.13239e-05
5.13369e-05
5.13602e-05
5.1328e-05
5.13452e-05
5.13085e-05
5.13327e-05
5.13162e-05
5.12989e-05
5.12784e-05
5.13181e-05
5.13038e-05
5.13253e-05
5.13515e-05
5.13245e-05
5.13402e-05
5.13504e-05
5.13615e-05
5.13323e-05
5.13009e-05
5.13181e-05
5.13422e-05
5.13578e-05
5.13622e-05
5.13734e-05
5.1333e-05
5.13356e-05
5.13517e-05
5.13319e-05
5.12962e-05
5.13217e-05
5.13381e-05
5.13581e-05
5.13597e-05
5.16219e-05
5.16168e-05
5.16067e-05
5.16122e-05
5.15847e-05
5.15893e-05
5.15732e-05
5.15616e-05
5.15384e-05
5.15504e-05
5.15763e-05
5.15893e-05
5.15915e-05
5.16e-05
5.15871e-05
5.15586e-05
5.1567e-05
5.15761e-05
5.1594e-05
5.15851e-05
5.15573e-05
5.15593e-05
5.15803e-05
5.15653e-05
5.15714e-05
5.15937e-05
5.15759e-05
5.15797e-05
5.15966e-05
5.15798e-05
5.15921e-05
5.15658e-05
5.15757e-05
5.15653e-05
5.15565e-05
5.15358e-05
5.15575e-05
5.15508e-05
5.15622e-05
5.15851e-05
5.1572e-05
5.15826e-05
5.1587e-05
5.15987e-05
5.15836e-05
5.15587e-05
5.15649e-05
5.15762e-05
5.15925e-05
5.1596e-05
5.16094e-05
5.1589e-05
5.15848e-05
5.15897e-05
5.15817e-05
5.15557e-05
5.15672e-05
5.15754e-05
5.15928e-05
5.15962e-05
5.07865e-05
5.07839e-05
5.07742e-05
5.07775e-05
5.0761e-05
5.07608e-05
5.07488e-05
5.07421e-05
5.07247e-05
5.07269e-05
5.07388e-05
5.07522e-05
5.07541e-05
5.07618e-05
5.0757e-05
5.07406e-05
5.0742e-05
5.07447e-05
5.07554e-05
5.07535e-05
5.07418e-05
5.0736e-05
5.07462e-05
5.07397e-05
5.07416e-05
5.07551e-05
5.07489e-05
5.07497e-05
5.07598e-05
5.07523e-05
5.0762e-05
5.07457e-05
5.07477e-05
5.07395e-05
5.07356e-05
5.07206e-05
5.07298e-05
5.07254e-05
5.07313e-05
5.07466e-05
5.0742e-05
5.07506e-05
5.07521e-05
5.07614e-05
5.07549e-05
5.07394e-05
5.07411e-05
5.07435e-05
5.07546e-05
5.07573e-05
5.07691e-05
5.07615e-05
5.07589e-05
5.07568e-05
5.07532e-05
5.07375e-05
5.07417e-05
5.07443e-05
5.07549e-05
5.07586e-05
4.93868e-05
4.93857e-05
4.93781e-05
4.93789e-05
4.93689e-05
4.93674e-05
4.93576e-05
4.9354e-05
4.93434e-05
4.934e-05
4.93439e-05
4.93534e-05
4.93549e-05
4.9361e-05
4.93598e-05
4.9353e-05
4.93517e-05
4.93521e-05
4.93568e-05
4.93567e-05
4.9354e-05
4.9348e-05
4.93517e-05
4.93488e-05
4.93492e-05
4.93557e-05
4.9355e-05
4.9355e-05
4.93608e-05
4.93579e-05
4.93656e-05
4.9357e-05
4.9356e-05
4.93485e-05
4.93472e-05
4.93381e-05
4.93409e-05
4.9337e-05
4.93395e-05
4.93479e-05
4.9347e-05
4.93541e-05
4.93545e-05
4.93612e-05
4.93589e-05
4.93514e-05
4.93521e-05
4.9351e-05
4.93565e-05
4.93578e-05
4.93662e-05
4.93646e-05
4.93656e-05
4.93617e-05
4.93596e-05
4.93506e-05
4.9352e-05
4.93521e-05
4.93567e-05
4.93595e-05
4.76585e-05
4.76579e-05
4.76523e-05
4.76511e-05
4.76441e-05
4.76429e-05
4.76354e-05
4.76331e-05
4.76271e-05
4.76227e-05
4.76232e-05
4.76279e-05
4.76286e-05
4.76327e-05
4.76328e-05
4.7631e-05
4.76311e-05
4.76302e-05
4.76315e-05
4.76314e-05
4.76312e-05
4.7629e-05
4.76292e-05
4.76272e-05
4.76274e-05
4.76295e-05
4.763e-05
4.763e-05
4.76335e-05
4.76327e-05
4.76387e-05
4.76345e-05
4.76336e-05
4.76275e-05
4.7627e-05
4.7622e-05
4.76224e-05
4.76189e-05
4.76197e-05
4.76232e-05
4.7623e-05
4.76285e-05
4.76287e-05
4.76332e-05
4.76327e-05
4.763e-05
4.76314e-05
4.76293e-05
4.76317e-05
4.76318e-05
4.76366e-05
4.76366e-05
4.76402e-05
4.76366e-05
4.76353e-05
4.76304e-05
4.76312e-05
4.76306e-05
4.76319e-05
4.76335e-05
4.57148e-05
4.57141e-05
4.57095e-05
4.57076e-05
4.57018e-05
4.57009e-05
4.56956e-05
4.56939e-05
4.56903e-05
4.56873e-05
4.56856e-05
4.56881e-05
4.56881e-05
4.56904e-05
4.56904e-05
4.56906e-05
4.56914e-05
4.5691e-05
4.5691e-05
4.569e-05
4.56915e-05
4.5691e-05
4.569e-05
4.56876e-05
4.56886e-05
4.56885e-05
4.56891e-05
4.56892e-05
4.5691e-05
4.5691e-05
4.56954e-05
4.56936e-05
4.56939e-05
4.56896e-05
4.56891e-05
4.56861e-05
4.56862e-05
4.56833e-05
4.56829e-05
4.56843e-05
4.56837e-05
4.56875e-05
4.56876e-05
4.56903e-05
4.56904e-05
4.569e-05
4.56921e-05
4.56903e-05
4.56913e-05
4.56912e-05
4.56929e-05
4.5693e-05
4.56972e-05
4.56948e-05
4.56937e-05
4.56911e-05
4.56923e-05
4.56918e-05
4.56913e-05
4.56924e-05
4.36149e-05
4.36139e-05
4.36098e-05
4.36077e-05
4.36025e-05
4.36018e-05
4.3598e-05
4.35965e-05
4.35944e-05
4.35924e-05
4.35906e-05
4.3592e-05
4.3592e-05
4.35927e-05
4.35926e-05
4.35929e-05
4.35943e-05
4.35941e-05
4.35936e-05
4.3592e-05
4.35938e-05
4.35938e-05
4.35932e-05
4.35914e-05
4.35924e-05
4.35922e-05
4.35915e-05
4.35922e-05
4.35924e-05
4.35924e-05
4.35957e-05
4.35953e-05
4.35961e-05
4.35932e-05
4.35927e-05
4.3591e-05
4.35913e-05
4.35889e-05
4.35892e-05
4.35891e-05
4.3588e-05
4.35905e-05
4.35905e-05
4.35919e-05
4.35919e-05
4.35921e-05
4.35945e-05
4.35936e-05
4.35943e-05
4.35939e-05
4.35937e-05
4.35935e-05
4.35972e-05
4.35959e-05
4.35946e-05
4.35937e-05
4.35951e-05
4.35946e-05
4.35947e-05
4.3595e-05
4.13939e-05
4.13929e-05
4.13893e-05
4.13872e-05
4.13825e-05
4.13819e-05
4.13789e-05
4.13775e-05
4.13762e-05
4.1375e-05
4.13739e-05
4.1375e-05
4.1375e-05
4.13751e-05
4.13748e-05
4.13743e-05
4.13758e-05
4.13757e-05
4.13751e-05
4.13735e-05
4.13751e-05
4.1375e-05
4.1375e-05
4.1374e-05
4.13749e-05
4.13745e-05
4.13735e-05
4.13739e-05
4.1374e-05
4.13736e-05
4.1376e-05
4.13759e-05
4.13769e-05
4.13749e-05
4.13745e-05
4.13736e-05
4.13742e-05
4.13728e-05
4.1373e-05
4.13729e-05
4.13714e-05
4.1373e-05
4.13729e-05
4.13733e-05
4.13732e-05
4.13735e-05
4.13757e-05
4.13752e-05
4.13759e-05
4.13753e-05
4.13747e-05
4.13738e-05
4.13769e-05
4.13762e-05
4.13748e-05
4.13752e-05
4.13761e-05
4.13761e-05
4.13759e-05
4.13764e-05
3.90776e-05
3.90767e-05
3.90737e-05
3.90718e-05
3.90677e-05
3.9067e-05
3.90646e-05
3.90632e-05
3.90623e-05
3.90617e-05
3.90618e-05
3.90624e-05
3.90624e-05
3.90621e-05
3.90611e-05
3.90607e-05
3.90621e-05
3.9062e-05
3.90616e-05
3.90602e-05
3.90611e-05
3.90614e-05
3.90614e-05
3.9061e-05
3.90618e-05
3.90614e-05
3.90604e-05
3.90609e-05
3.90607e-05
3.90601e-05
3.90617e-05
3.90616e-05
3.90624e-05
3.9061e-05
3.90608e-05
3.90609e-05
3.9061e-05
3.90603e-05
3.90608e-05
3.90606e-05
3.90593e-05
3.90603e-05
3.90603e-05
3.90601e-05
3.90601e-05
3.906e-05
3.90617e-05
3.90615e-05
3.9062e-05
3.90616e-05
3.90608e-05
3.90597e-05
3.90621e-05
3.90617e-05
3.90608e-05
3.90606e-05
3.90619e-05
3.90618e-05
3.9062e-05
3.90621e-05
3.66878e-05
3.66871e-05
3.66848e-05
3.66831e-05
3.66796e-05
3.66789e-05
3.66769e-05
3.66756e-05
3.6675e-05
3.66755e-05
3.66754e-05
3.6676e-05
3.66759e-05
3.66754e-05
3.66741e-05
3.66738e-05
3.6675e-05
3.66749e-05
3.66747e-05
3.66737e-05
3.66742e-05
3.66744e-05
3.66745e-05
3.66742e-05
3.66749e-05
3.66746e-05
3.66738e-05
3.66743e-05
3.66741e-05
3.66733e-05
3.66743e-05
3.66743e-05
3.66749e-05
3.66738e-05
3.66743e-05
3.66741e-05
3.66746e-05
3.6674e-05
3.66744e-05
3.66743e-05
3.66733e-05
3.66741e-05
3.6674e-05
3.66735e-05
3.66731e-05
3.66726e-05
3.66743e-05
3.66742e-05
3.66747e-05
3.66744e-05
3.66737e-05
3.66727e-05
3.66745e-05
3.66742e-05
3.66733e-05
3.66737e-05
3.66742e-05
3.66742e-05
3.66743e-05
3.66745e-05
3.42451e-05
3.42446e-05
3.42428e-05
3.42414e-05
3.42386e-05
3.4238e-05
3.42363e-05
3.42351e-05
3.42354e-05
3.42355e-05
3.42353e-05
3.4236e-05
3.42359e-05
3.42354e-05
3.42343e-05
3.42339e-05
3.42349e-05
3.42349e-05
3.42346e-05
3.42338e-05
3.42344e-05
3.42345e-05
3.42345e-05
3.42344e-05
3.42349e-05
3.42347e-05
3.42341e-05
3.42344e-05
3.42343e-05
3.42335e-05
3.42342e-05
3.42341e-05
3.42345e-05
3.42339e-05
3.42343e-05
3.42343e-05
3.42347e-05
3.42342e-05
3.42346e-05
3.42346e-05
3.42339e-05
3.42345e-05
3.42343e-05
3.42338e-05
3.42331e-05
3.42327e-05
3.4234e-05
3.4234e-05
3.42344e-05
3.42342e-05
3.42337e-05
3.42329e-05
3.42342e-05
3.42341e-05
3.42335e-05
3.42332e-05
3.42339e-05
3.42339e-05
3.42339e-05
3.42342e-05
3.17695e-05
3.17692e-05
3.1768e-05
3.17669e-05
3.17647e-05
3.17642e-05
3.17628e-05
3.17621e-05
3.17623e-05
3.17622e-05
3.17623e-05
3.17628e-05
3.17627e-05
3.17625e-05
3.17617e-05
3.17612e-05
3.17619e-05
3.17618e-05
3.17616e-05
3.17611e-05
3.17615e-05
3.17615e-05
3.17616e-05
3.17615e-05
3.17619e-05
3.17618e-05
3.17613e-05
3.17616e-05
3.17614e-05
3.17607e-05
3.17612e-05
3.17611e-05
3.17614e-05
3.17609e-05
3.17612e-05
3.17612e-05
3.17616e-05
3.17613e-05
3.17616e-05
3.17615e-05
3.17611e-05
3.17616e-05
3.17615e-05
3.17612e-05
3.17605e-05
3.17601e-05
3.17611e-05
3.17611e-05
3.17614e-05
3.17613e-05
3.17609e-05
3.17602e-05
3.17613e-05
3.17611e-05
3.17606e-05
3.17607e-05
3.17608e-05
3.17608e-05
3.17609e-05
3.17611e-05
2.92814e-05
2.92812e-05
2.92805e-05
2.92797e-05
2.92782e-05
2.92778e-05
2.92768e-05
2.92762e-05
2.92764e-05
2.92765e-05
2.92764e-05
2.92768e-05
2.92768e-05
2.92767e-05
2.92762e-05
2.92758e-05
2.92763e-05
2.92762e-05
2.92761e-05
2.92756e-05
2.92759e-05
2.92759e-05
2.9276e-05
2.92759e-05
2.92763e-05
2.92762e-05
2.92759e-05
2.92761e-05
2.92759e-05
2.92753e-05
2.92756e-05
2.92755e-05
2.92757e-05
2.92753e-05
2.92754e-05
2.92754e-05
2.92758e-05
2.92756e-05
2.92757e-05
2.92758e-05
2.92754e-05
2.92759e-05
2.92758e-05
2.92757e-05
2.92752e-05
2.92749e-05
2.92756e-05
2.92756e-05
2.92758e-05
2.92757e-05
2.92755e-05
2.9275e-05
2.92757e-05
2.92757e-05
2.92753e-05
2.92751e-05
2.92754e-05
2.92754e-05
2.92755e-05
2.92756e-05
2.68014e-05
2.68013e-05
2.68009e-05
2.68005e-05
2.67994e-05
2.67993e-05
2.67986e-05
2.67982e-05
2.67984e-05
2.67984e-05
2.67984e-05
2.67987e-05
2.67987e-05
2.67987e-05
2.67985e-05
2.67982e-05
2.67985e-05
2.67985e-05
2.67984e-05
2.6798e-05
2.67982e-05
2.67982e-05
2.67983e-05
2.67983e-05
2.67985e-05
2.67985e-05
2.67982e-05
2.67984e-05
2.67982e-05
2.67977e-05
2.67979e-05
2.67978e-05
2.67979e-05
2.67976e-05
2.67976e-05
2.67976e-05
2.67979e-05
2.67978e-05
2.67978e-05
2.67979e-05
2.67977e-05
2.6798e-05
2.6798e-05
2.6798e-05
2.67977e-05
2.67976e-05
2.6798e-05
2.67981e-05
2.67982e-05
2.67981e-05
2.67979e-05
2.67976e-05
2.67981e-05
2.67981e-05
2.67977e-05
2.67978e-05
2.67979e-05
2.67979e-05
2.67979e-05
2.6798e-05
2.435e-05
2.43501e-05
2.435e-05
2.43498e-05
2.43493e-05
2.43492e-05
2.43489e-05
2.43487e-05
2.43488e-05
2.43489e-05
2.4349e-05
2.43492e-05
2.43494e-05
2.43494e-05
2.43493e-05
2.43492e-05
2.43494e-05
2.43493e-05
2.43492e-05
2.4349e-05
2.4349e-05
2.43491e-05
2.43493e-05
2.43492e-05
2.43493e-05
2.43493e-05
2.43491e-05
2.43492e-05
2.4349e-05
2.43487e-05
2.43487e-05
2.43486e-05
2.43487e-05
2.43484e-05
2.43484e-05
2.43484e-05
2.43487e-05
2.43486e-05
2.43486e-05
2.43487e-05
2.43485e-05
2.43487e-05
2.43487e-05
2.43487e-05
2.43487e-05
2.43487e-05
2.4349e-05
2.43491e-05
2.43492e-05
2.43491e-05
2.4349e-05
2.43488e-05
2.43491e-05
2.43491e-05
2.43489e-05
2.43488e-05
2.43489e-05
2.4349e-05
2.4349e-05
2.4349e-05
2.1948e-05
2.19481e-05
2.19483e-05
2.19484e-05
2.19482e-05
2.19483e-05
2.19482e-05
2.19482e-05
2.19484e-05
2.19487e-05
2.19489e-05
2.19492e-05
2.19495e-05
2.19494e-05
2.19493e-05
2.19493e-05
2.19494e-05
2.19493e-05
2.19493e-05
2.19491e-05
2.19491e-05
2.19492e-05
2.19494e-05
2.19493e-05
2.19493e-05
2.19493e-05
2.19492e-05
2.19492e-05
2.19491e-05
2.19489e-05
2.19489e-05
2.19487e-05
2.19487e-05
2.19485e-05
2.19485e-05
2.19485e-05
2.19487e-05
2.19486e-05
2.19486e-05
2.19488e-05
2.19485e-05
2.19486e-05
2.19487e-05
2.19489e-05
2.1949e-05
2.1949e-05
2.19491e-05
2.19493e-05
2.19495e-05
2.19494e-05
2.19494e-05
2.19492e-05
2.19493e-05
2.19493e-05
2.19492e-05
2.19492e-05
2.19492e-05
2.19493e-05
2.19492e-05
2.19492e-05
1.96158e-05
1.96159e-05
1.96163e-05
1.96167e-05
1.96169e-05
1.96172e-05
1.96173e-05
1.96176e-05
1.96178e-05
1.96184e-05
1.96185e-05
1.9619e-05
1.9619e-05
1.9619e-05
1.96189e-05
1.9619e-05
1.9619e-05
1.96189e-05
1.96189e-05
1.96189e-05
1.96189e-05
1.96189e-05
1.9619e-05
1.96189e-05
1.96189e-05
1.9619e-05
1.96188e-05
1.96188e-05
1.96186e-05
1.96186e-05
1.96186e-05
1.96184e-05
1.96184e-05
1.96182e-05
1.96182e-05
1.96182e-05
1.96184e-05
1.96183e-05
1.96183e-05
1.96184e-05
1.96182e-05
1.96182e-05
1.96184e-05
1.96186e-05
1.96189e-05
1.96189e-05
1.9619e-05
1.96191e-05
1.96195e-05
1.96193e-05
1.96193e-05
1.96191e-05
1.96192e-05
1.96191e-05
1.96191e-05
1.9619e-05
1.96191e-05
1.96192e-05
1.9619e-05
1.96191e-05
1.73733e-05
1.73734e-05
1.73738e-05
1.73746e-05
1.73749e-05
1.73755e-05
1.73759e-05
1.73764e-05
1.73767e-05
1.73774e-05
1.73776e-05
1.73782e-05
1.7378e-05
1.7378e-05
1.7378e-05
1.7378e-05
1.7378e-05
1.73779e-05
1.73779e-05
1.73778e-05
1.73778e-05
1.73779e-05
1.73782e-05
1.7378e-05
1.7378e-05
1.73779e-05
1.73779e-05
1.73778e-05
1.73777e-05
1.73777e-05
1.73778e-05
1.73776e-05
1.73776e-05
1.73775e-05
1.73775e-05
1.73775e-05
1.73776e-05
1.73775e-05
1.73775e-05
1.73777e-05
1.73773e-05
1.73774e-05
1.73774e-05
1.73777e-05
1.73781e-05
1.73778e-05
1.73779e-05
1.7378e-05
1.73786e-05
1.73786e-05
1.73787e-05
1.73784e-05
1.73785e-05
1.73784e-05
1.73784e-05
1.73784e-05
1.73784e-05
1.73783e-05
1.73783e-05
1.73783e-05
1.52394e-05
1.52395e-05
1.52399e-05
1.52409e-05
1.52414e-05
1.52423e-05
1.52428e-05
1.52435e-05
1.5244e-05
1.52447e-05
1.52452e-05
1.52457e-05
1.52455e-05
1.52455e-05
1.52454e-05
1.52455e-05
1.52455e-05
1.52454e-05
1.52454e-05
1.52454e-05
1.52453e-05
1.52453e-05
1.52457e-05
1.52454e-05
1.52455e-05
1.52455e-05
1.52453e-05
1.52453e-05
1.52452e-05
1.52453e-05
1.52453e-05
1.52453e-05
1.52453e-05
1.52452e-05
1.52451e-05
1.5245e-05
1.5245e-05
1.5245e-05
1.5245e-05
1.5245e-05
1.52449e-05
1.52449e-05
1.52449e-05
1.52451e-05
1.52451e-05
1.52451e-05
1.5245e-05
1.52452e-05
1.52464e-05
1.52463e-05
1.52463e-05
1.52461e-05
1.52461e-05
1.52462e-05
1.52461e-05
1.5246e-05
1.52459e-05
1.5246e-05
1.52459e-05
1.5246e-05
1.32321e-05
1.32322e-05
1.32327e-05
1.32338e-05
1.32345e-05
1.32355e-05
1.32362e-05
1.3237e-05
1.32377e-05
1.32383e-05
1.32393e-05
1.32391e-05
1.32392e-05
1.32394e-05
1.32393e-05
1.32392e-05
1.32392e-05
1.32393e-05
1.32392e-05
1.32393e-05
1.32393e-05
1.32393e-05
1.32392e-05
1.32393e-05
1.32393e-05
1.32392e-05
1.32391e-05
1.32393e-05
1.32391e-05
1.32392e-05
1.32392e-05
1.32392e-05
1.32393e-05
1.32392e-05
1.32391e-05
1.3239e-05
1.3239e-05
1.3239e-05
1.32389e-05
1.32389e-05
1.32388e-05
1.32389e-05
1.32388e-05
1.32389e-05
1.32391e-05
1.32389e-05
1.32389e-05
1.32391e-05
1.32405e-05
1.32403e-05
1.32404e-05
1.32402e-05
1.32402e-05
1.32403e-05
1.324e-05
1.324e-05
1.324e-05
1.32399e-05
1.32399e-05
1.324e-05
1.13684e-05
1.13685e-05
1.13689e-05
1.13702e-05
1.1371e-05
1.13721e-05
1.13729e-05
1.13738e-05
1.13745e-05
1.13754e-05
1.13761e-05
1.13764e-05
1.13771e-05
1.13767e-05
1.13768e-05
1.13767e-05
1.13767e-05
1.13767e-05
1.13766e-05
1.13766e-05
1.13765e-05
1.13765e-05
1.13765e-05
1.13766e-05
1.13765e-05
1.13764e-05
1.13763e-05
1.13765e-05
1.13763e-05
1.13764e-05
1.13762e-05
1.13764e-05
1.13763e-05
1.13762e-05
1.13764e-05
1.13763e-05
1.13761e-05
1.13762e-05
1.13761e-05
1.13761e-05
1.13761e-05
1.13764e-05
1.13762e-05
1.13762e-05
1.13761e-05
1.13764e-05
1.13762e-05
1.13764e-05
1.13775e-05
1.13774e-05
1.13775e-05
1.13774e-05
1.13774e-05
1.13773e-05
1.13773e-05
1.13771e-05
1.13771e-05
1.1377e-05
1.13772e-05
1.13771e-05
9.66382e-06
9.66397e-06
9.66454e-06
9.66584e-06
9.66675e-06
9.66791e-06
9.66868e-06
9.66966e-06
9.67043e-06
9.67144e-06
9.67217e-06
9.67285e-06
9.6735e-06
9.67326e-06
9.67316e-06
9.67309e-06
9.67327e-06
9.67323e-06
9.6732e-06
9.67321e-06
9.6729e-06
9.67287e-06
9.67275e-06
9.67289e-06
9.67276e-06
9.67263e-06
9.67256e-06
9.67257e-06
9.67253e-06
9.6726e-06
9.67249e-06
9.67255e-06
9.67241e-06
9.67237e-06
9.6723e-06
9.67232e-06
9.67232e-06
9.67245e-06
9.67227e-06
9.67223e-06
9.67264e-06
9.67277e-06
9.67248e-06
9.67255e-06
9.6725e-06
9.67254e-06
9.67252e-06
9.67255e-06
9.67292e-06
9.67361e-06
9.6739e-06
9.67342e-06
9.67337e-06
9.67324e-06
9.67323e-06
9.67352e-06
9.6731e-06
9.67307e-06
9.673e-06
9.67303e-06
2.11935e-05
2.11136e-05
2.11178e-05
2.11039e-05
2.11071e-05
2.11025e-05
2.11828e-05
2.11834e-05
2.11239e-05
2.11103e-05
2.11913e-05
2.11107e-05
2.11914e-05
2.11879e-05
2.11214e-05
2.11132e-05
2.11896e-05
2.11177e-05
2.11116e-05
2.11876e-05
2.11812e-05
2.11976e-05
2.1118e-05
2.11156e-05
2.11103e-05
2.11013e-05
2.11087e-05
2.10999e-05
2.1188e-05
2.11015e-05
2.11857e-05
2.11126e-05
2.11105e-05
2.11837e-05
2.11911e-05
2.11175e-05
2.11245e-05
2.11032e-05
2.11918e-05
2.1101e-05
2.11985e-05
2.11062e-05
2.11961e-05
2.11051e-05
2.11077e-05
2.11053e-05
2.11025e-05
2.11027e-05
2.11082e-05
2.11104e-05
2.11772e-05
2.11892e-05
2.11092e-05
2.11941e-05
2.1113e-05
2.11169e-05
2.11865e-05
2.11962e-05
2.11169e-05
2.11892e-05
4.14054e-05
4.14379e-05
4.14636e-05
4.14579e-05
4.14546e-05
4.14524e-05
4.14126e-05
4.13794e-05
4.14366e-05
4.14567e-05
4.14138e-05
4.14438e-05
4.14163e-05
4.13903e-05
4.14386e-05
4.14593e-05
4.14122e-05
4.14465e-05
4.14613e-05
4.14199e-05
4.13861e-05
4.13899e-05
4.14389e-05
4.14565e-05
4.1461e-05
4.14531e-05
4.14556e-05
4.14503e-05
4.14106e-05
4.14351e-05
4.14013e-05
4.14346e-05
4.14563e-05
4.14104e-05
4.13899e-05
4.14301e-05
4.14689e-05
4.14573e-05
4.14152e-05
4.14353e-05
4.14123e-05
4.14377e-05
4.1414e-05
4.14375e-05
4.14488e-05
4.14501e-05
4.1449e-05
4.14486e-05
4.14511e-05
4.14616e-05
4.14099e-05
4.13875e-05
4.14325e-05
4.14093e-05
4.14366e-05
4.14607e-05
4.1415e-05
4.13982e-05
4.14444e-05
4.14088e-05
4.8832e-05
4.88647e-05
4.88946e-05
4.89028e-05
4.88988e-05
4.88976e-05
4.88551e-05
4.88032e-05
4.88486e-05
4.88896e-05
4.88425e-05
4.88749e-05
4.88464e-05
4.88119e-05
4.88537e-05
4.88926e-05
4.88421e-05
4.88719e-05
4.88983e-05
4.88579e-05
4.8817e-05
4.88007e-05
4.88544e-05
4.88842e-05
4.88993e-05
4.88993e-05
4.88985e-05
4.88963e-05
4.88445e-05
4.88733e-05
4.88312e-05
4.88597e-05
4.88918e-05
4.88472e-05
4.88099e-05
4.88453e-05
4.88922e-05
4.88995e-05
4.88482e-05
4.88736e-05
4.88352e-05
4.88691e-05
4.88367e-05
4.887e-05
4.88849e-05
4.88906e-05
4.88912e-05
4.88922e-05
4.88905e-05
4.89012e-05
4.88547e-05
4.88094e-05
4.88576e-05
4.88304e-05
4.88601e-05
4.8892e-05
4.88502e-05
4.88158e-05
4.88671e-05
4.88333e-05
5.13143e-05
5.13312e-05
5.13514e-05
5.1369e-05
5.13677e-05
5.13673e-05
5.13415e-05
5.12901e-05
5.13073e-05
5.13469e-05
5.13174e-05
5.13388e-05
5.13223e-05
5.12914e-05
5.13108e-05
5.13505e-05
5.13183e-05
5.13325e-05
5.13588e-05
5.13365e-05
5.13055e-05
5.12756e-05
5.13098e-05
5.13391e-05
5.13583e-05
5.13676e-05
5.13666e-05
5.13675e-05
5.13268e-05
5.13447e-05
5.13129e-05
5.13248e-05
5.13529e-05
5.13283e-05
5.12904e-05
5.13062e-05
5.13398e-05
5.13635e-05
5.13264e-05
5.13442e-05
5.13112e-05
5.13349e-05
5.13096e-05
5.13343e-05
5.13486e-05
5.13568e-05
5.1359e-05
5.13622e-05
5.13586e-05
5.13654e-05
5.13407e-05
5.12923e-05
5.1322e-05
5.1303e-05
5.13206e-05
5.13495e-05
5.13283e-05
5.12919e-05
5.13262e-05
5.13087e-05
5.15714e-05
5.15768e-05
5.15856e-05
5.16037e-05
5.16059e-05
5.16074e-05
5.15944e-05
5.15585e-05
5.15559e-05
5.15792e-05
5.15658e-05
5.15789e-05
5.15709e-05
5.15505e-05
5.15551e-05
5.15817e-05
5.15675e-05
5.15731e-05
5.15916e-05
5.15831e-05
5.15677e-05
5.15363e-05
5.15514e-05
5.15717e-05
5.15886e-05
5.16037e-05
5.16043e-05
5.16085e-05
5.15817e-05
5.15906e-05
5.15703e-05
5.1572e-05
5.15884e-05
5.15787e-05
5.15519e-05
5.15545e-05
5.15677e-05
5.15965e-05
5.15757e-05
5.15882e-05
5.15645e-05
5.15783e-05
5.15602e-05
5.15752e-05
5.15859e-05
5.15949e-05
5.15978e-05
5.1603e-05
5.16001e-05
5.16024e-05
5.15919e-05
5.15563e-05
5.15682e-05
5.15548e-05
5.15629e-05
5.15822e-05
5.15751e-05
5.15493e-05
5.15665e-05
5.15584e-05
5.07508e-05
5.07509e-05
5.07524e-05
5.0763e-05
5.07679e-05
5.07711e-05
5.07655e-05
5.07473e-05
5.07339e-05
5.07449e-05
5.07389e-05
5.07468e-05
5.07427e-05
5.07326e-05
5.07297e-05
5.07439e-05
5.07398e-05
5.07421e-05
5.07528e-05
5.07504e-05
5.07456e-05
5.07248e-05
5.07277e-05
5.07365e-05
5.07477e-05
5.07628e-05
5.07655e-05
5.07723e-05
5.0757e-05
5.07612e-05
5.075e-05
5.0746e-05
5.07535e-05
5.07504e-05
5.07362e-05
5.07323e-05
5.07343e-05
5.07545e-05
5.0746e-05
5.07563e-05
5.07412e-05
5.07493e-05
5.07365e-05
5.07446e-05
5.07507e-05
5.07586e-05
5.07617e-05
5.07677e-05
5.07668e-05
5.07658e-05
5.0762e-05
5.07411e-05
5.07433e-05
5.07327e-05
5.0736e-05
5.07447e-05
5.07441e-05
5.07303e-05
5.0737e-05
5.07325e-05
4.93622e-05
4.93612e-05
4.93579e-05
4.93626e-05
4.93664e-05
4.93703e-05
4.93683e-05
4.9362e-05
4.93483e-05
4.93514e-05
4.93474e-05
4.9352e-05
4.93492e-05
4.93455e-05
4.93409e-05
4.93472e-05
4.93468e-05
4.93479e-05
4.93533e-05
4.93525e-05
4.93539e-05
4.9344e-05
4.93407e-05
4.9343e-05
4.93481e-05
4.93595e-05
4.93627e-05
4.93707e-05
4.93635e-05
4.93661e-05
4.93604e-05
4.93555e-05
4.93574e-05
4.93564e-05
4.93497e-05
4.93463e-05
4.93413e-05
4.93537e-05
4.93508e-05
4.93595e-05
4.93509e-05
4.93561e-05
4.93474e-05
4.93515e-05
4.93539e-05
4.93593e-05
4.93623e-05
4.93674e-05
4.9368e-05
4.93669e-05
4.93654e-05
4.93552e-05
4.93537e-05
4.93448e-05
4.93464e-05
4.93476e-05
4.93491e-05
4.93427e-05
4.93449e-05
4.93418e-05
4.76418e-05
4.76403e-05
4.76352e-05
4.76361e-05
4.76375e-05
4.76409e-05
4.76401e-05
4.76389e-05
4.76318e-05
4.76301e-05
4.76253e-05
4.76284e-05
4.76257e-05
4.76252e-05
4.76227e-05
4.76239e-05
4.76238e-05
4.76244e-05
4.76267e-05
4.76265e-05
4.76299e-05
4.7626e-05
4.76225e-05
4.76217e-05
4.76238e-05
4.76299e-05
4.76326e-05
4.76397e-05
4.76375e-05
4.764e-05
4.76373e-05
4.76343e-05
4.76327e-05
4.76319e-05
4.76289e-05
4.76274e-05
4.76217e-05
4.76281e-05
4.76267e-05
4.76333e-05
4.76288e-05
4.76327e-05
4.76272e-05
4.76292e-05
4.76298e-05
4.76324e-05
4.76351e-05
4.76377e-05
4.76406e-05
4.76392e-05
4.76386e-05
4.76341e-05
4.76328e-05
4.7626e-05
4.76269e-05
4.76251e-05
4.7626e-05
4.76227e-05
4.76233e-05
4.76209e-05
4.57031e-05
4.57017e-05
4.56967e-05
4.56944e-05
4.56948e-05
4.56968e-05
4.56959e-05
4.56975e-05
4.56946e-05
4.56916e-05
4.56867e-05
4.56888e-05
4.56864e-05
4.56873e-05
4.56866e-05
4.56847e-05
4.56843e-05
4.56848e-05
4.56853e-05
4.56852e-05
4.56885e-05
4.56875e-05
4.56854e-05
4.5684e-05
4.56848e-05
4.56872e-05
4.56889e-05
4.5694e-05
4.5694e-05
4.56967e-05
4.56954e-05
4.56944e-05
4.5692e-05
4.56912e-05
4.56894e-05
4.56902e-05
4.5686e-05
4.56884e-05
4.56871e-05
4.56916e-05
4.56892e-05
4.56922e-05
4.5689e-05
4.56901e-05
4.56902e-05
4.56911e-05
4.5693e-05
4.56939e-05
4.5697e-05
4.56962e-05
4.56955e-05
4.56935e-05
4.56938e-05
4.56894e-05
4.56901e-05
4.56878e-05
4.56868e-05
4.5684e-05
4.56847e-05
4.5683e-05
4.36063e-05
4.36051e-05
4.36005e-05
4.35975e-05
4.35959e-05
4.35971e-05
4.35962e-05
4.35982e-05
4.35972e-05
4.3595e-05
4.35908e-05
4.35923e-05
4.35906e-05
4.35913e-05
4.35912e-05
4.35895e-05
4.35882e-05
4.35884e-05
4.35884e-05
4.35879e-05
4.35904e-05
4.35903e-05
4.35899e-05
4.35887e-05
4.35892e-05
4.35895e-05
4.35904e-05
4.35934e-05
4.35935e-05
4.35964e-05
4.3596e-05
4.35966e-05
4.35955e-05
4.35936e-05
4.3593e-05
4.35943e-05
4.35915e-05
4.35922e-05
4.3591e-05
4.35937e-05
4.35923e-05
4.35946e-05
4.35928e-05
4.35936e-05
4.35936e-05
4.35936e-05
4.3595e-05
4.35951e-05
4.35975e-05
4.3597e-05
4.35959e-05
4.35956e-05
4.35966e-05
4.35938e-05
4.35946e-05
4.35926e-05
4.35905e-05
4.35881e-05
4.35888e-05
4.35877e-05
4.13877e-05
4.13867e-05
4.13829e-05
4.13796e-05
4.13771e-05
4.1377e-05
4.1376e-05
4.13778e-05
4.13776e-05
4.13764e-05
4.13736e-05
4.13745e-05
4.13733e-05
4.13732e-05
4.13737e-05
4.13726e-05
4.13711e-05
4.13712e-05
4.13711e-05
4.13701e-05
4.13718e-05
4.13718e-05
4.1372e-05
4.13718e-05
4.13719e-05
4.13719e-05
4.13723e-05
4.13734e-05
4.13735e-05
4.1376e-05
4.13759e-05
4.13773e-05
4.13766e-05
4.13749e-05
4.13752e-05
4.1376e-05
4.13744e-05
4.13746e-05
4.13734e-05
4.1375e-05
4.13742e-05
4.13759e-05
4.13749e-05
4.13755e-05
4.13756e-05
4.13757e-05
4.13762e-05
4.13763e-05
4.13778e-05
4.13774e-05
4.13762e-05
4.13766e-05
4.13774e-05
4.13758e-05
4.13768e-05
4.13756e-05
4.13732e-05
4.13711e-05
4.13717e-05
4.13709e-05
3.90731e-05
3.90723e-05
3.90693e-05
3.90665e-05
3.90634e-05
3.90629e-05
3.90613e-05
3.90628e-05
3.90628e-05
3.90621e-05
3.90605e-05
3.90612e-05
3.90601e-05
3.90602e-05
3.90604e-05
3.90597e-05
3.90584e-05
3.90586e-05
3.90584e-05
3.90571e-05
3.90581e-05
3.90581e-05
3.90588e-05
3.90587e-05
3.9059e-05
3.9059e-05
3.90589e-05
3.90596e-05
3.90596e-05
3.90612e-05
3.90612e-05
3.90625e-05
3.90622e-05
3.90612e-05
3.90614e-05
3.90622e-05
3.90613e-05
3.90609e-05
3.90595e-05
3.9061e-05
3.90606e-05
3.9062e-05
3.90615e-05
3.90621e-05
3.90621e-05
3.90619e-05
3.90626e-05
3.90626e-05
3.90635e-05
3.90632e-05
3.90622e-05
3.90619e-05
3.90632e-05
3.90622e-05
3.90632e-05
3.90624e-05
3.90605e-05
3.90587e-05
3.90591e-05
3.90584e-05
3.66845e-05
3.66839e-05
3.66817e-05
3.66795e-05
3.66766e-05
3.66758e-05
3.6674e-05
3.66749e-05
3.66749e-05
3.66745e-05
3.66736e-05
3.66742e-05
3.66738e-05
3.66728e-05
3.66737e-05
3.66732e-05
3.66721e-05
3.66722e-05
3.66719e-05
3.66706e-05
3.66712e-05
3.66713e-05
3.66718e-05
3.66718e-05
3.66722e-05
3.66722e-05
3.66724e-05
3.66726e-05
3.66725e-05
3.66736e-05
3.66735e-05
3.66746e-05
3.66744e-05
3.66738e-05
3.66741e-05
3.66746e-05
3.66741e-05
3.66735e-05
3.66723e-05
3.66736e-05
3.66735e-05
3.66747e-05
3.66744e-05
3.66749e-05
3.66748e-05
3.6675e-05
3.66753e-05
3.66754e-05
3.66759e-05
3.66757e-05
3.66746e-05
3.66749e-05
3.66757e-05
3.6675e-05
3.66759e-05
3.66754e-05
3.66741e-05
3.66726e-05
3.66724e-05
3.66716e-05
3.42425e-05
3.42422e-05
3.42408e-05
3.4239e-05
3.42367e-05
3.42359e-05
3.42341e-05
3.42345e-05
3.42344e-05
3.42343e-05
3.42336e-05
3.4234e-05
3.42337e-05
3.4233e-05
3.42338e-05
3.42334e-05
3.42326e-05
3.42322e-05
3.42317e-05
3.42305e-05
3.42312e-05
3.42313e-05
3.42318e-05
3.42318e-05
3.42322e-05
3.42322e-05
3.42322e-05
3.42326e-05
3.42324e-05
3.42333e-05
3.42333e-05
3.4234e-05
3.42339e-05
3.42334e-05
3.42336e-05
3.42342e-05
3.42338e-05
3.42332e-05
3.42323e-05
3.42333e-05
3.42332e-05
3.42343e-05
3.42342e-05
3.42346e-05
3.42346e-05
3.42347e-05
3.42349e-05
3.42349e-05
3.42354e-05
3.42353e-05
3.42346e-05
3.42343e-05
3.42353e-05
3.42348e-05
3.42355e-05
3.42352e-05
3.42344e-05
3.42329e-05
3.42326e-05
3.4232e-05
3.17676e-05
3.17675e-05
3.17666e-05
3.17653e-05
3.17635e-05
3.17628e-05
3.17613e-05
3.17614e-05
3.17615e-05
3.17613e-05
3.17607e-05
3.1761e-05
3.17607e-05
3.17602e-05
3.17609e-05
3.17606e-05
3.17599e-05
3.17593e-05
3.17588e-05
3.17579e-05
3.17584e-05
3.17585e-05
3.17588e-05
3.17588e-05
3.17591e-05
3.17591e-05
3.17592e-05
3.17597e-05
3.17596e-05
3.17602e-05
3.17602e-05
3.17607e-05
3.17607e-05
3.17603e-05
3.17605e-05
3.17609e-05
3.17607e-05
3.17602e-05
3.17595e-05
3.17602e-05
3.17602e-05
3.17611e-05
3.17611e-05
3.17613e-05
3.17614e-05
3.17614e-05
3.17617e-05
3.17617e-05
3.1762e-05
3.17619e-05
3.17614e-05
3.17616e-05
3.17621e-05
3.17618e-05
3.17623e-05
3.17621e-05
3.17615e-05
3.17604e-05
3.17601e-05
3.17595e-05
2.92801e-05
2.92801e-05
2.92796e-05
2.92787e-05
2.92774e-05
2.9277e-05
2.92759e-05
2.92756e-05
2.9276e-05
2.92758e-05
2.92752e-05
2.92754e-05
2.92752e-05
2.92748e-05
2.92753e-05
2.92751e-05
2.92746e-05
2.92741e-05
2.92737e-05
2.92729e-05
2.92732e-05
2.92733e-05
2.92735e-05
2.92735e-05
2.92737e-05
2.92737e-05
2.92738e-05
2.92742e-05
2.92741e-05
2.92746e-05
2.92746e-05
2.9275e-05
2.92749e-05
2.92746e-05
2.92748e-05
2.92752e-05
2.9275e-05
2.92747e-05
2.92741e-05
2.92746e-05
2.92746e-05
2.92753e-05
2.92753e-05
2.92754e-05
2.92755e-05
2.92756e-05
2.92758e-05