/*--------------------------------*- C++ -*----------------------------------*\
| =========                 |                                                 |
| \\      /  F ield         | OpenFOAM: The Open Source CFD Toolbox           |
|  \\    /   O peration     | Version:  2312                                  |
|   \\  /    A nd           | Website:  www.openfoam.com                      |
|    \\/     M anipulation  |                                                 |
\*---------------------------------------------------------------------------*/
FoamFile
{
    version     2.0;
    format      ascii;
    arch        "LSB;label=32;scalar=64";
    class       volScalarField;
    location    "200";
    object      k_0;
}
// * * * * * * * * * * * * * * * * * * * * * * * * * * * * * * * * * * * * * //

dimensions      [0 2 -2 0 0 0 0];

internalField   nonuniform List<scalar> 
144000
(
2.11294e-05
2.1124e-05
2.11319e-05
2.11206e-05
2.12048e-05
2.11247e-05
2.12098e-05
2.12005e-05
2.12099e-05
2.11344e-05
2.11289e-05
2.11256e-05
2.11322e-05
2.11264e-05
2.1202e-05
2.12034e-05
2.11294e-05
2.11313e-05
2.1128e-05
2.12019e-05
2.12014e-05
2.11353e-05
2.1129e-05
2.12091e-05
2.1134e-05
2.11252e-05
2.12033e-05
2.1132e-05
2.11245e-05
2.11996e-05
2.11176e-05
2.12108e-05
2.11325e-05
2.12115e-05
2.1203e-05
2.12158e-05
2.1139e-05
2.12141e-05
2.11382e-05
2.11312e-05
2.12102e-05
2.11236e-05
2.11341e-05
2.11274e-05
2.12077e-05
2.12051e-05
2.11306e-05
2.11376e-05
2.11271e-05
2.11314e-05
2.11198e-05
2.11975e-05
2.1125e-05
2.11359e-05
2.12002e-05
2.12071e-05
2.11287e-05
2.11318e-05
2.11238e-05
2.11209e-05
4.1496e-05
4.1487e-05
4.14951e-05
4.14888e-05
4.14421e-05
4.14719e-05
4.14474e-05
4.14224e-05
4.14217e-05
4.14691e-05
4.14867e-05
4.14845e-05
4.14917e-05
4.14902e-05
4.14475e-05
4.1425e-05
4.14648e-05
4.14851e-05
4.14925e-05
4.14483e-05
4.14157e-05
4.1464e-05
4.14875e-05
4.14453e-05
4.14785e-05
4.14895e-05
4.14428e-05
4.14772e-05
4.14877e-05
4.14417e-05
4.14645e-05
4.14373e-05
4.14764e-05
4.14495e-05
4.14248e-05
4.14268e-05
4.14784e-05
4.14478e-05
4.14794e-05
4.14911e-05
4.14519e-05
4.14704e-05
4.14902e-05
4.14897e-05
4.1451e-05
4.14279e-05
4.14638e-05
4.14931e-05
4.14907e-05
4.14964e-05
4.14906e-05
4.14373e-05
4.14626e-05
4.14939e-05
4.14465e-05
4.14266e-05
4.14654e-05
4.14837e-05
4.14873e-05
4.14834e-05
4.89469e-05
4.89364e-05
4.89384e-05
4.89388e-05
4.88822e-05
4.89109e-05
4.88806e-05
4.88543e-05
4.88402e-05
4.88898e-05
4.89237e-05
4.8926e-05
4.89313e-05
4.8935e-05
4.88905e-05
4.88546e-05
4.88936e-05
4.89182e-05
4.8935e-05
4.88927e-05
4.88452e-05
4.88854e-05
4.8924e-05
4.88771e-05
4.89081e-05
4.89335e-05
4.88809e-05
4.89103e-05
4.89324e-05
4.88834e-05
4.89086e-05
4.88661e-05
4.8907e-05
4.88801e-05
4.88547e-05
4.88425e-05
4.88998e-05
4.88723e-05
4.89057e-05
4.89291e-05
4.88865e-05
4.89095e-05
4.89268e-05
4.89333e-05
4.88897e-05
4.88574e-05
4.88909e-05
4.89241e-05
4.89327e-05
4.89383e-05
4.89422e-05
4.8883e-05
4.88993e-05
4.89291e-05
4.88886e-05
4.88534e-05
4.88947e-05
4.89164e-05
4.89317e-05
4.89306e-05
5.14187e-05
5.14101e-05
5.14043e-05
5.14093e-05
5.13664e-05
5.1381e-05
5.13584e-05
5.13388e-05
5.13165e-05
5.13462e-05
5.13819e-05
5.13905e-05
5.13936e-05
5.1401e-05
5.13733e-05
5.13367e-05
5.13586e-05
5.1377e-05
5.13974e-05
5.13747e-05
5.13308e-05
5.13478e-05
5.13836e-05
5.13528e-05
5.13684e-05
5.13973e-05
5.13615e-05
5.13745e-05
5.13978e-05
5.13656e-05
5.13828e-05
5.13461e-05
5.13703e-05
5.13538e-05
5.13365e-05
5.1316e-05
5.13557e-05
5.13414e-05
5.13629e-05
5.13891e-05
5.13621e-05
5.13778e-05
5.1388e-05
5.13991e-05
5.13699e-05
5.13384e-05
5.13557e-05
5.13798e-05
5.13954e-05
5.13998e-05
5.1411e-05
5.13707e-05
5.13732e-05
5.13893e-05
5.13695e-05
5.13337e-05
5.13593e-05
5.13757e-05
5.13957e-05
5.13973e-05
5.16585e-05
5.16534e-05
5.16433e-05
5.16488e-05
5.16212e-05
5.16259e-05
5.16098e-05
5.15981e-05
5.15749e-05
5.15869e-05
5.16129e-05
5.16259e-05
5.16281e-05
5.16366e-05
5.16236e-05
5.15951e-05
5.16035e-05
5.16126e-05
5.16306e-05
5.16217e-05
5.15939e-05
5.15959e-05
5.16169e-05
5.16018e-05
5.16079e-05
5.16302e-05
5.16124e-05
5.16162e-05
5.16331e-05
5.16164e-05
5.16287e-05
5.16024e-05
5.16122e-05
5.16019e-05
5.15931e-05
5.15723e-05
5.1594e-05
5.15873e-05
5.15988e-05
5.16216e-05
5.16085e-05
5.16192e-05
5.16236e-05
5.16353e-05
5.16201e-05
5.15952e-05
5.16015e-05
5.16128e-05
5.16291e-05
5.16326e-05
5.1646e-05
5.16256e-05
5.16214e-05
5.16262e-05
5.16183e-05
5.15923e-05
5.16037e-05
5.16119e-05
5.16294e-05
5.16328e-05
5.08213e-05
5.08187e-05
5.0809e-05
5.08123e-05
5.07958e-05
5.07956e-05
5.07836e-05
5.07769e-05
5.07595e-05
5.07617e-05
5.07735e-05
5.0787e-05
5.07889e-05
5.07966e-05
5.07917e-05
5.07754e-05
5.07767e-05
5.07794e-05
5.07902e-05
5.07882e-05
5.07765e-05
5.07708e-05
5.07809e-05
5.07744e-05
5.07764e-05
5.07899e-05
5.07837e-05
5.07844e-05
5.07946e-05
5.07871e-05
5.07968e-05
5.07805e-05
5.07825e-05
5.07743e-05
5.07704e-05
5.07553e-05
5.07645e-05
5.07602e-05
5.0766e-05
5.07813e-05
5.07768e-05
5.07854e-05
5.07868e-05
5.07962e-05
5.07896e-05
5.07741e-05
5.07758e-05
5.07783e-05
5.07893e-05
5.07921e-05
5.08039e-05
5.07963e-05
5.07937e-05
5.07916e-05
5.0788e-05
5.07723e-05
5.07765e-05
5.0779e-05
5.07897e-05
5.07934e-05
4.94194e-05
4.94184e-05
4.94107e-05
4.94116e-05
4.94015e-05
4.94e-05
4.93902e-05
4.93866e-05
4.9376e-05
4.93726e-05
4.93765e-05
4.9386e-05
4.93875e-05
4.93936e-05
4.93924e-05
4.93856e-05
4.93843e-05
4.93847e-05
4.93893e-05
4.93893e-05
4.93866e-05
4.93806e-05
4.93843e-05
4.93814e-05
4.93818e-05
4.93883e-05
4.93875e-05
4.93876e-05
4.93934e-05
4.93905e-05
4.93982e-05
4.93896e-05
4.93886e-05
4.93811e-05
4.93797e-05
4.93707e-05
4.93734e-05
4.93696e-05
4.93721e-05
4.93805e-05
4.93796e-05
4.93867e-05
4.93871e-05
4.93938e-05
4.93915e-05
4.9384e-05
4.93847e-05
4.93836e-05
4.93891e-05
4.93904e-05
4.93988e-05
4.93972e-05
4.93982e-05
4.93943e-05
4.93922e-05
4.93832e-05
4.93846e-05
4.93846e-05
4.93893e-05
4.93921e-05
4.76886e-05
4.76881e-05
4.76824e-05
4.76813e-05
4.76742e-05
4.7673e-05
4.76656e-05
4.76633e-05
4.76572e-05
4.76529e-05
4.76534e-05
4.7658e-05
4.76588e-05
4.76629e-05
4.76628e-05
4.76611e-05
4.76612e-05
4.76603e-05
4.76616e-05
4.76615e-05
4.76614e-05
4.76591e-05
4.76593e-05
4.76573e-05
4.76575e-05
4.76596e-05
4.76601e-05
4.76602e-05
4.76637e-05
4.76628e-05
4.76688e-05
4.76647e-05
4.76638e-05
4.76576e-05
4.76572e-05
4.76521e-05
4.76526e-05
4.7649e-05
4.76498e-05
4.76534e-05
4.76531e-05
4.76587e-05
4.76588e-05
4.76633e-05
4.76628e-05
4.76602e-05
4.76616e-05
4.76594e-05
4.76618e-05
4.76619e-05
4.76667e-05
4.76667e-05
4.76703e-05
4.76668e-05
4.76654e-05
4.76605e-05
4.76613e-05
4.76608e-05
4.7662e-05
4.76636e-05
4.57423e-05
4.57416e-05
4.57369e-05
4.57351e-05
4.57293e-05
4.57284e-05
4.57231e-05
4.57214e-05
4.57178e-05
4.57148e-05
4.57131e-05
4.57156e-05
4.57156e-05
4.57178e-05
4.57178e-05
4.57181e-05
4.57189e-05
4.57184e-05
4.57185e-05
4.57174e-05
4.5719e-05
4.57185e-05
4.57174e-05
4.57151e-05
4.5716e-05
4.57159e-05
4.57166e-05
4.57167e-05
4.57185e-05
4.57184e-05
4.57228e-05
4.5721e-05
4.57213e-05
4.5717e-05
4.57165e-05
4.57136e-05
4.57136e-05
4.57107e-05
4.57103e-05
4.57118e-05
4.57111e-05
4.5715e-05
4.57151e-05
4.57178e-05
4.57178e-05
4.57175e-05
4.57196e-05
4.57178e-05
4.57188e-05
4.57187e-05
4.57204e-05
4.57205e-05
4.57247e-05
4.57222e-05
4.57212e-05
4.57186e-05
4.57198e-05
4.57193e-05
4.57188e-05
4.57199e-05
4.36395e-05
4.36386e-05
4.36345e-05
4.36323e-05
4.36272e-05
4.36265e-05
4.36227e-05
4.36211e-05
4.3619e-05
4.3617e-05
4.36152e-05
4.36167e-05
4.36166e-05
4.36173e-05
4.36174e-05
4.36176e-05
4.36189e-05
4.36187e-05
4.36182e-05
4.36166e-05
4.36185e-05
4.36184e-05
4.36178e-05
4.3616e-05
4.3617e-05
4.36168e-05
4.36161e-05
4.36168e-05
4.3617e-05
4.36169e-05
4.36204e-05
4.36199e-05
4.36208e-05
4.36178e-05
4.36174e-05
4.36156e-05
4.3616e-05
4.36135e-05
4.36138e-05
4.36139e-05
4.36126e-05
4.36151e-05
4.3615e-05
4.36165e-05
4.36164e-05
4.36166e-05
4.36191e-05
4.36182e-05
4.3619e-05
4.36185e-05
4.36184e-05
4.36182e-05
4.36219e-05
4.36205e-05
4.36193e-05
4.36183e-05
4.36197e-05
4.36193e-05
4.36194e-05
4.36197e-05
4.14156e-05
4.14146e-05
4.1411e-05
4.14089e-05
4.14042e-05
4.14035e-05
4.14006e-05
4.13992e-05
4.13978e-05
4.13967e-05
4.13956e-05
4.13967e-05
4.13967e-05
4.13968e-05
4.13965e-05
4.1396e-05
4.13975e-05
4.13973e-05
4.13968e-05
4.13951e-05
4.13967e-05
4.13967e-05
4.13967e-05
4.13956e-05
4.13966e-05
4.13961e-05
4.13952e-05
4.13956e-05
4.13955e-05
4.13953e-05
4.13976e-05
4.13976e-05
4.13985e-05
4.13965e-05
4.13962e-05
4.13953e-05
4.13959e-05
4.13945e-05
4.13947e-05
4.13945e-05
4.13931e-05
4.13946e-05
4.13946e-05
4.1395e-05
4.13949e-05
4.13952e-05
4.13973e-05
4.13969e-05
4.13975e-05
4.13969e-05
4.13964e-05
4.13955e-05
4.13986e-05
4.13979e-05
4.13965e-05
4.13968e-05
4.13977e-05
4.13977e-05
4.13975e-05
4.1398e-05
3.90963e-05
3.90954e-05
3.90924e-05
3.90904e-05
3.90863e-05
3.90856e-05
3.90832e-05
3.90819e-05
3.90809e-05
3.90803e-05
3.90804e-05
3.9081e-05
3.9081e-05
3.90808e-05
3.90797e-05
3.90793e-05
3.90807e-05
3.90806e-05
3.90802e-05
3.90788e-05
3.90798e-05
3.908e-05
3.90801e-05
3.90796e-05
3.90804e-05
3.908e-05
3.9079e-05
3.90795e-05
3.90794e-05
3.90788e-05
3.90803e-05
3.90802e-05
3.90811e-05
3.90796e-05
3.90794e-05
3.90795e-05
3.90796e-05
3.90789e-05
3.90794e-05
3.90792e-05
3.90779e-05
3.9079e-05
3.9079e-05
3.90786e-05
3.90787e-05
3.90786e-05
3.90803e-05
3.90801e-05
3.90807e-05
3.90802e-05
3.90794e-05
3.90784e-05
3.90807e-05
3.90803e-05
3.90794e-05
3.90793e-05
3.90805e-05
3.90804e-05
3.90806e-05
3.90807e-05
3.67033e-05
3.67027e-05
3.67003e-05
3.66986e-05
3.66952e-05
3.66945e-05
3.66924e-05
3.66912e-05
3.66906e-05
3.6691e-05
3.6691e-05
3.66916e-05
3.66914e-05
3.66909e-05
3.66896e-05
3.66893e-05
3.66905e-05
3.66905e-05
3.66902e-05
3.66892e-05
3.66898e-05
3.669e-05
3.669e-05
3.66898e-05
3.66905e-05
3.66901e-05
3.66893e-05
3.66898e-05
3.66896e-05
3.66888e-05
3.66898e-05
3.66898e-05
3.66904e-05
3.66893e-05
3.66898e-05
3.66896e-05
3.66901e-05
3.66895e-05
3.66899e-05
3.66898e-05
3.66889e-05
3.66896e-05
3.66895e-05
3.66891e-05
3.66887e-05
3.66882e-05
3.66898e-05
3.66897e-05
3.66902e-05
3.66899e-05
3.66893e-05
3.66883e-05
3.669e-05
3.66898e-05
3.66889e-05
3.66892e-05
3.66896e-05
3.66896e-05
3.66898e-05
3.66901e-05
3.42575e-05
3.4257e-05
3.42553e-05
3.42539e-05
3.42511e-05
3.42504e-05
3.42487e-05
3.42475e-05
3.42479e-05
3.42478e-05
3.42478e-05
3.42484e-05
3.42483e-05
3.42479e-05
3.42468e-05
3.42464e-05
3.42473e-05
3.42473e-05
3.4247e-05
3.42463e-05
3.42468e-05
3.42469e-05
3.4247e-05
3.42468e-05
3.42473e-05
3.42471e-05
3.42465e-05
3.42469e-05
3.42467e-05
3.42459e-05
3.42466e-05
3.42465e-05
3.4247e-05
3.42463e-05
3.42467e-05
3.42467e-05
3.42471e-05
3.42467e-05
3.4247e-05
3.4247e-05
3.42463e-05
3.42469e-05
3.42467e-05
3.42463e-05
3.42456e-05
3.42452e-05
3.42464e-05
3.42464e-05
3.42468e-05
3.42467e-05
3.42462e-05
3.42453e-05
3.42467e-05
3.42465e-05
3.4246e-05
3.42456e-05
3.42463e-05
3.42463e-05
3.42465e-05
3.42468e-05
3.17789e-05
3.17785e-05
3.17773e-05
3.17763e-05
3.17741e-05
3.17736e-05
3.17722e-05
3.17714e-05
3.17716e-05
3.17717e-05
3.17716e-05
3.17721e-05
3.17721e-05
3.17718e-05
3.1771e-05
3.17706e-05
3.17713e-05
3.17711e-05
3.17711e-05
3.17705e-05
3.17709e-05
3.17709e-05
3.1771e-05
3.17709e-05
3.17713e-05
3.17712e-05
3.17707e-05
3.1771e-05
3.17708e-05
3.17701e-05
3.17706e-05
3.17705e-05
3.17708e-05
3.17703e-05
3.17706e-05
3.17706e-05
3.17709e-05
3.17707e-05
3.17709e-05
3.17709e-05
3.17704e-05
3.17709e-05
3.17709e-05
3.17706e-05
3.17699e-05
3.17695e-05
3.17704e-05
3.17704e-05
3.17708e-05
3.17706e-05
3.17703e-05
3.17697e-05
3.17706e-05
3.17705e-05
3.17699e-05
3.17701e-05
3.17702e-05
3.17703e-05
3.17703e-05
3.17705e-05
2.92878e-05
2.92876e-05
2.92869e-05
2.92861e-05
2.92846e-05
2.92842e-05
2.92832e-05
2.92826e-05
2.92828e-05
2.92829e-05
2.92829e-05
2.92832e-05
2.92832e-05
2.92831e-05
2.92826e-05
2.92822e-05
2.92827e-05
2.92826e-05
2.92825e-05
2.9282e-05
2.92823e-05
2.92824e-05
2.92824e-05
2.92823e-05
2.92827e-05
2.92826e-05
2.92823e-05
2.92825e-05
2.92823e-05
2.92817e-05
2.9282e-05
2.92819e-05
2.92821e-05
2.92817e-05
2.92819e-05
2.92819e-05
2.92822e-05
2.9282e-05
2.92822e-05
2.92821e-05
2.92819e-05
2.92823e-05
2.92822e-05
2.92821e-05
2.92816e-05
2.92813e-05
2.9282e-05
2.9282e-05
2.92822e-05
2.92821e-05
2.92819e-05
2.92814e-05
2.92821e-05
2.92821e-05
2.92817e-05
2.92815e-05
2.92818e-05
2.92819e-05
2.9282e-05
2.9282e-05
2.68049e-05
2.68049e-05
2.68045e-05
2.6804e-05
2.6803e-05
2.68028e-05
2.68021e-05
2.68018e-05
2.68019e-05
2.6802e-05
2.6802e-05
2.68023e-05
2.68023e-05
2.68022e-05
2.6802e-05
2.68018e-05
2.68021e-05
2.68021e-05
2.68019e-05
2.68016e-05
2.68018e-05
2.68018e-05
2.68018e-05
2.68018e-05
2.68021e-05
2.6802e-05
2.68018e-05
2.68019e-05
2.68018e-05
2.68013e-05
2.68014e-05
2.68013e-05
2.68014e-05
2.68011e-05
2.68012e-05
2.68012e-05
2.68015e-05
2.68014e-05
2.68014e-05
2.68015e-05
2.68013e-05
2.68016e-05
2.68016e-05
2.68015e-05
2.68013e-05
2.68012e-05
2.68016e-05
2.68016e-05
2.68018e-05
2.68017e-05
2.68015e-05
2.68012e-05
2.68017e-05
2.68016e-05
2.68013e-05
2.68013e-05
2.68015e-05
2.68015e-05
2.68015e-05
2.68016e-05
2.43509e-05
2.4351e-05
2.43509e-05
2.43507e-05
2.43502e-05
2.43501e-05
2.43498e-05
2.43496e-05
2.43497e-05
2.43498e-05
2.43499e-05
2.43501e-05
2.43503e-05
2.43503e-05
2.43502e-05
2.43501e-05
2.43503e-05
2.43502e-05
2.43501e-05
2.43499e-05
2.43499e-05
2.435e-05
2.43502e-05
2.43501e-05
2.43502e-05
2.43502e-05
2.43501e-05
2.43501e-05
2.43499e-05
2.43496e-05
2.43496e-05
2.43495e-05
2.43495e-05
2.43493e-05
2.43493e-05
2.43493e-05
2.43495e-05
2.43495e-05
2.43495e-05
2.43496e-05
2.43494e-05
2.43496e-05
2.43496e-05
2.43496e-05
2.43496e-05
2.43496e-05
2.43499e-05
2.435e-05
2.43501e-05
2.435e-05
2.43499e-05
2.43498e-05
2.435e-05
2.435e-05
2.43498e-05
2.43497e-05
2.43498e-05
2.43499e-05
2.43499e-05
2.43499e-05
2.19464e-05
2.19465e-05
2.19467e-05
2.19468e-05
2.19467e-05
2.19468e-05
2.19466e-05
2.19467e-05
2.19468e-05
2.19472e-05
2.19473e-05
2.19477e-05
2.19479e-05
2.19478e-05
2.19478e-05
2.19477e-05
2.19478e-05
2.19478e-05
2.19478e-05
2.19476e-05
2.19476e-05
2.19477e-05
2.19478e-05
2.19477e-05
2.19478e-05
2.19477e-05
2.19477e-05
2.19477e-05
2.19475e-05
2.19473e-05
2.19473e-05
2.19471e-05
2.19471e-05
2.19469e-05
2.19469e-05
2.1947e-05
2.19472e-05
2.19471e-05
2.19471e-05
2.19472e-05
2.1947e-05
2.19471e-05
2.19472e-05
2.19473e-05
2.19475e-05
2.19474e-05
2.19476e-05
2.19477e-05
2.1948e-05
2.19479e-05
2.19478e-05
2.19477e-05
2.19478e-05
2.19477e-05
2.19476e-05
2.19476e-05
2.19477e-05
2.19478e-05
2.19477e-05
2.19477e-05
1.9612e-05
1.96122e-05
1.96125e-05
1.96129e-05
1.96131e-05
1.96135e-05
1.96136e-05
1.96138e-05
1.96141e-05
1.96146e-05
1.96148e-05
1.96153e-05
1.96152e-05
1.96153e-05
1.96152e-05
1.96152e-05
1.96152e-05
1.96152e-05
1.96151e-05
1.96151e-05
1.96151e-05
1.96151e-05
1.96152e-05
1.96151e-05
1.96151e-05
1.96152e-05
1.96151e-05
1.96151e-05
1.96149e-05
1.96149e-05
1.96149e-05
1.96147e-05
1.96147e-05
1.96145e-05
1.96145e-05
1.96145e-05
1.96147e-05
1.96145e-05
1.96145e-05
1.96147e-05
1.96144e-05
1.96145e-05
1.96146e-05
1.96148e-05
1.96151e-05
1.96151e-05
1.96152e-05
1.96154e-05
1.96158e-05
1.96156e-05
1.96156e-05
1.96154e-05
1.96154e-05
1.96153e-05
1.96153e-05
1.96153e-05
1.96153e-05
1.96153e-05
1.96153e-05
1.96153e-05
1.73676e-05
1.73677e-05
1.73681e-05
1.73689e-05
1.73692e-05
1.73699e-05
1.73702e-05
1.73707e-05
1.7371e-05
1.73717e-05
1.7372e-05
1.73725e-05
1.73724e-05
1.73724e-05
1.73724e-05
1.73723e-05
1.73723e-05
1.73723e-05
1.73723e-05
1.73722e-05
1.73721e-05
1.73723e-05
1.73725e-05
1.73723e-05
1.73723e-05
1.73723e-05
1.73722e-05
1.73722e-05
1.73721e-05
1.7372e-05
1.73722e-05
1.7372e-05
1.7372e-05
1.73719e-05
1.73718e-05
1.73718e-05
1.7372e-05
1.73719e-05
1.73719e-05
1.73719e-05
1.73716e-05
1.73716e-05
1.73718e-05
1.73721e-05
1.73724e-05
1.73722e-05
1.73722e-05
1.73723e-05
1.73732e-05
1.7373e-05
1.7373e-05
1.73728e-05
1.73728e-05
1.73728e-05
1.73727e-05
1.73727e-05
1.73727e-05
1.73726e-05
1.73727e-05
1.73727e-05
1.5232e-05
1.52322e-05
1.52326e-05
1.52337e-05
1.52341e-05
1.5235e-05
1.52356e-05
1.52362e-05
1.52368e-05
1.52374e-05
1.52379e-05
1.52385e-05
1.52382e-05
1.52383e-05
1.52382e-05
1.52383e-05
1.52382e-05
1.52382e-05
1.52381e-05
1.5238e-05
1.52379e-05
1.52381e-05
1.52384e-05
1.52382e-05
1.52381e-05
1.52383e-05
1.52381e-05
1.52381e-05
1.5238e-05
1.5238e-05
1.52379e-05
1.52379e-05
1.52379e-05
1.52379e-05
1.52378e-05
1.52378e-05
1.52378e-05
1.52378e-05
1.52377e-05
1.52378e-05
1.52376e-05
1.52377e-05
1.52377e-05
1.52379e-05
1.52378e-05
1.52379e-05
1.52377e-05
1.52382e-05
1.52393e-05
1.52391e-05
1.52391e-05
1.52389e-05
1.52388e-05
1.52388e-05
1.52388e-05
1.52387e-05
1.52387e-05
1.52387e-05
1.52387e-05
1.52388e-05
1.32235e-05
1.32237e-05
1.32242e-05
1.32253e-05
1.3226e-05
1.3227e-05
1.32277e-05
1.32285e-05
1.32292e-05
1.32298e-05
1.32307e-05
1.32306e-05
1.32307e-05
1.32309e-05
1.32308e-05
1.32308e-05
1.32308e-05
1.32308e-05
1.32307e-05
1.32307e-05
1.32307e-05
1.32308e-05
1.32307e-05
1.32307e-05
1.32307e-05
1.32308e-05
1.32307e-05
1.32307e-05
1.32306e-05
1.32308e-05
1.32308e-05
1.32306e-05
1.32306e-05
1.32305e-05
1.32305e-05
1.32304e-05
1.32304e-05
1.32306e-05
1.32304e-05
1.32304e-05
1.32303e-05
1.32305e-05
1.32303e-05
1.32305e-05
1.32305e-05
1.32303e-05
1.32302e-05
1.3231e-05
1.32321e-05
1.32319e-05
1.32318e-05
1.32316e-05
1.32317e-05
1.32317e-05
1.32315e-05
1.32314e-05
1.32314e-05
1.32315e-05
1.32315e-05
1.32316e-05
1.13589e-05
1.1359e-05
1.13595e-05
1.13608e-05
1.13616e-05
1.13627e-05
1.13634e-05
1.13644e-05
1.13651e-05
1.1366e-05
1.13667e-05
1.1367e-05
1.13677e-05
1.13673e-05
1.13673e-05
1.13673e-05
1.13674e-05
1.13674e-05
1.13672e-05
1.13672e-05
1.13672e-05
1.13672e-05
1.13671e-05
1.1367e-05
1.1367e-05
1.1367e-05
1.13669e-05
1.13672e-05
1.1367e-05
1.1367e-05
1.13669e-05
1.13669e-05
1.1367e-05
1.13669e-05
1.13668e-05
1.13669e-05
1.13668e-05
1.13667e-05
1.13668e-05
1.13668e-05
1.13668e-05
1.13669e-05
1.13668e-05
1.13669e-05
1.13668e-05
1.13668e-05
1.13667e-05
1.13673e-05
1.13683e-05
1.1368e-05
1.1368e-05
1.13679e-05
1.1368e-05
1.13679e-05
1.13679e-05
1.13678e-05
1.13677e-05
1.13677e-05
1.13677e-05
1.13678e-05
9.65381e-06
9.65398e-06
9.65459e-06
9.65588e-06
9.65678e-06
9.65791e-06
9.65869e-06
9.65968e-06
9.66047e-06
9.66147e-06
9.66219e-06
9.66287e-06
9.66352e-06
9.66326e-06
9.66327e-06
9.66325e-06
9.66321e-06
9.66315e-06
9.66312e-06
9.66308e-06
9.66286e-06
9.66298e-06
9.66278e-06
9.66276e-06
9.66269e-06
9.66275e-06
9.66266e-06
9.66273e-06
9.66264e-06
9.66273e-06
9.66252e-06
9.66249e-06
9.66237e-06
9.66247e-06
9.66241e-06
9.66248e-06
9.6624e-06
9.66239e-06
9.66231e-06
9.66238e-06
9.66266e-06
9.66266e-06
9.66254e-06
9.66272e-06
9.66252e-06
9.66258e-06
9.66257e-06
9.66252e-06
9.66323e-06
9.66361e-06
9.66379e-06
9.6634e-06
9.66346e-06
9.66331e-06
9.66337e-06
9.66338e-06
9.6631e-06
9.66314e-06
9.66312e-06
9.66316e-06
2.12118e-05
2.11318e-05
2.1136e-05
2.11221e-05
2.11253e-05
2.11207e-05
2.12011e-05
2.12016e-05
2.11421e-05
2.11285e-05
2.12095e-05
2.11289e-05
2.12097e-05
2.12062e-05
2.11396e-05
2.11314e-05
2.12078e-05
2.11359e-05
2.11298e-05
2.12059e-05
2.11994e-05
2.12159e-05
2.11362e-05
2.11338e-05
2.11285e-05
2.11195e-05
2.11269e-05
2.11181e-05
2.12062e-05
2.11197e-05
2.12039e-05
2.11307e-05
2.11287e-05
2.1202e-05
2.12094e-05
2.11357e-05
2.11428e-05
2.11213e-05
2.12101e-05
2.11192e-05
2.12168e-05
2.11244e-05
2.12143e-05
2.11233e-05
2.11259e-05
2.11235e-05
2.11207e-05
2.11209e-05
2.11263e-05
2.11286e-05
2.11954e-05
2.12074e-05
2.11274e-05
2.12124e-05
2.11312e-05
2.11351e-05
2.12047e-05
2.12144e-05
2.11351e-05
2.12075e-05
4.14386e-05
4.14711e-05
4.14968e-05
4.14911e-05
4.14878e-05
4.14856e-05
4.14457e-05
4.14125e-05
4.14698e-05
4.14898e-05
4.14469e-05
4.14769e-05
4.14495e-05
4.14235e-05
4.14717e-05
4.14924e-05
4.14454e-05
4.14796e-05
4.14945e-05
4.1453e-05
4.14192e-05
4.1423e-05
4.14721e-05
4.14897e-05
4.14942e-05
4.14863e-05
4.14888e-05
4.14834e-05
4.14437e-05
4.14682e-05
4.14344e-05
4.14677e-05
4.14895e-05
4.14435e-05
4.1423e-05
4.14632e-05
4.15021e-05
4.14904e-05
4.14483e-05
4.14684e-05
4.14454e-05
4.14708e-05
4.14471e-05
4.14707e-05
4.1482e-05
4.14833e-05
4.14821e-05
4.14818e-05
4.14843e-05
4.14948e-05
4.1443e-05
4.14206e-05
4.14657e-05
4.14424e-05
4.14697e-05
4.14939e-05
4.14481e-05
4.14313e-05
4.14775e-05
4.1442e-05
4.88692e-05
4.89019e-05
4.89318e-05
4.894e-05
4.8936e-05
4.89348e-05
4.88923e-05
4.88404e-05
4.88858e-05
4.89268e-05
4.88796e-05
4.89121e-05
4.88835e-05
4.88491e-05
4.88909e-05
4.89298e-05
4.88793e-05
4.89091e-05
4.89355e-05
4.88951e-05
4.88542e-05
4.88378e-05
4.88916e-05
4.89214e-05
4.89365e-05
4.89365e-05
4.89357e-05
4.89335e-05
4.88817e-05
4.89105e-05
4.88683e-05
4.88969e-05
4.8929e-05
4.88844e-05
4.8847e-05
4.88825e-05
4.89294e-05
4.89367e-05
4.88854e-05
4.89108e-05
4.88724e-05
4.89063e-05
4.88739e-05
4.89072e-05
4.89221e-05
4.89278e-05
4.89284e-05
4.89294e-05
4.89277e-05
4.89384e-05
4.88919e-05
4.88465e-05
4.88948e-05
4.88675e-05
4.88973e-05
4.89292e-05
4.88873e-05
4.8853e-05
4.89043e-05
4.88705e-05
5.1352e-05
5.13689e-05
5.13891e-05
5.14067e-05
5.14054e-05
5.1405e-05
5.13791e-05
5.13277e-05
5.13449e-05
5.13845e-05
5.1355e-05
5.13764e-05
5.13599e-05
5.1329e-05
5.13483e-05
5.13882e-05
5.13559e-05
5.13701e-05
5.13964e-05
5.13741e-05
5.13431e-05
5.13132e-05
5.13474e-05
5.13767e-05
5.13959e-05
5.14052e-05
5.14042e-05
5.14051e-05
5.13644e-05
5.13823e-05
5.13505e-05
5.13624e-05
5.13905e-05
5.13659e-05
5.1328e-05
5.13438e-05
5.13774e-05
5.14012e-05
5.1364e-05
5.13818e-05
5.13488e-05
5.13725e-05
5.13472e-05
5.13719e-05
5.13862e-05
5.13944e-05
5.13966e-05
5.13998e-05
5.13962e-05
5.1403e-05
5.13784e-05
5.13299e-05
5.13596e-05
5.13406e-05
5.13582e-05
5.13872e-05
5.13659e-05
5.13294e-05
5.13638e-05
5.13464e-05
5.1608e-05
5.16135e-05
5.16222e-05
5.16403e-05
5.16424e-05
5.16439e-05
5.1631e-05
5.1595e-05
5.15924e-05
5.16158e-05
5.16024e-05
5.16154e-05
5.16075e-05
5.15871e-05
5.15917e-05
5.16183e-05
5.1604e-05
5.16096e-05
5.16281e-05
5.16197e-05
5.16042e-05
5.15728e-05
5.15879e-05
5.16082e-05
5.16251e-05
5.16402e-05
5.16409e-05
5.16451e-05
5.16182e-05
5.16272e-05
5.16069e-05
5.16085e-05
5.16249e-05
5.16152e-05
5.15884e-05
5.1591e-05
5.16043e-05
5.1633e-05
5.16122e-05
5.16247e-05
5.1601e-05
5.16149e-05
5.15968e-05
5.16117e-05
5.16224e-05
5.16314e-05
5.16343e-05
5.16396e-05
5.16367e-05
5.1639e-05
5.16285e-05
5.15928e-05
5.16047e-05
5.15913e-05
5.15994e-05
5.16187e-05
5.16117e-05
5.15858e-05
5.1603e-05
5.15949e-05
5.07856e-05
5.07857e-05
5.07872e-05
5.07978e-05
5.08027e-05
5.08059e-05
5.08003e-05
5.0782e-05
5.07686e-05
5.07797e-05
5.07736e-05
5.07815e-05
5.07775e-05
5.07673e-05
5.07645e-05
5.07787e-05
5.07745e-05
5.07769e-05
5.07875e-05
5.07851e-05
5.07803e-05
5.07596e-05
5.07625e-05
5.07712e-05
5.07824e-05
5.07976e-05
5.08003e-05
5.08071e-05
5.07918e-05
5.0796e-05
5.07848e-05
5.07808e-05
5.07883e-05
5.07851e-05
5.0771e-05
5.07671e-05
5.07691e-05
5.07893e-05
5.07808e-05
5.0791e-05
5.0776e-05
5.0784e-05
5.07713e-05
5.07794e-05
5.07855e-05
5.07933e-05
5.07964e-05
5.08024e-05
5.08016e-05
5.08006e-05
5.07967e-05
5.07759e-05
5.0778e-05
5.07675e-05
5.07707e-05
5.07794e-05
5.07789e-05
5.07651e-05
5.07717e-05
5.07673e-05
4.93948e-05
4.93939e-05
4.93905e-05
4.93952e-05
4.9399e-05
4.94029e-05
4.94009e-05
4.93946e-05
4.93809e-05
4.9384e-05
4.938e-05
4.93846e-05
4.93817e-05
4.93781e-05
4.93735e-05
4.93798e-05
4.93794e-05
4.93805e-05
4.93858e-05
4.93851e-05
4.93865e-05
4.93766e-05
4.93733e-05
4.93755e-05
4.93807e-05
4.93921e-05
4.93953e-05
4.94033e-05
4.93961e-05
4.93987e-05
4.9393e-05
4.93881e-05
4.939e-05
4.9389e-05
4.93823e-05
4.93789e-05
4.93739e-05
4.93863e-05
4.93834e-05
4.9392e-05
4.93834e-05
4.93887e-05
4.938e-05
4.93841e-05
4.93865e-05
4.93919e-05
4.93949e-05
4.94e-05
4.94006e-05
4.93995e-05
4.9398e-05
4.93878e-05
4.93863e-05
4.93774e-05
4.9379e-05
4.93802e-05
4.93817e-05
4.93753e-05
4.93774e-05
4.93744e-05
4.76719e-05
4.76705e-05
4.76654e-05
4.76662e-05
4.76676e-05
4.7671e-05
4.76702e-05
4.7669e-05
4.76619e-05
4.76602e-05
4.76554e-05
4.76585e-05
4.76558e-05
4.76553e-05
4.76528e-05
4.7654e-05
4.7654e-05
4.76545e-05
4.76568e-05
4.76567e-05
4.766e-05
4.76561e-05
4.76526e-05
4.76518e-05
4.76539e-05
4.766e-05
4.76627e-05
4.76699e-05
4.76677e-05
4.76701e-05
4.76674e-05
4.76644e-05
4.76628e-05
4.7662e-05
4.7659e-05
4.76576e-05
4.76518e-05
4.76582e-05
4.76568e-05
4.76634e-05
4.76589e-05
4.76628e-05
4.76573e-05
4.76593e-05
4.76599e-05
4.76625e-05
4.76653e-05
4.76679e-05
4.76707e-05
4.76694e-05
4.76687e-05
4.76642e-05
4.76629e-05
4.76561e-05
4.7657e-05
4.76553e-05
4.76561e-05
4.76528e-05
4.76534e-05
4.7651e-05
4.57305e-05
4.57292e-05
4.57242e-05
4.57218e-05
4.57222e-05
4.57242e-05
4.57233e-05
4.5725e-05
4.5722e-05
4.57191e-05
4.57141e-05
4.57163e-05
4.57138e-05
4.57147e-05
4.57141e-05
4.57122e-05
4.57117e-05
4.57122e-05
4.57128e-05
4.57126e-05
4.57159e-05
4.5715e-05
4.57128e-05
4.57115e-05
4.57123e-05
4.57146e-05
4.57163e-05
4.57215e-05
4.57214e-05
4.57241e-05
4.57229e-05
4.57219e-05
4.57195e-05
4.57187e-05
4.57169e-05
4.57177e-05
4.57134e-05
4.57159e-05
4.57146e-05
4.5719e-05
4.57167e-05
4.57197e-05
4.57164e-05
4.57176e-05
4.57175e-05
4.57185e-05
4.57204e-05
4.57214e-05
4.57245e-05
4.57236e-05
4.5723e-05
4.5721e-05
4.57213e-05
4.57169e-05
4.57176e-05
4.57152e-05
4.57142e-05
4.57115e-05
4.57121e-05
4.57105e-05
4.36309e-05
4.36297e-05
4.36252e-05
4.36221e-05
4.36205e-05
4.36217e-05
4.36209e-05
4.36228e-05
4.36219e-05
4.36196e-05
4.36155e-05
4.36169e-05
4.36152e-05
4.36159e-05
4.36158e-05
4.36141e-05
4.36129e-05
4.3613e-05
4.36131e-05
4.36125e-05
4.3615e-05
4.36149e-05
4.36145e-05
4.36134e-05
4.36138e-05
4.36141e-05
4.3615e-05
4.3618e-05
4.36182e-05
4.36211e-05
4.36206e-05
4.36213e-05
4.36201e-05
4.36182e-05
4.36176e-05
4.36189e-05
4.36161e-05
4.36169e-05
4.36156e-05
4.36183e-05
4.3617e-05
4.36193e-05
4.36174e-05
4.36181e-05
4.36182e-05
4.36183e-05
4.36196e-05
4.36198e-05
4.36221e-05
4.36217e-05
4.36205e-05
4.36202e-05
4.36212e-05
4.36184e-05
4.36193e-05
4.36172e-05
4.36151e-05
4.36127e-05
4.36134e-05
4.36123e-05
4.14094e-05
4.14083e-05
4.14045e-05
4.14012e-05
4.13988e-05
4.13986e-05
4.13977e-05
4.13995e-05
4.13993e-05
4.13981e-05
4.13952e-05
4.13962e-05
4.13949e-05
4.13948e-05
4.13954e-05
4.13943e-05
4.13927e-05
4.13929e-05
4.13928e-05
4.13917e-05
4.13934e-05
4.13935e-05
4.13937e-05
4.13934e-05
4.13936e-05
4.13936e-05
4.1394e-05
4.13951e-05
4.1395e-05
4.13976e-05
4.13976e-05
4.1399e-05
4.13983e-05
4.13966e-05
4.13969e-05
4.13977e-05
4.13961e-05
4.13962e-05
4.13951e-05
4.13967e-05
4.13959e-05
4.13976e-05
4.13966e-05
4.13972e-05
4.13972e-05
4.13973e-05
4.13979e-05
4.1398e-05
4.13995e-05
4.13991e-05
4.13979e-05
4.13983e-05
4.13991e-05
4.13975e-05
4.13985e-05
4.13972e-05
4.13948e-05
4.13928e-05
4.13934e-05
4.13926e-05
3.90918e-05
3.9091e-05
3.90879e-05
3.90851e-05
3.9082e-05
3.90815e-05
3.90799e-05
3.90814e-05
3.90814e-05
3.90808e-05
3.90791e-05
3.90798e-05
3.90787e-05
3.90788e-05
3.9079e-05
3.90783e-05
3.90771e-05
3.90772e-05
3.9077e-05
3.90757e-05
3.90768e-05
3.90768e-05
3.90774e-05
3.90773e-05
3.90777e-05
3.90776e-05
3.90776e-05
3.90782e-05
3.90781e-05
3.90799e-05
3.90798e-05
3.90812e-05
3.90808e-05
3.90798e-05
3.908e-05
3.90808e-05
3.908e-05
3.90795e-05
3.90781e-05
3.90796e-05
3.90792e-05
3.90806e-05
3.90801e-05
3.90807e-05
3.90806e-05
3.90806e-05
3.90812e-05
3.90812e-05
3.90821e-05
3.90818e-05
3.90809e-05
3.90805e-05
3.90819e-05
3.90808e-05
3.90818e-05
3.9081e-05
3.90791e-05
3.90774e-05
3.90777e-05
3.9077e-05
3.67e-05
3.66995e-05
3.66973e-05
3.66951e-05
3.66922e-05
3.66914e-05
3.66895e-05
3.66904e-05
3.66903e-05
3.66902e-05
3.66891e-05
3.66897e-05
3.66893e-05
3.66884e-05
3.66892e-05
3.66887e-05
3.66876e-05
3.66877e-05
3.66874e-05
3.66861e-05
3.66868e-05
3.66869e-05
3.66874e-05
3.66874e-05
3.66877e-05
3.66877e-05
3.66879e-05
3.66882e-05
3.6688e-05
3.66891e-05
3.6689e-05
3.66902e-05
3.669e-05
3.66893e-05
3.66896e-05
3.66901e-05
3.66896e-05
3.6689e-05
3.66879e-05
3.66891e-05
3.6689e-05
3.66902e-05
3.66899e-05
3.66903e-05
3.66903e-05
3.66905e-05
3.66909e-05
3.66908e-05
3.66914e-05
3.66912e-05
3.66902e-05
3.66904e-05
3.66912e-05
3.66905e-05
3.66914e-05
3.66909e-05
3.66896e-05
3.66881e-05
3.66879e-05
3.66872e-05
3.4255e-05
3.42546e-05
3.42532e-05
3.42515e-05
3.42491e-05
3.42483e-05
3.42465e-05
3.42469e-05
3.42469e-05
3.42468e-05
3.4246e-05
3.42465e-05
3.42461e-05
3.42454e-05
3.42462e-05
3.42458e-05
3.42451e-05
3.42446e-05
3.42441e-05
3.42429e-05
3.42437e-05
3.42437e-05
3.42442e-05
3.42442e-05
3.42446e-05
3.42445e-05
3.42447e-05
3.4245e-05
3.42449e-05
3.42457e-05
3.42457e-05
3.42465e-05
3.42463e-05
3.42459e-05
3.42461e-05
3.42466e-05
3.42463e-05
3.42456e-05
3.42447e-05
3.42458e-05
3.42458e-05
3.42467e-05
3.42466e-05
3.4247e-05
3.42471e-05
3.42472e-05
3.42474e-05
3.42474e-05
3.42478e-05
3.42477e-05
3.42471e-05
3.42468e-05
3.42477e-05
3.42472e-05
3.42479e-05
3.42477e-05
3.42468e-05
3.42453e-05
3.42451e-05
3.42444e-05
3.1777e-05
3.17768e-05
3.1776e-05
3.17747e-05
3.17729e-05
3.17722e-05
3.17707e-05
3.17708e-05
3.17709e-05
3.17707e-05
3.177e-05
3.17704e-05
3.17701e-05
3.17696e-05
3.17702e-05
3.177e-05
3.17693e-05
3.17687e-05
3.17682e-05
3.17672e-05
3.17678e-05
3.17679e-05
3.17681e-05
3.17681e-05
3.17685e-05
3.17685e-05
3.17685e-05
3.17691e-05
3.17689e-05
3.17696e-05
3.17695e-05
3.17701e-05
3.177e-05
3.17697e-05
3.17698e-05
3.17703e-05
3.17701e-05
3.17696e-05
3.17689e-05
3.17696e-05
3.17696e-05
3.17704e-05
3.17704e-05
3.17707e-05
3.17708e-05
3.17708e-05
3.17711e-05
3.17711e-05
3.17714e-05
3.17713e-05
3.17708e-05
3.1771e-05
3.17715e-05
3.17711e-05
3.17717e-05
3.17715e-05
3.17709e-05
3.17698e-05
3.17695e-05
3.17689e-05
2.92865e-05
2.92865e-05
2.9286e-05
2.92851e-05
2.92838e-05
2.92834e-05
2.92823e-05
2.9282e-05
2.92824e-05
2.92822e-05
2.92816e-05
2.92818e-05
2.92816e-05
2.92812e-05
2.92817e-05
2.92815e-05
2.9281e-05
2.92805e-05
2.92801e-05
2.92793e-05
2.92796e-05
2.92797e-05
2.92799e-05
2.92799e-05
2.92801e-05
2.92802e-05
2.92802e-05
2.92806e-05
2.92805e-05
2.9281e-05
2.9281e-05
2.92814e-05
2.92813e-05
2.9281e-05
2.92812e-05
2.92816e-05
2.92814e-05
2.92811e-05
2.92805e-05
2.92811e-05
2.9281e-05
2.92817e-05
2.92817e-05
2.92818e-05
2.92819e-05
2.9282e-05
2.92823e-05