/*--------------------------------*- C++ -*----------------------------------*\
| =========                 |                                                 |
| \\      /  F ield         | OpenFOAM: The Open Source CFD Toolbox           |
|  \\    /   O peration     | Version:  2312                                  |
|   \\  /    A nd           | Website:  www.openfoam.com                      |
|    \\/     M anipulation  |                                                 |
\*---------------------------------------------------------------------------*/
FoamFile
{
    version     2.0;
    format      ascii;
    arch        "LSB;label=32;scalar=64";
    class       volScalarField;
    location    "200";
    object      nut;
}
// * * * * * * * * * * * * * * * * * * * * * * * * * * * * * * * * * * * * * //

dimensions      [0 2 -1 0 0 0 0];

internalField   nonuniform List<scalar> 
144000
(
1.29035e-05
1.29018e-05
1.29043e-05
1.29008e-05
1.29265e-05
1.29021e-05
1.2928e-05
1.29252e-05
1.29281e-05
1.2905e-05
1.29033e-05
1.29023e-05
1.29044e-05
1.29026e-05
1.29257e-05
1.29261e-05
1.29035e-05
1.29041e-05
1.29031e-05
1.29256e-05
1.29255e-05
1.29053e-05
1.29034e-05
1.29278e-05
1.29049e-05
1.29022e-05
1.2926e-05
1.29043e-05
1.2902e-05
1.29249e-05
1.28999e-05
1.29283e-05
1.29044e-05
1.29285e-05
1.29259e-05
1.29298e-05
1.29064e-05
1.29293e-05
1.29062e-05
1.2904e-05
1.29282e-05
1.29017e-05
1.29049e-05
1.29029e-05
1.29274e-05
1.29266e-05
1.29038e-05
1.2906e-05
1.29028e-05
1.29041e-05
1.29006e-05
1.29243e-05
1.29021e-05
1.29055e-05
1.29251e-05
1.29272e-05
1.29033e-05
1.29042e-05
1.29018e-05
1.29009e-05
1.80834e-05
1.80814e-05
1.80832e-05
1.80818e-05
1.80717e-05
1.80782e-05
1.80728e-05
1.80674e-05
1.80672e-05
1.80775e-05
1.80814e-05
1.80809e-05
1.80825e-05
1.80821e-05
1.80728e-05
1.80679e-05
1.80766e-05
1.8081e-05
1.80826e-05
1.8073e-05
1.80659e-05
1.80764e-05
1.80816e-05
1.80723e-05
1.80796e-05
1.8082e-05
1.80718e-05
1.80793e-05
1.80816e-05
1.80716e-05
1.80765e-05
1.80706e-05
1.80791e-05
1.80733e-05
1.80679e-05
1.80683e-05
1.80796e-05
1.80729e-05
1.80798e-05
1.80823e-05
1.80738e-05
1.80778e-05
1.80821e-05
1.8082e-05
1.80736e-05
1.80686e-05
1.80764e-05
1.80828e-05
1.80823e-05
1.80835e-05
1.80822e-05
1.80706e-05
1.80761e-05
1.80829e-05
1.80726e-05
1.80683e-05
1.80767e-05
1.80807e-05
1.80815e-05
1.80807e-05
1.96403e-05
1.96382e-05
1.96386e-05
1.96387e-05
1.96273e-05
1.96331e-05
1.9627e-05
1.96217e-05
1.96189e-05
1.96289e-05
1.96357e-05
1.96361e-05
1.96372e-05
1.96379e-05
1.9629e-05
1.96218e-05
1.96296e-05
1.96345e-05
1.96379e-05
1.96294e-05
1.96199e-05
1.9628e-05
1.96357e-05
1.96263e-05
1.96325e-05
1.96376e-05
1.96271e-05
1.9633e-05
1.96374e-05
1.96276e-05
1.96326e-05
1.96241e-05
1.96323e-05
1.96269e-05
1.96218e-05
1.96193e-05
1.96309e-05
1.96253e-05
1.9632e-05
1.96367e-05
1.96282e-05
1.96328e-05
1.96363e-05
1.96376e-05
1.96288e-05
1.96223e-05
1.96291e-05
1.96357e-05
1.96375e-05
1.96386e-05
1.96394e-05
1.96275e-05
1.96308e-05
1.96367e-05
1.96286e-05
1.96215e-05
1.96298e-05
1.96342e-05
1.96373e-05
1.9637e-05
2.01304e-05
2.01287e-05
2.01276e-05
2.01286e-05
2.01201e-05
2.0123e-05
2.01186e-05
2.01147e-05
2.01104e-05
2.01162e-05
2.01232e-05
2.01249e-05
2.01255e-05
2.01269e-05
2.01215e-05
2.01143e-05
2.01186e-05
2.01222e-05
2.01262e-05
2.01218e-05
2.01132e-05
2.01165e-05
2.01235e-05
2.01175e-05
2.01205e-05
2.01262e-05
2.01192e-05
2.01217e-05
2.01263e-05
2.012e-05
2.01234e-05
2.01162e-05
2.01209e-05
2.01177e-05
2.01143e-05
2.01103e-05
2.01181e-05
2.01153e-05
2.01195e-05
2.01246e-05
2.01193e-05
2.01224e-05
2.01244e-05
2.01266e-05
2.01208e-05
2.01147e-05
2.01181e-05
2.01228e-05
2.01258e-05
2.01267e-05
2.01289e-05
2.0121e-05
2.01215e-05
2.01246e-05
2.01208e-05
2.01138e-05
2.01188e-05
2.0122e-05
2.01259e-05
2.01262e-05
2.01775e-05
2.01765e-05
2.01745e-05
2.01756e-05
2.01702e-05
2.01712e-05
2.0168e-05
2.01657e-05
2.01612e-05
2.01635e-05
2.01686e-05
2.01712e-05
2.01716e-05
2.01732e-05
2.01707e-05
2.01651e-05
2.01668e-05
2.01686e-05
2.01721e-05
2.01703e-05
2.01649e-05
2.01653e-05
2.01694e-05
2.01664e-05
2.01676e-05
2.0172e-05
2.01685e-05
2.01693e-05
2.01726e-05
2.01693e-05
2.01717e-05
2.01666e-05
2.01685e-05
2.01665e-05
2.01647e-05
2.01607e-05
2.01649e-05
2.01636e-05
2.01659e-05
2.01703e-05
2.01678e-05
2.01698e-05
2.01707e-05
2.0173e-05
2.017e-05
2.01652e-05
2.01664e-05
2.01686e-05
2.01718e-05
2.01725e-05
2.01751e-05
2.01711e-05
2.01703e-05
2.01712e-05
2.01697e-05
2.01646e-05
2.01668e-05
2.01684e-05
2.01718e-05
2.01725e-05
2.00136e-05
2.00131e-05
2.00112e-05
2.00118e-05
2.00086e-05
2.00085e-05
2.00062e-05
2.00048e-05
2.00014e-05
2.00018e-05
2.00042e-05
2.00068e-05
2.00072e-05
2.00087e-05
2.00078e-05
2.00045e-05
2.00048e-05
2.00053e-05
2.00075e-05
2.00071e-05
2.00048e-05
2.00036e-05
2.00056e-05
2.00044e-05
2.00047e-05
2.00074e-05
2.00062e-05
2.00063e-05
2.00083e-05
2.00069e-05
2.00088e-05
2.00056e-05
2.00059e-05
2.00043e-05
2.00036e-05
2.00006e-05
2.00024e-05
2.00015e-05
2.00027e-05
2.00057e-05
2.00048e-05
2.00065e-05
2.00068e-05
2.00086e-05
2.00073e-05
2.00043e-05
2.00046e-05
2.00051e-05
2.00073e-05
2.00078e-05
2.00102e-05
2.00087e-05
2.00082e-05
2.00077e-05
2.0007e-05
2.00039e-05
2.00048e-05
2.00053e-05
2.00074e-05
2.00081e-05
1.97359e-05
1.97357e-05
1.97341e-05
1.97343e-05
1.97323e-05
1.9732e-05
1.973e-05
1.97293e-05
1.97272e-05
1.97265e-05
1.97273e-05
1.97292e-05
1.97295e-05
1.97307e-05
1.97305e-05
1.97291e-05
1.97289e-05
1.97289e-05
1.97299e-05
1.97299e-05
1.97293e-05
1.97281e-05
1.97288e-05
1.97283e-05
1.97284e-05
1.97297e-05
1.97295e-05
1.97295e-05
1.97307e-05
1.97301e-05
1.97316e-05
1.97299e-05
1.97297e-05
1.97282e-05
1.97279e-05
1.97261e-05
1.97267e-05
1.97259e-05
1.97264e-05
1.97281e-05
1.97279e-05
1.97293e-05
1.97294e-05
1.97308e-05
1.97303e-05
1.97288e-05
1.97289e-05
1.97287e-05
1.97298e-05
1.97301e-05
1.97317e-05
1.97314e-05
1.97316e-05
1.97308e-05
1.97304e-05
1.97286e-05
1.97289e-05
1.97289e-05
1.97299e-05
1.97304e-05
1.93875e-05
1.93873e-05
1.93862e-05
1.9386e-05
1.93845e-05
1.93843e-05
1.93828e-05
1.93823e-05
1.93811e-05
1.93802e-05
1.93803e-05
1.93812e-05
1.93814e-05
1.93822e-05
1.93822e-05
1.93819e-05
1.93819e-05
1.93817e-05
1.9382e-05
1.93819e-05
1.93819e-05
1.93815e-05
1.93815e-05
1.93811e-05
1.93811e-05
1.93816e-05
1.93817e-05
1.93817e-05
1.93824e-05
1.93822e-05
1.93834e-05
1.93826e-05
1.93824e-05
1.93812e-05
1.93811e-05
1.938e-05
1.93801e-05
1.93794e-05
1.93796e-05
1.93803e-05
1.93802e-05
1.93814e-05
1.93814e-05
1.93823e-05
1.93822e-05
1.93817e-05
1.9382e-05
1.93815e-05
1.9382e-05
1.9382e-05
1.9383e-05
1.9383e-05
1.93837e-05
1.9383e-05
1.93827e-05
1.93817e-05
1.93819e-05
1.93818e-05
1.9382e-05
1.93824e-05
1.8988e-05
1.89879e-05
1.89869e-05
1.89865e-05
1.89853e-05
1.89851e-05
1.8984e-05
1.89837e-05
1.89829e-05
1.89823e-05
1.89819e-05
1.89825e-05
1.89825e-05
1.89829e-05
1.89829e-05
1.8983e-05
1.89831e-05
1.8983e-05
1.89831e-05
1.89828e-05
1.89832e-05
1.89831e-05
1.89828e-05
1.89823e-05
1.89826e-05
1.89825e-05
1.89827e-05
1.89827e-05
1.89831e-05
1.8983e-05
1.8984e-05
1.89836e-05
1.89837e-05
1.89828e-05
1.89827e-05
1.8982e-05
1.8982e-05
1.89814e-05
1.89814e-05
1.89817e-05
1.89815e-05
1.89823e-05
1.89824e-05
1.89829e-05
1.89829e-05
1.89828e-05
1.89833e-05
1.89829e-05
1.89831e-05
1.89831e-05
1.89835e-05
1.89835e-05
1.89843e-05
1.89838e-05
1.89836e-05
1.89831e-05
1.89833e-05
1.89832e-05
1.89831e-05
1.89833e-05
1.85468e-05
1.85466e-05
1.85457e-05
1.85452e-05
1.85441e-05
1.8544e-05
1.85432e-05
1.85428e-05
1.85424e-05
1.8542e-05
1.85416e-05
1.85419e-05
1.85419e-05
1.8542e-05
1.8542e-05
1.85421e-05
1.85424e-05
1.85423e-05
1.85422e-05
1.85419e-05
1.85423e-05
1.85423e-05
1.85421e-05
1.85418e-05
1.8542e-05
1.85419e-05
1.85418e-05
1.85419e-05
1.8542e-05
1.8542e-05
1.85427e-05
1.85426e-05
1.85428e-05
1.85421e-05
1.85421e-05
1.85417e-05
1.85418e-05
1.85412e-05
1.85413e-05
1.85413e-05
1.85411e-05
1.85416e-05
1.85416e-05
1.85419e-05
1.85419e-05
1.85419e-05
1.85424e-05
1.85422e-05
1.85424e-05
1.85423e-05
1.85423e-05
1.85422e-05
1.8543e-05
1.85427e-05
1.85425e-05
1.85423e-05
1.85426e-05
1.85425e-05
1.85425e-05
1.85425e-05
1.80684e-05
1.80682e-05
1.80674e-05
1.80669e-05
1.80659e-05
1.80657e-05
1.80651e-05
1.80648e-05
1.80645e-05
1.80642e-05
1.8064e-05
1.80643e-05
1.80642e-05
1.80643e-05
1.80642e-05
1.80641e-05
1.80644e-05
1.80644e-05
1.80643e-05
1.80639e-05
1.80643e-05
1.80643e-05
1.80643e-05
1.8064e-05
1.80642e-05
1.80641e-05
1.80639e-05
1.8064e-05
1.8064e-05
1.80639e-05
1.80645e-05
1.80644e-05
1.80646e-05
1.80642e-05
1.80641e-05
1.80639e-05
1.80641e-05
1.80638e-05
1.80638e-05
1.80638e-05
1.80635e-05
1.80638e-05
1.80638e-05
1.80639e-05
1.80639e-05
1.80639e-05
1.80644e-05
1.80643e-05
1.80644e-05
1.80643e-05
1.80642e-05
1.8064e-05
1.80647e-05
1.80645e-05
1.80642e-05
1.80643e-05
1.80645e-05
1.80645e-05
1.80644e-05
1.80645e-05
1.75556e-05
1.75554e-05
1.75547e-05
1.75543e-05
1.75533e-05
1.75532e-05
1.75526e-05
1.75523e-05
1.75521e-05
1.7552e-05
1.7552e-05
1.75521e-05
1.75521e-05
1.75521e-05
1.75519e-05
1.75518e-05
1.75521e-05
1.75521e-05
1.7552e-05
1.75517e-05
1.75519e-05
1.75519e-05
1.75519e-05
1.75518e-05
1.7552e-05
1.75519e-05
1.75517e-05
1.75518e-05
1.75518e-05
1.75516e-05
1.7552e-05
1.7552e-05
1.75522e-05
1.75518e-05
1.75518e-05
1.75518e-05
1.75518e-05
1.75517e-05
1.75518e-05
1.75517e-05
1.75514e-05
1.75517e-05
1.75517e-05
1.75516e-05
1.75516e-05
1.75516e-05
1.7552e-05
1.75519e-05
1.75521e-05
1.7552e-05
1.75518e-05
1.75515e-05
1.75521e-05
1.7552e-05
1.75518e-05
1.75518e-05
1.7552e-05
1.7552e-05
1.75521e-05
1.75521e-05
1.70103e-05
1.70101e-05
1.70096e-05
1.70092e-05
1.70084e-05
1.70082e-05
1.70078e-05
1.70075e-05
1.70073e-05
1.70074e-05
1.70074e-05
1.70076e-05
1.70075e-05
1.70074e-05
1.70071e-05
1.7007e-05
1.70073e-05
1.70073e-05
1.70072e-05
1.7007e-05
1.70071e-05
1.70072e-05
1.70072e-05
1.70071e-05
1.70073e-05
1.70072e-05
1.7007e-05
1.70071e-05
1.70071e-05
1.70069e-05
1.70072e-05
1.70071e-05
1.70073e-05
1.7007e-05
1.70072e-05
1.70071e-05
1.70072e-05
1.70071e-05
1.70072e-05
1.70072e-05
1.70069e-05
1.70071e-05
1.70071e-05
1.7007e-05
1.70069e-05
1.70068e-05
1.70071e-05
1.70071e-05
1.70072e-05
1.70072e-05
1.7007e-05
1.70068e-05
1.70072e-05
1.70071e-05
1.70069e-05
1.7007e-05
1.70071e-05
1.70071e-05
1.70072e-05
1.70072e-05
1.64342e-05
1.64341e-05
1.64337e-05
1.64334e-05
1.64327e-05
1.64325e-05
1.64321e-05
1.64318e-05
1.64319e-05
1.64319e-05
1.64319e-05
1.64321e-05
1.6432e-05
1.64319e-05
1.64317e-05
1.64316e-05
1.64318e-05
1.64318e-05
1.64317e-05
1.64315e-05
1.64317e-05
1.64317e-05
1.64317e-05
1.64317e-05
1.64318e-05
1.64318e-05
1.64316e-05
1.64317e-05
1.64317e-05
1.64315e-05
1.64316e-05
1.64316e-05
1.64317e-05
1.64316e-05
1.64317e-05
1.64317e-05
1.64318e-05
1.64316e-05
1.64317e-05
1.64317e-05
1.64316e-05
1.64317e-05
1.64317e-05
1.64315e-05
1.64314e-05
1.64313e-05
1.64316e-05
1.64316e-05
1.64317e-05
1.64316e-05
1.64315e-05
1.64313e-05
1.64316e-05
1.64316e-05
1.64315e-05
1.64314e-05
1.64316e-05
1.64316e-05
1.64316e-05
1.64316e-05
1.58291e-05
1.5829e-05
1.58287e-05
1.58284e-05
1.58279e-05
1.58278e-05
1.58274e-05
1.58272e-05
1.58273e-05
1.58273e-05
1.58273e-05
1.58274e-05
1.58274e-05
1.58273e-05
1.58271e-05
1.5827e-05
1.58272e-05
1.58272e-05
1.58271e-05
1.5827e-05
1.58271e-05
1.58271e-05
1.58271e-05
1.58271e-05
1.58272e-05
1.58272e-05
1.5827e-05
1.58271e-05
1.58271e-05
1.58269e-05
1.5827e-05
1.5827e-05
1.58271e-05
1.5827e-05
1.5827e-05
1.5827e-05
1.58271e-05
1.5827e-05
1.58271e-05
1.58271e-05
1.5827e-05
1.58271e-05
1.58271e-05
1.5827e-05
1.58268e-05
1.58268e-05
1.5827e-05
1.5827e-05
1.58271e-05
1.5827e-05
1.58269e-05
1.58268e-05
1.5827e-05
1.5827e-05
1.58269e-05
1.58269e-05
1.58269e-05
1.58269e-05
1.5827e-05
1.5827e-05
1.51966e-05
1.51966e-05
1.51964e-05
1.51962e-05
1.51958e-05
1.51957e-05
1.51954e-05
1.51953e-05
1.51953e-05
1.51953e-05
1.51953e-05
1.51954e-05
1.51954e-05
1.51954e-05
1.51952e-05
1.51952e-05
1.51953e-05
1.51953e-05
1.51952e-05
1.51951e-05
1.51952e-05
1.51952e-05
1.51952e-05
1.51952e-05
1.51953e-05
1.51953e-05
1.51952e-05
1.51952e-05
1.51952e-05
1.5195e-05
1.51951e-05
1.51951e-05
1.51951e-05
1.5195e-05
1.51951e-05
1.51951e-05
1.51952e-05
1.51951e-05
1.51951e-05
1.51951e-05
1.51951e-05
1.51952e-05
1.51952e-05
1.51951e-05
1.5195e-05
1.51949e-05
1.51951e-05
1.51951e-05
1.51952e-05
1.51951e-05
1.51951e-05
1.51949e-05
1.51951e-05
1.51951e-05
1.5195e-05
1.5195e-05
1.51951e-05
1.51951e-05
1.51951e-05
1.51951e-05
1.45388e-05
1.45388e-05
1.45387e-05
1.45386e-05
1.45383e-05
1.45382e-05
1.45381e-05
1.4538e-05
1.4538e-05
1.4538e-05
1.4538e-05
1.45381e-05
1.45381e-05
1.45381e-05
1.4538e-05
1.4538e-05
1.45381e-05
1.4538e-05
1.4538e-05
1.45379e-05
1.4538e-05
1.4538e-05
1.4538e-05
1.4538e-05
1.4538e-05
1.4538e-05
1.4538e-05
1.4538e-05
1.4538e-05
1.45378e-05
1.45379e-05
1.45378e-05
1.45379e-05
1.45378e-05
1.45378e-05
1.45378e-05
1.45379e-05
1.45379e-05
1.45379e-05
1.45379e-05
1.45378e-05
1.45379e-05
1.45379e-05
1.45379e-05
1.45378e-05
1.45378e-05
1.45379e-05
1.45379e-05
1.4538e-05
1.45379e-05
1.45379e-05
1.45378e-05
1.45379e-05
1.45379e-05
1.45378e-05
1.45378e-05
1.45379e-05
1.45379e-05
1.45379e-05
1.45379e-05
1.3858e-05
1.3858e-05
1.3858e-05
1.38579e-05
1.38578e-05
1.38578e-05
1.38577e-05
1.38576e-05
1.38576e-05
1.38577e-05
1.38577e-05
1.38578e-05
1.38578e-05
1.38578e-05
1.38578e-05
1.38578e-05
1.38578e-05
1.38578e-05
1.38578e-05
1.38577e-05
1.38577e-05
1.38577e-05
1.38578e-05
1.38578e-05
1.38578e-05
1.38578e-05
1.38577e-05
1.38578e-05
1.38577e-05
1.38576e-05
1.38576e-05
1.38576e-05
1.38576e-05
1.38575e-05
1.38575e-05
1.38575e-05
1.38576e-05
1.38576e-05
1.38576e-05
1.38576e-05
1.38576e-05
1.38576e-05
1.38576e-05
1.38576e-05
1.38576e-05
1.38576e-05
1.38577e-05
1.38577e-05
1.38578e-05
1.38577e-05
1.38577e-05
1.38577e-05
1.38577e-05
1.38577e-05
1.38577e-05
1.38577e-05
1.38577e-05
1.38577e-05
1.38577e-05
1.38577e-05
1.31567e-05
1.31568e-05
1.31568e-05
1.31569e-05
1.31568e-05
1.31568e-05
1.31568e-05
1.31568e-05
1.31569e-05
1.3157e-05
1.3157e-05
1.31571e-05
1.31572e-05
1.31571e-05
1.31571e-05
1.31571e-05
1.31571e-05
1.31571e-05
1.31571e-05
1.31571e-05
1.31571e-05
1.31571e-05
1.31572e-05
1.31571e-05
1.31571e-05
1.31571e-05
1.31571e-05
1.31571e-05
1.31571e-05
1.3157e-05
1.3157e-05
1.31569e-05
1.31569e-05
1.31569e-05
1.31569e-05
1.31569e-05
1.3157e-05
1.31569e-05
1.31569e-05
1.3157e-05
1.31569e-05
1.31569e-05
1.3157e-05
1.3157e-05
1.3157e-05
1.3157e-05
1.31571e-05
1.31571e-05
1.31572e-05
1.31572e-05
1.31572e-05
1.31571e-05
1.31571e-05
1.31571e-05
1.31571e-05
1.31571e-05
1.31571e-05
1.31571e-05
1.31571e-05
1.31571e-05
1.24381e-05
1.24381e-05
1.24382e-05
1.24384e-05
1.24384e-05
1.24385e-05
1.24386e-05
1.24387e-05
1.24387e-05
1.24389e-05
1.2439e-05
1.24391e-05
1.24391e-05
1.24391e-05
1.24391e-05
1.24391e-05
1.24391e-05
1.24391e-05
1.24391e-05
1.24391e-05
1.24391e-05
1.24391e-05
1.24391e-05
1.24391e-05
1.24391e-05
1.24391e-05
1.2439e-05
1.2439e-05
1.2439e-05
1.2439e-05
1.2439e-05
1.24389e-05
1.24389e-05
1.24389e-05
1.24389e-05
1.24389e-05
1.24389e-05
1.24389e-05
1.24389e-05
1.24389e-05
1.24388e-05
1.24389e-05
1.24389e-05
1.2439e-05
1.24391e-05
1.24391e-05
1.24391e-05
1.24391e-05
1.24393e-05
1.24392e-05
1.24392e-05
1.24391e-05
1.24392e-05
1.24391e-05
1.24391e-05
1.24391e-05
1.24391e-05
1.24392e-05
1.24391e-05
1.24391e-05
1.17055e-05
1.17056e-05
1.17057e-05
1.1706e-05
1.17061e-05
1.17063e-05
1.17064e-05
1.17066e-05
1.17067e-05
1.17069e-05
1.1707e-05
1.17072e-05
1.17071e-05
1.17071e-05
1.17071e-05
1.17071e-05
1.17071e-05
1.17071e-05
1.17071e-05
1.17071e-05
1.17071e-05
1.17071e-05
1.17072e-05
1.17071e-05
1.17071e-05
1.17071e-05
1.17071e-05
1.17071e-05
1.1707e-05
1.1707e-05
1.17071e-05
1.1707e-05
1.1707e-05
1.1707e-05
1.1707e-05
1.1707e-05
1.1707e-05
1.1707e-05
1.1707e-05
1.1707e-05
1.17069e-05
1.17069e-05
1.17069e-05
1.1707e-05
1.17072e-05
1.17071e-05
1.17071e-05
1.17071e-05
1.17073e-05
1.17073e-05
1.17074e-05
1.17073e-05
1.17073e-05
1.17073e-05
1.17073e-05
1.17073e-05
1.17073e-05
1.17072e-05
1.17073e-05
1.17072e-05
1.09631e-05
1.09632e-05
1.09633e-05
1.09637e-05
1.09639e-05
1.09642e-05
1.09644e-05
1.09646e-05
1.09648e-05
1.0965e-05
1.09652e-05
1.09654e-05
1.09653e-05
1.09653e-05
1.09653e-05
1.09653e-05
1.09653e-05
1.09653e-05
1.09653e-05
1.09653e-05
1.09653e-05
1.09653e-05
1.09654e-05
1.09653e-05
1.09653e-05
1.09653e-05
1.09652e-05
1.09653e-05
1.09652e-05
1.09652e-05
1.09652e-05
1.09652e-05
1.09652e-05
1.09652e-05
1.09652e-05
1.09651e-05
1.09651e-05
1.09651e-05
1.09651e-05
1.09652e-05
1.09651e-05
1.09651e-05
1.09651e-05
1.09652e-05
1.09652e-05
1.09652e-05
1.09652e-05
1.09652e-05
1.09657e-05
1.09656e-05
1.09656e-05
1.09655e-05
1.09656e-05
1.09656e-05
1.09655e-05
1.09655e-05
1.09655e-05
1.09655e-05
1.09655e-05
1.09655e-05
1.02156e-05
1.02157e-05
1.02159e-05
1.02163e-05
1.02166e-05
1.02169e-05
1.02172e-05
1.02175e-05
1.02178e-05
1.0218e-05
1.02184e-05
1.02183e-05
1.02184e-05
1.02184e-05
1.02184e-05
1.02184e-05
1.02184e-05
1.02184e-05
1.02184e-05
1.02184e-05
1.02184e-05
1.02184e-05
1.02184e-05
1.02184e-05
1.02184e-05
1.02184e-05
1.02183e-05
1.02184e-05
1.02183e-05
1.02184e-05
1.02184e-05
1.02184e-05
1.02184e-05
1.02184e-05
1.02183e-05
1.02183e-05
1.02183e-05
1.02183e-05
1.02182e-05
1.02182e-05
1.02182e-05
1.02182e-05
1.02182e-05
1.02183e-05
1.02183e-05
1.02182e-05
1.02182e-05
1.02183e-05
1.02189e-05
1.02188e-05
1.02188e-05
1.02187e-05
1.02187e-05
1.02188e-05
1.02187e-05
1.02187e-05
1.02187e-05
1.02186e-05
1.02186e-05
1.02187e-05
9.46891e-06
9.46895e-06
9.46914e-06
9.46966e-06
9.47e-06
9.47046e-06
9.47078e-06
9.47115e-06
9.47147e-06
9.47184e-06
9.47212e-06
9.47226e-06
9.47255e-06
9.47239e-06
9.47242e-06
9.47238e-06
9.47239e-06
9.47238e-06
9.47233e-06
9.47235e-06
9.47231e-06
9.47231e-06
9.47227e-06
9.47233e-06
9.47229e-06
9.47223e-06
9.47221e-06
9.47228e-06
9.47223e-06
9.47224e-06
9.47218e-06
9.47225e-06
9.47222e-06
9.47218e-06
9.47225e-06
9.47221e-06
9.47214e-06
9.47217e-06
9.47211e-06
9.47212e-06
9.47213e-06
9.47225e-06
9.47216e-06
9.47218e-06
9.47214e-06
9.47224e-06
9.47217e-06
9.47225e-06
9.47273e-06
9.47267e-06
9.47271e-06
9.47266e-06
9.47265e-06
9.47261e-06
9.47262e-06
9.47256e-06
9.47255e-06
9.4725e-06
9.47257e-06
9.47254e-06
8.73022e-06
8.73029e-06
8.73055e-06
8.73113e-06
8.73154e-06
8.73207e-06
8.73242e-06
8.73286e-06
8.73321e-06
8.73366e-06
8.73399e-06
8.7343e-06
8.73459e-06
8.73448e-06
8.73444e-06
8.73441e-06
8.73449e-06
8.73447e-06
8.73445e-06
8.73446e-06
8.73432e-06
8.73431e-06
8.73425e-06
8.73432e-06
8.73426e-06
8.7342e-06
8.73417e-06
8.73417e-06
8.73415e-06
8.73418e-06
8.73414e-06
8.73416e-06
8.7341e-06
8.73408e-06
8.73405e-06
8.73406e-06
8.73406e-06
8.73412e-06
8.73404e-06
8.73402e-06
8.7342e-06
8.73426e-06
8.73413e-06
8.73416e-06
8.73414e-06
8.73416e-06
8.73415e-06
8.73416e-06
8.73433e-06
8.73464e-06
8.73477e-06
8.73455e-06
8.73453e-06
8.73447e-06
8.73447e-06
8.7346e-06
8.73441e-06
8.7344e-06
8.73437e-06
8.73438e-06
1.29286e-05
1.29042e-05
1.29055e-05
1.29013e-05
1.29022e-05
1.29008e-05
1.29254e-05
1.29255e-05
1.29074e-05
1.29032e-05
1.29279e-05
1.29033e-05
1.2928e-05
1.29269e-05
1.29066e-05
1.29041e-05
1.29274e-05
1.29055e-05
1.29036e-05
1.29268e-05
1.29249e-05
1.29299e-05
1.29056e-05
1.29048e-05
1.29032e-05
1.29005e-05
1.29027e-05
1.29e-05
1.29269e-05
1.29005e-05
1.29262e-05
1.29039e-05
1.29033e-05
1.29256e-05
1.29279e-05
1.29054e-05
1.29076e-05
1.2901e-05
1.29281e-05
1.29004e-05
1.29302e-05
1.2902e-05
1.29294e-05
1.29016e-05
1.29024e-05
1.29017e-05
1.29008e-05
1.29009e-05
1.29026e-05
1.29033e-05
1.29236e-05
1.29273e-05
1.29029e-05
1.29288e-05
1.29041e-05
1.29052e-05
1.29265e-05
1.29294e-05
1.29052e-05
1.29273e-05
1.80709e-05
1.8078e-05
1.80836e-05
1.80823e-05
1.80816e-05
1.80811e-05
1.80724e-05
1.80652e-05
1.80777e-05
1.80821e-05
1.80727e-05
1.80793e-05
1.80733e-05
1.80676e-05
1.80781e-05
1.80826e-05
1.80724e-05
1.80798e-05
1.80831e-05
1.8074e-05
1.80667e-05
1.80675e-05
1.80782e-05
1.8082e-05
1.8083e-05
1.80813e-05
1.80818e-05
1.80807e-05
1.8072e-05
1.80774e-05
1.807e-05
1.80772e-05
1.8082e-05
1.8072e-05
1.80675e-05
1.80763e-05
1.80847e-05
1.80822e-05
1.8073e-05
1.80774e-05
1.80724e-05
1.80779e-05
1.80728e-05
1.80779e-05
1.80804e-05
1.80806e-05
1.80804e-05
1.80803e-05
1.80809e-05
1.80831e-05
1.80719e-05
1.8067e-05
1.80768e-05
1.80717e-05
1.80777e-05
1.8083e-05
1.8073e-05
1.80693e-05
1.80794e-05
1.80716e-05
1.96247e-05
1.96313e-05
1.96373e-05
1.96389e-05
1.96381e-05
1.96379e-05
1.96293e-05
1.96189e-05
1.9628e-05
1.96363e-05
1.96268e-05
1.96333e-05
1.96276e-05
1.96207e-05
1.96291e-05
1.96369e-05
1.96267e-05
1.96327e-05
1.9638e-05
1.96299e-05
1.96217e-05
1.96184e-05
1.96292e-05
1.96352e-05
1.96382e-05
1.96382e-05
1.96381e-05
1.96376e-05
1.96272e-05
1.9633e-05
1.96245e-05
1.96303e-05
1.96367e-05
1.96278e-05
1.96203e-05
1.96274e-05
1.96368e-05
1.96383e-05
1.9628e-05
1.96331e-05
1.96253e-05
1.96321e-05
1.96257e-05
1.96323e-05
1.96353e-05
1.96365e-05
1.96366e-05
1.96368e-05
1.96365e-05
1.96386e-05
1.96293e-05
1.96201e-05
1.96299e-05
1.96244e-05
1.96303e-05
1.96367e-05
1.96283e-05
1.96214e-05
1.96318e-05
1.9625e-05
2.01173e-05
2.01206e-05
2.01246e-05
2.0128e-05
2.01278e-05
2.01277e-05
2.01226e-05
2.01126e-05
2.01159e-05
2.01237e-05
2.01179e-05
2.01221e-05
2.01189e-05
2.01128e-05
2.01166e-05
2.01244e-05
2.01181e-05
2.01209e-05
2.0126e-05
2.01217e-05
2.01156e-05
2.01097e-05
2.01164e-05
2.01222e-05
2.01259e-05
2.01278e-05
2.01276e-05
2.01277e-05
2.01198e-05
2.01233e-05
2.0117e-05
2.01194e-05
2.01249e-05
2.01201e-05
2.01126e-05
2.01157e-05
2.01223e-05
2.0127e-05
2.01197e-05
2.01232e-05
2.01167e-05
2.01213e-05
2.01164e-05
2.01212e-05
2.0124e-05
2.01256e-05
2.01261e-05
2.01267e-05
2.0126e-05
2.01273e-05
2.01225e-05
2.0113e-05
2.01188e-05
2.01151e-05
2.01186e-05
2.01242e-05
2.01201e-05
2.01129e-05
2.01196e-05
2.01162e-05
2.01677e-05
2.01687e-05
2.01704e-05
2.0174e-05
2.01744e-05
2.01747e-05
2.01722e-05
2.01651e-05
2.01646e-05
2.01692e-05
2.01666e-05
2.01691e-05
2.01676e-05
2.01636e-05
2.01645e-05
2.01697e-05
2.01669e-05
2.0168e-05
2.01716e-05
2.01699e-05
2.01669e-05
2.01608e-05
2.01637e-05
2.01677e-05
2.0171e-05
2.0174e-05
2.01741e-05
2.01749e-05
2.01697e-05
2.01714e-05
2.01674e-05
2.01678e-05
2.0171e-05
2.01691e-05
2.01638e-05
2.01643e-05
2.01669e-05
2.01725e-05
2.01685e-05
2.01709e-05
2.01663e-05
2.0169e-05
2.01655e-05
2.01684e-05
2.01705e-05
2.01722e-05
2.01728e-05
2.01738e-05
2.01733e-05
2.01737e-05
2.01717e-05
2.01647e-05
2.0167e-05
2.01644e-05
2.0166e-05
2.01698e-05
2.01684e-05
2.01633e-05
2.01667e-05
2.01651e-05
2.00066e-05
2.00066e-05
2.00069e-05
2.0009e-05
2.00099e-05
2.00105e-05
2.00095e-05
2.00059e-05
2.00032e-05
2.00054e-05
2.00042e-05
2.00058e-05
2.0005e-05
2.0003e-05
2.00024e-05
2.00052e-05
2.00044e-05
2.00048e-05
2.00069e-05
2.00065e-05
2.00055e-05
2.00014e-05
2.0002e-05
2.00037e-05
2.00059e-05
2.00089e-05
2.00094e-05
2.00108e-05
2.00078e-05
2.00086e-05
2.00064e-05
2.00056e-05
2.00071e-05
2.00065e-05
2.00037e-05
2.00029e-05
2.00033e-05
2.00073e-05
2.00056e-05
2.00076e-05
2.00047e-05
2.00062e-05
2.00037e-05
2.00053e-05
2.00065e-05
2.00081e-05
2.00087e-05
2.00099e-05
2.00097e-05
2.00095e-05
2.00087e-05
2.00046e-05
2.00051e-05
2.0003e-05
2.00036e-05
2.00053e-05
2.00052e-05
2.00025e-05
2.00038e-05
2.00029e-05
1.97309e-05
1.97308e-05
1.97301e-05
1.9731e-05
1.97318e-05
1.97326e-05
1.97322e-05
1.97309e-05
1.97282e-05
1.97288e-05
1.9728e-05
1.97289e-05
1.97283e-05
1.97276e-05
1.97267e-05
1.97279e-05
1.97279e-05
1.97281e-05
1.97292e-05
1.9729e-05
1.97293e-05
1.97273e-05
1.97267e-05
1.97271e-05
1.97281e-05
1.97304e-05
1.97311e-05
1.97326e-05
1.97312e-05
1.97317e-05
1.97306e-05
1.97296e-05
1.973e-05
1.97298e-05
1.97285e-05
1.97278e-05
1.97268e-05
1.97293e-05
1.97287e-05
1.97304e-05
1.97287e-05
1.97297e-05
1.9728e-05
1.97288e-05
1.97293e-05
1.97304e-05
1.9731e-05
1.9732e-05
1.97321e-05
1.97319e-05
1.97316e-05
1.97295e-05
1.97293e-05
1.97275e-05
1.97278e-05
1.9728e-05
1.97283e-05
1.97271e-05
1.97275e-05
1.97269e-05
1.93841e-05
1.93838e-05
1.93827e-05
1.93829e-05
1.93832e-05
1.93839e-05
1.93837e-05
1.93835e-05
1.9382e-05
1.93817e-05
1.93807e-05
1.93813e-05
1.93808e-05
1.93807e-05
1.93802e-05
1.93804e-05
1.93804e-05
1.93805e-05
1.9381e-05
1.9381e-05
1.93816e-05
1.93809e-05
1.93801e-05
1.938e-05
1.93804e-05
1.93816e-05
1.93822e-05
1.93836e-05
1.93832e-05
1.93837e-05
1.93831e-05
1.93825e-05
1.93822e-05
1.93821e-05
1.93814e-05
1.93811e-05
1.938e-05
1.93813e-05
1.9381e-05
1.93823e-05
1.93814e-05
1.93822e-05
1.93811e-05
1.93815e-05
1.93816e-05
1.93821e-05
1.93827e-05
1.93832e-05
1.93838e-05
1.93835e-05
1.93834e-05
1.93825e-05
1.93822e-05
1.93808e-05
1.9381e-05
1.93807e-05
1.93809e-05
1.93802e-05
1.93803e-05
1.93798e-05
1.89856e-05
1.89853e-05
1.89842e-05
1.89838e-05
1.89838e-05
1.89843e-05
1.89841e-05
1.89844e-05
1.89838e-05
1.89832e-05
1.89822e-05
1.89826e-05
1.89821e-05
1.89823e-05
1.89821e-05
1.89817e-05
1.89817e-05
1.89818e-05
1.89819e-05
1.89818e-05
1.89825e-05
1.89823e-05
1.89819e-05
1.89816e-05
1.89818e-05
1.89823e-05
1.89826e-05
1.89837e-05
1.89837e-05
1.89842e-05
1.8984e-05
1.89838e-05
1.89833e-05
1.89831e-05
1.89827e-05
1.89829e-05
1.8982e-05
1.89825e-05
1.89823e-05
1.89832e-05
1.89827e-05
1.89833e-05
1.89826e-05
1.89829e-05
1.89829e-05
1.89831e-05
1.89835e-05
1.89837e-05
1.89843e-05
1.89841e-05
1.8984e-05
1.89836e-05
1.89836e-05
1.89827e-05
1.89829e-05
1.89824e-05
1.89822e-05
1.89816e-05
1.89817e-05
1.89814e-05
1.85449e-05
1.85447e-05
1.85437e-05
1.85431e-05
1.85427e-05
1.8543e-05
1.85428e-05
1.85432e-05
1.8543e-05
1.85425e-05
1.85417e-05
1.8542e-05
1.85416e-05
1.85417e-05
1.85417e-05
1.85414e-05
1.85411e-05
1.85411e-05
1.85411e-05
1.8541e-05
1.85416e-05
1.85415e-05
1.85414e-05
1.85412e-05
1.85413e-05
1.85414e-05
1.85416e-05
1.85422e-05
1.85422e-05
1.85428e-05
1.85427e-05
1.85429e-05
1.85426e-05
1.85422e-05
1.85421e-05
1.85424e-05
1.85418e-05
1.85419e-05
1.85417e-05
1.85423e-05
1.8542e-05
1.85425e-05
1.85421e-05
1.85422e-05
1.85422e-05
1.85422e-05
1.85425e-05
1.85426e-05
1.85431e-05
1.8543e-05
1.85427e-05
1.85427e-05
1.85429e-05
1.85423e-05
1.85425e-05
1.8542e-05
1.85416e-05
1.85411e-05
1.85412e-05
1.8541e-05
1.8067e-05
1.80668e-05
1.8066e-05
1.80652e-05
1.80647e-05
1.80647e-05
1.80645e-05
1.80649e-05
1.80648e-05
1.80645e-05
1.80639e-05
1.80641e-05
1.80639e-05
1.80638e-05
1.8064e-05
1.80637e-05
1.80634e-05
1.80634e-05
1.80634e-05
1.80632e-05
1.80635e-05
1.80635e-05
1.80636e-05
1.80635e-05
1.80636e-05
1.80636e-05
1.80637e-05
1.80639e-05
1.80639e-05
1.80645e-05
1.80644e-05
1.80647e-05
1.80646e-05
1.80642e-05
1.80643e-05
1.80645e-05
1.80641e-05
1.80642e-05
1.80639e-05
1.80642e-05
1.80641e-05
1.80645e-05
1.80642e-05
1.80644e-05
1.80644e-05
1.80644e-05
1.80645e-05
1.80645e-05
1.80649e-05
1.80648e-05
1.80645e-05
1.80646e-05
1.80648e-05
1.80644e-05
1.80646e-05
1.80644e-05
1.80638e-05
1.80634e-05
1.80635e-05
1.80634e-05
1.75546e-05
1.75544e-05
1.75537e-05
1.75531e-05
1.75524e-05
1.75523e-05
1.75519e-05
1.75522e-05
1.75522e-05
1.75521e-05
1.75517e-05
1.75519e-05
1.75516e-05
1.75517e-05
1.75517e-05
1.75515e-05
1.75513e-05
1.75513e-05
1.75512e-05
1.7551e-05
1.75512e-05
1.75512e-05
1.75513e-05
1.75513e-05
1.75514e-05
1.75514e-05
1.75514e-05
1.75515e-05
1.75515e-05
1.75519e-05
1.75519e-05
1.75522e-05
1.75521e-05
1.75519e-05
1.75519e-05
1.75521e-05
1.75519e-05
1.75518e-05
1.75515e-05
1.75518e-05
1.75517e-05
1.75521e-05
1.75519e-05
1.75521e-05
1.75521e-05
1.7552e-05
1.75522e-05
1.75522e-05
1.75524e-05
1.75523e-05
1.75521e-05
1.7552e-05
1.75523e-05
1.75521e-05
1.75523e-05
1.75521e-05
1.75517e-05
1.75513e-05
1.75514e-05
1.75513e-05
1.70095e-05
1.70094e-05
1.70089e-05
1.70084e-05
1.70077e-05
1.70075e-05
1.70071e-05
1.70073e-05
1.70073e-05
1.70072e-05
1.7007e-05
1.70071e-05
1.7007e-05
1.70068e-05
1.7007e-05
1.70069e-05
1.70066e-05
1.70067e-05
1.70066e-05
1.70063e-05
1.70064e-05
1.70065e-05
1.70066e-05
1.70066e-05
1.70067e-05
1.70067e-05
1.70067e-05
1.70068e-05
1.70067e-05
1.7007e-05
1.7007e-05
1.70072e-05
1.70072e-05
1.7007e-05
1.70071e-05
1.70072e-05
1.70071e-05
1.7007e-05
1.70067e-05
1.7007e-05
1.7007e-05
1.70072e-05
1.70072e-05
1.70073e-05
1.70073e-05
1.70073e-05
1.70074e-05
1.70074e-05
1.70075e-05
1.70075e-05
1.70072e-05
1.70073e-05
1.70075e-05
1.70073e-05
1.70075e-05
1.70074e-05
1.70071e-05
1.70068e-05
1.70067e-05
1.70065e-05
1.64336e-05
1.64336e-05
1.64332e-05
1.64328e-05
1.64322e-05
1.6432e-05
1.64316e-05
1.64317e-05
1.64317e-05
1.64317e-05
1.64315e-05
1.64316e-05
1.64315e-05
1.64314e-05
1.64315e-05
1.64314e-05
1.64313e-05
1.64312e-05
1.6431e-05
1.64307e-05
1.64309e-05
1.64309e-05
1.64311e-05
1.64311e-05
1.64312e-05
1.64312e-05
1.64312e-05
1.64312e-05
1.64312e-05
1.64314e-05
1.64314e-05
1.64316e-05
1.64316e-05
1.64315e-05
1.64315e-05
1.64316e-05
1.64316e-05
1.64314e-05
1.64312e-05
1.64314e-05
1.64314e-05
1.64317e-05
1.64316e-05
1.64317e-05
1.64317e-05
1.64317e-05
1.64318e-05
1.64318e-05
1.64319e-05
1.64319e-05
1.64317e-05
1.64317e-05
1.64319e-05
1.64318e-05
1.6432e-05
1.64319e-05
1.64317e-05
1.64313e-05
1.64313e-05
1.64311e-05
1.58286e-05
1.58286e-05
1.58284e-05
1.5828e-05
1.58276e-05
1.58274e-05
1.58271e-05
1.58271e-05
1.58271e-05
1.58271e-05
1.58269e-05
1.5827e-05
1.58269e-05
1.58268e-05
1.58269e-05
1.58269e-05
1.58267e-05
1.58265e-05
1.58264e-05
1.58262e-05
1.58263e-05
1.58264e-05
1.58264e-05
1.58264e-05
1.58265e-05
1.58265e-05
1.58265e-05
1.58267e-05
1.58266e-05
1.58268e-05
1.58268e-05
1.58269e-05
1.58269e-05
1.58268e-05
1.58268e-05
1.58269e-05
1.58269e-05
1.58268e-05
1.58266e-05
1.58268e-05
1.58268e-05
1.5827e-05
1.5827e-05
1.5827e-05
1.58271e-05
1.58271e-05
1.58271e-05
1.58272e-05
1.58272e-05
1.58272e-05
1.58271e-05
1.58271e-05
1.58273e-05
1.58272e-05
1.58273e-05
1.58272e-05
1.58271e-05
1.58268e-05
1.58267e-05
1.58266e-05
1.51963e-05
1.51963e-05
1.51961e-05
1.51959e-05
1.51956e-05
1.51955e-05
1.51952e-05
1.51951e-05
1.51952e-05
1.51952e-05
1.5195e-05
1.51951e-05
1.5195e-05
1.51949e-05
1.5195e-05
1.5195e-05
1.51949e-05
1.51947e-05
1.51946e-05
1.51944e-05
1.51945e-05
1.51945e-05
1.51946e-05
1.51946e-05
1.51946e-05
1.51946e-05
1.51946e-05
1.51947e-05
1.51947e-05
1.51948e-05
1.51948e-05
1.51949e-05
1.51949e-05
1.51949e-05
1.51949e-05
1.5195e-05
1.5195e-05
1.51949e-05
1.51947e-05
1.51948e-05
1.51949e-05
1.5195e-05
1.5195e-05
1.51951e-05
1.51951e-05
1.51951e-05
1.51952e-05