/*--------------------------------*- C++ -*----------------------------------*\
| =========                 |                                                 |
| \\      /  F ield         | OpenFOAM: The Open Source CFD Toolbox           |
|  \\    /   O peration     | Version:  2312                                  |
|   \\  /    A nd           | Website:  www.openfoam.com                      |
|    \\/     M anipulation  |                                                 |
\*---------------------------------------------------------------------------*/
FoamFile
{
    version     2.0;
    format      ascii;
    arch        "LSB;label=32;scalar=64";
    class       volScalarField;
    location    "200";
    object      p;
}
// * * * * * * * * * * * * * * * * * * * * * * * * * * * * * * * * * * * * * //

dimensions      [0 2 -2 0 0 0 0];

internalField   nonuniform List<scalar> 
144000
(
1.04989e-08
-1.95149e-08
-1.64092e-07
-2.1279e-07
7.13547e-08
-1.52237e-08
-6.32904e-08
2.23602e-07
2.66528e-07
6.94898e-08
-1.04286e-08
1.38049e-10
-9.96146e-08
-1.66384e-07
-3.40835e-08
2.06043e-07
8.60706e-08
-1.20327e-07
-2.26404e-07
1.5768e-08
3.84677e-07
1.84041e-07
-1.29977e-07
6.72708e-08
6.01932e-08
-2.03526e-07
5.74834e-08
-1.92642e-08
-2.09911e-07
1.05356e-07
1.24068e-07
1.24556e-07
1.64578e-08
8.66662e-09
2.84158e-07
3.05832e-07
1.17668e-08
4.46274e-08
1.74835e-07
-1.28223e-07
1.27496e-07
2.08813e-07
-7.83717e-09
-7.20103e-08
9.4301e-09
3.01442e-07
1.58241e-07
-1.02823e-07
-1.05442e-07
-1.69374e-07
-2.11048e-07
1.57591e-07
1.1581e-07
-2.63748e-07
-5.7066e-08
2.16508e-07
9.18606e-08
-4.20672e-08
-4.92606e-08
-2.91151e-08
1.06995e-08
-1.8955e-08
-1.62148e-07
-1.9548e-07
6.90215e-08
-1.39617e-08
-4.65005e-08
2.20502e-07
2.46985e-07
5.30414e-08
-8.32974e-09
9.80147e-10
-9.82617e-08
-1.46694e-07
-1.9468e-08
1.84376e-07
6.91487e-08
-1.16771e-07
-2.06617e-07
2.93041e-08
3.62067e-07
1.69638e-07
-1.08717e-07
6.46884e-08
4.40181e-08
-1.83225e-07
5.48332e-08
-3.57992e-08
-1.9093e-07
1.03594e-07
1.2388e-07
1.24443e-07
1.75673e-08
2.58847e-08
2.80967e-07
2.88078e-07
1.43934e-08
4.26534e-08
1.588e-07
-1.08193e-07
1.24564e-07
1.91034e-07
-5.03168e-09
-5.13723e-08
2.39316e-08
2.797e-07
1.42209e-07
-1.00752e-07
-1.04793e-07
-1.67303e-07
-1.93607e-07
1.53955e-07
9.96853e-08
-2.42265e-07
-4.25263e-08
1.94481e-07
7.50656e-08
-4.03488e-08
-4.86972e-08
-2.9141e-08
1.04981e-08
-1.84771e-08
-1.58461e-07
-1.89576e-07
6.51229e-08
-1.14862e-08
-4.1119e-08
2.14446e-07
2.37918e-07
4.92453e-08
-4.8155e-09
2.17312e-09
-9.58066e-08
-1.37167e-07
-1.79836e-08
1.71735e-07
6.43094e-08
-1.10052e-07
-1.96319e-07
2.92565e-08
3.47832e-07
1.68023e-07
-9.81721e-08
5.95911e-08
4.04948e-08
-1.73856e-07
4.99768e-08
-3.95257e-08
-1.8253e-07
1.00812e-07
1.23058e-07
1.24268e-07
1.99845e-08
3.16183e-08
2.74799e-07
2.81307e-07
1.85139e-08
3.9638e-08
1.55162e-07
-9.86171e-08
1.19084e-07
1.84473e-07
3.52202e-10
-4.08744e-08
2.52439e-08
2.6672e-07
1.38159e-07
-9.70506e-08
-1.03815e-07
-1.6308e-07
-1.87789e-07
1.47172e-07
9.58136e-08
-2.30279e-07
-4.07925e-08
1.8222e-07
7.02839e-08
-3.73394e-08
-4.72703e-08
-2.9059e-08
1.0086e-08
-1.8466e-08
-1.53454e-07
-1.84849e-07
6.00891e-08
-8.118e-09
-3.7493e-08
2.05703e-07
2.29671e-07
4.84718e-08
-7.19556e-10
3.62324e-09
-9.22482e-08
-1.28952e-07
-1.97499e-08
1.58733e-07
6.16971e-08
-1.01703e-07
-1.85687e-07
2.62033e-08
3.32513e-07
1.69007e-07
-8.80516e-08
5.31317e-08
3.94762e-08
-1.65123e-07
4.33592e-08
-3.9964e-08
-1.74724e-07
9.70605e-08
1.21895e-07
1.23958e-07
2.43818e-08
3.55379e-08
2.65865e-07
2.75368e-07
2.38704e-08
3.64234e-08
1.53545e-07
-8.90343e-08
1.11822e-07
1.79389e-07
7.08729e-09
-3.12122e-08
2.37647e-08
2.52859e-07
1.3624e-07
-9.20585e-08
-1.02907e-07
-1.57309e-07
-1.8296e-07
1.37586e-07
9.39876e-08
-2.17695e-07
-4.23818e-08
1.69908e-07
6.78666e-08
-3.36815e-08
-4.56083e-08
-2.86489e-08
9.58359e-09
-1.88131e-08
-1.47226e-07
-1.79096e-07
5.44086e-08
-4.18362e-09
-3.35638e-08
1.95163e-07
2.20341e-07
4.80194e-08
3.56548e-09
5.50573e-09
-8.76686e-08
-1.19596e-07
-2.20839e-08
1.43972e-07
5.88512e-08
-9.23374e-08
-1.73035e-07
2.29539e-08
3.14932e-07
1.69838e-07
-7.66961e-08
4.57535e-08
3.84846e-08
-1.55233e-07
3.55781e-08
-3.94195e-08
-1.65761e-07
9.2554e-08
1.2049e-07
1.23519e-07
2.98712e-08
3.96528e-08
2.55046e-07
2.6802e-07
3.04398e-08
3.31175e-08
1.51583e-07
-7.76903e-08
1.03348e-07
1.73445e-07
1.43714e-08
-2.04559e-08
2.22556e-08
2.36639e-07
1.33961e-07
-8.60462e-08
-1.01996e-07
-1.50213e-07
-1.76881e-07
1.25637e-07
9.17111e-08
-2.02586e-07
-4.47425e-08
1.55341e-07
6.52939e-08
-2.97361e-08
-4.37145e-08
-2.78712e-08
9.01374e-09
-1.93254e-08
-1.39973e-07
-1.7248e-07
4.79392e-08
2.88043e-11
-2.94589e-08
1.83429e-07
2.10268e-07
4.75561e-08
7.61175e-09
7.85951e-09
-8.22701e-08
-1.09364e-07
-2.45964e-08
1.28077e-07
5.56959e-08
-8.24566e-08
-1.58964e-07
1.99409e-08
2.95564e-07
1.70094e-07
-6.46047e-08
3.7942e-08
3.73228e-08
-1.44579e-07
2.72789e-08
-3.806e-08
-1.55975e-07
8.75083e-08
1.18871e-07
1.22994e-07
3.58486e-08
4.38526e-08
2.43133e-07
2.59354e-07
3.8067e-08
2.98453e-08
1.49151e-07
-6.49595e-08
9.4417e-08
1.66785e-07
2.17293e-08
-8.99229e-09
2.11376e-08
2.18789e-07
1.31159e-07
-7.93274e-08
-1.01006e-07
-1.42148e-07
-1.69707e-07
1.12471e-07
8.91637e-08
-1.86223e-07
-4.74462e-08
1.39857e-07
6.23587e-08
-2.57841e-08
-4.15789e-08
-2.68089e-08
8.35379e-09
-1.98627e-08
-1.32005e-07
-1.6536e-07
4.0946e-08
4.30461e-09
-2.53893e-08
1.70972e-07
1.99855e-07
4.71353e-08
1.10737e-08
1.05498e-08
-7.63325e-08
-9.9266e-08
-2.71325e-08
1.1195e-07
5.22135e-08
-7.25145e-08
-1.44265e-07
1.73042e-08
2.75766e-07
1.6958e-07
-5.23584e-08
3.01651e-08
3.59891e-08
-1.33638e-07
1.89571e-08
-3.59169e-08
-1.45693e-07
8.20813e-08
1.17002e-07
1.22404e-07
4.21322e-08
4.79821e-08
2.30686e-07
2.49682e-07
4.63341e-08
2.68536e-08
1.46272e-07
-5.11417e-08
8.54579e-08
1.59809e-07
2.89061e-08
2.61577e-09
2.05609e-08
2.00226e-07
1.27908e-07
-7.21294e-08
-9.98854e-08
-1.33592e-07
-1.61813e-07
9.85643e-08
8.64178e-08
-1.69522e-07
-5.02431e-08
1.24483e-07
5.91512e-08
-2.20023e-08
-3.92898e-08
-2.56127e-08
7.56952e-09
-2.03478e-08
-1.23628e-07
-1.57921e-07
3.37652e-08
8.44996e-09
-2.13619e-08
1.5814e-07
1.89233e-07
4.68169e-08
1.38083e-08
1.33911e-08
-7.01058e-08
-8.96516e-08
-2.94131e-08
9.62442e-08
4.8615e-08
-6.28391e-08
-1.29453e-07
1.51352e-08
2.55887e-07
1.68244e-07
-4.02606e-08
2.27781e-08
3.4398e-08
-1.22602e-07
1.0938e-08
-3.31582e-08
-1.35038e-07
7.6416e-08
1.14826e-07
1.21723e-07
4.86181e-08
5.21063e-08
2.181e-07
2.39243e-07
5.48262e-08
2.43594e-08
1.42869e-07
-3.6887e-08
7.67478e-08
1.52658e-07
3.55807e-08
1.37789e-08
2.06662e-08
1.81644e-07
1.24182e-07
-6.45849e-08
-9.85439e-08
-1.24966e-07
-1.53447e-07
8.4416e-08
8.33839e-08
-1.52963e-07
-5.2808e-08
1.09598e-07
5.57216e-08
-1.84744e-08
-3.693e-08
-2.44122e-08
6.64101e-09
-2.07486e-08
-1.15093e-07
-1.50268e-07
2.66286e-08
1.23192e-08
-1.73343e-08
1.45202e-07
1.7851e-07
4.66376e-08
1.58232e-08
1.6242e-08
-6.37458e-08
-8.06224e-08
-3.12247e-08
8.13823e-08
4.5036e-08
-5.36456e-08
-1.14851e-07
1.34656e-08
2.36383e-07
1.66078e-07
-2.86173e-08
1.6019e-08
3.2526e-08
-1.11578e-07
3.44149e-09
-3.00037e-08
-1.24166e-07
7.06735e-08
1.12312e-07
1.20892e-07
5.51731e-08
5.62113e-08
2.0541e-07
2.28276e-07
6.3192e-08
2.24656e-08
1.38836e-07
-2.26233e-08
6.86897e-08
1.45413e-07
4.15268e-08
2.39683e-08
2.15115e-08
1.63538e-07
1.19942e-07
-5.6807e-08
-9.68534e-08
-1.16554e-07
-1.44796e-07
7.04484e-08
7.99456e-08
-1.36862e-07
-5.49019e-08
9.52835e-08
5.21465e-08
-1.52308e-08
-3.45408e-08
-2.32547e-08
5.56996e-09
-2.10542e-08
-1.06582e-07
-1.42477e-07
1.96901e-08
1.57981e-08
-1.33005e-08
1.32413e-07
1.67879e-07
4.65937e-08
1.71991e-08
1.8995e-08
-5.73344e-08
-7.22227e-08
-3.24572e-08
6.75913e-08
4.14633e-08
-4.50719e-08
-1.00677e-07
1.23021e-08
2.17578e-07
1.63081e-07
-1.75302e-08
1.0052e-08
3.04233e-08
-1.00725e-07
-3.36972e-09
-2.66728e-08
-1.13284e-07
6.50166e-08
1.09494e-07
1.19855e-07
6.16112e-08
6.01604e-08
1.93151e-07
2.17017e-07
7.11443e-08
2.13811e-08
1.34172e-07
-8.9008e-09
6.15445e-08
1.38173e-07
4.66419e-08
3.29769e-08
2.30662e-08
1.46335e-07
1.1517e-07
-4.89282e-08
-9.46979e-08
-1.08542e-07
-1.36012e-07
5.70021e-08
7.60227e-08
-1.21464e-07
-5.64505e-08
8.09943e-08
4.8505e-08
-1.22594e-08
-3.21346e-08
-2.21355e-08
4.38071e-09
-2.12598e-08
-9.8227e-08
-1.34609e-07
1.30652e-08
1.8778e-08
-9.28474e-09
1.20018e-07
1.57623e-07
4.66551e-08
1.80213e-08
2.15422e-08
-5.09249e-08
-6.44704e-08
-3.30828e-08
5.49949e-08
3.7876e-08
-3.72084e-08
-8.71787e-08
1.16366e-08
1.9968e-07
1.59288e-07
-7.10362e-09
5.00879e-09
2.81467e-08
-9.01599e-08
-9.37225e-09
-2.3351e-08
-1.0253e-07
5.9574e-08
1.06437e-07
1.18566e-07
6.77287e-08
6.38786e-08
1.81597e-07
2.05661e-07
7.84662e-08
2.10545e-08
1.28988e-07
4.94925e-09
5.52997e-08
1.31049e-07
5.0913e-08
4.06952e-08
2.52398e-08
1.30308e-07
1.09865e-07
-4.11079e-08
-9.19972e-08
-1.01048e-07
-1.27228e-07
4.43493e-08
7.15857e-08
-1.0696e-07
-5.74073e-08
6.76142e-08
4.48307e-08
-9.60552e-09
-2.97268e-08
-2.10384e-08
3.10957e-09
-2.13674e-08
-9.01245e-08
-1.26709e-07
6.8467e-09
2.11761e-08
-5.31984e-09
1.08208e-07
1.46973e-07
4.67875e-08
1.83879e-08
2.37712e-08
-4.4572e-08
-5.73631e-08
-3.31185e-08
4.36676e-08
3.42818e-08
-3.01192e-08
-7.45004e-08
1.14427e-08
1.8283e-07
1.54766e-07
2.56655e-09
9.69838e-10
2.57103e-08
-7.99782e-08
-1.44345e-08
-2.01669e-08
-9.19902e-08
5.44398e-08
1.0322e-07
1.16999e-07
7.33646e-08
6.7353e-08
1.70903e-07
1.94368e-07
8.50764e-08
2.18103e-08
1.2335e-07
1.78115e-08
5.07134e-08
1.24144e-07
5.43764e-08
4.70912e-08
2.79004e-08
1.15639e-07
1.04058e-07
-3.35158e-08
-8.87076e-08
-9.4127e-08
-1.18556e-07
3.26927e-08
6.66519e-08
-9.34927e-08
-5.77555e-08
5.52399e-08
4.11104e-08
-7.24473e-09
-2.73443e-08
-1.99705e-08
1.79323e-09
-2.1396e-08
-8.23498e-08
-1.18807e-07
1.11159e-09
2.29461e-08
-1.44194e-09
9.71281e-08
1.36547e-07
4.69569e-08
1.83982e-08
2.55856e-08
-3.83409e-08
-5.08725e-08
-3.25986e-08
3.36556e-08
3.07056e-08
-2.38076e-08
-6.27116e-08
1.16686e-08
1.6712e-07
1.49611e-07
1.14048e-08
-2.04212e-09
2.31381e-08
-7.0281e-08
-1.85083e-08
-1.71944e-08
-8.17338e-08
4.97151e-08
9.99245e-08
1.15158e-07
7.84122e-08
7.05757e-08
1.61133e-07
1.83273e-07
9.02733e-08
2.33732e-08
1.17363e-07
2.96141e-08
4.69788e-08
1.17528e-07
5.7096e-08
5.2212e-08
3.08796e-08
1.02443e-07
9.78231e-08
-2.63086e-08
-8.48278e-08
-8.7799e-08
-1.10091e-07
2.21712e-08
6.12847e-08
-8.11647e-08
-5.74912e-08
4.40723e-08
3.73213e-08
-5.32438e-09
-2.50304e-08
-1.8703e-08
4.65579e-10
-2.13887e-08
-7.49746e-08
-1.10924e-07
-4.07361e-09
2.40803e-08
2.30095e-09
8.68827e-08
1.26327e-07
4.71142e-08
1.81384e-08
2.69305e-08
-3.22994e-08
-4.49479e-08
-3.15575e-08
2.49486e-08
2.71748e-08
-1.82744e-08
-5.18564e-08
1.22476e-08
1.52594e-07
1.43938e-07
1.93601e-08
-4.0525e-09
2.04807e-08
-6.11521e-08
-2.16049e-08
-1.44688e-08
-7.18199e-08
4.54813e-08
9.66204e-08
1.13059e-07
8.28155e-08
7.35376e-08
1.52285e-07
1.72521e-07
9.4449e-08
2.56719e-08
1.11173e-07
4.02409e-08
4.4978e-08
1.11233e-07
5.92164e-08
5.61633e-08
3.40028e-08
9.07759e-08
9.12672e-08
-1.96222e-08
-8.04095e-08
-8.20593e-08
-1.01906e-07
1.28649e-08
5.55899e-08
-7.0042e-08
-5.66453e-08
3.35603e-08
3.35045e-08
-3.81245e-09
-2.28542e-08
-1.74405e-08
-8.09939e-10
-2.14015e-08
-6.80706e-08
-1.03081e-07
-8.65249e-09
2.46498e-08
5.84943e-09
7.75398e-08
1.16363e-07
4.72065e-08
1.77008e-08
2.77869e-08
-2.65149e-08
-3.94885e-08
-3.00148e-08
1.75125e-08
2.37186e-08
-1.35077e-08
-4.19632e-08
1.31061e-08
1.3928e-07
1.37873e-07
2.64034e-08
-5.11818e-09
1.78104e-08
-5.26505e-08
-2.37653e-08
-1.20024e-08
-6.22996e-08
4.17931e-08
9.33666e-08
1.10733e-07
8.65498e-08
7.62454e-08
1.44312e-07
1.62247e-07
9.75749e-08
2.85873e-08
1.04928e-07
4.9579e-08
4.36768e-08
1.05314e-07
6.08535e-08
5.90541e-08
3.71168e-08
8.06992e-08
8.45231e-08
-1.35553e-08
-7.55484e-08
-7.68638e-08
-9.40588e-08
4.80261e-09
4.97045e-08
-6.01441e-08
-5.52668e-08
2.43784e-08
2.97107e-08
-2.66405e-09
-2.08826e-08
-1.61854e-08
-2.01325e-09
-2.14787e-08
-6.16788e-08
-9.5307e-08
-1.25859e-08
2.46714e-08
9.13805e-09
6.91351e-08
1.06708e-07
4.7182e-08
1.71743e-08
2.81467e-08
-2.10566e-08
-3.44514e-08
-2.80649e-08
1.13024e-08
2.03776e-08
-9.44702e-09
-3.30432e-08
1.41695e-08
1.27171e-07
1.31536e-07
3.2525e-08
-5.31871e-09
1.52107e-08
-4.48179e-08
-2.50433e-08
-9.8008e-09
-5.32203e-08
3.86816e-08
9.02121e-08
1.08218e-07
8.96047e-08
7.86618e-08
1.37155e-07
1.52564e-07
9.96661e-08
3.19715e-08
9.87761e-08
5.75719e-08
4.36915e-08
9.98165e-08
6.20924e-08
6.10199e-08
4.00872e-08
7.20564e-08
7.7742e-08
-8.16271e-09
-7.03583e-08
-7.21452e-08
-8.6594e-08
-2.03371e-09
4.3781e-08
-5.14141e-08
-5.34423e-08
1.62545e-08
2.59714e-08
-1.86565e-09
-1.91517e-08
-1.48895e-08
-3.14085e-09
-2.16402e-08
-5.5814e-08
-8.76473e-08
-1.58566e-08
2.42122e-08
1.21041e-08
6.16721e-08
9.7441e-08
4.69884e-08
1.66378e-08
2.80341e-08
-1.59904e-08
-2.97967e-08
-2.57864e-08
6.26201e-09
1.71992e-08
-6.03376e-09
-2.50905e-08
1.53676e-08
1.16229e-07
1.25044e-07
3.7737e-08
-4.75178e-09
1.27648e-08
-3.76767e-08
-2.55092e-08
-7.85516e-09
-4.46259e-08
3.6157e-08
8.71962e-08
1.05558e-07
9.19848e-08
8.0772e-08
1.30766e-07
1.43561e-07
1.00778e-07
3.56615e-08
9.2848e-08
6.42005e-08
4.44957e-08
9.47478e-08
6.30181e-08
6.22088e-08
4.2809e-08
6.47987e-08
7.1074e-08
-3.49855e-09
-6.49524e-08
-6.7807e-08
-7.95486e-08
-7.70254e-09
3.79598e-08
-4.38052e-08
-5.12705e-08
9.13821e-09
2.23114e-08
-1.40331e-09
-1.76698e-08
-1.35721e-08
-4.17242e-09
-2.18828e-08
-5.04831e-08
-8.01551e-08
-1.84688e-08
2.33329e-08
1.47017e-08
5.51441e-08
8.86416e-08
4.65778e-08
1.61561e-08
2.75018e-08
-1.13699e-08
-2.54933e-08
-2.32477e-08
2.32056e-09
1.42288e-08
-3.34805e-09
-1.80811e-08
1.6631e-08
1.06398e-07
1.18507e-07
4.20706e-08
-3.52692e-09
1.05454e-08
-3.12394e-08
-2.52438e-08
-6.13232e-09
-3.6554e-08
3.42081e-08
8.43497e-08
1.02802e-07
9.37106e-08
8.25792e-08
1.25065e-07
1.35296e-07
1.00996e-07
3.95229e-08
8.72561e-08
6.94807e-08
4.59577e-08
9.01233e-08
6.37024e-08
6.27672e-08
4.51937e-08
5.88481e-08
6.4654e-08
4.1595e-10
-5.94388e-08
-6.37548e-08
-7.29479e-08
-1.22958e-08
3.23438e-08
-3.72576e-08
-4.88357e-08
2.96955e-09
1.87466e-08
-1.24237e-09
-1.64265e-08
-1.22421e-08
-5.09887e-09
-2.21845e-08
-4.5686e-08
-7.28878e-08
-2.04446e-08
2.21005e-08
1.69033e-08
4.95256e-08
8.03559e-08
4.59102e-08
1.57751e-08
2.66131e-08
-7.23451e-09
-2.15229e-08
-2.04695e-08
-6.01262e-10
1.15183e-08
-1.1497e-09
-1.1974e-08
1.78986e-08
9.75971e-08
1.1202e-07
4.55704e-08
-1.75472e-09
8.60398e-09
-2.54968e-08
-2.43352e-08
-4.59625e-09
-2.90333e-08
3.2801e-08
8.1692e-08
1.00009e-07
9.48164e-08
8.40757e-08
1.19978e-07
1.27799e-07
1.00429e-07
4.34019e-08
8.20896e-08
7.34658e-08
4.7909e-08
8.59629e-08
6.42e-08
6.28352e-08
4.71921e-08
5.40443e-08
5.86005e-08
3.61475e-09
-5.39216e-08
-5.99105e-08
-6.68073e-08
-1.59264e-08
2.69857e-08
-3.16815e-08
-4.62095e-08
-2.32383e-09
1.52897e-08
-1.33774e-09
-1.54051e-08
-1.09205e-08
-5.91023e-09
-2.25082e-08
-4.14119e-08
-6.59015e-08
-2.18155e-08
2.0594e-08
1.86967e-08
4.47698e-08
7.26502e-08
4.49744e-08
1.55158e-08
2.54398e-08
-3.60714e-09
-1.78759e-08
-1.76124e-08
-2.59395e-09
9.12268e-09
6.14105e-10
-6.70456e-09
1.91386e-08
8.97293e-08
1.05662e-07
4.82899e-08
4.35256e-10
6.99336e-09
-2.042e-08
-2.28798e-08
-3.2109e-09
-2.20795e-08
3.18795e-08
7.92209e-08
9.72439e-08
9.53525e-08
8.52576e-08
1.15434e-07
1.21076e-07
9.92004e-08
4.71689e-08
7.74146e-08
7.62371e-08
5.0182e-08
8.22743e-08
6.45466e-08
6.2545e-08
4.87779e-08
5.02287e-08
5.30083e-08
6.13829e-09
-4.84944e-08
-5.62116e-08
-6.11338e-08
-1.87113e-08
2.19546e-08
-2.69756e-08
-4.34512e-08
-6.81655e-09
1.19407e-08
-1.64551e-09
-1.45902e-08
-9.65772e-09
-6.5937e-09
-2.28083e-08
-3.76416e-08
-5.92491e-08
-2.26213e-08
1.88953e-08
2.00808e-08
4.08102e-08
6.55626e-08
4.37742e-08
1.53774e-08
2.40607e-08
-4.92638e-10
-1.45445e-08
-1.47615e-08
-3.79089e-09
7.09603e-09
2.01084e-09
-2.19117e-09
2.03298e-08
8.26917e-08
9.95001e-08
5.02953e-08
2.92567e-09
5.74484e-09
-1.59654e-08
-2.09754e-08
-1.93906e-09
-1.56988e-08
3.13728e-08
7.69152e-08
9.45722e-08
9.53873e-08
8.61328e-08
1.11361e-07
1.1511e-07
9.74441e-08
5.07201e-08
7.32782e-08
7.79042e-08
5.26141e-08
7.90418e-08
6.47605e-08
6.20124e-08
4.99498e-08
4.72448e-08
4.79397e-08
8.04164e-09
-4.32333e-08
-5.26132e-08
-5.59223e-08
-2.07631e-08
1.72978e-08
-2.30378e-08
-4.06307e-08
-1.05723e-08
8.72573e-09
-2.11152e-09
-1.39718e-08
-8.51615e-09
-7.14786e-09
-2.30392e-08
-3.4346e-08
-5.29789e-08
-2.2912e-08
1.70804e-08
2.10645e-08
3.75631e-08
5.91221e-08
4.23292e-08
1.53471e-08
2.25567e-08
2.11991e-09
-1.15232e-08
-1.19989e-08
-4.33714e-09
5.48475e-09
3.0912e-09
1.6407e-09
2.14368e-08
7.63881e-08
9.35865e-08
5.16656e-08
5.61013e-09
4.87168e-09
-1.20883e-08
-1.87164e-08
-7.36638e-10
-9.88699e-09
3.12064e-08
7.47527e-08
9.20414e-08
9.50014e-08
8.67165e-08
1.07683e-07
1.09856e-07
9.53004e-08
5.3973e-08
6.97086e-08
7.86168e-08
5.50581e-08
7.62332e-08
6.48378e-08
6.13328e-08
5.07281e-08
4.49457e-08
4.34316e-08
9.40413e-09
-3.82027e-08
-4.90896e-08
-5.11539e-08
-2.219e-08
1.3031e-08
-1.97685e-08
-3.78006e-08
-1.36447e-08
5.66873e-09
-2.68313e-09
-1.35327e-08
-7.55832e-09
-7.58248e-09
-2.31615e-08
-3.1489e-08
-4.71296e-08
-2.27452e-08
1.52168e-08
2.16659e-08
3.49325e-08
5.334e-08
4.06772e-08
1.54065e-08
2.09997e-08
4.26268e-09
-8.80791e-09
-9.38663e-09
-4.34083e-09
4.31238e-09
3.97255e-09
4.85677e-09
2.24316e-08
7.07338e-08
8.79508e-08
5.24792e-08
8.39333e-09
4.37414e-09
-8.72477e-09
-1.61937e-08
4.3529e-10
-4.62727e-09
3.13161e-08
7.27201e-08
8.96728e-08
9.42787e-08
8.70297e-08
1.04325e-07
1.05228e-07
9.29043e-08
5.6871e-08
6.67139e-08
7.85216e-08
5.73948e-08
7.3813e-08
6.47898e-08
6.05837e-08
5.11515e-08
4.31942e-08
3.9496e-08
1.0315e-08
-3.34564e-08
-4.56343e-08
-4.68072e-08
-2.30878e-08
9.17088e-09
-1.70751e-08
-3.50133e-08
-1.6088e-08
2.78162e-09
-3.30682e-09
-1.32198e-08
-6.83239e-09
-7.91331e-09
-2.31447e-08
-2.90317e-08
-4.17283e-08
-2.21858e-08
1.34218e-08
2.19165e-08
3.28129e-08
4.82071e-08
3.88706e-08
1.55356e-08
1.94566e-08
5.97647e-09
-6.39138e-09
-6.97196e-09
-3.90043e-09
3.57232e-09
4.69572e-09
7.52397e-09
2.33023e-08
6.5656e-08
8.26083e-08
5.2816e-08
1.11934e-08
4.23927e-09
-5.81131e-09
-1.34901e-08
1.61785e-09
1.04903e-10
3.16412e-08
7.08027e-08
8.74754e-08
9.32976e-08
8.71005e-08
1.01228e-07
1.01168e-07
9.03674e-08
5.93785e-08
6.4286e-08
7.77704e-08
5.94839e-08
7.17469e-08
6.46328e-08
5.9825e-08
5.12734e-08
4.187e-08
3.61254e-08
1.08592e-08
-2.90284e-08
-4.22517e-08
-4.28542e-08
-2.35404e-08
5.71708e-09
-1.48715e-08
-3.22999e-08
-1.79592e-08
6.51714e-11
-3.93806e-09
-1.29838e-08
-6.37106e-09
-8.15346e-09
-2.29599e-08
-2.69347e-08
-3.67912e-08
-2.13031e-08
1.15644e-08
2.18585e-08
3.10977e-08
4.36832e-08
3.6969e-08
1.57228e-08
1.79749e-08
7.30898e-09
-4.2454e-09
-4.78233e-09
-3.1152e-09
3.21611e-09
5.31373e-09
9.71246e-09
2.40511e-08
6.10972e-08
7.75588e-08
5.27578e-08
1.39455e-08
4.44196e-09
-3.28428e-09
-1.0685e-08
2.84187e-09
4.34779e-09
3.21286e-08
6.89823e-08
8.54416e-08
9.21292e-08
8.69661e-08
9.83449e-08
9.7607e-08
8.78977e-08
6.14784e-08
6.23827e-08
7.65049e-08
6.12686e-08
6.99928e-08
6.43777e-08
5.90837e-08
5.11498e-08
4.08542e-08
3.32857e-08
1.1114e-08
-2.49292e-08
-3.89476e-08
-3.92587e-08
-2.36259e-08
2.64552e-09
-1.30885e-08
-2.96739e-08
-1.93125e-08
-2.42131e-09
-4.55077e-09
-1.27936e-08
-6.18862e-09
2.53725e-07
1.0488e-07
-1.64497e-07
-1.25017e-07
-5.79068e-08
-1.8438e-07
9.12422e-10
3.62994e-07
6.33795e-08
-2.30039e-07
6.11132e-08
-2.82101e-08
-8.33307e-08
2.65196e-07
4.16737e-08
-2.13902e-07
6.1837e-08
9.74039e-09
-2.66913e-07
9.12722e-09
3.26015e-07
3.27552e-07
8.58302e-08
-5.60449e-08
-6.63514e-08
-7.02919e-08
-3.03522e-08
-1.58166e-07
4.4529e-08
8.86843e-08
1.43324e-07
1.80694e-07
-1.33301e-07
1.10733e-07
3.87725e-07
1.60636e-07
-1.30894e-07
-1.05993e-07
1.59129e-07
9.53042e-08
1.45775e-07
9.25743e-08
5.91181e-08
1.85208e-07
2.93108e-08
3.9566e-08
1.1973e-08
-3.77445e-08
-1.13962e-07
-3.02209e-07
-8.0724e-08
2.91097e-07
-2.70566e-08
-4.65688e-09
6.50387e-08
-2.40093e-07
-5.83686e-08
1.85159e-07
-8.33845e-08
-1.03703e-07
2.32538e-07
8.93178e-08
-1.62108e-07
-1.25046e-07
-5.62812e-08
-1.6466e-07
1.42436e-08
3.40742e-07
4.91258e-08
-2.10007e-07
5.97875e-08
-2.63473e-08
-6.77263e-08
2.43528e-07
2.69598e-08
-1.9366e-07
5.91198e-08
-6.4503e-09
-2.45977e-07
2.41128e-08
3.2231e-07
3.08208e-07
7.02254e-08
-5.38786e-08
-6.5209e-08
-7.04924e-08
-2.85895e-08
-1.40069e-07
4.23424e-08
8.84556e-08
1.40969e-07
1.64232e-07
-1.11576e-07
1.24678e-07
3.66292e-07
1.4461e-07
-1.27298e-07
-8.81021e-08
1.57821e-07
9.5112e-08
1.454e-07
9.35108e-08
5.73743e-08
1.67613e-07
3.08978e-08
4.01118e-08
1.25651e-08
-3.73109e-08
-1.12016e-07
-2.82559e-07
-6.80009e-08
2.70556e-07
-2.54401e-08
-6.41755e-09
4.87835e-08
-2.18515e-07
-4.41156e-08
1.64704e-07
-8.0134e-08
-8.78528e-08
2.20199e-07
8.59326e-08
-1.57812e-07
-1.24829e-07
-5.31932e-08
-1.54651e-07
1.40667e-08
3.27372e-07
4.8062e-08
-2.00841e-07
5.73799e-08
-2.30102e-08
-6.44079e-08
2.31736e-07
2.57272e-08
-1.84273e-07
5.40081e-08
-1.00105e-08
-2.33594e-07
2.72359e-08
3.15579e-07
2.98408e-07
6.68367e-08
-4.98776e-08
-6.34144e-08
-7.1056e-08
-2.52186e-08
-1.33185e-07
3.91074e-08
8.79831e-08
1.36808e-07
1.60344e-07
-9.92477e-08
1.25546e-07
3.53435e-07
1.40733e-07
-1.20396e-07
-8.16919e-08
1.5545e-07
9.40756e-08
1.44779e-07
9.47361e-08
5.42044e-08
1.61198e-07
3.37113e-08
4.07237e-08
1.31524e-08
-3.70714e-08
-1.08269e-07
-2.72569e-07
-6.90331e-08
2.60491e-07
-2.26854e-08
-9.3115e-09
4.52527e-08
-2.06235e-07
-4.31623e-08
1.54502e-07
-7.43117e-08
-8.39869e-08
2.07004e-07
8.46924e-08
-1.51951e-07
-1.24355e-07
-4.98531e-08
-1.44824e-07
1.07729e-08
3.12705e-07
5.04277e-08
-1.92088e-07
5.36384e-08
-1.85601e-08
-6.33205e-08
2.19308e-07
2.79909e-08
-1.75072e-07
4.71177e-08
-1.08859e-08
-2.20672e-07
2.78814e-08
3.06376e-07
2.8886e-07
6.60226e-08
-4.52348e-08
-6.10726e-08
-7.09903e-08
-2.12946e-08
-1.2748e-07
3.52451e-08
8.76178e-08
1.31781e-07
1.58499e-07
-8.65661e-08
1.22938e-07
3.40035e-07
1.39295e-07
-1.11345e-07
-7.68387e-08
1.52104e-07
9.29298e-08
1.43341e-07
9.60515e-08
5.08431e-08
1.56058e-07
3.73874e-08
4.12576e-08
1.36877e-08
-3.70643e-08
-1.0381e-07
-2.6237e-07
-7.34288e-08
2.50206e-07
-1.87082e-08
-1.31709e-08
4.38942e-08
-1.93289e-07
-4.52474e-08
1.44343e-07
-6.68963e-08
-8.19627e-08
1.91436e-07
8.30933e-08
-1.44717e-07
-1.23556e-07
-4.62878e-08
-1.33199e-07
7.15958e-09
2.9533e-07
5.34598e-08
-1.8207e-07
4.87892e-08
-1.31733e-08
-6.21367e-08
2.04091e-07
3.11006e-08
-1.6429e-07
3.90165e-08
-1.13509e-08
-2.05632e-07
2.84059e-08
2.95164e-07
2.77587e-07
6.51767e-08
-4.03975e-08
-5.80287e-08
-7.03957e-08
-1.70507e-08
-1.20655e-07
3.08719e-08
8.73353e-08
1.26152e-07
1.56223e-07
-7.21366e-08
1.19522e-07
3.2474e-07
1.37721e-07
-1.00581e-07
-7.12856e-08
1.48004e-07
9.17926e-08
1.40973e-07
9.77217e-08
4.7458e-08
1.5009e-07
4.16134e-08
4.1788e-08
1.4332e-08
-3.70657e-08
-9.88784e-08
-2.50032e-07
-7.84316e-08
2.37899e-07
-1.37548e-08
-1.85549e-08
4.23546e-08
-1.77501e-07
-4.77121e-08
1.3246e-07
-5.83943e-08
-7.94637e-08
1.74184e-07
8.10048e-08
-1.36413e-07
-1.22445e-07
-4.26913e-08
-1.20224e-07
3.70088e-09
2.76032e-07
5.67898e-08
-1.71181e-07
4.30435e-08
-7.1808e-09
-6.07452e-08
1.86969e-07
3.46873e-08
-1.52344e-07
3.03035e-08
-1.15029e-08
-1.89245e-07
2.87891e-08
2.82571e-07
2.65158e-07
6.42007e-08
-3.5741e-08
-5.43308e-08
-6.93502e-08
-1.27159e-08
-1.12712e-07
2.61968e-08
8.70887e-08
1.20253e-07
1.53423e-07
-5.66945e-08
1.15644e-07
3.08243e-07
1.35974e-07
-8.88195e-08
-6.53718e-08
1.43379e-07
9.07251e-08
1.3792e-07
9.97563e-08
4.42322e-08
1.43375e-07
4.60233e-08
4.23456e-08
1.51563e-08
-3.6916e-08
-9.36539e-08
-2.35967e-07
-8.36196e-08
2.23707e-07
-8.06665e-09
-2.42526e-08
4.0441e-08
-1.60388e-07
-5.01159e-08
1.19368e-07
-4.94363e-08
-7.64643e-08
1.56129e-07
7.84723e-08
-1.27366e-07
-1.21034e-07
-3.93927e-08
-1.06738e-07
5.99764e-10
2.5579e-07
6.03977e-08
-1.59817e-07
3.65785e-08
-1.02254e-09
-5.91298e-08
1.69384e-07
3.85625e-08
-1.39784e-07
2.15052e-08
-1.13307e-08
-1.72428e-07
2.88123e-08
2.69196e-07
2.5251e-07
6.3244e-08
-3.15539e-08
-5.01693e-08
-6.79671e-08
-8.67886e-09
-1.03923e-07
2.14573e-08
8.6851e-08
1.14508e-07
1.50253e-07
-4.11233e-08
1.11331e-07
2.91439e-07
1.34416e-07
-7.66083e-08
-5.95279e-08
1.38337e-07
8.96893e-08
1.33952e-07
1.01969e-07
4.14859e-08
1.36191e-07
5.02816e-08
4.29066e-08
1.61314e-08
-3.65514e-08
-8.83816e-08
-2.20799e-07
-8.87051e-08
2.08393e-07
-1.79959e-09
-2.97272e-08
3.80346e-08
-1.432e-07
-5.21534e-08
1.05748e-07
-4.05711e-08
-7.30608e-08
1.37917e-07
7.5405e-08
-1.17847e-07
-1.19274e-07
-3.66526e-08
-9.31525e-08
-1.98978e-09
2.35467e-07
6.41909e-08
-1.48148e-07
2.95981e-08
4.90477e-09
-5.71663e-08
1.5189e-07
4.24842e-08
-1.27033e-07
1.30387e-08
-1.09618e-08
-1.55842e-07
2.84687e-08
2.55424e-07
2.40174e-07
6.23695e-08
-2.79435e-08
-4.5701e-08
-6.63319e-08
-5.24038e-09
-9.45297e-08
1.68268e-08
8.65752e-08
1.09269e-07
1.46803e-07
-2.59991e-08
1.06621e-07
2.74862e-07
1.3324e-07
-6.4244e-08
-5.37907e-08
1.32897e-07
8.88007e-08
1.29306e-07
1.042e-07
3.94967e-08
1.28733e-07
5.41647e-08
4.34472e-08
1.71766e-08
-3.59542e-08
-8.3317e-08
-2.05e-07
-9.33114e-08
1.92222e-07
4.87107e-09
-3.464e-08
3.50032e-08
-1.26531e-07
-5.35475e-08
9.20219e-08
-3.2231e-08
-6.92193e-08
1.20029e-07
7.17182e-08
-1.08076e-07
-1.17091e-07
-3.45799e-08
-7.98969e-08
-4.00969e-09
2.15534e-07
6.79751e-08
-1.36225e-07
2.23444e-08
1.03055e-08
-5.4763e-08
1.34749e-07
4.60631e-08
-1.14378e-07
5.21562e-09
-1.0524e-08
-1.39789e-07
2.7822e-08
2.41459e-07
2.28272e-07
6.16514e-08
-2.48885e-08
-4.10664e-08
-6.44434e-08
-2.47328e-09
-8.47741e-08
1.24627e-08
8.6183e-08
1.04728e-07
1.43158e-07
-1.16439e-08
1.01677e-07
2.58748e-07
1.32221e-07
-5.18418e-08
-4.79887e-08
1.27133e-07
8.80692e-08
1.24066e-07
1.06262e-07
3.84334e-08
1.21182e-07
5.75579e-08
4.39731e-08
1.82141e-08
-3.5107e-08
-7.86091e-08
-1.88967e-07
-9.71221e-08
1.75479e-07
1.17253e-08
-3.86996e-08
3.13412e-08
-1.10826e-07
-5.41786e-08
7.85597e-08
-2.47146e-08
-6.49125e-08
1.0284e-07
6.73788e-08
-9.82516e-08
-1.14372e-07
-3.31873e-08
-6.73322e-08
-5.43504e-09
1.96165e-07
7.14903e-08
-1.24049e-07
1.50806e-08
1.49712e-08
-5.18913e-08
1.18149e-07
4.90395e-08
-1.0196e-07
-1.74665e-09
-1.00674e-08
-1.24391e-07
2.69183e-08
2.27429e-07
2.16873e-07
6.11589e-08
-2.23146e-08
-3.64277e-08
-6.22321e-08
-4.24671e-10
-7.48811e-08
8.52513e-09
8.5574e-08
1.00939e-07
1.39405e-07
1.78552e-09
9.6774e-08
2.4318e-07
1.31253e-07
-3.95029e-08
-4.22125e-08
1.21148e-07
8.74856e-08
1.18399e-07
1.07944e-07
3.83435e-08
1.13722e-07
6.04035e-08
4.44183e-08
1.92021e-08
-3.3983e-08
-7.43397e-08
-1.73056e-07
-9.99102e-08
1.58378e-07
1.84901e-08
-4.16919e-08
2.71503e-08
-9.54146e-08
-5.40278e-08
6.55626e-08
-1.82326e-08
-6.0171e-08
8.66408e-08
6.23957e-08
-8.85654e-08
-1.11068e-07
-3.24274e-08
-5.57122e-08
-6.22741e-09
1.77513e-07
7.42967e-08
-1.1165e-07
8.05979e-09
1.87622e-08
-4.85723e-08
1.02269e-07
5.12715e-08
-8.98643e-08
-7.70641e-09
-9.59867e-09
-1.09724e-07
2.57893e-08
2.13455e-07
2.05962e-07
6.08912e-08
-2.0153e-08
-3.19384e-08
-5.96242e-08
9.30711e-10
-6.5041e-08
5.12147e-09
8.46749e-08
9.78747e-08
1.35595e-07
1.42042e-08
9.21219e-08
2.28197e-07
1.30266e-07
-2.73767e-08
-3.63139e-08
1.15016e-07
8.70575e-08
1.12451e-07
1.09056e-07
3.91058e-08
1.06527e-07
6.26709e-08
4.47668e-08
2.01236e-08
-3.25559e-08
-7.05523e-08
-1.57568e-07
-1.01532e-07
1.41105e-07
2.48812e-08
-4.35042e-08
2.25638e-08
-8.13344e-08
-5.31079e-08
5.32742e-08
-1.28717e-08
-5.50711e-08
7.16991e-08
5.68218e-08
-7.92053e-08
-1.07155e-07
-3.22004e-08
-4.52e-08
-6.3934e-09
1.5977e-07
7.70233e-08
-9.91174e-08
1.4965e-09
2.16019e-08
-4.48506e-08
8.72953e-08
5.26923e-08
-7.81885e-08
-1.25812e-08
-9.10015e-09
-9.58763e-08
2.45175e-08
1.99656e-07
1.955e-07
6.08189e-08
-1.8326e-08
-2.76948e-08
-5.65896e-08
1.64219e-09
-5.54103e-08
2.32297e-09
8.34152e-08
9.54559e-08
1.31753e-07
2.55577e-08
8.78522e-08
2.13835e-07
1.29201e-07
-1.56596e-08
-3.05811e-08
1.08844e-07
8.67624e-08
1.06387e-07
1.09461e-07
4.05927e-08
9.97325e-08
6.43538e-08
4.50259e-08
2.09718e-08
-3.08184e-08
-6.72388e-08
-1.42734e-07
-1.01926e-07
1.23859e-07
3.06517e-08
-4.41316e-08
1.77376e-08
-6.872e-08
-5.14541e-08
4.18205e-08
-8.68249e-09
-4.97189e-08
5.81524e-08
5.0755e-08
-7.03331e-08
-1.02652e-07
-3.23804e-08
-3.58847e-08
-5.98307e-09
1.43058e-07
7.89529e-08
-8.65909e-08
-4.44231e-09
2.34792e-08
-4.07923e-08
7.33924e-08
5.32551e-08
-6.70321e-08
-1.63455e-08
-8.58969e-09
-8.29422e-08
2.32104e-08
1.86158e-07
1.85438e-07
6.0909e-08
-1.67144e-08
-2.37707e-08
-5.31415e-08
1.83202e-09
-4.61342e-08
1.78177e-10
8.17621e-08
9.35819e-08
1.27912e-07
3.58284e-08
8.40539e-08
2.00136e-07
1.28004e-07
-4.42681e-09
-2.47847e-08
1.02733e-07
8.65612e-08
1.00366e-07
1.09095e-07
4.26621e-08
9.34304e-08
6.54726e-08
4.52039e-08
2.1738e-08
-2.87835e-08
-6.43414e-08
-1.28767e-07
-1.01086e-07
1.06797e-07
3.55867e-08
-4.36061e-08
1.28842e-08
-5.78052e-08
-4.91388e-08
3.14646e-08
-5.65034e-09
-4.42426e-08
4.60895e-08
4.43264e-08
-6.20796e-08
-9.76144e-08
-3.28339e-08
-2.78084e-08
-5.06348e-09
1.27481e-07
8.00266e-08
-7.42298e-08
-9.59876e-09
2.44305e-08
-3.64856e-08
6.06564e-08
5.29385e-08
-5.6481e-08
-1.90198e-08
-8.08035e-09
-7.0968e-08
2.19613e-08
1.73069e-07
1.75729e-07
6.11238e-08
-1.52043e-08
-2.02113e-08
-4.93287e-08
1.62752e-09
-3.735e-08
-1.28057e-09
7.97224e-08
9.21399e-08
1.24116e-07
4.50214e-08
8.07867e-08
1.87142e-07
1.2663e-07
6.37923e-09
-1.88986e-08
9.67656e-08
8.63962e-08
9.45583e-08
1.07979e-07
4.5094e-08
8.76878e-08
6.60667e-08
4.53035e-08
2.24072e-08
-2.64771e-08
-6.17597e-08
-1.15825e-07
-9.90572e-08
9.03126e-08
3.95089e-08
-4.20078e-08
7.94177e-09
-4.8033e-08
-4.62745e-08
2.23038e-08
-3.69122e-09
-3.87869e-08
3.55395e-08
3.7681e-08
-5.45599e-08
-9.21294e-08
-3.34261e-08
-2.10224e-08
-3.71093e-09
1.1313e-07
8.02259e-08
-6.22026e-08
-1.38498e-08
2.45309e-08
-3.20296e-08
4.91546e-08
5.17311e-08
-4.66115e-08
-2.06553e-08
-7.56476e-09
-5.99558e-08
2.08332e-08
1.60462e-07
1.66341e-07
6.14254e-08
-1.36829e-08