/*--------------------------------*- C++ -*----------------------------------*\
| =========                 |                                                 |
| \\      /  F ield         | OpenFOAM: The Open Source CFD Toolbox           |
|  \\    /   O peration     | Version:  2312                                  |
|   \\  /    A nd           | Website:  www.openfoam.com                      |
|    \\/     M anipulation  |                                                 |
\*---------------------------------------------------------------------------*/
FoamFile
{
    version     2.0;
    format      ascii;
    arch        "LSB;label=32;scalar=64";
    class       volScalarField;
    location    "200";
    object      pMean;
}
// * * * * * * * * * * * * * * * * * * * * * * * * * * * * * * * * * * * * * //

dimensions      [0 2 -2 0 0 0 0];

internalField   nonuniform List<scalar> 
144000
(
3.65258e-08
-1.98947e-08
-2.50624e-07
-3.17495e-07
1.20969e-07
-1.53157e-08
-9.82298e-08
3.34009e-07
3.98736e-07
9.74724e-08
-3.8711e-08
-1.29282e-08
-1.53034e-07
-2.7308e-07
-6.26668e-08
3.1623e-07
1.28506e-07
-2.02454e-07
-3.63126e-07
2.63709e-08
6.00139e-07
2.708e-07
-2.35621e-07
8.4193e-08
7.93371e-08
-3.35533e-07
7.3076e-08
-3.07316e-08
-3.34765e-07
1.38016e-07
1.72293e-07
1.67366e-07
-2.93142e-09
-2.55253e-08
3.90399e-07
4.22995e-07
-3.3271e-08
3.06903e-08
2.29462e-07
-2.25518e-07
1.60849e-07
2.83086e-07
-4.89905e-08
-1.55423e-07
-8.52303e-09
4.39702e-07
2.23963e-07
-1.71313e-07
-1.81428e-07
-2.71725e-07
-3.17538e-07
2.49819e-07
1.89725e-07
-4.01965e-07
-9.08e-08
3.48267e-07
1.62145e-07
-5.23114e-08
-7.53719e-08
-3.69607e-08
3.68282e-08
-1.94068e-08
-2.47152e-07
-2.89968e-07
1.16864e-07
-1.29512e-08
-7.1344e-08
3.28556e-07
3.67585e-07
7.16792e-08
-3.54192e-08
-1.16421e-08
-1.50654e-07
-2.41602e-07
-3.9689e-08
2.81524e-07
1.01698e-07
-1.96454e-07
-3.31156e-07
4.76436e-08
5.63653e-07
2.48177e-07
-2.01624e-07
7.95967e-08
5.37849e-08
-3.03197e-07
6.82831e-08
-5.65469e-08
-3.04658e-07
1.34887e-07
1.72042e-07
1.67203e-07
-7.07486e-10
1.93593e-09
3.84703e-07
3.94729e-07
-2.83904e-08
2.73485e-08
2.04034e-07
-1.93516e-07
1.55659e-07
2.54699e-07
-4.41926e-08
-1.22273e-07
1.43641e-08
4.04717e-07
1.98705e-07
-1.67822e-07
-1.80651e-07
-2.68096e-07
-2.89738e-07
2.43202e-07
1.64282e-07
-3.67356e-07
-6.79744e-08
3.13121e-07
1.35674e-07
-4.94713e-08
-7.4548e-08
-3.68123e-08
3.63743e-08
-1.92474e-08
-2.39655e-07
-2.79875e-07
1.08726e-07
-7.94931e-09
-6.20609e-08
3.16085e-07
3.51178e-07
6.67776e-08
-2.83663e-08
-9.54466e-09
-1.45683e-07
-2.24678e-07
-3.89398e-08
2.57989e-07
9.40344e-08
-1.83153e-07
-3.11791e-07
4.57438e-08
5.36278e-07
2.46967e-07
-1.81848e-07
6.91317e-08
4.84848e-08
-2.85858e-07
5.79821e-08
-6.16721e-08
-2.89369e-07
1.29213e-07
1.70275e-07
1.66508e-07
4.77951e-09
1.17793e-08
3.71778e-07
3.82875e-07
-1.95809e-08
2.15997e-08
1.98402e-07
-1.75866e-07
1.44871e-07
2.43096e-07
-3.36535e-08
-1.03328e-07
1.50012e-08
3.80268e-07
1.92456e-07
-1.60051e-07
-1.7882e-07
-2.59762e-07
-2.79424e-07
2.28903e-07
1.57921e-07
-3.44471e-07
-6.66611e-08
2.90043e-07
1.28321e-07
-4.31872e-08
-7.15498e-08
-3.63358e-08
3.54147e-08
-1.96542e-08
-2.29714e-07
-2.71719e-07
9.83023e-08
-1.54589e-09
-5.57506e-08
2.99019e-07
3.35824e-07
6.68793e-08
-2.00956e-08
-6.81057e-09
-1.38709e-07
-2.09592e-07
-4.35608e-08
2.33645e-07
8.98402e-08
-1.66782e-07
-2.91666e-07
3.86509e-08
5.0664e-07
2.49948e-07
-1.6228e-07
5.6291e-08
4.72822e-08
-2.6919e-07
4.46568e-08
-6.13107e-08
-2.74747e-07
1.21769e-07
1.67649e-07
1.65453e-07
1.33461e-08
1.85894e-08
3.54079e-07
3.72129e-07
-8.68749e-09
1.55591e-08
1.95943e-07
-1.57854e-07
1.31419e-07
2.33735e-07
-2.09245e-08
-8.56166e-08
1.1088e-08
3.54122e-07
1.89376e-07
-1.49701e-07
-1.76593e-07
-2.48698e-07
-2.70702e-07
2.09543e-07
1.54706e-07
-3.20224e-07
-7.08074e-08
2.66166e-07
1.24582e-07
-3.55456e-08
-6.76266e-08
-3.5328e-08
3.41368e-08
-2.03335e-08
-2.17722e-07
-2.61781e-07
8.67728e-08
5.50686e-09
-4.89167e-08
2.7927e-07
3.18693e-07
6.70987e-08
-1.18507e-08
-3.29594e-09
-1.30082e-07
-1.92463e-07
-4.84341e-08
2.06803e-07
8.48481e-08
-1.49142e-07
-2.68413e-07
3.16791e-08
4.73482e-07
2.52032e-07
-1.40693e-07
4.24943e-08
4.57684e-08
-2.50583e-07
2.99828e-08
-5.95669e-08
-2.58125e-07
1.13137e-07
1.64386e-07
1.6415e-07
2.33555e-08
2.57479e-08
3.33872e-07
3.58813e-07
4.17264e-09
9.66738e-09
1.92379e-07
-1.36967e-07
1.16817e-07
2.22944e-07
-7.73886e-09
-6.63928e-08
7.79693e-09
3.24481e-07
1.85109e-07
-1.37805e-07
-1.73966e-07
-2.35621e-07
-2.59851e-07
1.86806e-07
1.50538e-07
-2.92413e-07
-7.56038e-08
2.39058e-07
1.20064e-07
-2.77013e-08
-6.31082e-08
-3.38027e-08
3.2592e-08
-2.09895e-08
-2.04088e-07
-2.50291e-07
7.41869e-08
1.26904e-08
-4.16709e-08
2.57907e-07
3.00299e-07
6.69172e-08
-4.42565e-09
9.41175e-10
-1.20216e-07
-1.7419e-07
-5.28491e-08
1.78678e-07
7.89879e-08
-1.31217e-07
-2.43113e-07
2.55745e-08
4.3773e-07
2.52334e-07
-1.17942e-07
2.86608e-08
4.35372e-08
-2.30706e-07
1.51299e-08
-5.68124e-08
-2.39999e-07
1.03724e-07
1.60534e-07
1.62658e-07
3.39582e-08
3.31513e-08
3.12455e-07
3.43067e-07
1.84502e-08
4.22876e-09
1.87432e-07
-1.13913e-07
1.01924e-07
2.10989e-07
5.08806e-09
-4.6349e-08
5.83266e-09
2.9271e-07
1.79408e-07
-1.24975e-07
-1.70855e-07
-2.21244e-07
-2.47119e-07
1.62654e-07
1.45321e-07
-2.62905e-07
-8.02405e-08
2.10795e-07
1.14493e-07
-2.02277e-08
-5.80869e-08
-3.1919e-08
3.07823e-08
-2.14679e-08
-1.89412e-07
-2.37878e-07
6.1022e-08
1.96098e-08
-3.43504e-08
2.35755e-07
2.81302e-07
6.65802e-08
1.70761e-09
5.54183e-09
-1.09625e-07
-1.56271e-07
-5.6641e-08
1.5083e-07
7.24814e-08
-1.13697e-07
-2.17182e-07
2.04211e-08
4.01517e-07
2.50774e-07
-9.50676e-08
1.55578e-08
4.0618e-08
-2.10377e-07
8.99314e-10
-5.31254e-08
-2.21016e-07
9.38746e-08
1.56082e-07
1.6098e-07
4.47939e-08
4.05118e-08
2.90701e-07
3.2555e-07
3.33216e-08
-2.92317e-10
1.81245e-07
-8.9614e-08
8.74759e-08
1.98551e-07
1.71117e-08
-2.66e-08
5.27527e-09
2.60564e-07
1.72524e-07
-1.11603e-07
-1.67177e-07
-2.06407e-07
-2.33224e-07
1.37924e-07
1.39277e-07
-2.33287e-07
-8.43536e-08
1.82987e-07
1.08146e-07
-1.33978e-08
-5.2799e-08
-2.9901e-08
2.8675e-08
-2.17306e-08
-1.74282e-07
-2.24899e-07
4.78483e-08
2.59146e-08
-2.70293e-08
2.13494e-07
2.62061e-07
6.62822e-08
6.44939e-09
1.0139e-08
-9.87663e-08
-1.3931e-07
-5.9487e-08
1.24454e-07
6.57706e-08
-9.70852e-08
-1.91567e-07
1.62959e-08
3.65793e-07
2.47364e-07
-7.28128e-08
3.79309e-09
3.69988e-08
-1.90045e-07
-1.21659e-08
-4.88303e-08
-2.01622e-07
8.39526e-08
1.51034e-07
1.59047e-07
5.55983e-08
4.78017e-08
2.69292e-07
3.0687e-07
4.79979e-08
-3.5033e-09
1.73852e-07
-6.53005e-08
7.4258e-08
1.85969e-07
2.78679e-08
-8.3889e-09
6.18287e-09
2.29335e-07
1.64549e-07
-9.80078e-08
-1.6278e-07
-1.9179e-07
-2.187e-07
1.13518e-07
1.3237e-07
-2.04504e-07
-8.74317e-08
1.56274e-07
1.01205e-07
-7.33197e-09
-4.74189e-08
-2.7863e-08
2.62471e-08
-2.17647e-08
-1.59133e-07
-2.11541e-07
3.51094e-08
3.13187e-08
-1.97282e-08
1.91711e-07
2.42911e-07
6.60799e-08
9.93369e-09
1.44795e-08
-8.79318e-08
-1.23553e-07
-6.11654e-08
1.0023e-07
5.90653e-08
-8.17277e-08
-1.66881e-07
1.32353e-08
3.31383e-07
2.42146e-07
-5.16822e-08
-6.22702e-09
3.27809e-08
-1.70141e-07
-2.36891e-08
-4.43317e-08
-1.82252e-07
7.43175e-08
1.45468e-07
1.56763e-07
6.60611e-08
5.48764e-08
2.48774e-07
2.87604e-07
6.18202e-08
-5.16073e-09
1.65297e-07
-4.17895e-08
6.28674e-08
1.73463e-07
3.70879e-08
7.75562e-09
8.47194e-09
1.99941e-07
1.55533e-07
-8.4504e-08
-1.57487e-07
-1.77827e-07
-2.03937e-07
9.02127e-08
1.24528e-07
-1.77183e-07
-8.92155e-08
1.30983e-07
9.38474e-08
-2.07091e-09
-4.20679e-08
-2.58639e-08
2.35142e-08
-2.15856e-08
-1.44285e-07
-1.97935e-07
2.31265e-08
3.56544e-08
-1.25096e-08
1.7093e-07
2.24129e-07
6.59317e-08
1.2363e-08
1.83732e-08
-7.72818e-08
-1.0909e-07
-6.1621e-08
7.84755e-08
5.23996e-08
-6.78225e-08
-1.43526e-07
1.12152e-08
2.98845e-07
2.35223e-07
-3.1987e-08
-1.42728e-08
2.81171e-08
-1.50997e-07
-3.34133e-08
-3.99659e-08
-1.63278e-07
6.52601e-08
1.39531e-07
1.54053e-07
7.58555e-08
6.15552e-08
2.29622e-07
2.68262e-07
7.42797e-08
-5.09409e-09
1.55767e-07
-1.96096e-08
5.3613e-08
1.61252e-07
4.47137e-08
2.15649e-08
1.19041e-08
1.72962e-07
1.45585e-07
-7.14164e-08
-1.51212e-07
-1.64752e-07
-1.89241e-07
6.85937e-08
1.15764e-07
-1.51779e-07
-8.96786e-08
1.07433e-07
8.62381e-08
2.37099e-09
-3.6838e-08
-2.39352e-08
2.05445e-08
-2.125e-08
-1.29991e-07
-1.84212e-07
1.2125e-08
3.8812e-08
-5.46524e-09
1.51552e-07
2.05864e-07
6.57733e-08
1.39404e-08
2.16573e-08
-6.69359e-08
-9.59371e-08
-6.09269e-08
5.93211e-08
4.58231e-08
-5.54476e-08
-1.21832e-07
1.01487e-08
2.68526e-07
2.268e-07
-1.39715e-08
-2.02335e-08
2.31665e-08
-1.32851e-07
-4.11936e-08
-3.59481e-08
-1.44965e-07
5.69982e-08
1.33398e-07
1.50887e-07
8.46867e-08
6.77181e-08
2.12147e-07
2.4925e-07
8.5023e-08
-3.34439e-09
1.45572e-07
7.74625e-10
4.66471e-08
1.49554e-07
5.08232e-08
3.29756e-08
1.61624e-08
1.48736e-07
1.34882e-07
-5.90626e-08
-1.43982e-07
-1.52681e-07
-1.74859e-07
4.90567e-08
1.06194e-07
-1.28614e-07
-8.88711e-08
8.59277e-08
7.84808e-08
5.93221e-09
-3.18121e-08
-2.20459e-08
1.74289e-08
-2.08379e-08
-1.16444e-07
-1.70491e-07
2.26206e-09
4.07585e-08
1.29133e-09
1.33839e-07
1.88193e-07
6.55387e-08
1.48665e-08
2.4212e-08
-5.70124e-08
-8.40461e-08
-5.92101e-08
4.27968e-08
3.94188e-08
-4.46411e-08
-1.01994e-07
9.9096e-09
2.40635e-07
2.17147e-07
2.18779e-09
-2.41346e-08
1.80762e-08
-1.15933e-07
-4.69701e-08
-3.23766e-08
-1.27487e-07
4.96954e-08
1.27234e-07
1.47286e-07
9.2368e-08
7.33162e-08
1.96482e-07
2.30904e-07
9.38358e-08
-1.00328e-10
1.35025e-07
1.8977e-08
4.19596e-08
1.38539e-07
5.55742e-08
4.20923e-08
2.09094e-08
1.27436e-07
1.23655e-07
-4.77068e-08
-1.35909e-07
-1.41648e-07
-1.60983e-07
3.18286e-08
9.60126e-08
-1.07868e-07
-8.68913e-08
6.65992e-08
7.06499e-08
8.58967e-09
-2.70895e-08
-2.01722e-08
1.42637e-08
-2.0441e-08
-1.03788e-07
-1.56876e-07
-6.35236e-09
4.15376e-08
7.63482e-09
1.17927e-07
1.71192e-07
6.51654e-08
1.53221e-08
2.59823e-08
-4.76318e-08
-7.33249e-08
-5.66156e-08
2.88392e-08
3.32762e-08
-3.53551e-08
-8.40938e-08
1.03513e-08
2.15268e-07
2.06564e-07
1.63859e-08
-2.61038e-08
1.30062e-08
-1.0041e-07
-5.08386e-08
-2.92598e-08
-1.10977e-07
4.34575e-08
1.21182e-07
1.43309e-07
9.8807e-08
7.83265e-08
1.82615e-07
2.13503e-07
1.00642e-07
4.36639e-09
1.24447e-07
3.47872e-08
3.93851e-08
1.28313e-07
5.91687e-08
4.91207e-08
2.58213e-08
1.09085e-07
1.12179e-07
-3.75337e-08
-1.27174e-07
-1.3162e-07
-1.4776e-07
1.69867e-08
8.54793e-08
-8.96241e-08
-8.38832e-08
4.94921e-08
6.28374e-08
1.0395e-08
-2.27842e-08
-1.83139e-08
1.11392e-08
-2.01464e-08
-9.21291e-08
-1.43469e-07
-1.36505e-08
4.12677e-08
1.34388e-08
1.03859e-07
1.54979e-07
6.45912e-08
1.547e-08
2.6978e-08
-3.89053e-08
-6.36633e-08
-5.32859e-08
1.73175e-08
2.74708e-08
-2.75092e-08
-6.81411e-08
1.1322e-08
1.92435e-07
1.95356e-07
2.85886e-08
-2.63396e-08
8.13223e-09
-8.63783e-08
-5.29645e-08
-2.65574e-08
-9.55302e-08
3.83232e-08
1.15353e-07
1.39033e-07
1.03995e-07
8.27372e-08
1.7043e-07
1.97263e-07
1.05495e-07
9.75592e-09
1.14133e-07
4.81031e-08
3.86485e-08
1.18942e-07
6.18287e-08
5.43138e-08
3.06177e-08
9.35755e-08
1.00752e-07
-2.86487e-08
-1.18e-07
-1.22514e-07
-1.35297e-07
4.49375e-09
7.48781e-08
-7.38554e-08
-8.0034e-08
3.45824e-08
5.51686e-08
1.14495e-08
-1.89947e-08
-1.64716e-08
8.13013e-09
-2.00122e-08
-8.15305e-08
-1.30383e-07
-1.96102e-08
4.01155e-08
1.8587e-08
9.1612e-08
1.39685e-07
6.37567e-08
1.54548e-08
2.72514e-08
-3.09284e-08
-5.49448e-08
-4.93625e-08
8.05653e-09
2.20629e-08
-2.10041e-08
-5.4085e-08
1.26761e-08
1.72073e-07
1.83806e-07
3.88239e-08
-2.50939e-08
3.62543e-09
-7.38733e-08
-5.35421e-08
-2.42071e-08
-8.12137e-08
3.42752e-08
1.09828e-07
1.3455e-07
1.07972e-07
8.65588e-08
1.59771e-07
1.82338e-07
1.08535e-07
1.57637e-08
1.04348e-07
5.89345e-08
3.94161e-08
1.10481e-07
6.37438e-08
5.79431e-08
3.50765e-08
8.07165e-08
8.96562e-08
-2.10892e-08
-1.08617e-07
-1.14204e-07
-1.23664e-07
-5.77712e-09
6.44869e-08
-6.04276e-08
-7.55588e-08
2.1786e-08
4.77388e-08
1.18418e-08
-1.57733e-08
-1.46345e-08
5.29091e-09
-2.00532e-08
-7.20031e-08
-1.17738e-07
-2.42577e-08
3.82512e-08
2.29896e-08
8.11113e-08
1.25416e-07
6.2618e-08
1.53892e-08
2.68896e-08
-2.37735e-08
-4.70848e-08
-4.50309e-08
8.55823e-10
1.71111e-08
-1.56923e-08
-4.18354e-08
1.42807e-08
1.54053e-07
1.72172e-07
4.7174e-08
-2.26382e-08
-3.65241e-10
-6.2872e-08
-5.27905e-08
-2.21442e-08
-6.80674e-08
3.12534e-08
1.04665e-07
1.29955e-07
1.10811e-07
8.97899e-08
1.50467e-07
1.68822e-07
1.09956e-07
2.20754e-08
9.53054e-08
6.73843e-08
4.13312e-08
1.02945e-07
6.5075e-08
6.02895e-08
3.90356e-08
7.02524e-08
7.91321e-08
-1.4846e-08
-9.92409e-08
-1.06541e-07
-1.12898e-07
-1.40153e-08
5.45426e-08
-4.91619e-08
-7.06733e-08
1.09672e-08
4.0614e-08
1.16516e-08
-1.31238e-08
-1.2819e-08
2.67859e-09
-2.02469e-08
-6.35336e-08
-1.05652e-07
-2.76645e-08
3.58396e-08
2.65972e-08
7.22421e-08
1.12277e-07
6.11471e-08
1.53466e-08
2.60065e-08
-1.74838e-08
-4.001e-08
-4.04491e-08
-4.50219e-09
1.26755e-08
-1.14218e-08
-3.12748e-08
1.60181e-08
1.38201e-07
1.60674e-07
5.37618e-08
-1.92378e-08
-3.72396e-09
-5.33039e-08
-5.09392e-08
-2.02911e-08
-5.61012e-08
2.91635e-08
9.98946e-08
1.25347e-07
1.12606e-07
9.24489e-08
1.42353e-07
1.56732e-07
1.09992e-07
2.84089e-08
8.71632e-08
7.36261e-08
4.40473e-08
9.63196e-08
6.5957e-08
6.16191e-08
4.23964e-08
6.18895e-08
6.9371e-08
-9.85527e-09
-9.00567e-08
-9.93915e-08
-1.03016e-07
-2.04485e-08
4.52119e-08
-3.98657e-08
-6.5569e-08
1.96022e-09
3.38444e-08
1.09758e-08
-1.10188e-08
-1.1063e-08
3.42677e-10
-2.05459e-08
-5.60895e-08
-9.423e-08
-2.99367e-08
3.30324e-08
2.94009e-08
6.48594e-08
1.00327e-07
5.93396e-08
1.53664e-08
2.47205e-08
-1.20698e-08
-3.3663e-08
-3.57541e-08
-8.24646e-09
8.81215e-09
-8.03487e-09
-2.22658e-08
1.77878e-08
1.24313e-07
1.49493e-07
5.8739e-08
-1.51858e-08
-6.37463e-09
-4.50613e-08
-4.8215e-08
-1.85732e-08
-4.53007e-08
2.78871e-08
9.55249e-08
1.20817e-07
1.13472e-07
9.4568e-08
1.35266e-07
1.46036e-07
1.08901e-07
3.45402e-08
8.00153e-08
7.7883e-08
4.72424e-08
9.0586e-08
6.64949e-08
6.2174e-08
4.51091e-08
5.53253e-08
6.05131e-08
-6.00383e-09
-8.12192e-08
-9.26485e-08
-9.40049e-08
-2.53217e-08
3.65898e-08
-3.2316e-08
-6.04e-08
-5.41297e-09
2.74672e-08
9.91939e-09
-9.41132e-09
-9.40463e-09
-1.68852e-09
-2.08878e-08
-4.96189e-08
-8.35582e-08
-3.11997e-08
2.99784e-08
3.1425e-08
5.87947e-08
8.95762e-08
5.72105e-08
1.54701e-08
2.31597e-08
-7.51064e-09
-2.80025e-08
-3.10842e-08
-1.06098e-08
5.56695e-09
-5.37296e-09
-1.46582e-08
1.9512e-08
1.12174e-07
1.38768e-07
6.22784e-08
-1.071e-08
-8.28655e-09
-3.80133e-08
-4.48325e-08
-1.69195e-08
-3.56286e-08
2.72898e-08
9.15393e-08
1.16452e-07
1.13537e-07
9.61734e-08
1.29057e-07
1.36664e-07
1.06941e-07
4.02667e-08
7.38996e-08
8.04079e-08
5.06263e-08
8.57063e-08
6.67666e-08
6.21679e-08
4.7179e-08
5.02494e-08
5.26407e-08
-3.14769e-09
-7.28491e-08
-8.624e-08
-8.5838e-08
-2.88726e-08
2.87408e-08
-2.62775e-08
-5.52897e-08
-1.1332e-08
2.15108e-08
8.58457e-09
-8.24386e-09
-7.89883e-09
-3.40373e-09
-2.12065e-08
-4.40522e-08
-7.37017e-08
-3.15877e-08
2.6816e-08
3.27167e-08
5.38619e-08
8.00054e-08
5.47976e-08
1.56671e-08
2.14523e-08
-3.75738e-09
-2.2994e-08
-2.65682e-08
-1.18273e-08
2.9741e-09
-3.28581e-09
-8.29608e-09
2.11348e-08
1.01574e-07
1.28598e-07
6.45636e-08
-6.0402e-09
-9.45698e-09
-3.20156e-08
-4.09878e-08
-1.52728e-08
-2.70291e-08
2.72333e-08
8.79032e-08
1.1232e-07
1.12935e-07
9.72977e-08
1.23589e-07
1.28514e-07
1.04365e-07
4.54657e-08
6.88114e-08
8.14758e-08
5.39709e-08
8.16138e-08
6.6826e-08
6.17817e-08
4.8645e-08
4.63762e-08
4.57845e-08
-1.13502e-09
-6.50343e-08
-8.01226e-08
-7.84716e-08
-3.13212e-08
2.16939e-08
-2.15208e-08
-5.03434e-08
-1.59664e-08
1.59976e-08
7.06435e-09
-7.45318e-09
-6.60713e-09
-4.81201e-09
-2.14427e-08
-3.93059e-08
-6.46999e-08
-3.12371e-08
2.36635e-08
3.33426e-08
4.98667e-08
7.15775e-08
5.21686e-08
1.59401e-08
1.97101e-08
-7.413e-10
-1.86006e-08
-2.23077e-08
-1.21274e-08
1.04187e-09
-1.64376e-09
-3.02982e-09
2.26107e-08
9.23182e-08
1.19045e-07
6.57815e-08
-1.3484e-09
-9.91616e-09
-2.69211e-08
-3.68549e-08
-1.3587e-08
-1.94325e-08
2.75887e-08
8.45772e-08
1.08464e-07
1.11804e-07
9.79813e-08
1.18738e-07
1.21464e-07
1.01399e-07
5.00518e-08
6.47077e-08
8.13666e-08
5.70731e-08
7.82196e-08
6.67067e-08
6.11643e-08
4.95738e-08
4.34535e-08
3.99283e-08
1.93752e-10
-5.78284e-08
-7.42757e-08
-7.18454e-08
-3.2867e-08
1.5441e-08
-1.7835e-08
-4.56417e-08
-1.94708e-08
1.09489e-08
5.44073e-09
-6.97049e-09
-5.57842e-09
-5.94141e-09
-2.15516e-08
-3.52919e-08
-5.65706e-08
-3.02831e-08
2.06175e-08
3.33825e-08
4.66201e-08
6.4235e-08
4.93998e-08
1.62618e-08
1.80252e-08
1.62196e-09
-1.47799e-08
-1.83722e-08
-1.17098e-08
-2.56065e-10
-3.27751e-10
1.28159e-09
2.3907e-08
8.42345e-08
1.10141e-07
6.61148e-08
3.22356e-09
-9.72067e-09
-2.25854e-08
-3.2582e-08
-1.18263e-08
-1.27588e-08
2.82448e-08
8.15282e-08
1.04897e-07
1.10275e-07
9.82719e-08
1.14394e-07
1.15379e-07
9.82406e-08
5.39825e-08
6.15203e-08
8.035e-08
5.97888e-08
7.54247e-08
6.64346e-08
6.04295e-08
5.00472e-08
4.12612e-08
3.50205e-08
9.97843e-10
-5.12554e-08
-6.86947e-08
-6.58938e-08
-3.36864e-08
9.95389e-09
-1.50366e-08
-4.12382e-08
-2.19901e-08
6.37433e-09
3.78344e-09
-6.71837e-09
-4.84155e-09
-6.83265e-09
-2.15043e-08
-3.1916e-08
-4.93078e-08
-2.88579e-08
1.77504e-08
3.29235e-08
4.39522e-08
5.78974e-08
4.6573e-08
1.6608e-08
1.6454e-08
3.4226e-09
-1.14824e-08
-1.48064e-08
-1.07451e-08
-9.66941e-10
7.69204e-10
4.77375e-09
2.50084e-08
7.71708e-08
1.01895e-07
6.57348e-08
7.56802e-09
-8.94606e-09
-1.88722e-08
-2.82916e-08
-9.97595e-09
-6.91824e-09
2.91101e-08
7.87253e-08
1.0161e-07
1.08464e-07
9.82226e-08
1.1047e-07
1.10125e-07
9.5044e-08
5.72543e-08
5.91529e-08
7.86692e-08
6.20179e-08
7.31325e-08
6.60418e-08
5.96546e-08
5.01509e-08
3.96144e-08
3.09861e-08
1.42502e-09
-4.53139e-08
-6.33852e-08
-6.05505e-08
-3.39297e-08
5.18944e-09
-1.29613e-08
-3.71601e-08
-2.36644e-08
2.274e-09
2.14361e-09
-6.62361e-09
-4.40002e-09
-7.52849e-09
-2.12868e-08
-2.90904e-08
-4.28847e-08
-2.70861e-08
1.51075e-08
3.20587e-08
4.17126e-08
5.247e-08
4.37671e-08
1.69542e-08
1.50314e-08
4.75559e-09
-8.64787e-09
-1.16325e-08
-9.38912e-09
-1.16493e-09
1.72801e-09
7.57577e-09
2.59157e-08
7.09937e-08
9.42904e-08
6.47977e-08
1.16129e-08
-7.68103e-09
-1.56559e-08
-2.40815e-08
-8.03532e-09
-1.81616e-09
3.01112e-08
7.61373e-08
9.85784e-08
1.06469e-07
9.78895e-08
1.06895e-07
1.05579e-07
9.19254e-08
5.98959e-08
5.74885e-08
7.65395e-08
6.37153e-08
7.12492e-08
6.55537e-08
5.88842e-08
4.99687e-08
3.83656e-08
2.77375e-08
1.60324e-09
-3.99823e-08
-5.83545e-08
-5.57486e-08
-3.37238e-08
1.08621e-09
-1.14687e-08
-3.34136e-08
-2.46278e-08
-1.35815e-09
5.51952e-10
-6.63538e-09
-4.23316e-09
-8.0709e-09
-2.08981e-08
-2.67309e-08
-3.72584e-08
-2.50783e-08
1.27129e-08
3.08785e-08
3.97777e-08
4.78519e-08
4.10483e-08
1.72877e-08
1.37781e-08
5.7076e-09
-6.21254e-09
-8.85199e-09
-7.78568e-09
-9.38692e-10
2.61781e-09
9.80766e-09
2.664e-08
6.55834e-08
8.72991e-08
6.34394e-08
1.53173e-08
-6.01721e-09
-1.28305e-08
-2.00244e-08
-6.01746e-09
2.64144e-09
3.1191e-08
7.37357e-08
9.57679e-08
1.0437e-07
9.73311e-08
1.03618e-07
1.01626e-07
8.89663e-08
6.19586e-08
5.64028e-08
7.41355e-08
6.48846e-08
6.96841e-08
6.49869e-08
5.81358e-08
4.95762e-08
3.74028e-08
2.51814e-08
1.63696e-09
-3.52266e-08
-5.36085e-08
-5.14238e-08
-3.31741e-08
-2.42382e-09
-1.04381e-08
-2.99917e-08
-2.50021e-08
-4.53364e-09
-9.74782e-10
-6.7115e-09
-4.30521e-09
4.08675e-07
1.72702e-07
-2.53105e-07
-1.9547e-07
-9.33405e-08
-2.85938e-07
1.09426e-08
5.80967e-07
1.07769e-07
-3.75595e-07
7.04876e-08
-5.21895e-08
-1.31483e-07
4.08996e-07
6.764e-08
-3.39181e-07
8.78627e-08
8.88755e-09
-4.33872e-07
1.54215e-09
5.07182e-07
5.04819e-07
1.06663e-07
-1.2133e-07
-1.29932e-07
-1.25112e-07
-6.94306e-08
-2.57896e-07
5.59239e-08
1.21667e-07
2.06332e-07
2.45767e-07
-2.55956e-07
1.26789e-07
5.81052e-07
2.25275e-07
-2.53434e-07
-2.1591e-07
2.02368e-07
1.12103e-07
1.88325e-07
1.05525e-07
6.34879e-08
2.45107e-07
1.49676e-08
3.74244e-08
-6.90856e-09
-8.11345e-08
-1.91583e-07
-4.74711e-07
-1.14686e-07
4.67354e-07
-2.51438e-08
-4.38984e-09
1.04145e-07
-3.62819e-07
-7.80473e-08
3.05836e-07
-1.23747e-07
-1.49489e-07
3.74317e-07
1.47812e-07
-2.49084e-07
-1.95741e-07
-9.07555e-08
-2.5408e-07
3.1965e-08
5.45226e-07
8.57413e-08
-3.43733e-07
6.78938e-08
-4.88371e-08
-1.06717e-07
3.74175e-07
4.47854e-08
-3.06905e-07
8.29384e-08
-1.67037e-08
-4.00145e-07
2.52972e-08
5.00833e-07
4.7395e-07
8.2072e-08
-1.17896e-07
-1.28137e-07
-1.25678e-07
-6.63629e-08
-2.29042e-07
5.22605e-08
1.21423e-07
2.02343e-07
2.19771e-07
-2.21043e-07
1.48719e-07
5.46558e-07
1.99994e-07
-2.47185e-07
-1.87736e-07
1.99959e-07
1.11855e-07
1.87609e-07
1.07214e-07
6.05821e-08
2.16962e-07
1.75681e-08
3.81749e-08
-6.02051e-09
-8.05993e-08
-1.88265e-07
-4.42862e-07
-9.48797e-08
4.34408e-07
-2.20654e-08
-7.40287e-09
7.83767e-08
-3.28135e-07
-5.56826e-08
2.73031e-07
-1.17881e-07
-1.24058e-07
3.50975e-07
1.42378e-07
-2.40116e-07
-1.95107e-07
-8.53043e-08
-2.35824e-07
2.9848e-08
5.19176e-07
8.60908e-08
-3.26332e-07
6.24582e-08
-4.21741e-08
-1.01647e-07
3.51404e-07
4.44895e-08
-2.89179e-07
7.2258e-08
-2.18925e-08
-3.77019e-07
2.95654e-08
4.86385e-07
4.56246e-07
7.78615e-08
-1.10028e-07
-1.24559e-07
-1.26518e-07
-6.00148e-08
-2.17202e-07
4.5643e-08
1.20598e-07
1.94169e-07
2.13852e-07
-1.97601e-07
1.48363e-07
5.22207e-07
1.94118e-07
-2.32728e-07
-1.76684e-07
1.94626e-07
1.1e-07
1.85964e-07
1.0955e-07
5.48142e-08
2.06023e-07
2.31851e-08
3.92821e-08
-4.88989e-09
-8.03891e-08
-1.81384e-07
-4.24135e-07
-9.88083e-08
4.15048e-07
-1.59323e-08
-1.30289e-08
7.28299e-08
-3.04823e-07
-5.58095e-08
2.53937e-07
-1.05863e-07
-1.17411e-07
3.25918e-07
1.40419e-07
-2.27913e-07
-1.93683e-07
-7.93418e-08
-2.17718e-07
2.22995e-08
4.9024e-07
9.22005e-08
-3.08868e-07
5.4669e-08
-3.37419e-08
-1.0014e-07
3.27176e-07
4.98233e-08
-2.71297e-07
5.8623e-08
-2.2389e-08
-3.52455e-07
2.93107e-08
4.67012e-07
4.38623e-07
7.82303e-08
-1.00787e-07
-1.19655e-07
-1.26261e-07
-5.28116e-08
-2.07083e-07
3.77299e-08
1.19633e-07
1.84394e-07
2.11344e-07
-1.73224e-07
1.41973e-07
4.96309e-07
1.92289e-07
-2.13575e-07
-1.67901e-07
1.87413e-07
1.07901e-07
1.82666e-07
1.1203e-07
4.88395e-08
1.97227e-07
3.02208e-08
4.03745e-08
-3.62434e-09
-8.03316e-08
-1.73265e-07
-4.04651e-07
-1.08538e-07
3.94459e-07
-7.54445e-09
-2.01869e-08
7.06966e-08
-2.79912e-07
-6.09337e-08
2.3452e-07
-9.10655e-08
-1.13732e-07
2.97259e-07
1.37542e-07
-2.13375e-07
-1.91416e-07
-7.33108e-08
-1.96844e-07
1.4706e-08
4.56795e-07
9.88738e-08
-2.8896e-07
4.52014e-08
-2.41836e-08
-9.79991e-08
2.9842e-07
5.58429e-08
-2.50784e-07
4.35941e-08
-2.22759e-08
-3.24593e-07
2.87381e-08
4.44313e-07
4.18229e-07
7.85063e-08
-9.14848e-08
-1.13457e-07
-1.24874e-07
-4.53762e-08
-1.94811e-07
2.91555e-08
1.18498e-07
1.73886e-07
2.07851e-07
-1.46219e-07
1.34561e-07
4.67216e-07
1.90053e-07
-1.91812e-07
-1.57811e-07
1.7903e-07
1.05968e-07
1.77672e-07
1.14897e-07
4.32355e-08
1.86988e-07
3.77597e-08
4.1448e-08
-2.02762e-09
-7.99941e-08
-1.64524e-07
-3.81593e-07
-1.18699e-07
3.70046e-07
2.25831e-09
-2.88261e-08
6.77114e-08
-2.51097e-07
-6.59301e-08
2.12392e-07
-7.50585e-08
-1.09056e-07
2.66224e-07
1.33415e-07
-1.97191e-07
-1.88334e-07
-6.76096e-08
-1.7405e-07
7.99658e-09
4.20396e-07
1.05401e-07
-2.67311e-07
3.45024e-08
-1.41984e-08
-9.4985e-08
2.67165e-07
6.18664e-08
-2.2836e-07
2.82266e-08
-2.18419e-08
-2.94814e-07
2.79451e-08
4.19488e-07
3.96281e-07
7.85197e-08
-8.27939e-08
-1.06192e-07
-1.22514e-07
-3.81709e-08
-1.80435e-07
2.03634e-08
1.17144e-07
1.63301e-07
2.03193e-07
-1.17936e-07
1.26786e-07
4.36285e-07
1.87323e-07
-1.68678e-07
-1.46985e-07
1.69877e-07
1.04336e-07
1.71231e-07
1.18096e-07
3.83644e-08
1.7547e-07
4.51576e-08
4.25198e-08
-6.07222e-11
-7.91261e-08
-1.55524e-07
-3.55732e-07
-1.28331e-07
3.42203e-07
1.29235e-08
-3.73353e-08
6.35068e-08
-2.20828e-07
-7.00027e-08
1.88472e-07
-5.89624e-08
-1.03275e-07
2.3449e-07
1.28132e-07
-1.80042e-07
-1.84464e-07
-6.26945e-08
-1.50781e-07
2.42218e-09
3.82844e-07
1.11738e-07
-2.4464e-07
2.30084e-08
-4.58601e-09
-9.1174e-08
2.35684e-07
6.75985e-08
-2.05135e-07
1.33684e-08
-2.11063e-08
-2.64643e-07
2.6657e-08
3.93533e-07
3.74235e-07
7.85518e-08
-7.50429e-08
-9.82613e-08
-1.19413e-07
-3.18147e-08
-1.64597e-07
1.18197e-08
1.15539e-07
1.53324e-07
1.97728e-07
-8.99095e-08
1.18707e-07
4.05005e-07
1.84646e-07
-1.45033e-07
-1.36049e-07
1.60096e-07
1.02947e-07
1.63607e-07
1.21306e-07
3.46853e-08
1.63278e-07
5.19184e-08
4.35301e-08
2.1349e-09
-7.76554e-08
-1.46658e-07
-3.28293e-07
-1.36905e-07
3.12357e-07
2.404e-08
-4.47947e-08
5.80771e-08
-1.91147e-07
-7.28253e-08
1.64031e-07
-4.36954e-08
-9.65788e-08
2.03286e-07
1.21659e-07
-1.62499e-07
-1.79745e-07
-5.88994e-08
-1.28014e-07
-1.86453e-09
3.45751e-07
1.17623e-07
-2.21364e-07
1.126e-08
3.99104e-09
-8.65022e-08
2.04982e-07
7.25706e-08
-1.81968e-07
-2.70722e-10
-2.02684e-08
-2.35133e-07
2.49431e-08
3.67104e-07
3.52682e-07
7.87501e-08
-6.82661e-08
-9.00221e-08
-1.15708e-07
-2.66507e-08
-1.47899e-07
3.92419e-09
1.13614e-07
1.44459e-07
1.91693e-07
-6.31527e-08
1.10516e-07
3.74324e-07
1.82148e-07
-1.21435e-07
-1.25032e-07
1.49767e-07
1.0183e-07
1.55021e-07
1.24171e-07
3.25255e-08
1.50886e-07
5.77325e-08
4.44154e-08
4.37555e-09
-7.55738e-08
-1.38294e-07
-3.00295e-07
-1.43825e-07
2.8124e-07
3.51358e-08
-5.05954e-08
5.14722e-08
-1.63111e-07
-7.41349e-08
1.39931e-07
-2.99506e-08
-8.90165e-08
1.7348e-07
1.13995e-07
-1.45021e-07
-1.74045e-07
-5.62921e-08
-1.06538e-07
-4.82535e-09
3.09835e-07
1.22653e-07
-1.97739e-07
-1.6746e-10
1.11019e-08
-8.09563e-08
1.75635e-07
7.62674e-08
-1.59417e-07
-1.21736e-08
-1.94961e-08
-2.06871e-07
2.299e-08
3.40618e-07
3.31789e-07
7.91949e-08
-6.23324e-08
-8.18047e-08
-1.11389e-07
-2.27588e-08
-1.30883e-07
-3.0088e-09
1.11265e-07
1.36909e-07
1.85271e-07
-3.82288e-08
1.02641e-07
3.44746e-07
1.79518e-07
-9.82351e-08
-1.13778e-07
1.39088e-07
1.00914e-07
1.45748e-07
1.2635e-07
3.19893e-08
1.3869e-07
6.24595e-08
4.51304e-08
6.53697e-09
-7.28672e-08
-1.30622e-07
-2.72597e-07
-1.48646e-07
2.49535e-07
4.56726e-08
-5.43563e-08
4.39214e-08
-1.37278e-07
-7.3856e-08
1.16888e-07
-1.81925e-08
-8.07232e-08
1.45641e-07
1.05239e-07
-1.27997e-07
-1.67269e-07
-5.47362e-08
-8.69281e-08
-6.47635e-09
2.75632e-07
1.26427e-07
-1.73997e-07
-1.07624e-08
1.65328e-08
-7.46423e-08
1.481e-07
7.83978e-08
-1.3781e-07
-2.20281e-08
-1.88507e-08
-1.80174e-07
2.09648e-08
3.14429e-07
3.11621e-07
7.98898e-08
-5.70536e-08
-7.38862e-08
-1.06387e-07
-2.00869e-08
-1.14025e-07
-8.7747e-09
1.08356e-07
1.30648e-07
1.78633e-07
-1.54188e-08
9.54737e-08
3.16503e-07
1.76587e-07
-7.57573e-08
-1.02353e-07
1.28317e-07
1.00141e-07
1.36154e-07
1.27543e-07
3.29472e-08
1.2702e-07
6.60648e-08
4.56473e-08
8.55128e-09
-6.95374e-08
-1.23705e-07
-2.45895e-07
-1.51125e-07
2.17884e-07
5.50926e-08
-5.5956e-08
3.57788e-08
-1.14038e-07
-7.20628e-08
9.53469e-08
-8.66923e-09
-7.1959e-08
1.20265e-07
9.55595e-08
-1.11791e-07
-1.5943e-07
-5.40134e-08
-6.95203e-08
-6.88738e-09
2.43536e-07
1.28687e-07
-1.50449e-07
-2.01246e-08
2.02224e-08
-6.77481e-08
1.22709e-07
7.88906e-08
-1.17385e-07
-2.96965e-08
-1.83418e-08
-1.55268e-07
1.90143e-08
2.88865e-07
2.9219e-07
8.07574e-08
-5.22597e-08
-6.64744e-08
-1.00695e-07
-1.84695e-08
-9.77121e-08
-1.32467e-08
1.04836e-07
1.25534e-07
1.71909e-07
5.11998e-09
8.92806e-08
2.89778e-07
1.73274e-07
-5.43399e-08
-9.07867e-08
1.17687e-07
9.94501e-08
1.26563e-07
1.27551e-07
3.51044e-08
1.16137e-07
6.85772e-08
4.59799e-08
1.03753e-08
-6.56334e-08
-1.17491e-07
-2.20709e-07
-1.51219e-07
1.86818e-07
6.29281e-08
-5.54604e-08
2.74277e-08
-9.365e-08
-6.89191e-08
7.57187e-08
-1.43059e-09
-6.29979e-08
9.75645e-08
8.51933e-08
-9.67081e-08
-1.50639e-07
-5.38531e-08
-5.44592e-08
-6.2032e-09
2.13852e-07
1.29326e-07
-1.27457e-07
-2.7961e-08
2.22301e-08
-6.04855e-08
9.97665e-08
7.77919e-08
-9.83475e-08
-3.51787e-08
-1.79058e-08
-1.32338e-07
1.72901e-08
2.64227e-07
2.73472e-07
8.16974e-08
-4.77785e-08
-5.96907e-08
-9.43911e-08
-1.77019e-08
-8.22593e-08
-1.63691e-08
1.00721e-07
1.21353e-07
1.65197e-07
2.33341e-08
8.41985e-08
2.64728e-07
1.6953e-07
-3.42815e-08
-7.90959e-08
1.07418e-07
9.87623e-08
1.17269e-07
1.26318e-07
3.813e-08
1.06217e-07
7.00727e-08
4.61518e-08
1.19816e-08
-6.12459e-08
-1.11857e-07
-1.97395e-07
-1.49052e-07
1.56879e-07
6.88594e-08
-5.30682e-08
1.92212e-08
-7.62184e-08
-6.46592e-08
5.82828e-08
3.62865e-09
-5.41113e-08
7.76418e-08
7.44257e-08
-8.2978e-08
-1.41073e-07
-5.39881e-08
-4.17669e-08
-4.62147e-09
1.86783e-07
1.28343e-07
-1.05414e-07
-3.40727e-08
2.27349e-08
-5.30725e-08
7.94008e-08
7.52206e-08
-8.08656e-08
-3.85828e-08
-1.74993e-08
-1.11492e-07
1.59181e-08
2.40765e-07
2.5544e-07
8.26082e-08
-4.34374e-08
-5.35939e-08
-8.7608e-08
-1.75239e-08
-6.79196e-08
-1.81419e-08
9.61072e-08
1.17874e-07
1.58596e-07
3.92519e-08
8.0259e-08
2.41468e-07
1.65342e-07
-1.58103e-08
-6.73079e-08
9.77029e-08
9.79848e-08
1.08537e-07
1.23922e-07
4.16862e-08
9.73601e-08
7.06608e-08
4.61831e-08
1.33518e-08
-5.64957e-08
-1.06638e-07
-1.76255e-07
-1.44869e-07
1.28584e-07
7.27061e-08
-4.90751e-08
1.14697e-08
-6.1702e-08
-5.95755e-08
4.3177e-08
6.73347e-09
-4.55587e-08
6.04843e-08
6.35497e-08
-7.07543e-08
-1.30947e-07
-5.41742e-08
-3.1372e-08
-2.35765e-09
1.62443e-07
1.25815e-07
-8.46499e-08
-3.83684e-08
2.19768e-08
-4.57259e-08
6.16458e-08
7.13502e-08
-6.50589e-08
-4.00952e-08
-1.70734e-08
-9.27487e-08
1.49665e-08
2.18657e-07
2.38079e-07
8.33971e-08
-3.90946e-08
-4.81962e-08
-8.05116e-08
-1.77071e-08
-5.48764e-08
-1.86185e-08
9.11258e-08
1.14871e-07
1.522e-07
5.29543e-08
7.74224e-08
2.20063e-07
1.60726e-07
9.21232e-10
-5.54777e-08
8.86985e-08
9.7023e-08
1.00568e-07
1.20518e-07
4.54367e-08
8.95963e-08
7.04683e-08
4.60915e-08
1.44737e-08
-5.15249e-08
-1.01645e-07
-1.57364e-07
-1.39015e-07
1.02379e-07
7.44263e-08
-4.38526e-08
4.43809e-09
-4.99294e-08
-5.3991e-08
3.03994e-08
8.19682e-09
-3.75647e-08
4.59722e-08
5.28436e-08
-6.01167e-08
-1.20509e-07
-5.42366e-08
-2.31298e-08
3.65278e-10
1.40858e-07
1.21904e-07
-6.5441e-08
-4.08657e-08
2.0236e-08
-3.86363e-08
4.64574e-08
6.63948e-08
-5.1001e-08
-3.9953e-08
-1.65616e-08