/*--------------------------------*- C++ -*----------------------------------*\
| =========                 |                                                 |
| \\      /  F ield         | OpenFOAM: The Open Source CFD Toolbox           |
|  \\    /   O peration     | Version:  2312                                  |
|   \\  /    A nd           | Website:  www.openfoam.com                      |
|    \\/     M anipulation  |                                                 |
\*---------------------------------------------------------------------------*/
FoamFile
{
    version     2.0;
    format      ascii;
    arch        "LSB;label=32;scalar=64";
    class       volScalarField;
    location    "200";
    object      pPrime2Mean;
}
// * * * * * * * * * * * * * * * * * * * * * * * * * * * * * * * * * * * * * //

dimensions      [0 4 -4 0 0 0 0];

internalField   nonuniform List<scalar> 
144000
(
1.83971e-15
1.97745e-15
1.66031e-14
4.77269e-14
1.95248e-14
2.30148e-15
2.45933e-14
2.2184e-14
4.24567e-14
2.55023e-14
1.33491e-14
2.95485e-15
4.77745e-15
3.32752e-14
2.88219e-14
3.93393e-14
1.53229e-14
1.66893e-14
6.48675e-14
6.74687e-14
1.13307e-13
5.38445e-14
4.29807e-14
7.71633e-16
2.27302e-14
4.07203e-14
9.01221e-15
5.96624e-15
4.55285e-14
1.46691e-14
1.21088e-14
6.02554e-15
1.73135e-15
1.69941e-14
1.5993e-14
3.97152e-14
1.85471e-14
8.26109e-16
2.77843e-14
2.29411e-14
2.20128e-15
3.10574e-14
1.64218e-14
2.76172e-14
9.55211e-15
5.25129e-14
5.65724e-14
3.55625e-14
2.01272e-14
1.79883e-14
3.28154e-14
2.87333e-14
2.91683e-14
4.10648e-14
2.74078e-14
5.03191e-14
3.0299e-14
7.41288e-15
5.86414e-15
7.5137e-16
1.76292e-15
1.87419e-15
1.56367e-14
3.58355e-14
1.76142e-14
2.46515e-15
1.72298e-14
2.03042e-14
3.03325e-14
1.74605e-14
1.23539e-14
2.96523e-15
4.4519e-15
2.2738e-14
2.03163e-14
2.8494e-14
8.27304e-15
1.52554e-14
4.91072e-14
5.66442e-14
9.21215e-14
3.97745e-14
3.24004e-14
5.90387e-16
1.58394e-14
2.93203e-14
7.5359e-15
2.84014e-15
3.40155e-14
1.3443e-14
1.16862e-14
5.76324e-15
1.59393e-15
1.00576e-14
1.44019e-14
2.86227e-14
1.66156e-14
8.98256e-16
1.96231e-14
1.58147e-14
2.01679e-15
2.19489e-14
1.49011e-14
1.90195e-14
5.00117e-15
3.84954e-14
4.27084e-14
3.29849e-14
1.98339e-14
1.69867e-14
2.30673e-14
2.56774e-14
1.94888e-14
2.89867e-14
1.83238e-14
3.75665e-14
2.00224e-14
6.56079e-15
5.59302e-15
7.02725e-16
1.60878e-15
1.72402e-15
1.31448e-14
2.80079e-14
1.38415e-14
2.74939e-15
1.21464e-14
1.55392e-14
2.21025e-14
1.15158e-14
9.21459e-15
2.67985e-15
3.64386e-15
1.5944e-14
1.35574e-14
1.85827e-14
4.81946e-15
1.08502e-14
3.73111e-14
4.32613e-14
6.95933e-14
3.00591e-14
2.39272e-14
5.94262e-16
1.07378e-14
2.16374e-14
5.15577e-15
1.80032e-15
2.63606e-14
1.15798e-14
1.05547e-14
5.128e-15
1.23469e-15
6.19157e-15
1.04672e-14
2.18466e-14
1.29331e-14
1.13885e-15
1.37946e-14
1.14877e-14
1.719e-15
1.62731e-14
1.15815e-14
1.32701e-14
2.23032e-15
2.70124e-14
3.27315e-14
2.72592e-14
1.83835e-14
1.41734e-14
1.70801e-14
1.85409e-14
1.44136e-14
1.92901e-14
1.21343e-14
2.60297e-14
1.4661e-14
4.63349e-15
4.45867e-15
6.43925e-16
1.39572e-15
1.46742e-15
1.0741e-14
2.23725e-14
1.04309e-14
2.98291e-15
8.66182e-15
1.12615e-14
1.64964e-14
7.4771e-15
6.31597e-15
2.24431e-15
2.85825e-15
1.15088e-14
8.91111e-15
1.17662e-14
3.0331e-15
7.26595e-15
2.87765e-14
3.19542e-14
5.24404e-14
2.3352e-14
1.73753e-14
1.20882e-15
7.14503e-15
1.62645e-14
3.4923e-15
1.60679e-15
2.10511e-14
9.75871e-15
9.31794e-15
4.55409e-15
9.92401e-16
3.92014e-15
7.31821e-15
1.7192e-14
9.54936e-15
1.51099e-15
9.69833e-15
8.4447e-15
1.77967e-15
1.25417e-14
8.74706e-15
9.57362e-15
1.07045e-15
1.91863e-14
2.5397e-14
2.15379e-14
1.6488e-14
1.15695e-14
1.30014e-14
1.23606e-14
1.1265e-14
1.2721e-14
8.16587e-15
1.77294e-14
1.13983e-14
2.95677e-15
3.20688e-15
5.80063e-16
1.16515e-15
1.17464e-15
8.60061e-15
1.79913e-14
7.9418e-15
3.07208e-15
6.29168e-15
8.06414e-15
1.23606e-14
4.92082e-15
4.3069e-15
1.83175e-15
2.20358e-15
8.31421e-15
6.09921e-15
7.23846e-15
2.00381e-15
4.96796e-15
2.21142e-14
2.3909e-14
3.9392e-14
1.86553e-14
1.24909e-14
1.95146e-15
4.81406e-15
1.22114e-14
2.67359e-15
1.68769e-15
1.69542e-14
8.25471e-15
8.13583e-15
4.08326e-15
8.30935e-16
2.50115e-15
5.26587e-15
1.35723e-14
7.05415e-15
1.86226e-15
6.95569e-15
6.17195e-15
1.95317e-15
9.88512e-15
6.87013e-15
7.20621e-15
9.18578e-16
1.37732e-14
1.99111e-14
1.70414e-14
1.45456e-14
9.43137e-15
9.92212e-15
7.98752e-15
8.94319e-15
8.31649e-15
5.73031e-15
1.18894e-14
8.99912e-15
1.92968e-15
2.22157e-15
5.19005e-16
9.49961e-16
8.99616e-16
6.69565e-15
1.44954e-14
6.15476e-15
3.02839e-15
4.69351e-15
5.67213e-15
9.19358e-15
3.325e-15
2.96319e-15
1.46305e-15
1.66003e-15
5.93501e-15
4.41796e-15
4.26542e-15
1.38487e-15
3.5197e-15
1.69074e-14
1.82209e-14
2.90928e-14
1.51859e-14
8.73341e-15
2.55189e-15
3.32505e-15
9.03763e-15
2.35119e-15
1.78933e-15
1.37026e-14
7.04678e-15
7.03107e-15
3.65923e-15
7.25441e-16
1.60998e-15
3.89919e-15
1.06867e-14
5.26382e-15
2.11186e-15
5.12081e-15
4.4095e-15
2.10343e-15
7.97697e-15
5.64225e-15
5.59905e-15
1.175e-15
1.00406e-14
1.58181e-14
1.36011e-14
1.26619e-14
7.65512e-15
7.54672e-15
4.95889e-15
7.10535e-15
5.27354e-15
4.19099e-15
7.70779e-15
7.11956e-15
1.37503e-15
1.47582e-15
4.60489e-16
7.6747e-16
6.63928e-16
5.0693e-15
1.16592e-14
4.86876e-15
2.90107e-15
3.59952e-15
3.87905e-15
6.74621e-15
2.30596e-15
2.05392e-15
1.15305e-15
1.21593e-15
4.18651e-15
3.35453e-15
2.41166e-15
1.009e-15
2.60606e-15
1.29062e-14
1.40633e-14
2.11471e-14
1.24691e-14
5.95683e-15
2.93941e-15
2.35618e-15
6.56567e-15
2.26002e-15
1.83742e-15
1.11125e-14
6.07077e-15
6.02185e-15
3.26552e-15
6.67391e-16
1.04567e-15
2.95478e-15
8.37401e-15
3.99402e-15
2.24649e-15
3.85966e-15
3.12497e-15
2.20649e-15
6.58091e-15
4.80368e-15
4.52619e-15
1.53925e-15
7.57611e-15
1.27288e-14
1.09473e-14
1.08994e-14
6.1975e-15
5.69605e-15
2.89562e-15
5.59203e-15
3.25359e-15
3.15344e-15
4.81112e-15
5.6088e-15
1.09454e-15
9.45066e-16
4.05526e-16
6.19248e-16
4.77248e-16
3.75352e-15
9.34665e-15
3.96284e-15
2.71799e-15
2.83694e-15
2.57995e-15
4.87126e-15
1.64154e-15
1.43952e-15
9.0506e-16
8.68343e-16
2.93013e-15
2.63225e-15
1.35112e-15
7.80091e-16
2.03634e-15
9.87707e-15
1.09758e-14
1.51848e-14
1.02381e-14
4.0111e-15
3.10178e-15
1.73128e-15
4.67977e-15
2.25151e-15
1.8332e-15
9.0479e-15
5.28458e-15
5.12597e-15
2.8985e-15
6.46849e-16
6.91184e-16
2.30251e-15
6.54289e-15
3.12542e-15
2.26479e-15
2.98245e-15
2.24629e-15
2.25706e-15
5.53682e-15
4.21842e-15
3.86064e-15
1.88378e-15
6.03315e-15
1.0379e-14
8.91712e-15
9.29522e-15
5.03186e-15
4.25598e-15
1.56085e-15
4.3293e-15
1.99032e-15
2.40961e-15
2.87934e-15
4.37455e-15
9.60706e-16
5.9432e-16
3.58766e-16
4.99266e-16
3.35695e-16
2.72742e-15
7.45765e-15
3.33699e-15
2.4975e-15
2.2979e-15
1.68393e-15
3.45747e-15
1.20051e-15
1.02438e-15
7.12873e-16
6.08722e-16
2.04795e-15
2.10489e-15
8.01986e-16
6.41909e-16
1.68326e-15
7.61361e-15
8.65496e-15
1.08027e-14
8.34436e-15
2.70814e-15
3.05632e-15
1.34211e-15
3.28517e-15
2.24021e-15
1.79459e-15
7.40254e-15
4.65008e-15
4.35255e-15
2.55488e-15
6.48444e-16
4.73373e-16
1.85434e-15
5.12513e-15
2.55267e-15
2.17786e-15
2.37961e-15
1.70218e-15
2.2507e-15
4.74429e-15
3.79716e-15
3.44515e-15
2.16325e-15
5.11868e-15
8.58807e-15
7.37727e-15
7.86455e-15
4.11635e-15
3.14623e-15
7.64087e-16
3.27821e-15
1.25055e-15
1.84719e-15
1.65374e-15
3.36116e-15
8.94984e-16
3.82544e-16
3.16628e-16
4.00492e-16
2.3316e-16
1.95198e-15
5.91531e-15
2.90086e-15
2.25955e-15
1.91213e-15
1.09702e-15
2.40684e-15
9.01269e-16
7.41601e-16
5.66794e-16
4.22163e-16
1.43613e-15
1.6965e-15
5.57685e-16
5.61816e-16
1.46148e-15
5.9407e-15
6.8894e-15
7.64725e-15
6.71565e-15
1.87526e-15
2.84422e-15
1.11444e-15
2.28259e-15
2.18241e-15
1.73635e-15
6.09366e-15
4.12974e-15
3.69762e-15
2.23467e-15
6.56746e-16
3.43309e-16
1.54316e-15
4.05264e-15
2.18116e-15
2.01663e-15
1.9801e-15
1.39164e-15
2.18959e-15
4.13413e-15
3.48131e-15
3.19023e-15
2.37168e-15
4.59246e-15
7.22578e-15
6.21385e-15
6.61232e-15
3.40102e-15
2.30315e-15
3.37315e-16
2.4171e-15
8.53387e-16
1.4053e-15
9.15605e-16
2.53544e-15
8.49838e-16
2.69565e-16
2.74887e-16
3.18877e-16
1.64994e-16
1.38863e-15
4.66556e-15
2.58196e-15
2.01715e-15
1.6323e-15
7.29451e-16
1.6396e-15
6.92549e-16
5.46935e-16
4.57062e-16
2.93376e-16
1.01528e-15
1.3684e-15
4.75448e-16
5.19687e-16
1.31509e-15
4.70914e-15
5.53282e-15
5.41616e-15
5.32236e-15
1.36556e-15
2.51924e-15
9.93198e-16
1.57818e-15
2.06637e-15
1.66781e-15
5.05482e-15
3.69108e-15
3.1507e-15
1.93987e-15
6.59957e-16
2.68863e-16
1.32055e-15
3.25766e-15
1.93589e-15
1.81802e-15
1.72962e-15
1.23042e-15
2.08691e-15
3.65946e-15
3.23406e-15
3.02985e-15
2.51747e-15
4.28566e-15
6.19529e-15
5.33069e-15
5.53971e-15
2.84323e-15
1.6739e-15
1.4247e-16
1.73132e-15
6.60062e-16
1.05237e-15
4.96965e-16
1.87415e-15
8.00731e-16
2.21541e-16
2.35986e-16
2.52248e-16
1.25348e-16
9.95234e-16
3.66502e-15
2.33054e-15
1.78207e-15
1.42499e-15
5.06832e-16
1.09284e-15
5.41918e-16
4.11391e-16
3.75158e-16
2.08524e-16
7.27089e-16
1.10114e-15
4.6732e-16
5.01972e-16
1.21002e-15
3.79989e-15
4.48145e-15
3.86144e-15
4.14946e-15
1.06189e-15
2.13716e-15
9.36085e-16
1.09937e-15
1.90312e-15
1.59534e-15
4.23111e-15
3.30907e-15
2.69657e-15
1.67285e-15
6.50938e-16
2.28929e-16
1.15478e-15
2.67694e-15
1.76309e-15
1.61531e-15
1.58329e-15
1.15229e-15
1.96107e-15
3.28474e-15
3.03124e-15
2.91252e-15
2.61237e-15
4.08766e-15
5.42118e-15
4.65233e-15
4.64305e-15
2.4083e-15
1.21345e-15
7.77848e-17
1.2061e-15
5.73967e-16
7.72292e-16
2.76111e-16
1.35687e-15
7.39537e-16
2.12126e-16
2.02658e-16
1.98525e-16
1.0711e-16
7.29145e-16
2.87472e-15
2.11534e-15
1.56413e-15
1.26564e-15
3.75089e-16
7.16151e-16
4.28629e-16
3.15322e-16
3.14403e-16
1.55482e-16
5.30381e-16
8.83843e-16
4.82079e-16
4.98811e-16
1.12674e-15
3.12237e-15
3.6602e-15
2.79047e-15
3.18295e-15
8.7832e-16
1.74417e-15
9.10882e-16
7.8298e-16
1.70994e-15
1.52133e-15
3.57614e-15
2.96711e-15
2.31959e-15
1.43529e-15
6.27014e-16
2.09139e-16
1.02527e-15
2.25427e-15
1.6295e-15
1.4328e-15
1.50302e-15
1.1125e-15
1.82935e-15
2.98229e-15
2.85892e-15
2.81749e-15
2.66628e-15
3.93241e-15
4.84082e-15
4.12206e-15
3.91103e-15
2.06579e-15
8.83741e-16
7.59399e-17
8.22149e-16
5.35346e-16
5.55817e-16
1.69725e-16
9.62922e-16
6.66828e-16
2.21925e-16
1.75521e-16
1.5555e-16
1.03063e-16
5.53433e-16
2.25955e-15
1.9181e-15
1.36994e-15
1.13643e-15
2.98013e-16
4.66982e-16
3.39835e-16
2.46052e-16
2.69795e-16
1.24143e-16
3.96804e-16
7.0951e-16
4.94425e-16
5.02956e-16
1.05436e-15
2.60923e-15
3.01414e-15
2.05724e-15
2.40526e-15
7.57479e-16
1.37424e-15
8.93973e-16
5.80655e-16
1.50469e-15
1.4476e-15
3.05274e-15
2.65594e-15
2.00587e-15
1.22768e-15
5.89031e-16
2.00641e-16
9.20371e-16
1.94315e-15
1.51752e-15
1.28324e-15
1.45895e-15
1.08589e-15
1.70508e-15
2.73271e-15
2.70805e-15
2.73282e-15
2.687e-15
3.78675e-15
4.40172e-15
3.70026e-15
3.32435e-15
1.79202e-15
6.53365e-16
9.75197e-17
5.54414e-16
5.09582e-16
3.95027e-16
1.24003e-16
6.70175e-16
5.86038e-16
2.37795e-16
1.54226e-16
1.21477e-16
1.07211e-16
4.39215e-16
1.78801e-15
1.73074e-15
1.20259e-15
1.02542e-15
2.52887e-16
3.08814e-16
2.68152e-16
1.9534e-16
2.37296e-16
1.06614e-16
3.06978e-16
5.72741e-16
4.94895e-16
5.09002e-16
9.8785e-16
2.21237e-15
2.50255e-15
1.55523e-15
1.79452e-15
6.6489e-16
1.0502e-15
8.70098e-16
4.56156e-16
1.30332e-15
1.37417e-15
2.63058e-15
2.37146e-15
1.74347e-15
1.04915e-15
5.40063e-16
1.97438e-16
8.32081e-16
1.70814e-15
1.41936e-15
1.16958e-15
1.429e-15
1.06124e-15
1.59646e-15
2.52163e-15
2.57279e-15
2.65179e-15
2.68095e-15
3.63778e-15
4.06069e-15
3.35933e-15
2.86051e-15
1.56939e-15
4.96966e-16
1.22612e-16
3.76708e-16
4.80691e-16
2.8107e-16
1.06754e-16
4.57932e-16
5.02161e-16
2.51729e-16
1.38193e-16
9.53488e-17
1.1512e-16
3.66052e-16
1.43159e-15
1.55134e-15
1.06201e-15
9.25394e-16
2.26294e-16
2.12447e-16
2.09756e-16
1.5773e-16
2.13608e-16
9.73649e-17
2.47007e-16
4.67793e-16
4.82685e-16
5.13375e-16
9.25362e-16
1.89799e-15
2.09487e-15
1.2092e-15
1.32603e-15
5.82689e-16
7.82227e-16
8.31496e-16
3.83284e-16
1.1178e-15
1.30086e-15
2.28565e-15
2.11231e-15
1.5224e-15
8.97703e-16
4.84551e-16
1.96442e-16
7.5661e-16
1.52356e-15
1.33223e-15
1.08939e-15
1.39937e-15
1.03659e-15
1.5051e-15
2.33903e-15
2.44952e-15
2.57218e-15
2.6537e-15
3.48101e-15
3.78428e-15
3.07981e-15
2.49705e-15
1.3858e-15
3.94675e-16
1.43143e-16
2.64569e-16
4.43594e-16
2.04361e-16
1.0026e-16
3.0807e-16
4.2073e-16
2.59543e-16
1.25868e-16
7.60422e-17
1.2373e-16
3.19544e-16
1.16496e-15
1.38115e-15
9.45807e-16
8.33158e-16
2.10616e-16
1.5586e-16
1.62831e-16
1.29639e-16
1.96011e-16
9.3042e-17
2.07525e-16
3.89315e-16
4.61131e-16
5.13784e-16
8.66329e-16
1.64364e-15
1.76794e-15
9.67493e-16
9.74647e-16
5.03776e-16
5.71004e-16
7.76848e-16
3.43667e-16
9.55204e-16
1.22578e-15
2.00011e-15
1.87816e-15
1.33458e-15
7.70577e-16
4.26912e-16
1.95442e-16
6.91263e-16
1.37295e-15
1.25489e-15
1.03503e-15
1.3628e-15
1.01409e-15
1.42916e-15
2.17851e-15
2.33579e-15
2.49277e-15
2.61051e-15
3.32302e-15
3.54871e-15
2.84806e-15
2.21329e-15
1.23431e-15
3.31157e-16
1.5729e-16
1.97635e-16
3.99662e-16
1.55579e-16
9.58569e-17
2.05067e-16
3.45975e-16
2.59739e-16
1.15799e-16
6.24542e-17
1.31089e-16
2.89705e-16
9.66535e-16
1.22264e-15
8.50322e-16
7.47619e-16
2.01569e-16
1.23427e-16
1.26381e-16
1.08764e-16
1.82366e-16
9.17746e-17
1.8189e-16
3.32256e-16
4.34437e-16
5.09124e-16
8.10852e-16
1.4343e-15
1.50415e-15
7.95591e-16
7.1662e-16
4.27152e-16
4.12169e-16
7.08742e-16
3.24599e-16
8.18396e-16
1.14929e-15
1.76059e-15
1.66841e-15
1.17367e-15
6.64531e-16
3.70987e-16
1.93552e-16
6.34342e-16
1.2464e-15
1.18617e-15
9.98522e-16
1.31792e-15
9.96357e-16
1.3655e-15
2.03616e-15
2.22999e-15
2.41333e-15
2.55612e-15
3.16518e-15
3.33883e-15
2.65347e-15
1.99127e-15
1.11011e-15
2.94775e-16
1.65995e-16
1.60144e-16
3.52664e-16
1.2656e-16
9.01413e-17
1.36371e-16
2.80366e-16
2.52655e-16
1.06879e-16
5.3398e-17
1.36064e-16
2.69864e-16
8.18601e-16
1.07827e-15
7.71383e-16
6.69019e-16
1.96486e-16
1.04927e-16
9.95636e-17
9.35157e-17
1.70978e-16
9.25178e-17
1.65675e-16
2.91621e-16
4.06457e-16
4.9891e-16
7.59122e-16
1.25985e-15
1.28996e-15
6.70803e-16
5.30814e-16
3.5481e-16
2.97191e-16
6.31885e-16
3.1748e-16
7.07002e-16
1.07183e-15
1.55731e-15
1.48185e-15
1.0348e-15
5.76123e-16
3.1957e-16
1.90558e-16
5.8477e-16
1.13768e-15
1.12486e-15
9.72919e-16
1.2664e-15
9.84603e-16
1.31082e-15
1.90959e-15
2.13124e-15
2.3341e-15
2.4929e-15
3.01083e-15
3.14587e-15
2.48789e-15
1.81616e-15
1.00931e-15
2.76897e-16
1.70991e-16
1.41031e-16
3.06124e-16
1.10685e-16
8.24721e-17
9.20752e-17
2.24796e-16
2.39651e-16
9.82791e-17
4.76871e-17
1.38152e-16
2.55749e-16
7.07323e-16
9.4968e-16
7.05104e-16
5.97978e-16
1.93499e-16
9.41554e-17
8.12672e-17
8.2578e-17
1.60588e-16
9.47118e-17
1.55725e-16
2.6324e-16
3.79773e-16
4.84068e-16
7.10849e-16
1.11322e-15
1.11497e-15
5.78201e-16
3.99349e-16
2.89414e-16
2.16425e-16
5.51985e-16
3.16469e-16
6.18522e-16
9.94376e-16
1.3832e-15
1.31673e-15
9.1428e-16
5.02065e-16
2.74264e-16
1.86584e-16
5.41496e-16
1.04309e-15
1.06942e-15
9.53259e-16
1.21095e-15
9.78385e-16
1.26248e-15
1.7972e-15
2.03886e-15
2.25528e-15
2.42392e-15
2.86225e-15
2.96575e-15
2.34473e-15
1.6764e-15
9.28475e-16
2.71277e-16
1.73925e-16
1.32569e-16
2.62732e-16
1.02859e-16
7.35327e-17
6.44507e-17
1.79003e-16
2.22557e-16
8.9777e-17
4.42762e-17
1.37342e-16
2.44737e-16
6.22052e-16
8.37407e-16
6.48243e-16
5.34987e-16
1.91345e-16
8.76716e-17
6.98521e-17
7.49317e-17
1.50657e-16
9.79509e-17
1.49987e-16
2.4374e-16
3.55417e-16
4.66035e-16
6.65909e-16
9.8928e-16
9.71121e-16
5.07845e-16
3.07798e-16
2.32901e-16
1.61434e-16
4.74263e-16
3.17556e-16
5.49473e-16
9.1824e-16
1.23302e-15
1.17097e-15
8.09277e-16
4.39541e-16
2.35557e-16
1.81892e-16
5.03633e-16
9.60336e-16
1.01825e-15
9.36062e-16
1.15512e-15
9.75983e-16
1.21885e-15
1.69762e-15
1.95234e-15
2.17716e-15
2.35117e-15
2.72082e-15
2.79667e-15
2.21852e-15
1.56313e-15
8.64325e-16
2.73344e-16
1.76054e-16
1.29875e-16
2.24428e-16
9.94096e-17
6.44406e-17
4.77229e-17
1.41929e-16
2.03134e-16
8.15651e-17
4.23284e-17
1.3408e-16
2.35276e-16
5.55114e-16
7.40924e-16
5.98362e-16
4.80231e-16
1.89145e-16
8.37666e-17
6.35449e-17
6.98258e-17
1.41191e-16
1.01942e-16
1.47033e-16
2.30379e-16
3.33983e-16
4.46391e-16
6.23968e-16
8.84124e-16
8.52136e-16
4.53089e-16
2.44999e-16
1.86132e-16
1.2496e-16
4.02624e-16
3.18063e-16
4.96104e-16
8.44785e-16
1.10271e-15
1.04248e-15
7.17493e-16
3.86293e-16
2.03174e-16
1.76796e-16
4.70458e-16
8.87749e-16
9.70211e-16
9.19308e-16
1.10187e-15
9.75215e-16
1.17898e-15
1.60969e-15
1.87124e-15
2.10018e-15
2.27605e-15
2.58727e-15
2.638e-15
2.10488e-15
1.46975e-15
8.13796e-16
2.79919e-16
1.78206e-16
1.30027e-16
1.91876e-16
9.79179e-17
5.62092e-17
3.79234e-17
1.12262e-16
1.82562e-16
7.40349e-17
4.12491e-17
1.29057e-16
2.26513e-16
5.01047e-16
6.58924e-16
5.53784e-16
4.33405e-16
1.86355e-16
8.15113e-17
6.07304e-17
6.66969e-17
1.32303e-16
1.06348e-16
1.45867e-16
2.21265e-16
3.15832e-16
4.26384e-16
5.84943e-16
7.94557e-16
7.53149e-16
4.09406e-16
2.02609e-16
1.49041e-16
1.0134e-16
3.39489e-16
3.16548e-16
4.54878e-16
7.75178e-16
9.89111e-16
9.29223e-16
6.37027e-16
3.4051e-16
1.76498e-16
1.716e-16
4.41306e-16
8.23945e-16
9.24703e-16
9.01984e-16
1.05327e-15
9.74063e-16
1.14288e-15
1.53204e-15
1.79522e-15
2.0247e-15
2.19956e-15
2.46167e-15
2.48951e-15
2.00064e-15
1.39131e-15
7.74156e-16
2.88822e-16
1.80847e-16
1.31396e-16
1.65358e-16
9.69109e-17
4.95105e-17
3.21969e-17
8.8723e-17
1.61712e-16
6.7533e-17
4.06515e-17
1.22925e-16
2.18021e-16
4.56173e-16
5.89688e-16
5.13443e-16
3.93829e-16
1.82819e-16
8.05556e-17
6.00642e-17
6.50981e-17
1.24204e-16
1.10833e-16
1.45835e-16
2.15106e-16
3.00851e-16
4.06959e-16
5.48801e-16
7.18031e-16
6.70353e-16
3.7377e-16
1.74534e-16
1.20913e-16
8.64772e-17
2.86049e-16
3.12393e-16
4.22744e-16
7.10368e-16
8.8962e-16
8.29345e-16
5.66327e-16
3.00801e-16
1.54725e-16
1.66571e-16
4.15566e-16
7.67624e-16
8.81501e-16
8.8371e-16
1.01021e-15
9.70956e-16
1.11063e-15
1.46336e-15
1.72396e-15
1.95107e-15
2.12269e-15
2.34379e-15
2.35107e-15
1.90371e-15
1.32412e-15
7.42772e-16
2.98688e-16
1.84172e-16
1.33261e-16
1.44494e-16
9.5615e-17
4.46421e-17
2.88564e-17
7.02099e-17
1.41471e-16
6.2288e-17
4.03203e-17
1.16254e-16
2.09645e-16
4.18067e-16
5.31365e-16
4.76682e-16
3.60625e-16
1.78658e-16
8.06798e-17
6.05935e-17
6.47122e-17
1.17073e-16
1.15099e-16
1.46638e-16
2.10944e-16
2.88633e-16
3.88646e-16
5.15451e-16
6.52394e-16
6.00773e-16
3.44166e-16
1.56352e-16
1.00649e-16
7.75413e-17
2.42391e-16
3.0557e-16
3.97228e-16
6.50908e-16
8.02143e-16
7.41212e-16
5.04109e-16
2.66197e-16
1.3698e-16
1.61833e-16
3.92749e-16
7.17732e-16
8.40572e-16
8.64437e-16
9.72541e-16
9.64927e-16
1.08211e-15
1.40239e-15
1.65713e-15
1.87959e-15
2.04629e-15
2.23334e-15
2.22252e-15
1.81266e-15
1.26543e-15
7.17678e-16
3.08663e-16
1.88178e-16
1.35227e-16
1.28625e-16
9.37526e-17
4.15815e-17
2.67806e-17
5.58094e-17
1.2246e-16
5.83649e-17
5.46114e-14
4.118e-14
2.90586e-14
1.20241e-14
5.67766e-15
4.64301e-14
6.87181e-14
1.17536e-13
4.83557e-14
5.66571e-14
2.57459e-15
2.09091e-15
2.59467e-14
5.26677e-14
2.31834e-14
3.83446e-14
5.06729e-15
7.50542e-15
7.66241e-14
6.42389e-14
7.77577e-14
8.18714e-14
5.2506e-14
3.11281e-14
1.69413e-14
4.87765e-15
3.67216e-15
3.8538e-14
2.28872e-14
8.75154e-15
1.49623e-14
1.63367e-14
5.05684e-14
3.52594e-14
8.84702e-14
5.51446e-14
6.65115e-14
4.01886e-14
2.29873e-15
1.62686e-15
3.76097e-15
8.33252e-15
2.276e-15
3.21784e-14
1.20222e-14
1.19571e-14
1.37867e-14
8.78601e-15
1.21225e-14
6.21538e-14
6.87227e-14
8.14386e-14
4.25109e-15
4.02338e-16
1.60586e-14
3.92117e-14
2.38334e-14
3.99821e-14
8.75078e-15
1.82059e-14
4.06211e-14
2.94763e-14
2.68202e-14
1.19295e-14
5.58045e-15
3.4089e-14
5.74456e-14
9.5515e-14
3.53529e-14
4.35309e-14
2.36442e-15
1.86316e-15
1.84584e-14
3.91246e-14
1.48346e-14
2.74427e-14
4.08309e-15
4.2343e-15
5.93842e-14
5.19819e-14
7.29281e-14
6.41766e-14
4.19015e-14
2.93272e-14
1.62212e-14
4.84637e-15
3.45207e-15
2.80268e-14
2.09351e-14
8.6885e-15
1.3828e-14
9.84415e-15
3.65276e-14
2.63204e-14
6.91035e-14
4.11614e-14
6.10801e-14
2.90821e-14
2.04432e-15
1.57895e-15
3.6352e-15
7.86868e-15
2.43985e-15
2.38538e-14
1.11941e-14
1.16085e-14
1.33521e-14
8.87121e-15
1.16201e-14
4.69294e-14
5.55863e-14
6.49399e-14
3.71157e-15
3.35055e-16
1.0212e-14
2.73322e-14
1.61254e-14
2.85726e-14
7.17326e-15
1.09852e-14
2.94637e-14
2.11622e-14
2.11645e-14
1.12779e-14
5.04005e-15
2.55166e-14
4.31279e-14
7.17992e-14
2.52215e-14
3.34953e-14
2.48013e-15
1.3206e-15
1.29588e-14
2.70174e-14
9.26348e-15
1.9665e-14
2.51148e-15
2.24233e-15
4.53338e-14
4.03996e-14
5.95457e-14
5.07051e-14
3.14403e-14
2.40372e-14
1.41207e-14
4.79634e-15
2.74002e-15
2.13106e-14
1.73012e-14
8.30842e-15
1.08197e-14
6.3632e-15
2.4666e-14
1.77092e-14
5.12454e-14
3.09169e-14
4.77529e-14
2.29305e-14
1.52872e-15
1.34642e-15
3.39103e-15
7.1056e-15
2.69593e-15
1.80221e-14
9.5055e-15
1.06883e-14
1.24562e-14
8.96213e-15
1.02119e-14
3.59252e-14
4.03161e-14
5.12349e-14
3.3991e-15
2.76194e-16
6.55606e-15
1.74177e-14
1.00498e-14
2.02958e-14
4.2938e-15
6.88795e-15
2.11982e-14
1.52755e-14
1.56839e-14
1.03929e-14
4.54424e-15
1.95554e-14
3.10165e-14
5.35763e-14
1.81166e-14
2.55138e-14
2.70256e-15
9.54694e-16
9.07691e-15
1.84321e-14
5.89688e-15
1.40551e-14
1.6287e-15
1.10637e-15
3.47899e-14
3.07994e-14
4.66664e-14
4.0586e-14
2.29559e-14
1.88419e-14
1.18132e-14
4.64171e-15
2.23587e-15
1.65805e-14
1.38557e-14
7.70316e-15
8.22422e-15
4.40073e-15
1.63843e-14
1.12607e-14
3.76028e-14
2.33908e-14
3.5364e-14
1.89617e-14
1.19935e-15
1.16161e-15
3.09174e-15
6.30837e-15
3.03256e-15
1.39052e-14
7.91181e-15
9.56937e-15
1.14033e-14
8.86988e-15
8.81076e-15
2.78331e-14
2.78896e-14
3.98837e-14
3.36753e-15
3.12661e-16
4.2526e-15
1.08353e-14
6.05207e-15
1.43625e-14
2.3091e-15
4.41046e-15
1.49384e-14
1.11264e-14
1.13711e-14
9.38513e-15
4.10538e-15
1.49643e-14
2.24889e-14
3.95053e-14
1.34834e-14
1.908e-14
2.8935e-15
7.1923e-16
6.485e-15
1.2371e-14
4.0141e-15
9.91475e-15
1.33496e-15
6.09057e-16
2.6544e-14
2.35028e-14
3.62512e-14
3.24743e-14
1.68205e-14
1.48281e-14
9.76114e-15
4.37568e-15
1.91564e-15
1.29622e-14
1.11839e-14
7.01114e-15
6.42286e-15
3.25051e-15
1.06234e-14
7.15357e-15
2.73299e-14
1.78076e-14
2.59657e-14
1.58935e-14
1.06551e-15
1.05e-15
2.76812e-15
5.61821e-15
3.25559e-15
1.098e-14
6.74809e-15
8.54367e-15
1.03629e-14
8.57011e-15
7.65695e-15
2.13731e-14
1.95068e-14
3.03678e-14
3.52805e-15
3.49455e-16
2.85883e-15
6.51847e-15
3.75384e-15
1.00271e-14
1.30101e-15
2.8555e-15
1.01505e-14
8.18183e-15
8.03756e-15
8.30617e-15
3.70762e-15
1.14032e-14
1.65803e-14
2.84866e-14
1.0453e-14
1.387e-14
3.02231e-15
5.42171e-16
4.74043e-15
7.9562e-15
2.94306e-15
6.79011e-15
1.30509e-15
4.44624e-16
2.00426e-14
1.80979e-14
2.78651e-14
2.58835e-14
1.24653e-14
1.17564e-14
7.97097e-15
4.02883e-15
1.69143e-15
1.01246e-14
9.14207e-15
6.2744e-15
5.13251e-15
2.53335e-15
6.58239e-15
4.62355e-15
1.95236e-14
1.37126e-14
1.89241e-14
1.33419e-14
1.05997e-15
9.92318e-16
2.46289e-15
5.03155e-15
3.34956e-15
8.89074e-15
5.9071e-15
7.63312e-15
9.36526e-15
8.11511e-15
6.70774e-15
1.6107e-14
1.40051e-14
2.23328e-14
3.74661e-15
3.53654e-16
1.98568e-15
3.67705e-15
2.42339e-15
6.76502e-15
8.47027e-16
1.8625e-15
6.65771e-15
6.03475e-15
5.5092e-15
7.20823e-15
3.36371e-15
8.68745e-15
1.23813e-14
2.00477e-14
8.38664e-15
9.73996e-15
3.08186e-15
4.15586e-16
3.51848e-15
4.89699e-15
2.28332e-15
4.51201e-15
1.36805e-15
4.27732e-16
1.50048e-14
1.40509e-14
2.11131e-14
2.05468e-14
9.32439e-15
9.35364e-15
6.45495e-15
3.63699e-15
1.52991e-15
7.8799e-15
7.56688e-15
5.53557e-15
4.17609e-15
2.04736e-15
3.84941e-15
3.0452e-15
1.36853e-14
1.06759e-14
1.36407e-14
1.11747e-14
1.13476e-15
9.72921e-16
2.20388e-15
4.53481e-15
3.34773e-15
7.36906e-15
5.27356e-15
6.83537e-15
8.43747e-15
7.55587e-15
5.91887e-15
1.18911e-14
1.03049e-14
1.57663e-14
3.93003e-15
3.37793e-16
1.3962e-15
1.93201e-15
1.60252e-15
4.39435e-15
6.81769e-16
1.21085e-15
4.23416e-15
4.43569e-15
3.66188e-15
6.13546e-15
3.07469e-15
6.65828e-15
9.35858e-15
1.38209e-14
6.89619e-15
6.57193e-15
3.06796e-15
3.36252e-16
2.63612e-15
2.89015e-15
1.82921e-15
2.92081e-15
1.44431e-15
4.78525e-16
1.11812e-14
1.09947e-14
1.57604e-14
1.622e-14
7.03835e-15
7.45522e-15
5.21746e-15
3.2261e-15
1.41596e-15
6.1158e-15
6.34163e-15
4.82707e-15
3.45967e-15
1.69292e-15
2.09834e-15
2.05962e-15
9.42654e-15
8.38793e-15
9.75688e-15
9.31229e-15
1.25779e-15
9.77162e-16
2.00379e-15
4.11506e-15
3.27714e-15
6.24544e-15
4.78278e-15
6.14617e-15
7.59581e-15
6.94557e-15
5.26314e-15
8.61424e-15
7.74764e-15
1.06288e-14
4.01551e-15
3.15237e-16
9.80158e-16
9.51213e-16
1.06912e-15
2.74979e-15
6.53561e-16
7.80647e-16
2.62685e-15
3.23145e-15
2.36344e-15
5.11866e-15
2.83159e-15
5.16491e-15
7.16413e-15
9.35406e-15
5.73452e-15
4.2261e-15
2.97598e-15
2.94441e-16
1.98516e-15
1.64639e-15
1.47723e-15
1.86054e-15
1.48758e-15
5.55044e-16
8.34138e-15
8.67551e-15
1.15987e-14
1.2715e-14
5.36854e-15
5.94005e-15
4.23141e-15
2.81257e-15
1.33639e-15
4.75274e-15
5.37283e-15
4.16946e-15
2.91167e-15
1.41811e-15
1.04766e-15
1.44206e-15
6.40381e-15
6.64249e-15
6.97898e-15
7.7055e-15
1.40642e-15
9.95956e-16
1.86236e-15
3.7547e-15
3.16293e-15
5.40682e-15
4.39155e-15
5.55539e-15
6.84333e-15
6.31704e-15
4.71641e-15
6.15095e-15
5.91228e-15
6.79922e-15
3.962e-15
2.97354e-16
6.86047e-16
4.46318e-16
7.08463e-16
1.65259e-15
6.66748e-16
5.03838e-16
1.59522e-15
2.32509e-15
1.48222e-15
4.17953e-15
2.61635e-15
4.07279e-15
5.5531e-15
6.24247e-15
4.75865e-15
2.57804e-15
2.80364e-15
2.8179e-16
1.49995e-15
9.35753e-16
1.17981e-15
1.1927e-15
1.4758e-15
6.34195e-16
6.27414e-15
6.90358e-15
8.4294e-15
9.88278e-15
4.14381e-15
4.71841e-15
3.45638e-15
2.41177e-15
1.27919e-15
3.72132e-15
4.58861e-15
3.57566e-15
2.48073e-15
1.19539e-15
4.73026e-16
1.04633e-15
4.31451e-15
5.29367e-15
5.04485e-15
6.31586e-15
1.56258e-15
1.02261e-15
1.76989e-15
3.44058e-15
3.0278e-15
4.77209e-15
4.0702e-15
5.05053e-15
6.17657e-15
5.70102e-15
4.25365e-15
4.36018e-15
4.53393e-15
4.10683e-15
3.75327e-15
2.94711e-16
4.8349e-16
2.14345e-16
4.59851e-16
9.5924e-16
6.67506e-16
3.33627e-16
9.57335e-16
1.64989e-15
9.08151e-16
3.34045e-15
2.41555e-15
3.27389e-15
4.3561e-15
4.13645e-15
3.9005e-15
1.49539e-15
2.55536e-15
2.89175e-16
1.13904e-15
5.68572e-16
9.21571e-16
7.99416e-16
1.40743e-15
7.04712e-16
4.7925e-15
5.53808e-15
6.06739e-15
7.60264e-15
3.24e-15
3.7252e-15
2.85122e-15
2.03951e-15
1.23379e-15
2.95513e-15
3.93638e-15
3.05349e-15
2.1307e-15
1.0109e-15
2.01852e-16
7.81763e-16
2.9154e-15
4.24022e-15
3.73154e-15
5.12603e-15
1.70914e-15
1.05218e-15
1.71274e-15
3.1654e-15
2.88749e-15
4.2823e-15
3.79924e-15
4.61935e-15
5.58935e-15
5.12146e-15
3.84978e-15
3.09691e-15
3.45937e-15
2.326e-15
3.40261e-15
3.12325e-16
3.48911e-16
1.23067e-16
2.90608e-16
5.42108e-16
6.37187e-16
2.34072e-16
5.73006e-16
1.15662e-15
5.51218e-16
2.62169e-15
2.22025e-15
2.6824e-15
3.45821e-15
2.75383e-15
3.13486e-15
8.40946e-16
2.24606e-15
3.11273e-16
8.73146e-16
4.04382e-16
7.03804e-16
5.85555e-16
1.29501e-15
7.61574e-16
3.73968e-15
4.47639e-15
4.34403e-15
5.77857e-15
2.56603e-15
2.91534e-15
2.37868e-15
1.70791e-15
1.1904e-15
2.39298e-15
3.38107e-15
2.60618e-15
1.83825e-15
8.57444e-16
1.07596e-16
5.95268e-16
2.00869e-15
3.41222e-15
2.85807e-15
4.12659e-15
1.83082e-15
1.08181e-15
1.67782e-15
2.92478e-15
2.75162e-15
3.89527e-15
3.56595e-15
4.24949e-15
5.07413e-15
4.59403e-15
3.48604e-15
2.231e-15
2.60605e-15
1.2345e-15
2.94711e-15
3.5146e-16
2.62672e-16
9.33788e-17
1.80756e-16
3.03092e-16
5.79244e-16
1.79419e-16
3.45663e-16
8.05216e-16
3.39453e-16
2.03095e-15
2.02646e-15
2.23672e-15
2.77999e-15
1.86764e-15
2.45923e-15
4.88894e-16
1.89953e-15
3.42102e-16
6.79399e-16
3.48249e-16
5.31751e-16
4.80879e-16
1.15742e-15
8.02605e-16
2.9925e-15
3.64445e-15
3.11019e-15
4.33366e-15
2.05527e-15
2.25604e-15
2.00741e-15
1.42405e-15
1.14428e-15
1.9814e-15
2.90252e-15
2.23182e-15
1.58838e-15
7.30015e-16
1.04743e-16
4.57933e-16
1.43924e-15
2.76036e-15
2.28373e-15
3.30798e-15
1.91653e-15
1.10953e-15
1.65317e-15
2.71695e-15
2.62444e-15
3.57973e-15
3.36151e-15
3.93051e-15
4.62281e-15
4.12582e-15
3.15046e-15
1.65192e-15
1.93022e-15
6.25394e-16
2.43555e-15
4.06535e-16
2.08264e-16
8.44208e-17
1.15193e-16
1.71747e-16
5.05723e-16
1.51321e-16
2.12119e-16
5.61484e-16
2.19439e-16
1.5614e-15
1.83361e-15
1.89377e-15
2.26406e-15
1.30896e-15
1.87958e-15
3.29781e-16
1.54401e-15
3.76469e-16
5.39492e-16
3.3965e-16
4.07648e-16
4.36214e-16
1.01355e-15
8.27596e-16
2.45766e-15
2.98869e-15
2.24201e-15
3.20473e-15
1.65978e-15
1.72309e-15
1.71196e-15
1.18976e-15
1.09232e-15
1.67715e-15
2.4894e-15
1.92312e-15
1.37154e-15
6.24271e-16
1.39593e-16
3.55232e-16
1.0926e-15
2.24895e-15
1.90403e-15
2.6569e-15
1.96014e-15
1.13387e-15
1.63106e-15
2.53869e-15
2.50702e-15
3.31535e-15
3.18037e-15
3.65342e-15
4.22739e-15
3.71752e-15
2.8386e-15
1.27249e-15
1.40519e-15
3.25345e-16
1.92022e-15
4.66891e-16
1.72533e-16
7.88478e-17
8.06054e-17
1.02445e-16
4.28655e-16
1.37149e-16
1.3288e-16
3.96785e-16
1.54717e-16
1.20114e-15
1.64294e-15
1.62529e-15
1.86807e-15
9.58938e-16
1.40013e-15
2.79608e-16
1.20594e-15
4.08467e-16
4.39149e-16
3.4454e-16
3.28864e-16
4.19423e-16
8.78527e-16
8.37164e-16
2.06756e-15
2.46972e-15
1.64036e-15
2.33697e-15
1.34566e-15
1.29787e-15
1.47172e-15
1.00166e-15
1.03303e-15
1.44763e-15
2.13532e-15
1.67034e-15
1.18219e-15
5.36252e-16
1.81427e-16
2.79905e-16
8.86724e-16
1.85078e-15
1.6462e-15
2.15512e-15
1.96078e-15
1.15479e-15
1.60703e-15
2.38647e-15
2.39894e-15
3.08852e-15
3.01833e-15
3.41076e-15
3.88043e-15
3.36516e-15
2.55071e-15
1.02942e-15
1.00861e-15
2.03816e-16
1.44528e-15
5.20065e-16
1.47452e-16
7.19833e-17
6.53924e-17
6.76049e-17
3.56603e-16
1.28634e-16
8.49689e-17
2.87997e-16
1.21996e-16
9.32426e-16
1.45779e-15
1.41179e-15
1.56073e-15
7.38357e-16
1.01939e-15
2.79959e-16
9.05601e-16
4.3289e-16
3.67258e-16
3.46763e-16
2.87554e-16
4.12018e-16
7.62124e-16
8.33003e-16
1.77522e-15
2.05784e-15
1.22869e-15
1.68227e-15
1.08978e-15
9.64615e-16
1.27093e-15
8.54045e-16
9.67035e-16
1.27017e-15
1.83531e-15
1.46268e-15
1.01714e-15
4.62502e-16
2.15044e-16
2.27567e-16
7.65022e-16
1.54459e-15
1.46218e-15
1.78026e-15
1.92238e-15
1.17262e-15
1.57927e-15
2.25617e-15
2.29885e-15
2.88966e-15
2.87148e-15