/*--------------------------------*- C++ -*----------------------------------*\
| =========                 |                                                 |
| \\      /  F ield         | OpenFOAM: The Open Source CFD Toolbox           |
|  \\    /   O peration     | Version:  2312                                  |
|   \\  /    A nd           | Website:  www.openfoam.com                      |
|    \\/     M anipulation  |                                                 |
\*---------------------------------------------------------------------------*/
FoamFile
{
    version     2.0;
    format      ascii;
    arch        "LSB;label=32;scalar=64";
    class       volScalarField;
    location    "960";
    object      nut;
}
// * * * * * * * * * * * * * * * * * * * * * * * * * * * * * * * * * * * * * //

dimensions      [0 2 -1 0 0 0 0];

internalField   nonuniform List<scalar> 
144000
(
6.51906e-31
6.23037e-31
3.23706e-31
7.52738e-29
1.17702e-29
1.50323e-31
9.2216e-30
2.05766e-30
5.63033e-30
3.77626e-30
5.19651e-30
4.3126e-30
5.74724e-30
5.23076e-30
5.22941e-30
4.44018e-30
6.09525e-30
7.07922e-30
6.27919e-30
6.09376e-30
7.10886e-30
7.80809e-30
7.56869e-30
7.566e-30
7.07383e-30
7.43756e-30
8.08363e-30
8.39142e-30
8.30564e-30
8.17373e-30
7.24576e-30
7.00524e-30
8.16124e-30
8.35377e-30
7.52382e-30
6.65069e-30
5.60655e-30
5.04301e-30
4.58151e-30
3.1257e-30
3.36751e-30
1.59172e-30
5.42228e-30
4.16343e-30
3.29931e-30
2.89987e-30
1.25281e-30
6.69261e-31
1.37649e-31
5.03292e-32
6.02756e-32
5.22618e-31
4.12026e-30
1.09861e-29
6.3413e-29
3.2767e-29
1.0484e-28
8.33918e-27
2.05827e-26
4.07337e-27
4.72212e-27
7.44744e-28
1.88436e-28
7.44677e-28
4.32166e-30
2.0033e-30
1.58572e-29
6.57694e-30
7.54978e-30
1.19018e-29
7.37222e-30
1.21157e-29
8.9017e-30
1.3789e-29
9.10312e-30
1.05531e-29
1.02419e-29
1.70435e-29
1.19028e-29
1.31572e-29
1.29441e-29
1.77152e-29
1.40865e-29
1.6642e-29
1.30702e-29
1.58811e-29
1.47988e-29
1.82144e-29
1.53676e-29
1.72556e-29
1.34907e-29
1.3959e-29
1.45866e-29
1.71271e-29
1.37555e-29
1.26218e-29
9.84405e-30
8.93211e-30
7.87708e-30
5.9583e-30
6.17318e-30
4.76799e-30
1.34429e-29
5.53503e-30
7.13052e-30
5.14413e-30
2.77147e-30
8.62788e-31
3.07278e-31
3.58066e-32
5.76577e-32
2.09604e-30
6.53446e-30
3.51206e-29
1.0516e-28
1.48285e-28
1.3061e-28
1.73496e-26
1.16752e-25
3.06386e-27
2.44052e-26
1.23386e-27
1.99945e-27
6.42527e-28
2.96291e-29
8.81174e-31
2.47183e-29
9.41615e-30
1.13016e-29
1.5213e-29
1.15341e-29
1.47263e-29
1.37975e-29
1.7812e-29
1.34003e-29
1.44984e-29
1.52464e-29
2.24891e-29
1.70959e-29
1.8281e-29
1.84812e-29
2.40222e-29
1.97494e-29
2.29655e-29
1.81115e-29
2.23481e-29
2.03971e-29
2.50956e-29
2.09556e-29
2.38494e-29
1.80118e-29
1.9912e-29
1.94225e-29
2.31923e-29
1.7932e-29
1.71355e-29
1.25772e-29
1.22808e-29
1.01041e-29
8.5153e-30
9.32918e-30
6.50954e-30
2.2879e-29
6.41568e-30
1.09999e-29
7.0357e-30
3.72254e-30
1.42733e-30
3.57218e-31
1.30138e-31
1.6754e-31
1.7472e-30
1.23804e-29
3.73764e-29
1.74128e-28
1.20481e-28
4.63643e-28
3.17427e-26
1.22016e-25
1.06469e-26
1.201e-25
1.53352e-26
8.81412e-27
2.44269e-27
2.51647e-29
1.18731e-30
2.42409e-29
1.18685e-29
1.10274e-29
1.56581e-29
1.14661e-29
1.48066e-29
1.38216e-29
1.80343e-29
1.34468e-29
1.45527e-29
1.50703e-29
2.2756e-29
1.69535e-29
1.82496e-29
1.82811e-29
2.4025e-29
1.95403e-29
2.28208e-29
1.77889e-29
2.22712e-29
1.97531e-29
2.51282e-29
2.02935e-29
2.35543e-29
1.73386e-29
1.96273e-29
1.83556e-29
2.29228e-29
1.6897e-29
1.66701e-29
1.18711e-29
1.21503e-29
9.89408e-30
9.10557e-30
9.372e-30
9.60359e-30
2.26351e-29
5.88363e-30
1.29093e-29
6.54074e-30
4.2933e-30
1.35436e-30
4.89768e-31
2.01462e-31
9.25374e-32
1.90663e-30
1.05176e-29
3.52598e-29
1.52143e-28
1.04611e-28
5.89471e-28
4.55874e-26
1.79261e-25
3.52559e-26
2.92761e-25
9.0221e-26
1.77137e-26
8.30071e-27
5.44936e-29
1.67313e-30
2.71739e-29
1.51681e-29
1.08511e-29
1.68948e-29
1.09383e-29
1.60573e-29
1.34595e-29
1.88398e-29
1.32016e-29
1.49027e-29
1.47576e-29
2.35961e-29
1.66374e-29
1.83822e-29
1.80591e-29
2.4355e-29
1.92407e-29
2.28452e-29
1.74132e-29
2.23015e-29
1.92887e-29
2.53505e-29
1.96525e-29
2.3577e-29
1.67473e-29
1.95468e-29
1.77425e-29
2.32885e-29
1.62702e-29
1.69748e-29
1.16849e-29
1.29494e-29
1.02763e-29
1.03298e-29
9.5623e-30
1.17506e-29
1.99209e-29
6.96981e-30
1.45524e-29
6.49942e-30
4.90398e-30
1.42633e-30
6.97451e-31
3.71211e-31
4.17586e-32
1.96632e-30
8.69178e-30
3.25343e-29
1.28147e-28
8.21898e-29
8.313e-28
7.22987e-26
2.52947e-25
1.33616e-25
4.94027e-25
3.11392e-25
2.38911e-26
2.12086e-26
1.60006e-28
3.28518e-30
3.36802e-29
1.91122e-29
1.17189e-29
1.84419e-29
1.07008e-29
1.73283e-29
1.34385e-29
2.00744e-29
1.31919e-29
1.56991e-29
1.49216e-29
2.50816e-29
1.66292e-29
1.90901e-29
1.83306e-29
2.54325e-29
1.94471e-29
2.34471e-29
1.75733e-29
2.29561e-29
1.95317e-29
2.6347e-29
1.97772e-29
2.43125e-29
1.68392e-29
2.02503e-29
1.81713e-29
2.47788e-29
1.66604e-29
1.83441e-29
1.24061e-29
1.48248e-29
1.13303e-29
1.1888e-29
9.58088e-30
1.54949e-29
1.79182e-29
9.70873e-30
1.60564e-29
7.2924e-30
5.64074e-30
1.77268e-30
1.05247e-30
7.38527e-31
1.73955e-32
2.07663e-30
6.83844e-30
2.94687e-29
1.01596e-28
5.70717e-29
1.19365e-27
1.18124e-25
3.33792e-25
4.0477e-25
6.67325e-25
7.94953e-25
2.48536e-26
4.41993e-26
4.4011e-28
7.26982e-30
4.42232e-29
2.49523e-29
1.33226e-29
1.98942e-29
1.07999e-29
1.83565e-29
1.37015e-29
2.12316e-29
1.33078e-29
1.65971e-29
1.54569e-29
2.66787e-29
1.67692e-29
2.00878e-29
1.8885e-29
2.67983e-29
1.98225e-29
2.42936e-29
1.79995e-29
2.40048e-29
2.02457e-29
2.767e-29
2.02944e-29
2.54613e-29
1.73857e-29
2.16045e-29
1.93749e-29
2.69514e-29
1.77257e-29
2.0424e-29
1.37965e-29
1.75193e-29
1.28911e-29
1.37855e-29
9.85136e-30
1.79577e-29
1.63195e-29
1.43271e-29
1.76794e-29
8.95664e-30
6.48171e-30
2.53307e-30
1.68206e-30
1.53459e-30
3.68654e-32
2.38544e-30
5.2314e-30
2.56853e-29
7.3714e-29
3.57542e-29
1.59418e-27
1.87794e-25
4.29001e-25
9.83451e-25
7.75042e-25
1.64339e-24
2.15275e-26
7.93801e-26
1.03525e-27
1.42235e-29
5.91043e-29
3.2504e-29
1.54554e-29
2.134e-29
1.11121e-29
1.9178e-29
1.41105e-29
2.22644e-29
1.35102e-29
1.7425e-29
1.61711e-29
2.82259e-29
1.69756e-29
2.11379e-29
1.95421e-29
2.83059e-29
2.025e-29
2.52586e-29
1.85945e-29
2.52564e-29
2.11353e-29
2.92517e-29
2.11003e-29
2.68541e-29
1.8285e-29
2.33618e-29
2.1056e-29
2.96554e-29
1.93009e-29
2.3053e-29
1.5808e-29
2.10214e-29
1.50241e-29
1.60946e-29
1.05973e-29
2.17656e-29
1.51553e-29
2.04259e-29
1.98362e-29
1.16999e-29
7.54599e-30
4.01118e-30
2.80049e-30
3.25206e-30
2.41559e-31
3.38874e-30
4.57899e-30
2.29482e-29
5.14392e-29
2.94014e-29
2.00484e-27
2.84775e-25
5.46219e-25
1.96657e-24
8.06531e-25
2.98202e-24
1.5543e-26
1.29672e-25
2.21164e-27
2.53539e-29
7.75692e-29
4.06502e-29
1.79303e-29
2.28929e-29
1.15701e-29
1.98664e-29
1.46939e-29
2.31684e-29
1.38017e-29
1.82995e-29
1.71498e-29
2.97003e-29
1.7269e-29
2.22338e-29
2.0436e-29
2.98821e-29
2.07196e-29
2.63711e-29
1.93469e-29
2.67402e-29
2.23449e-29
3.1031e-29
2.20855e-29
2.85676e-29
1.94969e-29
2.55548e-29
2.32996e-29
3.28336e-29
2.1315e-29
2.63385e-29
1.85987e-29
2.57288e-29
1.83749e-29
2.01547e-29
1.33657e-29
2.78976e-29
1.3024e-29
2.85369e-29
2.3237e-29
1.58896e-29
9.12144e-30
6.71877e-30
4.92602e-30
6.88067e-30
1.20352e-30
6.31947e-30
6.42333e-30
2.49516e-29
4.57518e-29
6.00017e-29
2.32105e-27
4.13993e-25
7.29527e-25
3.47367e-24
7.63029e-25
4.87018e-24
1.00377e-26
1.9467e-25
4.34423e-27
4.21596e-29
1.00256e-28
4.90672e-29
2.06824e-29
2.46117e-29
1.21568e-29
2.0456e-29
1.54477e-29
2.39613e-29
1.42777e-29
1.9139e-29
1.83239e-29
3.10752e-29
1.77161e-29
2.33181e-29
2.15142e-29
3.15007e-29
2.1342e-29
2.75737e-29
2.03224e-29
2.84089e-29
2.37162e-29
3.30539e-29
2.33346e-29
3.05125e-29
2.10394e-29
2.81191e-29
2.59406e-29
3.65524e-29
2.38825e-29
3.04157e-29
2.24735e-29
3.22516e-29
2.37505e-29
2.80835e-29
2.26975e-29
3.16281e-29
1.05779e-29
3.79357e-29
2.86234e-29
2.21782e-29
1.16896e-29
1.15066e-29
9.01286e-30
1.42549e-29
4.54067e-30
1.46064e-29
1.51488e-29
4.06633e-29
7.6037e-29
2.13574e-28
2.60255e-27
5.81726e-25
1.0054e-24
5.51486e-24
6.757e-25
7.39222e-24
6.84646e-27
2.74171e-25
8.07025e-27
6.83154e-29
1.29715e-28
5.6968e-29
2.35236e-29
2.65505e-29
1.28424e-29
2.09581e-29
1.6391e-29
2.46352e-29
1.48867e-29
1.99978e-29
1.97722e-29
3.23129e-29
1.8298e-29
2.441e-29
2.2882e-29
3.30521e-29
2.20957e-29
2.88557e-29
2.14945e-29
3.02521e-29
2.53988e-29
3.51623e-29
2.47585e-29
3.2722e-29
2.2874e-29
3.11144e-29
2.9117e-29
4.07595e-29
2.70277e-29
3.54807e-29
2.77355e-29
4.11794e-29
3.20244e-29
4.17249e-29
3.51187e-29
4.58995e-29
1.06229e-29
4.3756e-29
3.91127e-29
3.07484e-29
1.6102e-29
1.96486e-29
1.69241e-29
2.86648e-29
1.38717e-29
3.56874e-29
4.31676e-29
9.29216e-29
2.00219e-28
6.98756e-28
2.76535e-27
8.01475e-25
1.48442e-24
8.14136e-24
5.65436e-25
1.05195e-23
8.66502e-27
3.63464e-25
1.41836e-26
1.09108e-28
1.65896e-28
6.40468e-29
2.63737e-29
2.89603e-29
1.34862e-29
2.15433e-29
1.73506e-29
2.53797e-29
1.55796e-29
2.08822e-29
2.13276e-29
3.35048e-29
1.89663e-29
2.55017e-29
2.43898e-29
3.45791e-29
2.2979e-29
3.01801e-29
2.28829e-29
3.21938e-29
2.71651e-29
3.73897e-29
2.64436e-29
3.50994e-29
2.50323e-29
3.44518e-29
3.26965e-29
4.55624e-29
3.08921e-29
4.17134e-29
3.48209e-29
5.32444e-29
4.44374e-29
6.73196e-29
6.16336e-29
8.13351e-29
8.91138e-30
5.069e-29
5.40618e-29
4.3126e-29
2.35192e-29
3.31765e-29
3.17152e-29
5.584e-29
3.66426e-29
8.40589e-29
1.18099e-28
2.33457e-28
5.54248e-28
1.9244e-27
2.9153e-27
1.09456e-24
2.23373e-24
1.12213e-23
4.83607e-25
1.42786e-23
1.77759e-26
4.59046e-25
2.3735e-26
1.76191e-28
2.14333e-28
6.87584e-29
2.9213e-29
3.1789e-29
1.40844e-29
2.21877e-29
1.83227e-29
2.62032e-29
1.62213e-29
2.18624e-29
2.30572e-29
3.46124e-29
1.96368e-29
2.66278e-29
2.61231e-29
3.60102e-29
2.38843e-29
3.15869e-29
2.43956e-29
3.41907e-29
2.92151e-29
3.96176e-29
2.82335e-29
3.77305e-29
2.74588e-29
3.81589e-29
3.69592e-29
5.09332e-29
3.55189e-29
4.95213e-29
4.43581e-29
6.98165e-29
6.47453e-29
1.25508e-28
2.69975e-28
2.06515e-28
9.47125e-30
8.75144e-29
5.99859e-29
6.69262e-29
3.40383e-29
5.59384e-29
5.80027e-29
1.04483e-28
8.57975e-29
1.86667e-28
2.89802e-28
5.56976e-28
1.37868e-27
4.41919e-27
2.97439e-27
1.48047e-24
3.51112e-24
1.47239e-23
4.46717e-25
1.8659e-23
4.34565e-26
5.57046e-25
3.77489e-26
2.90347e-28
2.75674e-28
7.0574e-29
3.20406e-29
3.50728e-29
1.46429e-29
2.28663e-29
1.92635e-29
2.70704e-29
1.6912e-29
2.28772e-29
2.47419e-29
3.56942e-29
2.03386e-29
2.77754e-29
2.78569e-29
3.74023e-29
2.48612e-29
3.30022e-29
2.6064e-29
3.62168e-29
3.12834e-29
4.19405e-29
3.02322e-29
4.04883e-29
3.02407e-29
4.22058e-29
4.16529e-29
5.70586e-29
4.12076e-29
5.93882e-29
5.79756e-29
9.63549e-29
1.11669e-28
3.24501e-28
6.61044e-28
1.04369e-29
6.98768e-30
8.79967e-29
6.84618e-29
1.0471e-28
4.98808e-29
9.25931e-29
1.02834e-28
1.86123e-28
1.83005e-28
3.82804e-28
6.37674e-28
1.20659e-27
3.03661e-27
8.95657e-27
2.99253e-27
1.99486e-24
5.46644e-24
1.84745e-23
5.22682e-25
2.36863e-23
9.08677e-26
6.55501e-25
5.71044e-26
4.89892e-28
3.54524e-28
6.85515e-29
3.48305e-29
3.85218e-29
1.52965e-29
2.33485e-29
2.03579e-29
2.77843e-29
1.76476e-29
2.38834e-29
2.65433e-29
3.65913e-29
2.10541e-29
2.89148e-29
2.97292e-29
3.86137e-29
2.5864e-29
3.44462e-29
2.78149e-29
3.82646e-29
3.3551e-29
4.42218e-29
3.23289e-29
4.34671e-29
3.32679e-29
4.65843e-29
4.68193e-29
6.3321e-29
4.69734e-29
6.85998e-29
6.8961e-29
1.10565e-28
1.34054e-28
4.18009e-28
2.28158e-29
7.89175e-28
9.83435e-28
7.90851e-30
1.62617e-28
1.24263e-28
8.35053e-29
1.44029e-28
1.78839e-28
3.17916e-28
3.56523e-28
7.28808e-28
1.26481e-27
2.37605e-27
5.94549e-27
1.62042e-26
2.92772e-27
2.68737e-24
8.58297e-24
2.23345e-23
7.38642e-25
2.94565e-23
1.71738e-25
7.56925e-25
8.30039e-26
8.60581e-28
4.35649e-28
6.38264e-29
3.70549e-29
4.27393e-29
1.57591e-29
2.39153e-29
2.13506e-29
2.85672e-29
1.83868e-29
2.4902e-29
2.81943e-29
3.74783e-29
2.17407e-29
3.00759e-29
3.14951e-29
3.97852e-29
2.69013e-29
3.59027e-29
2.96802e-29
4.03343e-29
3.57107e-29
4.65788e-29
3.46675e-29
4.65716e-29
3.6614e-29
5.12505e-29
5.22826e-29
7.03328e-29
5.4012e-29
8.08898e-29
8.77514e-29
1.50902e-28
2.57335e-28
1.11868e-27
2.5704e-27
4.25758e-27
1.60769e-29
2.93829e-29
1.77175e-28
1.91354e-28
1.23033e-28
2.24999e-28
2.95628e-28
5.20999e-28
6.43877e-28
1.2849e-27
2.29606e-27
4.26028e-27
1.05624e-26
2.68206e-26
2.86942e-27
3.65282e-24
1.29307e-23
2.597e-23
1.2663e-24
3.55056e-23
2.845e-25
8.63882e-25
1.14602e-25
1.51701e-27
5.31004e-28
5.62185e-29
3.90946e-29
4.72479e-29
1.6139e-29
2.44265e-29
2.23413e-29
2.9358e-29
1.89865e-29
2.59442e-29
2.99133e-29
3.82105e-29
2.23364e-29
3.12471e-29
3.33646e-29
4.08169e-29
2.78644e-29
3.74713e-29
3.15313e-29
4.23886e-29
3.80606e-29
4.89204e-29
3.70344e-29
5.00163e-29
4.01145e-29
5.62663e-29
5.85781e-29
7.83222e-29
6.29908e-29
9.91502e-29
1.21563e-28
2.43707e-28
5.9665e-28
3.64183e-27
4.0658e-26
7.12501e-29
1.14982e-26
1.28578e-28
1.27984e-28
3.23097e-28
1.65398e-28
3.50334e-28
4.60913e-28
8.19127e-28
1.07566e-27
2.12016e-27
3.83048e-27
7.03552e-27
1.71686e-26
4.07815e-26
2.84215e-27
4.94501e-24
1.93542e-23
2.91848e-23
2.16915e-24
4.15656e-23
4.43121e-25
9.98355e-25
1.49794e-25
2.62873e-27
6.29297e-28
4.70579e-29
4.07777e-29
5.21717e-29
1.63276e-29
2.50115e-29
2.31867e-29
3.02015e-29
1.95579e-29
2.70024e-29
3.13728e-29
3.89771e-29
2.28914e-29
3.24723e-29
3.50303e-29
4.18753e-29
2.88315e-29
3.90735e-29
3.34294e-29
4.44527e-29
4.02897e-29
5.13965e-29
3.95002e-29
5.34891e-29
4.383e-29
6.12708e-29
6.43884e-29
8.50625e-29
6.89104e-29
1.06193e-28
1.23046e-28
2.10706e-28
3.68308e-28
1.44998e-27
3.85304e-27
2.84589e-27
2.13743e-29
9.71113e-30
3.4219e-28
3.31863e-28
2.65412e-28
4.92026e-28
7.03995e-28
1.21637e-27
1.69091e-27
3.26182e-27
5.94083e-27
1.07517e-26
2.59771e-26
5.82833e-26
2.95211e-27
6.64283e-24
2.78218e-23
3.1683e-23
3.94045e-24
4.83648e-23
5.95421e-25
1.15524e-24
1.86686e-25
4.44167e-27
7.19381e-28
3.7952e-29
4.248e-29
5.65836e-29
1.66214e-29
2.52615e-29
2.42648e-29
3.07372e-29
2.01724e-29
2.79521e-29
3.29053e-29
3.94826e-29
2.34436e-29
3.36651e-29
3.67473e-29
4.27397e-29
2.97928e-29
4.07248e-29
3.53005e-29
4.65069e-29
4.26292e-29
5.38424e-29
4.19313e-29
5.70987e-29
4.76131e-29
6.6425e-29
7.04123e-29
9.16391e-29
7.45955e-29
1.12782e-28
1.22639e-28
1.79774e-28
1.91471e-28
3.81954e-28
1.65884e-31
1.13752e-27
8.79403e-28
4.41495e-29
4.67026e-28
4.12021e-28
3.66728e-28
6.8381e-28
1.01518e-27
1.73269e-27
2.48142e-27
4.7324e-27
8.5703e-27
1.53995e-26
3.66301e-26
7.86315e-26
3.23081e-27
8.79438e-24
3.91032e-23
3.28699e-23
6.722e-24
5.62621e-23
7.51764e-25
1.37697e-24
2.23229e-25
7.43459e-27
7.54619e-28
2.99791e-29
4.30932e-29
6.17379e-29
1.65181e-29
2.5721e-29
2.51823e-29
3.13131e-29
2.0804e-29
2.89337e-29
3.41274e-29
4.00334e-29
2.39817e-29
3.49343e-29
3.81879e-29
4.36238e-29
3.07868e-29
4.24128e-29
3.7201e-29
4.86181e-29
4.47223e-29
5.63991e-29
4.45749e-29
6.08522e-29
5.15548e-29
7.18051e-29
7.64911e-29
9.94047e-29
8.29087e-29
1.2742e-28
1.44457e-28
2.24704e-28
2.65177e-28
6.03476e-28
6.41626e-28
2.85887e-29
1.20639e-32
4.72027e-28
4.12442e-28
5.76615e-28
4.6899e-28
9.35517e-28
1.38449e-27
2.34035e-27
3.44126e-27
6.43015e-27
1.16329e-26
2.06673e-26
4.84097e-26
1.00443e-25
4.2479e-27
1.16134e-23
5.23392e-23
3.29997e-23
1.13265e-23
6.37614e-23
8.7984e-25
1.66645e-24
2.51265e-25
1.18151e-26
7.56642e-28
2.37715e-29
4.39238e-29
6.66646e-29
1.61143e-29
2.63916e-29
2.5874e-29
3.20192e-29
2.11845e-29
3.00116e-29
3.5162e-29
4.05221e-29
2.43529e-29
3.62694e-29
3.94772e-29
4.44606e-29
3.16157e-29
4.42586e-29
3.89004e-29
5.06991e-29
4.67735e-29
5.89199e-29
4.70416e-29
6.48073e-29
5.51691e-29
7.6872e-29
8.17913e-29
1.05155e-28
8.74493e-29
1.32608e-28
1.43156e-28
2.07476e-28
2.00789e-28
3.37899e-28
4.35012e-28
3.40776e-28
4.33675e-30
4.88438e-28
6.32938e-28
6.28819e-28
6.41962e-28
1.19814e-27
1.81047e-27
2.9858e-27
4.48834e-27
8.19477e-27
1.47628e-26
2.5767e-26
6.02464e-26
1.20714e-25
6.34508e-27
1.50772e-23
6.86309e-23
3.16317e-23
1.79501e-23
7.12527e-23
9.7316e-25
2.06305e-24
2.67963e-25
1.78538e-26
7.03519e-28
1.9685e-29
4.5378e-29
7.08236e-29
1.53925e-29
2.74128e-29
2.60995e-29
3.29956e-29
2.12638e-29
3.12219e-29
3.57131e-29
4.11861e-29
2.45407e-29
3.76973e-29
4.03815e-29
4.54125e-29
3.22337e-29
4.61712e-29
4.03189e-29
5.27022e-29
4.85083e-29
6.14607e-29
4.91734e-29
6.86173e-29
5.84336e-29
8.14569e-29
8.62509e-29
1.0991e-28
9.03709e-29
1.35004e-28
1.37032e-28
1.83742e-28
1.34636e-28
1.46091e-28
8.57123e-29
1.0782e-28
1.19673e-28
6.02565e-28
7.55364e-28
7.28343e-28
8.09223e-28
1.48231e-27
2.24885e-27
3.63248e-27
5.5059e-27
9.803e-27
1.74613e-26
2.96152e-26
7.04621e-26
1.35498e-25
1.0919e-26
1.90965e-23
8.59796e-23
2.87986e-23
2.728e-23
7.76579e-23
1.03374e-24
2.55413e-24
2.6899e-25
2.51307e-26
6.29488e-28
1.89003e-29
4.90225e-29
7.19238e-29
1.50736e-29
2.76582e-29
2.67206e-29
3.32485e-29
2.14393e-29
3.19296e-29
3.63394e-29
4.13678e-29
2.4685e-29
3.87382e-29
4.12405e-29
4.59125e-29
3.27223e-29
4.77646e-29
4.13668e-29
5.43378e-29
4.99313e-29
6.35947e-29
5.07499e-29
7.20128e-29
6.08051e-29
8.53591e-29
8.97455e-29
1.13681e-28
9.23432e-29
1.38094e-28
1.34355e-28
1.76368e-28
1.19553e-28
1.17009e-28
5.17658e-29
1.68349e-28
2.26158e-28
8.16569e-28
7.85058e-28
8.40925e-28
9.67121e-28
1.76549e-27
2.63333e-27
4.22718e-27
6.29569e-27
1.11056e-26
1.91506e-26
3.20174e-26
7.54786e-26
1.41435e-25
1.96799e-26
2.33704e-23
1.0353e-22
2.43305e-23
3.85534e-23
8.52514e-23
1.10849e-24
3.27116e-24
2.55484e-25
3.33203e-26
5.37933e-28
2.12204e-29
5.57696e-29
6.9552e-29
1.56407e-29
2.6197e-29
2.86356e-29
3.18691e-29
2.26976e-29
3.11908e-29
3.73023e-29
4.061e-29
2.53691e-29
3.86758e-29
4.21984e-29
4.56344e-29
3.36316e-29
4.8495e-29
4.2506e-29
5.5345e-29
5.07498e-29
6.529e-29
5.2092e-29
7.4623e-29
6.25017e-29
8.82887e-29
9.07249e-29
1.16357e-28
9.21479e-29
1.38133e-28
1.26868e-28
1.64105e-28
1.05529e-28
1.0598e-28
4.02103e-29
2.15442e-28
3.76943e-28
9.24425e-28
8.25202e-28
9.35847e-28
1.10127e-27
2.0192e-27
2.87892e-27
4.69083e-27
6.67656e-27
1.18637e-26
1.93074e-26
3.26377e-26
7.45224e-26
1.43197e-25
3.43128e-26
2.75983e-23
1.18674e-22
1.97174e-23
5.57793e-23
9.37105e-23
1.18452e-24
4.25e-24
2.36803e-25
4.45124e-26
4.46651e-28
2.77987e-29
6.74389e-29
7.04885e-29
1.55791e-29
2.66205e-29
3.06206e-29
3.23923e-29
2.36859e-29
3.21897e-29
3.92405e-29
4.17098e-29
2.60808e-29
4.05315e-29
4.41812e-29
4.71272e-29
3.49168e-29
5.09393e-29
4.45093e-29
5.80443e-29
5.31115e-29
6.87233e-29
5.4503e-29
7.91638e-29
6.54535e-29
9.3259e-29
9.46183e-29
1.20987e-28
9.33591e-29
1.40107e-28
1.23311e-28
1.5674e-28
9.99941e-29
1.03979e-28
4.03547e-29
2.62233e-28
5.45465e-28
9.94703e-28
8.79424e-28
1.0363e-27
1.23697e-27
2.23678e-27
3.11344e-27
4.98225e-27
6.90762e-27
1.20212e-26
1.87971e-26
3.16109e-26
7.23462e-26
1.44164e-25
5.34006e-26
3.25769e-23
1.37716e-22
1.47237e-23
9.07896e-31
5.47913e-31
2.58719e-31
7.40304e-29
1.09309e-29
1.89711e-31
8.38902e-30
2.29918e-30
5.27505e-30
3.84603e-30
5.11923e-30
4.19557e-30
5.75561e-30
5.03012e-30
5.38927e-30
4.18164e-30
6.27665e-30
6.71084e-30
6.48467e-30
5.79464e-30
7.31163e-30
7.59501e-30
7.75865e-30
7.39796e-30
7.43191e-30
7.30419e-30
8.45374e-30
8.6147e-30
8.62185e-30
8.67036e-30
7.78218e-30
7.68049e-30
9.00392e-30
9.55925e-30
8.80492e-30
8.22996e-30
7.4002e-30
7.1317e-30
6.91644e-30
5.72615e-30
4.90336e-30
3.48219e-30
3.11405e-30
4.78923e-30
2.7454e-30
3.3472e-30
1.06801e-30
7.67229e-31
1.11681e-31
6.19756e-32
6.66777e-32
4.71807e-31
4.25635e-30
1.03387e-29
6.41859e-29
3.50303e-29
9.97339e-29
8.49581e-27
2.1484e-26
3.96486e-27
5.04071e-27
7.83148e-28
1.81683e-28
7.25098e-28
3.76455e-30
2.2226e-30
1.46776e-29
7.0169e-30
7.10342e-30
1.19513e-29
7.24985e-30
1.18632e-29
8.83001e-30
1.34446e-29
9.23603e-30
1.01476e-29
1.04593e-29
1.64525e-29
1.21272e-29
1.27817e-29
1.32654e-29
1.74601e-29
1.4494e-29
1.64497e-29
1.38846e-29
1.57915e-29
1.58329e-29
1.88187e-29
1.64419e-29
1.85053e-29
1.50489e-29
1.56786e-29
1.68932e-29
2.02163e-29
1.71453e-29
1.64857e-29
1.41961e-29
1.37189e-29
1.31815e-29
1.16404e-29
9.72931e-30
9.18379e-30
6.82842e-30
7.38906e-30
5.64823e-30
6.15793e-30
2.27825e-30
1.05441e-30
2.33672e-31
5.02122e-32
7.5553e-32
1.88087e-30
6.9602e-30
3.34879e-29
1.07326e-28
1.55695e-28
1.23426e-28
1.76448e-26
1.20634e-25
2.94806e-27
2.44968e-26
1.2509e-27
1.96923e-27
6.15211e-28
2.79925e-29
9.71551e-31
2.33683e-29
9.68248e-30
1.08904e-29
1.50018e-29
1.14913e-29
1.43949e-29
1.37428e-29
1.73138e-29
1.35996e-29
1.39677e-29
1.56029e-29
2.17965e-29
1.74022e-29
1.79568e-29
1.89225e-29
2.39674e-29
2.03731e-29
2.29697e-29
1.93974e-29
2.25214e-29
2.21434e-29
2.62704e-29
2.29268e-29
2.59682e-29
2.07175e-29
2.28541e-29
2.33611e-29
2.8239e-29
2.35076e-29
2.33779e-29
1.94151e-29
1.9874e-29
1.81819e-29
1.72704e-29
1.49802e-29
1.34708e-29
9.94449e-30
1.01313e-29
8.04566e-30
8.86986e-30
2.86903e-30
1.81835e-30
2.40076e-31
1.74633e-31
2.31019e-31
1.50202e-30
1.34529e-29
3.5152e-29
1.79765e-28
1.24621e-28
4.51822e-28
3.22411e-26
1.25575e-25
1.03803e-26
1.20256e-25
1.52935e-26
8.74745e-27
2.37898e-27
2.39394e-29
1.23554e-30
2.31845e-29
1.17996e-29
1.08699e-29
1.52212e-29
1.15844e-29
1.43907e-29
1.38478e-29
1.75121e-29
1.36864e-29
1.41263e-29
1.55284e-29
2.21647e-29
1.73421e-29
1.81848e-29
1.87817e-29
2.43509e-29
2.0224e-29
2.32465e-29
1.92489e-29
2.29336e-29
2.18135e-29
2.68427e-29
2.27001e-29
2.62678e-29
2.05983e-29
2.32436e-29
2.29876e-29
2.88791e-29
2.32421e-29
2.37378e-29
1.9431e-29
2.0492e-29
1.87518e-29
1.88231e-29
1.64718e-29
1.53458e-29
9.59057e-30
1.00544e-29
8.70947e-30
8.83948e-30
3.11983e-30
1.83504e-30
3.10614e-31
2.6229e-31
1.51088e-31
1.62387e-30
1.16583e-29
3.28559e-29
1.57871e-28
1.06588e-28
5.84447e-28
4.6043e-26
1.83311e-25
3.49114e-26
2.92746e-25
9.00305e-26
1.76513e-26
8.16938e-27
5.25067e-29
1.6415e-30
2.62606e-29
1.48595e-29
1.08934e-29
1.62988e-29
1.12047e-29
1.5502e-29
1.35953e-29
1.83403e-29
1.35188e-29
1.46264e-29
1.53311e-29
2.31128e-29
1.71982e-29
1.85603e-29
1.87077e-29
2.50505e-29
2.00291e-29
2.37762e-29
1.90419e-29
2.35136e-29
2.16603e-29
2.76157e-29
2.24274e-29
2.69218e-29
2.04308e-29
2.37605e-29
2.28684e-29
2.99754e-29
2.30278e-29
2.46e-29
1.95488e-29
2.17355e-29
1.96209e-29
2.08788e-29
1.79309e-29
1.67709e-29
9.24023e-30
1.05898e-29
9.36542e-30
9.24635e-30
3.39928e-30
2.02376e-30
4.26742e-31
4.6999e-31
8.52365e-32
1.65171e-30
9.8094e-30
3.00007e-29
1.34144e-28
8.26443e-29
8.3401e-28
7.26901e-26
2.57773e-25
1.33334e-25
4.93508e-25
3.10876e-25
2.38812e-26
2.09783e-26
1.55269e-28
3.14624e-30
3.2741e-29
1.88308e-29
1.18449e-29
1.78108e-29
1.10789e-29
1.67284e-29
1.37022e-29
1.96203e-29
1.36404e-29
1.55794e-29
1.5653e-29
2.47062e-29
1.74492e-29
1.94692e-29
1.92274e-29
2.6444e-29
2.04328e-29
2.4893e-29
1.941e-29
2.4738e-29
2.22204e-29
2.91707e-29
2.28908e-29
2.83174e-29
2.08476e-29
2.50424e-29
2.36657e-29
3.20797e-29
2.3634e-29
2.63685e-29
2.03823e-29
2.39318e-29
2.10801e-29
2.3722e-29
1.99858e-29
1.94603e-29
9.78946e-30
1.16922e-29
1.03992e-29
1.04434e-29
3.85098e-30
2.52943e-30
6.49768e-31
9.13771e-31
3.8622e-32
1.76306e-30
7.81979e-30
2.70393e-29
1.07721e-28
5.64407e-29
1.20958e-27
1.18578e-25
3.39234e-25
4.04635e-25
6.66151e-25
7.9441e-25
2.48833e-26
4.38575e-26
4.29746e-28
6.94881e-30
4.296e-29
2.478e-29
1.34288e-29
1.94502e-29
1.11911e-29
1.78715e-29
1.40324e-29
2.09445e-29
1.38559e-29
1.66837e-29
1.63089e-29
2.64893e-29
1.78415e-29
2.06596e-29
2.00602e-29
2.80766e-29
2.10599e-29
2.62169e-29
2.00354e-29
2.63133e-29
2.3217e-29
3.09499e-29
2.36889e-29
3.0007e-29
2.15714e-29
2.6838e-29
2.50228e-29
3.45671e-29
2.46226e-29
2.85017e-29
2.15554e-29
2.65788e-29
2.28605e-29
2.71534e-29
2.29748e-29
2.33345e-29
1.10501e-29
1.30829e-29
1.2032e-29
1.23671e-29
4.53037e-30
3.48039e-30
1.09737e-30
1.84678e-30
3.46996e-32
2.15059e-30
5.95384e-30
2.37903e-29
7.94283e-29
3.47441e-29
1.62355e-27
1.88438e-25
4.35183e-25
9.84481e-25
7.7321e-25
1.64301e-24
2.15733e-26
7.8927e-26
1.01444e-27
1.35731e-29
5.71965e-29
3.24518e-29
1.55077e-29
2.12429e-29
1.14353e-29
1.89566e-29
1.44348e-29
2.22708e-29
1.40933e-29
1.77917e-29
1.70838e-29
2.83186e-29
1.82427e-29
2.19272e-29
2.09711e-29
2.98257e-29
2.17373e-29
2.75821e-29
2.07868e-29
2.8018e-29
2.42871e-29
3.28621e-29
2.46595e-29
3.17371e-29
2.24651e-29
2.88174e-29
2.65741e-29
3.71988e-29
2.57414e-29
3.06711e-29
2.28555e-29
2.93619e-29
2.47219e-29
3.14537e-29
2.71878e-29
2.92009e-29
1.30225e-29
1.45342e-29
1.44934e-29
1.51643e-29
5.57496e-30
5.17416e-30
1.98075e-30
3.79223e-30
1.6945e-31
3.33541e-30
4.94537e-30
2.19385e-29
5.57351e-29
2.84942e-29
2.04924e-27
2.85527e-25
5.53069e-25
1.96933e-24
8.04258e-25
2.98362e-24
1.55338e-26
1.29171e-25
2.17562e-27
2.42192e-29
7.52563e-29
4.07904e-29
1.79134e-29
2.3245e-29
1.17661e-29
2.00245e-29
1.49308e-29
2.35884e-29
1.43404e-29
1.90233e-29
1.80196e-29
3.01814e-29
1.86307e-29
2.32771e-29
2.20347e-29
3.16332e-29
2.23978e-29
2.90155e-29
2.16167e-29
2.98539e-29
2.55538e-29
3.48153e-29
2.56645e-29
3.35549e-29
2.3483e-29
3.09677e-29
2.83799e-29
3.98368e-29
2.68544e-29
3.28414e-29
2.42632e-29
3.23066e-29
2.69427e-29
3.6998e-29
3.27299e-29
3.72418e-29
1.54479e-29
1.60966e-29
1.82962e-29
1.90679e-29
7.28096e-30
8.08941e-30
3.80109e-30
7.76244e-30
9.26482e-31
6.62439e-30
6.31378e-30
2.50509e-29
4.82016e-29
5.99515e-29
2.37541e-27
4.14683e-25
7.37514e-25
3.48077e-24
7.60312e-25
4.87504e-24
9.9277e-27
1.94156e-25
4.28624e-27
4.03538e-29
9.77068e-29
4.93554e-29
2.06135e-29
2.54265e-29
1.22102e-29
2.10386e-29
1.55455e-29
2.48593e-29
1.47108e-29
2.02717e-29
1.90514e-29
3.20435e-29
1.90671e-29
2.46561e-29
2.317e-29
3.3488e-29
2.3119e-29
3.0462e-29
2.25772e-29
3.17769e-29
2.68341e-29
3.68758e-29
2.67812e-29
3.53725e-29
2.46489e-29
3.32131e-29
3.02383e-29
4.25167e-29
2.80437e-29
3.50236e-29
2.58881e-29
3.55213e-29
2.9468e-29
4.41165e-29
3.99896e-29
4.59494e-29
1.86574e-29
1.78099e-29
2.38016e-29
2.46256e-29
1.01603e-29
1.30293e-29
7.52126e-30
1.55956e-29
3.84228e-30
1.56342e-29
1.41419e-29
4.23402e-29
7.60175e-29
2.17994e-28
2.66709e-27
5.82238e-25
1.01419e-24
5.52654e-24
6.7356e-25
7.40437e-24
6.58587e-27
2.73738e-25
7.98944e-27
6.56553e-29
1.26885e-28
5.73454e-29
2.34453e-29
2.77668e-29
1.27745e-29
2.19325e-29
1.63368e-29
2.60052e-29
1.51777e-29
2.15433e-29
2.0282e-29
3.38145e-29
1.95407e-29
2.60629e-29
2.44815e-29
3.52764e-29
2.38626e-29
3.19268e-29
2.36275e-29
3.37849e-29
2.82816e-29
3.8903e-29
2.79048e-29
3.72651e-29
2.59114e-29
3.5623e-29
3.22958e-29
4.51781e-29
2.92954e-29
3.73601e-29
2.78005e-29
3.91207e-29
3.24757e-29
5.27015e-29
4.71107e-29
5.86504e-29
2.34652e-29
1.95822e-29
3.18684e-29
3.24994e-29
1.49753e-29
2.12536e-29
1.4953e-29
3.06155e-29
1.24486e-29
3.79506e-29
4.03801e-29
9.73617e-29
1.95753e-28
7.16195e-28
2.83098e-27
8.01617e-25
1.49728e-24
8.16178e-24
5.64182e-25
1.05419e-23
8.12966e-27
3.6314e-25
1.40865e-26
1.05386e-28
1.62645e-28
6.4453e-29
2.63042e-29
3.05352e-29
1.33087e-29
2.28804e-29
1.7129e-29
2.72103e-29
1.56896e-29
2.28383e-29
2.15524e-29
3.55763e-29
2.00057e-29
2.74964e-29
2.58148e-29
3.70631e-29
2.46241e-29
3.33924e-29
2.47914e-29
3.58278e-29
2.9662e-29
4.09721e-29
2.91334e-29
3.91653e-29
2.73122e-29
3.81174e-29
3.44176e-29
4.79607e-29
3.07221e-29
3.99354e-29
3.01242e-29
4.31808e-29
3.58813e-29
6.38544e-29
5.60857e-29
7.00865e-29
3.11902e-29
2.19478e-29
4.28236e-29
4.39999e-29
2.29107e-29
3.47997e-29
2.9151e-29
5.8697e-29
3.40644e-29
8.81028e-29
1.1237e-28
2.42765e-28
5.42296e-28
1.97318e-27
2.98327e-27
1.09468e-24
2.25222e-24
1.12509e-23
4.83833e-25
1.43174e-23
1.66717e-26
4.58816e-25
2.36493e-26
1.71374e-28
2.10684e-28
6.91262e-29
2.91706e-29
3.36509e-29
1.38286e-29
2.38207e-29
1.79519e-29
2.8438e-29
1.61468e-29
2.41968e-29
2.2968e-29
3.72337e-29
2.04147e-29
2.89726e-29
2.72819e-29
3.87607e-29
2.53143e-29
3.49165e-29
2.59892e-29
3.78755e-29
3.1202e-29
4.29883e-29
3.03098e-29
4.12176e-29
2.88011e-29
4.0763e-29
3.6875e-29
5.08389e-29
3.22927e-29
4.2956e-29
3.29149e-29
4.7844e-29
4.00732e-29
7.82628e-29
6.43153e-29
8.46132e-29
4.25633e-29
2.49321e-29
5.76372e-29
6.08125e-29
3.55395e-29
5.68884e-29
5.51056e-29
1.08248e-28
8.16925e-29
1.93475e-28
2.79717e-28
5.74688e-28
1.35641e-27
4.52044e-27
3.04142e-27
1.48014e-24
3.54105e-24
1.4769e-23
4.48717e-25
1.8723e-23
4.12762e-26
5.56813e-25
3.77111e-26
2.8468e-28
2.71144e-28
7.09104e-29
3.19757e-29
3.72119e-29
1.43207e-29
2.47504e-29
1.87526e-29
2.96596e-29
1.66582e-29
2.55572e-29
2.43142e-29
3.88382e-29
2.08213e-29
3.04718e-29
2.86693e-29
4.04281e-29
2.60092e-29
3.64284e-29
2.72746e-29
3.99137e-29
3.26575e-29
4.50668e-29
3.15773e-29
4.33158e-29
3.04957e-29
4.35664e-29
3.9405e-29
5.4014e-29
3.42037e-29
4.6442e-29
3.63089e-29
5.31168e-29
4.47674e-29
9.49867e-29
6.4849e-29
8.79548e-29
6.01908e-29
2.79225e-29
7.77031e-29
8.49224e-29
5.54952e-29
9.16831e-29
1.00229e-28
1.90019e-28
1.77388e-28
3.93643e-28
6.21994e-28
1.23786e-27
3.00276e-27
9.14813e-27
3.05778e-27
1.99385e-24
5.51228e-24
1.85391e-23
5.28908e-25
2.37849e-23
8.70101e-26
6.55102e-25
5.71835e-26
4.84394e-28
3.48609e-28
6.88394e-29
3.46998e-29
4.09313e-29
1.49116e-29
2.54358e-29
1.97182e-29
3.06725e-29
1.72203e-29
2.68762e-29
2.57859e-29
4.02053e-29
2.12293e-29
3.19564e-29
3.01542e-29
4.19117e-29
2.66799e-29
3.79659e-29
2.85907e-29
4.19466e-29
3.42518e-29
4.70839e-29
3.2858e-29
4.56086e-29
3.23325e-29
4.66364e-29
4.2274e-29
5.74061e-29
3.64051e-29
5.04822e-29
4.01431e-29
5.86171e-29
4.92882e-29
1.08533e-28
6.2893e-29
1.29328e-28
9.64668e-29
2.96086e-29
1.07632e-28
1.17356e-28
8.63741e-29
1.45077e-28
1.75052e-28
3.23497e-28
3.4868e-28
7.46338e-28
1.24206e-27
2.4295e-27
5.89899e-27
1.65173e-26
2.98745e-27
2.68566e-24
8.66206e-24
2.24255e-23
7.49099e-25
2.95945e-23
1.66038e-25
7.56193e-25
8.33211e-26
8.59155e-28
4.26964e-28
6.40837e-29
3.67871e-29
4.55023e-29
1.52958e-29
2.62089e-29
2.05733e-29
3.17447e-29
1.77805e-29
2.8193e-29
2.71008e-29
4.15379e-29
2.15956e-29
3.34642e-29
3.14876e-29
4.33665e-29
2.73451e-29
3.952e-29
2.99793e-29
4.39951e-29
3.56838e-29
4.91863e-29
3.43199e-29
4.80154e-29
3.44109e-29
4.99257e-29
4.52695e-29
6.12736e-29
3.915e-29
5.53624e-29
4.51432e-29
6.62509e-29
5.74453e-29
1.35915e-28
1.09712e-28
1.15429e-28
1.41825e-28
3.81798e-29
1.43962e-28
1.63189e-28
1.32101e-28
2.24066e-28