/*--------------------------------*- C++ -*----------------------------------*\
| =========                 |                                                 |
| \\      /  F ield         | OpenFOAM: The Open Source CFD Toolbox           |
|  \\    /   O peration     | Version:  2312                                  |
|   \\  /    A nd           | Website:  www.openfoam.com                      |
|    \\/     M anipulation  |                                                 |
\*---------------------------------------------------------------------------*/
FoamFile
{
    version     2.0;
    format      ascii;
    arch        "LSB;label=32;scalar=64";
    class       volScalarField;
    location    "960";
    object      p;
}
// * * * * * * * * * * * * * * * * * * * * * * * * * * * * * * * * * * * * * //

dimensions      [0 2 -2 0 0 0 0];

internalField   nonuniform List<scalar> 
144000
(
1.03788e-10
9.51201e-11
-2.09179e-11
-1.24525e-10
-1.44072e-10
-1.33811e-10
-1.07625e-10
-9.43163e-11
-7.85643e-11
-7.58453e-11
-6.61787e-11
-6.65489e-11
-5.82676e-11
-5.95793e-11
-5.0937e-11
-5.18501e-11
-4.42808e-11
-4.63533e-11
-3.70509e-11
-3.77936e-11
-2.92722e-11
-3.17172e-11
-2.32723e-11
-2.56285e-11
-1.72167e-11
-1.94232e-11
-1.12639e-11
-1.43024e-11
-6.02651e-12
-8.76542e-12
-1.7114e-13
-2.42474e-12
5.31029e-12
1.62038e-12
9.49782e-12
6.3617e-12
1.38123e-11
1.09122e-11
1.75663e-11
1.40313e-11
1.94481e-11
1.66906e-11
2.23515e-11
2.04349e-11
2.67954e-11
2.45108e-11
2.99749e-11
2.93399e-11
3.2672e-11
3.2823e-11
3.41973e-11
3.56433e-11
2.86906e-11
2.59434e-11
5.78278e-12
1.01743e-12
-4.11835e-11
-8.88506e-11
-2.06051e-10
-2.32907e-11
1.10039e-10
9.85492e-11
-2.19518e-11
-1.25954e-10
-1.44895e-10
-1.34109e-10
-1.07791e-10
-9.43956e-11
-7.86827e-11
-7.59146e-11
-6.6284e-11
-6.65948e-11
-5.83568e-11
-5.9613e-11
-5.10051e-11
-5.18606e-11
-4.43444e-11
-4.63676e-11
-3.71064e-11
-3.77893e-11
-2.93251e-11
-3.17156e-11
-2.33192e-11
-2.56139e-11
-1.72591e-11
-1.94052e-11
-1.13079e-11
-1.42867e-11
-6.06658e-12
-8.74083e-12
-2.05513e-13
-2.39469e-12
5.27296e-12
1.64284e-12
9.46574e-12
6.396e-12
1.37869e-11
1.09468e-11
1.75462e-11
1.40533e-11
1.93958e-11
1.66106e-11
2.22683e-11
2.04803e-11
2.67981e-11
2.45705e-11
2.99928e-11
2.94215e-11
3.27133e-11
3.29112e-11
3.42844e-11
3.57608e-11
2.88477e-11
2.60697e-11
6.0714e-12
1.33018e-12
-4.02665e-11
-8.8639e-11
-2.10415e-10
-2.59632e-11
1.17644e-10
1.02364e-10
-2.30785e-11
-1.2772e-10
-1.46031e-10
-1.34664e-10
-1.08029e-10
-9.45505e-11
-7.88039e-11
-7.6042e-11
-6.63915e-11
-6.67034e-11
-5.84399e-11
-5.96986e-11
-5.10667e-11
-5.19127e-11
-4.43832e-11
-4.64266e-11
-3.71496e-11
-3.78281e-11
-2.93547e-11
-3.17568e-11
-2.33427e-11
-2.56343e-11
-1.72742e-11
-1.94236e-11
-1.13213e-11
-1.43083e-11
-6.07551e-12
-8.74803e-12
-2.09236e-13
-2.39805e-12
5.27344e-12
1.63053e-12
9.46722e-12
6.40344e-12
1.37991e-11
1.09544e-11
1.7567e-11
1.40578e-11
1.9373e-11
1.64539e-11
2.21696e-11
2.04835e-11
2.68559e-11
2.46292e-11
3.00572e-11
2.95131e-11
3.28111e-11
3.30143e-11
3.44098e-11
3.5903e-11
2.90613e-11
2.62722e-11
6.43069e-12
1.72969e-12
-3.89575e-11
-8.71938e-11
-2.17258e-10
-2.91133e-11
1.26603e-10
1.06321e-10
-2.39964e-11
-1.29743e-10
-1.47716e-10
-1.35515e-10
-1.08365e-10
-9.47339e-11
-7.89346e-11
-7.61984e-11
-6.6521e-11
-6.68373e-11
-5.85402e-11
-5.98131e-11
-5.11445e-11
-5.19829e-11
-4.4419e-11
-4.65064e-11
-3.72057e-11
-3.78853e-11
-2.93827e-11
-3.18148e-11
-2.33679e-11
-2.56643e-11
-1.72846e-11
-1.94523e-11
-1.13268e-11
-1.43411e-11
-6.07833e-12
-8.76225e-12
-2.04607e-13
-2.40889e-12
5.29059e-12
1.6085e-12
9.47898e-12
6.40654e-12
1.38307e-11
1.09563e-11
1.76157e-11
1.40676e-11
1.9371e-11
1.62408e-11
2.20135e-11
2.04437e-11
2.69575e-11
2.46997e-11
3.01609e-11
2.96174e-11
3.29697e-11
3.31257e-11
3.46013e-11
3.60519e-11
2.93933e-11
2.64843e-11
6.9666e-12
2.14472e-12
-3.69078e-11
-8.48354e-11
-2.26192e-10
-3.25517e-11
1.35671e-10
1.09657e-10
-2.42063e-11
-1.31519e-10
-1.49841e-10
-1.36659e-10
-1.08788e-10
-9.49212e-11
-7.9071e-11
-7.63789e-11
-6.66834e-11
-6.70036e-11
-5.86697e-11
-5.99567e-11
-5.12509e-11
-5.20697e-11
-4.44616e-11
-4.66038e-11
-3.7285e-11
-3.79562e-11
-2.9417e-11
-3.18837e-11
-2.3405e-11
-2.56994e-11
-1.7299e-11
-1.9485e-11
-1.1332e-11
-1.43786e-11
-6.0846e-12
-8.77858e-12
-1.99601e-13
-2.4209e-12
5.31798e-12
1.5828e-12
9.49295e-12
6.40852e-12
1.38771e-11
1.09548e-11
1.76924e-11
1.40867e-11
1.93971e-11
1.59919e-11
2.17671e-11
2.03458e-11
2.70995e-11
2.47827e-11
3.03001e-11
2.97264e-11
3.3191e-11
3.323e-11
3.4866e-11
3.61812e-11
2.98632e-11
2.66597e-11
7.71785e-12
2.49189e-12
-3.40312e-11
-8.17461e-11
-2.36648e-10
-3.57254e-11
1.43876e-10
1.11085e-10
-2.34595e-11
-1.32452e-10
-1.52216e-10
-1.38074e-10
-1.09275e-10
-9.50913e-11
-7.91991e-11
-7.65791e-11
-6.68804e-11
-6.72052e-11
-5.88325e-11
-6.01334e-11
-5.13906e-11
-5.21772e-11
-4.45146e-11
-4.67203e-11
-3.73909e-11
-3.80436e-11
-2.94592e-11
-3.19642e-11
-2.34567e-11
-2.57418e-11
-1.73189e-11
-1.95229e-11
-1.13379e-11
-1.44212e-11
-6.0962e-12
-8.7988e-12
-1.95144e-13
-2.43537e-12
5.35564e-12
1.55293e-12
9.50855e-12
6.40552e-12
1.39401e-11
1.09454e-11
1.78035e-11
1.41136e-11
1.94677e-11
1.57084e-11
2.14016e-11
2.0169e-11
2.72833e-11
2.48736e-11
3.0474e-11
2.98272e-11
3.34776e-11
3.33104e-11
3.52107e-11
3.62639e-11
3.04856e-11
2.67551e-11
8.71614e-12
2.68206e-12
-3.02756e-11
-7.80689e-11
-2.48234e-10
-3.76299e-11
1.50823e-10
1.09115e-10
-2.18302e-11
-1.31962e-10
-1.54608e-10
-1.39722e-10
-1.09801e-10
-9.52081e-11
-7.93027e-11
-7.67915e-11
-6.71099e-11
-6.74419e-11
-5.90301e-11
-6.03447e-11
-5.15666e-11
-5.23107e-11
-4.45809e-11
-4.68564e-11
-3.75251e-11
-3.81507e-11
-2.9511e-11
-3.20568e-11
-2.35247e-11
-2.57939e-11
-1.73451e-11
-1.95674e-11
-1.13453e-11
-1.44691e-11
-6.11419e-12
-8.82488e-12
-1.91385e-13
-2.45427e-12
5.40344e-12
1.51833e-12
9.52611e-12
6.39325e-12
1.40219e-11
1.09226e-11
1.79554e-11
1.41454e-11
1.96084e-11
1.53881e-11
2.08789e-11
1.98916e-11
2.75107e-11
2.49677e-11
3.06838e-11
2.99063e-11
3.38328e-11
3.33506e-11
3.56449e-11
3.62717e-11
3.12775e-11
2.67239e-11
9.9996e-12
2.6292e-12
-2.55996e-11
-7.39404e-11
-2.60843e-10
-3.70739e-11
1.5661e-10
1.02284e-10
-1.96786e-11
-1.29523e-10
-1.5675e-10
-1.41556e-10
-1.10345e-10
-9.52496e-11
-7.9365e-11
-7.70068e-11
-6.73683e-11
-6.77116e-11
-5.92632e-11
-6.05908e-11
-5.17805e-11
-5.24725e-11
-4.46642e-11
-4.70116e-11
-3.76888e-11
-3.82796e-11
-2.95754e-11
-3.21614e-11
-2.3611e-11
-2.58574e-11
-1.73791e-11
-1.9619e-11
-1.1356e-11
-1.45224e-11
-6.13985e-12
-8.85797e-12
-1.88836e-13
-2.47863e-12
5.45987e-12
1.47906e-12
9.54577e-12
6.36828e-12
1.41241e-11
1.08821e-11
1.81543e-11
1.4178e-11
1.9855e-11
1.50068e-11
2.01464e-11
1.94946e-11
2.77846e-11
2.50599e-11
3.09311e-11
2.99503e-11
3.42603e-11
3.33341e-11
3.618e-11
3.61765e-11
3.22574e-11
2.65223e-11
1.16062e-11
2.26069e-12
-1.99948e-11
-6.94518e-11
-2.74586e-10
-3.29207e-11
1.61772e-10
8.92973e-11
-1.75945e-11
-1.24689e-10
-1.58355e-10
-1.43524e-10
-1.10884e-10
-9.51926e-11
-7.93704e-11
-7.72159e-11
-6.76513e-11
-6.80112e-11
-5.95313e-11
-6.08701e-11
-5.20324e-11
-5.26642e-11
-4.47678e-11
-4.71847e-11
-3.7882e-11
-3.84316e-11
-2.96552e-11
-3.22774e-11
-2.37167e-11
-2.59337e-11
-1.74223e-11
-1.96781e-11
-1.1372e-11
-1.45806e-11
-6.17433e-12
-8.89887e-12
-1.88171e-13
-2.50909e-12
5.5229e-12
1.4354e-12
9.5677e-12
6.32789e-12
1.42474e-11
1.08198e-11
1.84068e-11
1.42058e-11
2.026e-11
1.45287e-11
1.91341e-11
1.89618e-11
2.81096e-11
2.51454e-11
3.12187e-11
2.99467e-11
3.47638e-11
3.32457e-11
3.68278e-11
3.59531e-11
3.34411e-11
2.61139e-11
1.35643e-11
1.52907e-12
-1.3496e-11
-6.4631e-11
-2.89743e-10
-2.42232e-11
1.67099e-10
6.914e-11
-1.63008e-11
-1.17118e-10
-1.59131e-10
-1.45576e-10
-1.11415e-10
-9.50191e-11
-7.9305e-11
-7.74101e-11
-6.79548e-11
-6.83372e-11
-5.98335e-11
-6.11806e-11
-5.23216e-11
-5.28861e-11
-4.4895e-11
-4.73743e-11
-3.81042e-11
-3.8607e-11
-2.97532e-11
-3.24042e-11
-2.38425e-11
-2.60234e-11
-1.7476e-11
-1.97445e-11
-1.13953e-11
-1.46434e-11
-6.21825e-12
-8.94807e-12
-1.90028e-13
-2.54594e-12
5.59011e-12
1.38761e-12
9.59219e-12
6.27008e-12
1.43916e-11
1.07318e-11
1.87197e-11
1.42244e-11
2.08945e-11
1.39005e-11
1.77519e-11
1.82831e-11
2.84914e-11
2.5219e-11
3.15503e-11
2.98846e-11
3.53463e-11
3.30721e-11
3.75974e-11
3.55844e-11
3.48386e-11
2.54747e-11
1.58852e-11
4.14356e-13
-6.19499e-12
-5.94246e-11
-3.06632e-10
-1.03472e-11
1.73608e-10
4.11563e-11
-1.66431e-11
-1.06601e-10
-1.58782e-10
-1.47653e-10
-1.11938e-10
-9.47187e-11
-7.91586e-11
-7.75825e-11
-6.82752e-11
-6.86867e-11
-6.01685e-11
-6.15202e-11
-5.26469e-11
-5.31383e-11
-4.50484e-11
-4.75789e-11
-3.83542e-11
-3.88059e-11
-2.98716e-11
-3.25413e-11
-2.39885e-11
-2.61272e-11
-1.75415e-11
-1.9818e-11
-1.14277e-11
-1.47104e-11
-6.27193e-12
-9.00592e-12
-1.95148e-13
-2.58922e-12
5.65925e-12
1.33605e-12
9.61936e-12
6.19371e-12
1.45556e-11
1.06156e-11
1.90983e-11
1.42317e-11
2.18566e-11
1.3012e-11
1.58854e-11
1.74532e-11
2.89343e-11
2.5275e-11
3.19286e-11
2.97556e-11
3.60086e-11
3.28041e-11
3.84933e-11
3.50535e-11
3.64506e-11
2.45967e-11
1.85596e-11
-1.0689e-12
1.77982e-12
-5.37307e-11
-3.25591e-10
9.0079e-12
1.82348e-10
5.07139e-12
-1.95003e-11
-9.30809e-11
-1.57021e-10
-1.4968e-10
-1.1246e-10
-9.42891e-11
-7.8924e-11
-7.77273e-11
-6.86101e-11
-6.90572e-11
-6.05359e-11
-6.18875e-11
-5.30075e-11
-5.34206e-11
-4.52304e-11
-4.77978e-11
-3.86307e-11
-3.90279e-11
-3.00129e-11
-3.26883e-11
-2.41545e-11
-2.62453e-11
-1.76199e-11
-1.98985e-11
-1.14706e-11
-1.47814e-11
-6.33544e-12
-9.0725e-12
-2.04331e-13
-2.63858e-12
5.72801e-12
1.28121e-12
9.64896e-12
6.0989e-12
1.47366e-11
1.04703e-11
1.95454e-11
1.42226e-11
2.33174e-11
1.17179e-11
1.33775e-11
1.64725e-11
2.94385e-11
2.53058e-11
3.23547e-11
2.95545e-11
3.67486e-11
3.24372e-11
3.95142e-11
3.43616e-11
3.82668e-11
2.34903e-11
2.15577e-11
-2.87492e-12
1.02593e-11
-4.74318e-11
-3.46861e-10
3.38245e-11
1.94393e-10
-3.90135e-11
-2.5772e-11
-7.66708e-11
-1.53583e-10
-1.5156e-10
-1.12989e-10
-9.3736e-11
-7.85973e-11
-7.78395e-11
-6.8957e-11
-6.94469e-11
-6.0935e-11
-6.22807e-11
-5.34024e-11
-5.37323e-11
-4.5443e-11
-4.80301e-11
-3.89322e-11
-3.92725e-11
-3.01787e-11
-3.28451e-11
-2.43401e-11
-2.63779e-11
-1.77123e-11
-1.99854e-11
-1.15251e-11
-1.48562e-11
-6.40885e-12
-9.14762e-12
-2.18542e-13
-2.69347e-12
5.79415e-12
1.22393e-12
9.68003e-12
5.98736e-12
1.49299e-11
1.02975e-11
2.00587e-11
1.41919e-11
2.54773e-11
9.87455e-12
1.00634e-11
1.53747e-11
3.00094e-11
2.53073e-11
3.28281e-11
2.92802e-11
3.75598e-11
3.19731e-11
4.06523e-11
3.3518e-11
4.02636e-11
2.21838e-11
2.48286e-11
-4.92876e-12
1.90673e-11
-4.04419e-11
-3.70603e-10
6.38229e-11
2.10607e-10
-9.05685e-11
-3.62265e-11
-5.76544e-11
-1.48253e-10
-1.5318e-10
-1.13535e-10
-9.30755e-11
-7.81785e-11
-7.79144e-11
-6.93133e-11
-6.98537e-11
-6.13649e-11
-6.26983e-11
-5.38304e-11
-5.40725e-11
-4.56881e-11
-4.82754e-11
-3.92573e-11
-3.95388e-11
-3.03709e-11
-3.30117e-11
-2.45448e-11
-2.65247e-11
-1.78198e-11
-2.00785e-11
-1.15922e-11
-1.49345e-11
-6.49201e-12
-9.23073e-12
-2.38815e-13
-2.75309e-12
5.85509e-12
1.16541e-12
9.7109e-12
5.86286e-12
1.51282e-11
1.01038e-11
2.06195e-11
1.41553e-11
2.84688e-11
7.19406e-12
5.77634e-12
1.42442e-11
3.0666e-11
2.52867e-11
3.33501e-11
2.89377e-11
3.84319e-11
3.14185e-11
4.18914e-11
3.2543e-11
4.24047e-11
2.0723e-11
2.83029e-11
-7.13813e-12
2.80051e-11
-3.26836e-11
-3.96774e-10
9.83995e-11
2.31669e-10
-1.48585e-10
-5.1487e-11
-3.65079e-11
-1.40882e-10
-1.54406e-10
-1.14108e-10
-9.23342e-11
-7.76727e-11
-7.79482e-11
-6.96765e-11
-7.02761e-11
-6.18249e-11
-6.31389e-11
-5.42901e-11
-5.44403e-11
-4.59668e-11
-4.85335e-11
-3.96044e-11
-3.98258e-11
-3.05908e-11
-3.31885e-11
-2.47678e-11
-2.66854e-11
-1.79434e-11
-2.01777e-11
-1.16727e-11
-1.50162e-11
-6.5848e-12
-9.3211e-12
-2.66488e-13
-2.81643e-12
5.90832e-12
1.10734e-12
9.73889e-12
5.73088e-12
1.53214e-11
9.90391e-12
2.1182e-11
1.43316e-11
3.29143e-11
2.27273e-12
-1.3288e-13
1.30438e-11
3.13849e-11
2.52475e-11
3.39186e-11
2.85364e-11
3.93506e-11
3.07923e-11
4.32067e-11
3.14681e-11
4.46418e-11
1.91692e-11
3.18943e-11
-9.39329e-12
3.68852e-11
-2.41067e-11
-4.25186e-10
1.36629e-10
2.57911e-10
-2.11651e-10
-7.19361e-11
-1.38589e-11
-1.31398e-10
-1.55089e-10
-1.14709e-10
-9.15483e-11
-7.70903e-11
-7.79384e-11
-7.00445e-11
-7.07131e-11
-6.23147e-11
-6.36016e-11
-5.47808e-11
-5.48345e-11
-4.62803e-11
-4.88046e-11
-3.99723e-11
-4.01326e-11
-3.08396e-11
-3.33759e-11
-2.50087e-11
-2.68595e-11
-1.80841e-11
-2.02827e-11
-1.17672e-11
-1.5101e-11
-6.68717e-12
-9.41776e-12
-3.03001e-13
-2.88225e-12
5.95138e-12
1.05134e-12
9.76148e-12
5.59594e-12
1.55029e-11
9.70725e-12
2.17127e-11
1.40804e-11
4.03764e-11
-9.39927e-13
-8.26799e-12
1.15033e-11
3.20128e-11
2.51641e-11
3.45172e-11
2.80853e-11
4.02947e-11
3.0114e-11
4.45654e-11
3.03348e-11
4.69164e-11
1.75974e-11
3.55065e-11
-1.15768e-11
4.55234e-11
-1.47138e-11
-4.55429e-10
1.77358e-10
2.89459e-10
-2.78153e-10
-9.77909e-11
9.52688e-12
-1.19795e-10
-1.55048e-10
-1.15328e-10
-9.07592e-11
-7.64464e-11
-7.78829e-11
-7.04145e-11
-7.11636e-11
-6.28337e-11
-6.40855e-11
-5.53015e-11
-5.52541e-11
-4.66289e-11
-4.90887e-11
-4.036e-11
-4.04579e-11
-3.11178e-11
-3.35745e-11
-2.52671e-11
-2.70465e-11
-1.82429e-11
-2.03933e-11
-1.1876e-11
-1.51887e-11
-6.79944e-12
-9.5196e-12
-3.50006e-13
-2.9491e-12
5.98181e-12
9.99956e-13
9.77387e-12
5.46781e-12
1.56528e-11
9.56373e-12
2.20999e-11
1.37946e-11
4.54002e-11
-9.86945e-15
-1.34063e-11
1.01272e-11
3.25241e-11
2.50534e-11
3.51424e-11
2.76031e-11
4.12406e-11
2.94107e-11
4.59283e-11
2.91931e-11
4.91613e-11
1.60914e-11
3.90364e-11
-1.35688e-11
5.37861e-11
-4.60414e-12
-4.87018e-10
2.19394e-10
3.26153e-10
-3.46723e-10
-1.29086e-10
3.27564e-11
-1.06167e-10
-1.54103e-10
-1.15944e-10
-9.00161e-11
-7.57625e-11
-7.77808e-11
-7.07837e-11
-7.16265e-11
-6.33815e-11
-6.45892e-11
-5.58507e-11
-5.56977e-11
-4.70127e-11
-4.93862e-11
-4.0766e-11
-4.08006e-11
-3.1426e-11
-3.3785e-11
-2.55424e-11
-2.72456e-11
-1.84205e-11
-2.05094e-11
-1.19998e-11
-1.52789e-11
-6.92188e-12
-9.62524e-12
-4.09078e-13
-3.01536e-12
5.99652e-12
9.56469e-13
9.76958e-12
5.36067e-12
1.57429e-11
9.54975e-12
2.21907e-11
1.42183e-11
4.12364e-11
2.24471e-13
-8.58429e-12
1.01381e-11
3.29694e-11
2.496e-11
3.57971e-11
2.71186e-11
4.21638e-11
2.87163e-11
4.72522e-11
2.80995e-11
5.13043e-11
1.47408e-11
4.23795e-11
-1.52559e-11
6.15474e-11
6.07923e-12
-5.19248e-10
2.6146e-10
3.67731e-10
-4.14185e-10
-1.65705e-10
5.47976e-11
-9.07208e-11
-1.52085e-10
-1.16527e-10
-8.93742e-11
-7.50671e-11
-7.76334e-11
-7.11489e-11
-7.21005e-11
-6.39574e-11
-6.5112e-11
-5.64272e-11
-5.61637e-11
-4.74311e-11
-4.96972e-11
-4.11894e-11
-4.11592e-11
-3.17642e-11
-3.40079e-11
-2.58343e-11
-2.7456e-11
-1.86176e-11
-2.06309e-11
-1.21387e-11
-1.5371e-11
-7.05481e-12
-9.73356e-12
-4.81849e-13
-3.07979e-12
5.99361e-12
9.22105e-13
9.74738e-12
5.27382e-12
1.57812e-11
9.62361e-12
2.20832e-11
1.45933e-11
3.43711e-11
4.31637e-12
3.91807e-13
1.06351e-11
3.32387e-11
2.4845e-11
3.64467e-11
2.66405e-11
4.30318e-11
2.80648e-11
4.84895e-11
2.7113e-11
5.327e-11
1.36371e-11
4.54294e-11
-1.6522e-11
6.86936e-11
1.71997e-11
-5.51345e-10
3.02062e-10
4.13584e-10
-4.78536e-10
-2.07202e-10
7.46145e-11
-7.37494e-11
-1.48833e-10
-1.17038e-10
-8.88896e-11
-7.43947e-11
-7.74454e-11
-7.15082e-11
-7.25855e-11
-6.45616e-11
-6.56537e-11
-5.70304e-11
-5.66511e-11
-4.78838e-11
-5.00219e-11
-4.16295e-11
-4.15325e-11
-3.21324e-11
-3.42437e-11
-2.61428e-11
-2.76767e-11
-1.88348e-11
-2.07578e-11
-1.22931e-11
-1.54647e-11
-7.19857e-12
-9.84249e-12
-5.69864e-13
-3.14125e-12
5.97142e-12
8.97711e-13
9.70643e-12
5.20522e-12
1.57788e-11
9.73106e-12
2.19003e-11
1.46317e-11
2.98853e-11
1.02058e-11
6.8983e-12
1.08082e-11
3.33501e-11
2.47079e-11
3.70647e-11
2.62066e-11
4.38125e-11
2.74922e-11
4.95924e-11
2.62941e-11
5.49841e-11
1.28728e-11
4.80837e-11
-1.72477e-11
7.50953e-11
2.864e-11
-5.82433e-10
3.39057e-10
4.62978e-10
-5.37358e-10
-2.52971e-10
9.11682e-11
-5.56023e-11
-1.44192e-10
-1.17414e-10
-8.861e-11
-7.37816e-11
-7.72231e-11
-7.18593e-11
-7.3081e-11
-6.51946e-11
-6.62144e-11
-5.766e-11
-5.71587e-11
-4.83697e-11
-5.03607e-11
-4.20862e-11
-4.19194e-11
-3.25299e-11
-3.44931e-11
-2.64682e-11
-2.79072e-11
-1.90727e-11
-2.08898e-11
-1.2463e-11
-1.55593e-11
-7.35393e-12
-9.95099e-12
-6.74671e-13
-3.19786e-12
5.92844e-12
8.85433e-13
9.64283e-12
5.16062e-12
1.57264e-11
9.88639e-12
2.16219e-11
1.47126e-11
2.69525e-11
1.2826e-11
1.21017e-11
1.14217e-11
3.34532e-11
2.45929e-11
3.76428e-11
2.58435e-11
4.44773e-11
2.70322e-11
5.05137e-11
2.56986e-11
5.63741e-11
1.25309e-11
5.0247e-11
-1.73163e-11
8.06642e-11
4.02587e-11
-6.11673e-10
3.70994e-10
5.14978e-10
-5.88173e-10
-3.02265e-10
1.03473e-10
-3.66966e-11
-1.38054e-10
-1.17591e-10
-8.85896e-11
-7.3267e-11
-7.69756e-11
-7.22003e-11
-7.35862e-11
-6.58563e-11
-6.67941e-11
-5.83152e-11
-5.76859e-11
-4.88875e-11
-5.07138e-11
-4.25589e-11
-4.23193e-11
-3.29563e-11
-3.47565e-11
-2.68106e-11
-2.81466e-11
-1.93316e-11
-2.10269e-11
-1.26485e-11
-1.56544e-11
-7.52149e-12
-1.00578e-11
-7.97196e-13
-3.249e-12
5.86402e-12
8.85611e-13
9.55627e-12
5.13799e-12
1.56292e-11
1.00776e-11
2.12922e-11
1.48646e-11
2.49255e-11
1.47191e-11
1.64662e-11
1.2303e-11
3.35348e-11
2.44926e-11
3.81483e-11
2.55671e-11
4.49996e-11
2.67234e-11
5.12121e-11
2.53816e-11
5.73798e-11
1.26684e-11
5.18334e-11
-1.6626e-11
8.52887e-11
5.1988e-11
-6.38095e-10
3.96085e-10
5.68679e-10
-6.2841e-10
-3.54274e-10
1.10629e-10
-1.74825e-11
-1.30382e-10
-1.17511e-10
-8.88642e-11
-7.28944e-11
-7.67173e-11
-7.2531e-11
-7.41011e-11
-6.65468e-11
-6.73931e-11
-5.89955e-11
-5.82327e-11
-4.94358e-11
-5.10809e-11
-4.30474e-11
-4.27319e-11
-3.34109e-11
-3.50342e-11
-2.71703e-11
-2.83946e-11
-1.96114e-11
-2.11693e-11
-1.28495e-11
-1.57491e-11
-7.70143e-12
-1.01618e-11
-9.37857e-13
-3.29472e-12
5.77802e-12
8.98019e-13
9.44818e-12
5.13262e-12
1.54976e-11
1.0266e-11
2.09779e-11
1.4994e-11
2.36141e-11
1.58871e-11
1.99559e-11
1.3304e-11
3.3584e-11
2.44079e-11
3.85587e-11
2.54033e-11
4.53581e-11
2.65942e-11
5.16565e-11
2.53845e-11
5.79606e-11
1.33816e-11
5.27776e-11
-1.50674e-11
8.87714e-11
6.39582e-11
-6.6075e-10
4.12227e-10
6.23202e-10
-6.554e-10
-4.08174e-10
1.11858e-10
1.60404e-12
-1.21205e-10
-1.17138e-10
-8.94728e-11
-7.27129e-11
-7.64685e-11
-7.28551e-11
-7.46291e-11
-6.7269e-11
-6.80137e-11
-5.97017e-11
-5.88012e-11
-5.00149e-11
-5.14625e-11
-4.35516e-11
-4.31583e-11
-3.38941e-11
-3.53269e-11
-2.75478e-11
-2.86516e-11
-1.99123e-11
-2.1318e-11
-1.30662e-11
-1.5843e-11
-7.89377e-12
-1.02625e-11
-1.09659e-12
-3.33547e-12
5.67041e-12
9.22755e-13
9.3197e-12
5.1412e-12
1.53376e-11
1.04464e-11
2.06966e-11
1.50825e-11
2.2826e-11
1.65812e-11
2.271e-11
1.43867e-11
3.36155e-11
2.43752e-11
3.88591e-11
2.53677e-11
4.5538e-11
2.66674e-11
5.18278e-11
2.57343e-11
5.80954e-11
1.4687e-11
5.30477e-11
-1.2522e-11
9.07052e-11
7.6578e-11
-6.78613e-10
4.16906e-10
6.77566e-10
-6.66345e-10
-4.6317e-10
1.06445e-10
2.01897e-11
-1.10576e-10
-1.16451e-10
-9.04453e-11
-7.27724e-11
-7.62498e-11
-7.3177e-11
-7.51735e-11
-6.80275e-11
-6.86586e-11
-6.0436e-11
-5.93943e-11
-5.06258e-11
-5.18581e-11
-4.40724e-11
-4.35993e-11
-3.44066e-11
-3.5634e-11
-2.79447e-11
-2.89179e-11
-2.02354e-11
-2.14731e-11
-1.32996e-11
-1.59348e-11
-8.09946e-12
-1.0359e-11
-1.2742e-12
-3.3715e-12
5.54095e-12
9.60666e-13
9.17142e-12
5.16007e-12
1.51535e-11
1.06148e-11
2.04457e-11
1.5136e-11
2.24053e-11
1.69971e-11
2.48624e-11
1.55182e-11
3.36292e-11
2.44069e-11
3.90332e-11
2.54698e-11
4.55251e-11
2.69573e-11
5.17114e-11
2.64446e-11
5.77706e-11
1.6602e-11
5.26078e-11
-8.77431e-12
9.0539e-11
9.04587e-11
-6.90403e-10
4.07285e-10
1.02944e-10
9.35792e-11
-2.25353e-11
-1.26096e-10
-1.45559e-10
-1.35056e-10
-1.08666e-10
-9.51543e-11
-7.92628e-11
-7.64242e-11
-6.66469e-11
-6.69125e-11
-5.85665e-11
-5.9812e-11
-5.11293e-11
-5.19982e-11
-4.43702e-11
-4.63762e-11
-3.70516e-11
-3.7773e-11
-2.92368e-11
-3.16676e-11
-2.32306e-11
-2.55909e-11
-1.71856e-11
-1.94169e-11
-1.1249e-11
-1.43088e-11
-6.03872e-12
-8.81256e-12
-1.92858e-13
-2.49459e-12
5.28995e-12
1.52606e-12
9.51055e-12
6.28419e-12
1.39216e-11
1.0861e-11
1.78373e-11
1.40685e-11
2.00454e-11
1.71116e-11
2.27409e-11
2.08562e-11
2.71021e-11
2.47969e-11
3.03075e-11
2.97363e-11
3.31365e-11
3.33511e-11
3.47932e-11
3.62853e-11
2.94534e-11
2.67499e-11
6.65342e-12
1.8537e-12
-4.0677e-11
-8.90284e-11
-2.07523e-10
-2.45062e-11
1.09189e-10
9.70062e-11
-2.3583e-11
-1.27525e-10
-1.4638e-10
-1.35352e-10
-1.08831e-10
-9.52335e-11
-7.93831e-11
-7.64963e-11
-6.67545e-11
-6.69618e-11
-5.86583e-11
-5.9849e-11
-5.12004e-11
-5.20128e-11
-4.44354e-11
-4.63927e-11
-3.71081e-11
-3.77709e-11
-2.92897e-11
-3.16668e-11
-2.32778e-11
-2.55776e-11
-1.72284e-11
-1.94001e-11
-1.12917e-11
-1.42921e-11
-6.07785e-12
-8.78738e-12
-2.26864e-13
-2.46421e-12
5.25279e-12
1.55007e-12
9.47733e-12
6.32081e-12
1.38938e-11
1.09005e-11
1.78139e-11
1.41035e-11
2.00092e-11
1.70905e-11
2.26984e-11
2.09108e-11
2.71065e-11
2.48577e-11
3.03265e-11
2.98182e-11
3.31788e-11
3.34401e-11
3.48809e-11
3.64038e-11
2.9612e-11
2.6878e-11
6.94341e-12
2.1669e-12
-3.97593e-11
-8.88175e-11
-2.11887e-10
-2.71848e-11
1.16786e-10
1.00822e-10
-2.47249e-11
-1.29286e-10
-1.47513e-10
-1.35904e-10
-1.09069e-10
-9.539e-11
-7.95076e-11
-7.66279e-11
-6.68656e-11
-6.70735e-11
-5.87448e-11
-5.99387e-11
-5.12655e-11
-5.20699e-11
-4.44765e-11
-4.64541e-11
-3.71524e-11
-3.78121e-11
-2.93188e-11
-3.1708e-11
-2.33012e-11
-2.55993e-11
-1.72435e-11
-1.94198e-11
-1.1303e-11
-1.4312e-11
-6.08473e-12
-8.79413e-12
-2.29325e-13
-2.46769e-12
5.25445e-12
1.5389e-12
9.47877e-12
6.32954e-12
1.39048e-11
1.0912e-11
1.78334e-11
1.41178e-11
2.00104e-11
1.70153e-11
2.26667e-11
2.09404e-11
2.71677e-11
2.49165e-11
3.03917e-11
2.99096e-11
3.3277e-11
3.35434e-11
3.50068e-11
3.65456e-11
2.98262e-11
2.70818e-11
7.30043e-12
2.5653e-12
-3.84524e-11
-8.73622e-11
-2.18721e-10
-3.03539e-11
1.25727e-10
1.04781e-10
-2.56653e-11
-1.31304e-10
-1.49191e-10
-1.36751e-10
-1.09404e-10
-9.55744e-11
-7.96419e-11
-7.67893e-11
-6.69996e-11
-6.72121e-11
-5.88491e-11
-6.00578e-11
-5.13476e-11
-5.21461e-11
-4.4516e-11
-4.65371e-11
-3.721e-11
-3.7872e-11
-2.93467e-11
-3.17655e-11
-2.3326e-11
-2.56307e-11
-1.7254e-11
-1.94499e-11
-1.13065e-11
-1.43424e-11
-6.08485e-12
-8.80739e-12
-2.23251e-13
-2.4782e-12
5.27265e-12
1.51886e-12
9.49007e-12
6.33484e-12
1.3934e-11
1.09194e-11
1.7879e-11
1.41339e-11
2.00373e-11
1.68986e-11
2.26158e-11
2.09546e-11
2.72767e-11
2.4987e-11
3.04971e-11
3.0014e-11
3.3436e-11
3.36549e-11
3.51986e-11
3.66944e-11
3.0158e-11
2.72958e-11
7.83155e-12
2.9781e-12
-3.6404e-11
-8.49872e-11
-2.27632e-10
-3.38166e-11
1.34768e-10
1.08119e-10
-2.59038e-11
-1.33078e-10
-1.51305e-10
-1.37887e-10
-1.09824e-10
-9.57617e-11
-7.97813e-11
-7.6975e-11
-6.71671e-11
-6.73832e-11
-5.8983e-11
-6.02066e-11
-5.14586e-11
-5.22397e-11
-4.45637e-11
-4.66384e-11
-3.72912e-11
-3.79461e-11
-2.93814e-11
-3.18339e-11
-2.33624e-11
-2.56673e-11
-1.72687e-11
-1.94842e-11
-1.13104e-11
-1.43767e-11
-6.08803e-12
-8.82184e-12
-2.17041e-13
-2.48876e-12
5.30015e-12
1.49701e-12
9.50189e-12
6.34185e-12
1.39742e-11
1.0928e-11
1.79463e-11
1.41573e-11
2.00905e-11
1.67443e-11
2.25251e-11
2.09509e-11
2.74324e-11
2.50698e-11
3.0639e-11
3.01236e-11
3.36573e-11
3.37591e-11
3.54632e-11
3.68235e-11
3.06262e-11
2.74732e-11
8.57605e-12
3.3219e-12
-3.35278e-11
-8.18785e-11
-2.38049e-10
-3.70133e-11
1.42943e-10
1.0955e-10
-2.51892e-11
-1.34012e-10
-1.53668e-10
-1.39292e-10
-1.10305e-10
-9.59287e-11
-7.9911e-11
-7.71797e-11
-6.73692e-11
-6.75893e-11
-5.91501e-11
-6.03883e-11
-5.1603e-11
-5.2354e-11
-4.4623e-11
-4.67593e-11
-3.73994e-11
-3.80369e-11
-2.94248e-11
-3.19136e-11
-2.34132e-11
-2.57107e-11
-1.72893e-11
-1.95236e-11
-1.13158e-11
-1.44153e-11
-6.09648e-12
-8.83896e-12
-2.12033e-13
-2.50018e-12
5.33626e-12
1.47356e-12
9.51245e-12
6.34844e-12
1.40249e-11
1.09362e-11
1.80366e-11
1.41877e-11
2.01772e-11
1.65492e-11
2.23814e-11
2.09213e-11
2.76375e-11
2.51611e-11
3.08176e-11
3.02262e-11
3.39439e-11
3.38391e-11
3.58072e-11
3.69056e-11
3.12453e-11
2.75703e-11
9.56649e-12
3.50733e-12
-2.97711e-11
-7.81805e-11
-2.49586e-10
-3.8934e-11
1.49865e-10
1.07585e-10
-2.35952e-11
-1.3353e-10
-1.56049e-10
-1.40928e-10
-1.10823e-10
-9.60417e-11
-8.00142e-11
-7.73954e-11
-6.76032e-11
-6.78298e-11
-5.93515e-11
-6.06043e-11
-5.17834e-11
-5.24942e-11
-4.46964e-11
-4.69004e-11
-3.75364e-11
-3.81475e-11
-2.94787e-11
-3.20053e-11
-2.34802e-11
-2.57635e-11
-1.73165e-11
-1.95693e-11
-1.1324e-11
-1.44588e-11
-6.11167e-12
-8.86048e-12
-2.08777e-13
-2.51397e-12
5.38018e-12
1.44873e-12
9.52085e-12
6.35206e-12
1.40861e-11
1.09419e-11
1.81514e-11
1.42248e-11
2.03062e-11
1.63088e-11
2.21738e-11
2.08591e-11
2.78941e-11
2.52562e-11
3.10346e-11
3.03088e-11
3.42992e-11
3.38786e-11
3.62399e-11
3.69122e-11
3.20324e-11
2.75401e-11
1.08419e-11
3.44862e-12
-2.50917e-11
-7.40332e-11
-2.62145e-10
-3.83812e-11
1.55639e-10
1.00759e-10
-2.14803e-11
-1.31104e-10
-1.58183e-10
-1.42749e-10
-1.11356e-10
-9.60777e-11
-8.00742e-11
-7.76127e-11
-6.78653e-11
-6.81026e-11
-5.95876e-11
-6.08542e-11
-5.20012e-11
-5.26619e-11
-4.47872e-11
-4.7061e-11
-3.77033e-11
-3.828e-11
-2.9546e-11
-3.21091e-11
-2.35654e-11
-2.5827e-11
-1.73519e-11
-1.96218e-11
-1.13368e-11
-1.45072e-11
-6.13528e-12
-8.88735e-12
-2.0816e-13
-2.53076e-12
5.42981e-12
1.42322e-12
9.52608e-12
6.35083e-12
1.4157e-11
1.0944e-11
1.82906e-11
1.42688e-11
2.04864e-11
1.60153e-11
2.18943e-11
2.07597e-11
2.82035e-11
2.53502e-11
3.12925e-11
3.03586e-11
3.47273e-11
3.38615e-11
3.67729e-11
3.68149e-11
3.30059e-11
2.73386e-11
1.24414e-11
3.07342e-12
-1.9481e-11
-6.95293e-11
-2.7584e-10
-3.42138e-11
1.60803e-10
8.77789e-11
-1.94317e-11
-1.26289e-10
-1.59784e-10
-1.44706e-10
-1.11885e-10
-9.60135e-11
-8.00753e-11
-7.7822e-11
-6.81511e-11
-6.84043e-11
-5.98579e-11
-6.11365e-11
-5.22563e-11
-5.28583e-11
-4.48985e-11
-4.72396e-11
-3.79003e-11
-3.84354e-11
-2.96295e-11
-3.22244e-11
-2.36702e-11
-2.59025e-11
-1.73969e-11
-1.9681e-11
-1.13564e-11
-1.45601e-11
-6.16883e-12
-8.92022e-12
-2.11142e-13
-2.5509e-12
5.48266e-12
1.39782e-12
9.5274e-12
6.34323e-12
1.42367e-11
1.09421e-11
1.84537e-11
1.43205e-11
2.07275e-11
1.56595e-11
2.15359e-11
2.06202e-11
2.85665e-11
2.54377e-11
3.15948e-11
3.03636e-11
3.52324e-11
3.37725e-11
3.74182e-11
3.65887e-11
3.41821e-11
2.69287e-11
1.43936e-11
2.33478e-12
-1.29738e-11
-6.46976e-11
-2.90958e-10
-2.54853e-11
1.66149e-10
6.76312e-11
-1.81688e-11
-1.18738e-10
-1.6056e-10
-1.46749e-10
-1.12404e-10
-9.58319e-11
-8.00042e-11
-7.80148e-11
-6.84562e-11
-6.87314e-11
-6.01612e-11
-6.1449e-11
-5.25479e-11
-5.3084e-11
-4.5033e-11
-4.74347e-11
-3.81266e-11
-3.86142e-11
-2.9732e-11
-3.23509e-11
-2.37955e-11
-2.59907e-11
-1.74529e-11
-1.97467e-11
-1.13848e-11
-1.46173e-11
-6.21324e-12
-8.95955e-12
-2.18538e-13
-2.57457e-12
5.53608e-12
1.37304e-12
9.52464e-12
6.32791e-12
1.43239e-11
1.09357e-11
1.86391e-11
1.43804e-11
2.10405e-11
1.52317e-11
2.10948e-11
2.04401e-11
2.8983e-11
2.55126e-11
3.1945e-11
3.03131e-11
3.58174e-11
3.35986e-11
3.8185e-11
3.62167e-11
3.5571e-11
2.62863e-11
1.67102e-11
1.21297e-12
-5.6623e-12
-5.94821e-11
-3.07818e-10
-1.15663e-11
1.72699e-10
3.96635e-11
-1.8536e-11
-1.08244e-10
-1.60216e-10
-1.4882e-10
-1.12917e-10
-9.5523e-11
-7.9851e-11
-7.81843e-11
-6.87772e-11
-6.90809e-11
-6.04964e-11
-6.17894e-11
-5.2875e-11
-5.33388e-11
-4.51933e-11
-4.76446e-11
-3.8381e-11
-3.88162e-11
-2.98558e-11
-3.24879e-11
-2.39416e-11
-2.60922e-11
-1.75212e-11
-1.98187e-11
-1.14234e-11
-1.46783e-11
-6.26901e-12
-9.00581e-12
-2.31124e-13
-2.60189e-12
5.58791e-12
1.34913e-12
9.51796e-12
6.3037e-12
1.4417e-11
1.09244e-11
1.88447e-11
1.44489e-11
2.14351e-11
1.47212e-11
2.057e-11
2.02208e-11
2.94512e-11
2.55684e-11
3.2346e-11
3.01984e-11
3.64836e-11
3.33304e-11
3.90779e-11
3.56813e-11
3.71741e-11
2.54032e-11
1.93817e-11
-2.76919e-13
2.32568e-12
-5.37797e-11
-3.26768e-10
7.83814e-12
1.81499e-10
3.60264e-12
-2.14097e-11
-9.47445e-11
-1.58464e-10
-1.50845e-10
-1.13429e-10
-9.50848e-11
-7.96089e-11
-7.8325e-11
-6.91117e-11
-6.94506e-11
-6.08631e-11
-6.21564e-11
-5.32366e-11
-5.36225e-11
-4.53814e-11
-4.78684e-11
-3.86622e-11
-3.90412e-11
-3.00028e-11
-3.26351e-11
-2.41084e-11
-2.62075e-11
-1.76028e-11
-1.98968e-11
-1.14736e-11
-1.47431e-11
-6.33625e-12
-9.05928e-12
-2.49564e-13
-2.6328e-12
5.63625e-12
1.32601e-12
9.50786e-12
6.26962e-12
1.45146e-11
1.09081e-11
1.90674e-11
1.4525e-11
2.19234e-11
1.41285e-11
1.99639e-11
1.9965e-11
2.99666e-11
2.55993e-11
3.2799e-11
3.0014e-11
3.7229e-11
3.29638e-11
4.00958e-11
3.49839e-11
3.8981e-11
2.42896e-11
2.23782e-11
-2.08884e-12
1.08201e-11
-4.7471e-11
-3.48044e-10
3.27047e-11
1.93623e-10
-4.04509e-11
-2.76887e-11
-7.83515e-11
-1.55038e-10
-1.52726e-10
-1.13949e-10
-9.45234e-11
-7.92744e-11
-7.84321e-11
-6.94573e-11
-6.98387e-11
-6.12607e-11
-6.25485e-11
-5.3632e-11
-5.39346e-11
-4.55993e-11
-4.8105e-11
-3.89686e-11
-3.92884e-11
-3.01749e-11
-3.27924e-11
-2.42956e-11
-2.63368e-11
-1.76989e-11
-1.99807e-11
-1.15362e-11
-1.48114e-11
-6.41488e-12
-9.12019e-12
-2.74488e-13
-2.66728e-12
5.67966e-12
1.30341e-12
9.49493e-12
6.22504e-12
1.46149e-11
1.08865e-11
1.93031e-11
1.46066e-11
2.25119e-11
1.34639e-11
1.92889e-11
1.96771e-11
3.05225e-11
2.56011e-11
3.33032e-11
2.97583e-11
3.8046e-11
3.25001e-11
4.12309e-11
3.41339e-11
4.09683e-11
2.29741e-11
2.56481e-11
-4.1475e-12
1.96445e-11
-4.04704e-11
-3.71808e-10
6.27528e-11
2.09926e-10
-9.19683e-11
-3.81387e-11
-5.93453e-11
-1.4972e-10
-1.5435e-10
-1.14489e-10
-9.38555e-11
-7.88481e-11
-7.85014e-11
-6.98118e-11
-7.02435e-11
-6.16885e-11
-6.29641e-11
-5.40597e-11
-5.42744e-11
-4.58489e-11
-4.83541e-11
-3.92985e-11
-3.9557e-11
-3.03737e-11
-3.29599e-11
-2.45025e-11
-2.648e-11
-1.78105e-11
-2.00702e-11
-1.1612e-11
-1.48833e-11
-6.50446e-12
-9.18846e-12
-3.064e-13
-2.70533e-12
5.71667e-12
1.28088e-12
9.4799e-12
6.16993e-12
1.47159e-11
1.08597e-11
1.95453e-11
1.46886e-11
2.31939e-11
1.27627e-11
1.85784e-11
1.93611e-11
3.11079e-11
2.55721e-11
3.38555e-11
2.94341e-11
3.8924e-11
3.19445e-11
4.24672e-11
3.31518e-11
4.30997e-11
2.15026e-11
2.91213e-11
-6.36082e-12
2.85994e-11
-3.26986e-11