/*--------------------------------*- C++ -*----------------------------------*\
| =========                 |                                                 |
| \\      /  F ield         | OpenFOAM: The Open Source CFD Toolbox           |
|  \\    /   O peration     | Version:  2312                                  |
|   \\  /    A nd           | Website:  www.openfoam.com                      |
|    \\/     M anipulation  |                                                 |
\*---------------------------------------------------------------------------*/
FoamFile
{
    version     2.0;
    format      ascii;
    arch        "LSB;label=32;scalar=64";
    class       volScalarField;
    location    "960";
    object      pPrime2Mean;
}
// * * * * * * * * * * * * * * * * * * * * * * * * * * * * * * * * * * * * * //

dimensions      [0 4 -4 0 0 0 0];

internalField   nonuniform List<scalar> 
144000
(
2.77514e-18
3.23708e-18
3.04029e-18
2.547e-18
1.80864e-18
1.26831e-18
9.35396e-19
6.90078e-19
5.12735e-19
4.22085e-19
3.94984e-19
3.57084e-19
3.05445e-19
2.44496e-19
2.05246e-19
1.72264e-19
1.58714e-19
1.354e-19
1.26455e-19
1.11707e-19
1.01341e-19
8.31885e-20
8.46628e-20
6.33996e-20
6.74559e-20
5.25738e-20
5.36473e-20
4.29982e-20
4.30006e-20
3.33558e-20
3.55564e-20
2.56229e-20
2.96455e-20
2.10968e-20
2.27141e-20
2.20601e-20
1.24093e-20
2.45927e-20
8.85411e-21
1.5896e-20
2.04209e-20
2.3292e-21
3.12838e-20
7.63065e-21
2.27757e-20
3.44123e-20
1.35091e-20
4.71373e-20
3.66817e-20
3.93664e-20
7.08753e-20
6.22472e-20
9.09437e-20
1.31176e-19
1.63706e-19
2.43495e-19
3.91235e-19
7.04272e-19
1.87602e-18
1.77923e-18
2.91453e-18
3.31411e-18
3.12122e-18
2.60784e-18
1.83632e-18
1.2842e-18
9.45855e-19
6.96779e-19
5.16447e-19
4.24299e-19
3.96827e-19
3.58716e-19
3.06623e-19
2.4527e-19
2.05767e-19
1.72677e-19
1.59097e-19
1.35716e-19
1.2667e-19
1.11997e-19
1.01571e-19
8.32815e-20
8.4854e-20
6.35587e-20
6.75257e-20
5.27426e-20
5.372e-20
4.31257e-20
4.30883e-20
3.34353e-20
3.56699e-20
2.56795e-20
2.97554e-20
2.12059e-20
2.27418e-20
2.23429e-20
1.23253e-20
2.49246e-20
9.00249e-21
1.58932e-20
2.10373e-20
2.15655e-21
3.19018e-20
8.05705e-21
2.28843e-20
3.56305e-20
1.37616e-20
4.82677e-20
3.81977e-20
4.03973e-20
7.33619e-20
6.48722e-20
9.42417e-20
1.36682e-19
1.70726e-19
2.53873e-19
4.08611e-19
7.31329e-19
1.95797e-18
1.82696e-18
3.02138e-18
3.37271e-18
3.15258e-18
2.62481e-18
1.84151e-18
1.28866e-18
9.50876e-19
7.00894e-19
5.18951e-19
4.25867e-19
3.98482e-19
3.60287e-19
3.07806e-19
2.45976e-19
2.06275e-19
1.73057e-19
1.59581e-19
1.36038e-19
1.26927e-19
1.12336e-19
1.01878e-19
8.33314e-20
8.51763e-20
6.36798e-20
6.7705e-20
5.29105e-20
5.38778e-20
4.32678e-20
4.32637e-20
3.35172e-20
3.58952e-20
2.57346e-20
2.99777e-20
2.13589e-20
2.28309e-20
2.2789e-20
1.22223e-20
2.54952e-20
9.22632e-21
1.59877e-20
2.19985e-20
1.96056e-21
3.29523e-20
8.71277e-21
2.32382e-20
3.74942e-20
1.43072e-20
5.01264e-20
4.05758e-20
4.21662e-20
7.72129e-20
6.89225e-20
9.92042e-20
1.44495e-19
1.80239e-19
2.6646e-19
4.27589e-19
7.60598e-19
2.0436e-18
1.87369e-18
3.01624e-18
3.32792e-18
3.09515e-18
2.55871e-18
1.80765e-18
1.27054e-18
9.42426e-19
6.97026e-19
5.16683e-19
4.24452e-19
3.98047e-19
3.60334e-19
3.07869e-19
2.45926e-19
2.06233e-19
1.73036e-19
1.59784e-19
1.36121e-19
1.26959e-19
1.12536e-19
1.02084e-19
8.32655e-20
8.54308e-20
6.37508e-20
6.78378e-20
5.30659e-20
5.40248e-20
4.34102e-20
4.34353e-20
3.36022e-20
3.61401e-20
2.57884e-20
3.02353e-20
2.1533e-20
2.29283e-20
2.3319e-20
1.20986e-20
2.61809e-20
9.50126e-21
1.61107e-20
2.31423e-20
1.76081e-21
3.41784e-20
9.53554e-21
2.36529e-20
3.9677e-20
1.50012e-20
5.22446e-20
4.33686e-20
4.41828e-20
8.14796e-20
7.34548e-20
1.0435e-19
1.52506e-19
1.89259e-19
2.76821e-19
4.4094e-19
7.6845e-19
2.10148e-18
1.8594e-18
2.90471e-18
3.2218e-18
2.96199e-18
2.41024e-18
1.73711e-18
1.22935e-18
9.18945e-19
6.83415e-19
5.08108e-19
4.18613e-19
3.94096e-19
3.57585e-19
3.05916e-19
2.44518e-19
2.05208e-19
1.72275e-19
1.59374e-19
1.35717e-19
1.26551e-19
1.12374e-19
1.02013e-19
8.29909e-20
8.5462e-20
6.36959e-20
6.78491e-20
5.31333e-20
5.4101e-20
4.35019e-20
4.35505e-20
3.36545e-20
3.63536e-20
2.58199e-20
3.04749e-20
2.16961e-20
2.29973e-20
2.3854e-20
1.19586e-20
2.6857e-20
9.79481e-21
1.6216e-20
2.42921e-20
1.58293e-21
3.53414e-20
1.04204e-20
2.40111e-20
4.18157e-20
1.57277e-20
5.41766e-20
4.61063e-20
4.60447e-20
8.53319e-20
7.76423e-20
1.08577e-19
1.58988e-19
1.96009e-19
2.82716e-19
4.47947e-19
7.54368e-19
2.14393e-18
1.80621e-18
2.76334e-18
3.16854e-18
2.79912e-18
2.2139e-18
1.64389e-18
1.17357e-18
8.83528e-19
6.61314e-19
4.93767e-19
4.08428e-19
3.86396e-19
3.51719e-19
3.01623e-19
2.41478e-19
2.03003e-19
1.7061e-19
1.58197e-19
1.34696e-19
1.25592e-19
1.11715e-19
1.01544e-19
8.24387e-20
8.51777e-20
6.34399e-20
6.76881e-20
5.30562e-20
5.40663e-20
4.35067e-20
4.35716e-20
3.36479e-20
3.64947e-20
2.58059e-20
3.06535e-20
2.18207e-20
2.30095e-20
2.43329e-20
1.18025e-20
2.7455e-20
1.00716e-20
1.6287e-20
2.53223e-20
1.43897e-21
3.63112e-20
1.12598e-20
2.42722e-20
4.36336e-20
1.64009e-20
5.57203e-20
4.8432e-20
4.75954e-20
8.83179e-20
8.1065e-20
1.11607e-19
1.63572e-19
2.00256e-19
2.85032e-19
4.5021e-19
7.2577e-19
2.20274e-18
1.76881e-18
2.6291e-18
3.24269e-18
2.63443e-18
1.99747e-18
1.53482e-18
1.10738e-18
8.38804e-19
6.32387e-19
4.74648e-19
3.94575e-19
3.75369e-19
3.42949e-19
2.95085e-19
2.36856e-19
1.99645e-19
1.68064e-19
1.56248e-19
1.33045e-19
1.24082e-19
1.10532e-19
1.00649e-19
8.15851e-20
8.45399e-20
6.2938e-20
6.73213e-20
5.28119e-20
5.38811e-20
4.34085e-20
4.34743e-20
3.35676e-20
3.65376e-20
2.57373e-20
3.07437e-20
2.18929e-20
2.29513e-20
2.47208e-20
1.16313e-20
2.79291e-20
1.03066e-20
1.63276e-20
2.61743e-20
1.32725e-21
3.70592e-20
1.19816e-20
2.44515e-20
4.50558e-20
1.69582e-20
5.68763e-20
5.02122e-20
4.88307e-20
9.04397e-20
8.3609e-20
1.13557e-19
1.66357e-19
2.02213e-19
2.84819e-19
4.48657e-19
6.88084e-19
2.28967e-18
1.79066e-18
2.51613e-18
3.47199e-18
2.48046e-18
1.78177e-18
1.41277e-18
1.03308e-18
7.86731e-19
5.97956e-19
4.51749e-19
3.7781e-19
3.61631e-19
3.31793e-19
2.86658e-19
2.30851e-19
1.95265e-19
1.64725e-19
1.53604e-19
1.30839e-19
1.22093e-19
1.08881e-19
9.93674e-20
8.04485e-20
8.35701e-20
6.21957e-20
6.67369e-20
5.24055e-20
5.35338e-20
4.32088e-20
4.32537e-20
3.34137e-20
3.64751e-20
2.56169e-20
3.0735e-20
2.19142e-20
2.28196e-20
2.50107e-20
1.14488e-20
2.82821e-20
1.04994e-20
1.63387e-20
2.68689e-20
1.23475e-21
3.7614e-20
1.25824e-20
2.45682e-20
4.61384e-20
1.73746e-20
5.77734e-20
5.14891e-20
4.97925e-20
9.18995e-20
8.53715e-20
1.14619e-19
1.67707e-19
2.02121e-19
2.8289e-19
4.43426e-19
6.45588e-19
2.40156e-18
1.88477e-18
2.42975e-18
3.82853e-18
2.34421e-18
1.58384e-18
1.2817e-18
9.53204e-19
7.29515e-19
5.5963e-19
4.26273e-19
3.5899e-19
3.45958e-19
3.18863e-19
2.76798e-19
2.23773e-19
1.90059e-19
1.60731e-19
1.50377e-19
1.28174e-19
1.19718e-19
1.06855e-19
9.77769e-20
7.9078e-20
8.23248e-20
6.12513e-20
6.59385e-20
5.18586e-20
5.3026e-20
4.29177e-20
4.29167e-20
3.31985e-20
3.63147e-20
2.54561e-20
3.06319e-20
2.18975e-20
2.26174e-20
2.52189e-20
1.12597e-20
2.85246e-20
1.06735e-20
1.63097e-20
2.74663e-20
1.14065e-21
3.80304e-20
1.31061e-20
2.45949e-20
4.70132e-20
1.76167e-20
5.84584e-20
5.23708e-20
5.0425e-20
9.2824e-20
8.63463e-20
1.1475e-19
1.67761e-19
1.99972e-19
2.79146e-19
4.33841e-19
6.01459e-19
2.52273e-18
2.02747e-18
2.36754e-18
4.24295e-18
2.23125e-18
1.41181e-18
1.14773e-18
8.70483e-19
6.69703e-19
5.19136e-19
3.99388e-19
3.39014e-19
3.29068e-19
3.04768e-19
2.65996e-19
2.15965e-19
1.84271e-19
1.56259e-19
1.46705e-19
1.25154e-19
1.17053e-19
1.04555e-19
9.59794e-20
7.75367e-20
8.08787e-20
6.01681e-20
6.49454e-20
5.1209e-20
5.23712e-20
4.25485e-20
4.24751e-20
3.2938e-20
3.60689e-20
2.52677e-20
3.04427e-20
2.18602e-20
2.23455e-20
2.5361e-20
1.10684e-20
2.86532e-20
1.08647e-20
1.62043e-20
2.8029e-20
1.02533e-21
3.82945e-20
1.36144e-20
2.44417e-20
4.77474e-20
1.76407e-20
5.88402e-20
5.29037e-20
5.05352e-20
9.31044e-20
8.64368e-20
1.13654e-19
1.66275e-19
1.95267e-19
2.7273e-19
4.17663e-19
5.56174e-19
2.62884e-18
2.16379e-18
2.31733e-18
4.60865e-18
2.14388e-18
1.26384e-18
1.0177e-18
7.87862e-19
6.09841e-19
4.78142e-19
3.7225e-19
3.18717e-19
3.1165e-19
2.90096e-19
2.54693e-19
2.07757e-19
1.78152e-19
1.51502e-19
1.42732e-19
1.21898e-19
1.1417e-19
1.02062e-19
9.40647e-20
7.58886e-20
7.92973e-20
5.90187e-20
6.37909e-20
5.04872e-20
5.15924e-20
4.21095e-20
4.19453e-20
3.26461e-20
3.5747e-20
2.5064e-20
3.01731e-20
2.18142e-20
2.20039e-20
2.54465e-20
1.08787e-20
2.86484e-20
1.11035e-20
1.59776e-20
2.85813e-20
8.77273e-22
3.83432e-20
1.41412e-20
2.40095e-20
4.82967e-20
1.7401e-20
5.87375e-20
5.3036e-20
4.99241e-20
9.25399e-20
8.54382e-20
1.1094e-19
1.62893e-19
1.87662e-19
2.62786e-19
3.94191e-19
5.09493e-19
2.68855e-18
2.239e-18
2.26389e-18
4.84131e-18
2.07943e-18
1.13419e-18
8.97172e-19
7.07823e-19
5.52054e-19
4.38012e-19
3.4575e-19
2.98781e-19
2.94279e-19
2.75321e-19
2.43254e-19
1.99427e-19
1.71907e-19
1.4662e-19
1.38596e-19
1.18508e-19
1.11147e-19
9.94434e-20
9.20925e-20
7.41913e-20
7.76306e-20
5.78663e-20
6.25158e-20
4.97249e-20
5.07167e-20
4.16088e-20
4.13404e-20
3.23319e-20
3.53537e-20
2.48541e-20
2.98314e-20
2.17652e-20
2.15911e-20
2.5472e-20
1.06958e-20
2.84805e-20
1.13958e-20
1.55954e-20
2.91107e-20
6.97972e-22
3.81134e-20
1.46802e-20
2.32192e-20
4.85869e-20
1.68812e-20
5.80207e-20
5.27199e-20
4.85028e-20
9.09984e-20
8.32896e-20
1.06553e-19
1.57536e-19
1.77248e-19
2.49092e-19
3.64293e-19
4.61836e-19
2.68045e-18
2.21718e-18
2.19063e-18
4.88807e-18
2.02903e-18
1.01531e-18
7.89616e-19
6.32184e-19
4.97999e-19
3.99746e-19
3.20498e-19
2.79702e-19
2.77403e-19
2.60824e-19
2.3198e-19
1.91174e-19
1.65697e-19
1.41752e-19
1.34417e-19
1.15081e-19
1.08062e-19
9.67602e-20
9.01019e-20
7.2492e-20
7.59158e-20
5.6757e-20
6.11692e-20
4.89483e-20
4.97795e-20
4.10569e-20
4.06752e-20
3.19993e-20
3.48917e-20
2.46455e-20
2.94219e-20
2.17122e-20
2.11158e-20
2.54269e-20
1.05256e-20
2.81319e-20
1.17309e-20
1.50669e-20
2.96248e-20
5.00715e-22
3.75929e-20
1.52088e-20
2.20893e-20
4.85656e-20
1.61104e-20
5.66641e-20
5.19575e-20
4.62982e-20
8.85204e-20
8.01171e-20
1.00682e-19
1.50471e-19
1.64634e-19
2.32284e-19
3.30066e-19
4.14024e-19
2.59462e-18
2.09032e-18
2.08644e-18
4.73919e-18
1.98191e-18
9.01759e-19
6.96354e-19
5.62128e-19
4.48598e-19
3.64013e-19
2.96862e-19
2.61805e-19
2.61333e-19
2.46893e-19
2.21078e-19
1.83172e-19
1.59645e-19
1.37006e-19
1.3029e-19
1.11705e-19
1.04987e-19
9.40655e-20
8.81164e-20
7.08272e-20
7.41793e-20
5.57163e-20
5.97902e-20
4.81787e-20
4.88115e-20
4.04684e-20
3.99653e-20
3.16532e-20
3.43666e-20
2.44438e-20
2.89528e-20
2.16527e-20
2.0594e-20
2.53071e-20
1.03736e-20
2.76125e-20
1.20898e-20
1.44176e-20
3.01678e-20
3.07166e-22
3.68586e-20
1.57145e-20
2.06831e-20
4.82299e-20
1.516e-20
5.47465e-20
5.08385e-20
4.34806e-20
8.52919e-20
7.6192e-20
9.37516e-20
1.42191e-19
1.50723e-19
2.13491e-19
2.9445e-19
3.67354e-19
2.4367e-18
1.87811e-18
1.94569e-18
4.42115e-18
1.92681e-18
7.9152e-19
6.1685e-19
4.98318e-19
4.04208e-19
3.31205e-19
2.75009e-19
2.45253e-19
2.46269e-19
2.33702e-19
2.10683e-19
1.75524e-19
1.53818e-19
1.32449e-19
1.26283e-19
1.08437e-19
1.01977e-19
9.14089e-20
8.61542e-20
6.92232e-20
7.2442e-20
5.47534e-20
5.84107e-20
4.74311e-20
4.78373e-20
3.98612e-20
3.92283e-20
3.13008e-20
3.37889e-20
2.42535e-20
2.84373e-20
2.15853e-20
2.00478e-20
2.51173e-20
1.02479e-20
2.69482e-20
1.24625e-20
1.36689e-20
3.08801e-20
1.4485e-22
3.61047e-20
1.62049e-20
1.90843e-20
4.76254e-20
1.41221e-20
5.23812e-20
4.94875e-20
4.02635e-20
8.15515e-20
7.18392e-20
8.62354e-20
1.33262e-19
1.36468e-19
1.93957e-19
2.59948e-19
3.22988e-19
2.22118e-18
1.61378e-18
1.77052e-18
3.98341e-18
1.85492e-18
6.85727e-19
5.49353e-19
4.41039e-19
3.64798e-19
3.01477e-19
2.54955e-19
2.30079e-19
2.32289e-19
2.21345e-19
2.00875e-19
1.68279e-19
1.48256e-19
1.28122e-19
1.22439e-19
1.05313e-19
9.90714e-20
8.88318e-20
8.42288e-20
6.76988e-20
7.07218e-20
5.38674e-20
5.70533e-20
4.6715e-20
4.68774e-20
3.92541e-20
3.84806e-20
3.09501e-20
3.31735e-20
2.40768e-20
2.78926e-20
2.15101e-20
1.95001e-20
2.48678e-20
1.01565e-20
2.61755e-20
1.28403e-20
1.28459e-20
3.1999e-20
3.97824e-23
3.56594e-20
1.66953e-20
1.73788e-20
4.68185e-20
1.30846e-20
4.97199e-20
4.80313e-20
3.68539e-20
7.75357e-20
6.73552e-20
7.8563e-20
1.24178e-19
1.22666e-19
1.7476e-19
2.28302e-19
2.81632e-19
1.96961e-18
1.33552e-18
1.56832e-18
3.47919e-18
1.75974e-18
5.86882e-19
4.91509e-19
3.90255e-19
3.30043e-19
2.74799e-19
2.36616e-19
2.16229e-19
2.19399e-19
2.09859e-19
1.91681e-19
1.61457e-19
1.42976e-19
1.24043e-19
1.18783e-19
1.02352e-19
9.62936e-20
8.63646e-20
8.2351e-20
6.62655e-20
6.90323e-20
5.30528e-20
5.5732e-20
4.60352e-20
4.59468e-20
3.86615e-20
3.77366e-20
3.06088e-20
3.25367e-20
2.39149e-20
2.73345e-20
2.14304e-20
1.89658e-20
2.4578e-20
1.00911e-20
2.53508e-20
1.31721e-20
1.2042e-20
3.25802e-20
5.73226e-28
3.49411e-20
1.70943e-20
1.56556e-20
4.58666e-20
1.21166e-20
4.6891e-20
4.65702e-20
3.34216e-20
7.34398e-20
6.29685e-20
7.10601e-20
1.1534e-19
1.0983e-19
1.56622e-19
2.0044e-19
2.43686e-19
1.70301e-18
1.07235e-18
1.35249e-18
2.95884e-18
1.63971e-18
4.97832e-19
4.41003e-19
3.45727e-19
2.99475e-19
2.51038e-19
2.19873e-19
2.03603e-19
2.07561e-19
1.99233e-19
1.83101e-19
1.55057e-19
1.37981e-19
1.20215e-19
1.15321e-19
9.95598e-20
9.36548e-20
8.40274e-20
8.05279e-20
6.49286e-20
6.73908e-20
5.23025e-20
5.44595e-20
4.53934e-20
4.5054e-20
3.80941e-20
3.70079e-20
3.02836e-20
3.18937e-20
2.37685e-20
2.67768e-20
2.13507e-20
1.84535e-20
2.42682e-20
1.00403e-20
2.4524e-20
1.34107e-20
1.1334e-20
3.12966e-20
3.61131e-23
3.2845e-20
1.7328e-20
1.39845e-20
4.48227e-20
1.12664e-20
4.39938e-20
4.51731e-20
3.00919e-20
6.93955e-20
5.88336e-20
6.39461e-20
1.06986e-19
9.82782e-20
1.3996e-19
1.76537e-19
2.09453e-19
1.44111e-18
8.44761e-19
1.13802e-18
2.46229e-18
1.49721e-18
4.20844e-19
3.95917e-19
3.07058e-19
2.72603e-19
2.30006e-19
2.04595e-19
1.92081e-19
1.96706e-19
1.89434e-19
1.75113e-19
1.49068e-19
1.3326e-19
1.1663e-19
1.12052e-19
9.69336e-20
9.11567e-20
8.183e-20
7.87646e-20
6.36882e-20
6.58055e-20
5.16096e-20
5.32398e-20
4.47891e-20
4.42036e-20
3.75585e-20
3.63034e-20
2.99784e-20
3.12583e-20
2.36368e-20
2.62321e-20
2.12732e-20
1.79741e-20
2.39485e-20
1.00144e-20
2.37055e-20
1.36027e-20
1.06831e-20
2.9646e-20
1.45505e-22
3.05595e-20
1.75213e-20
1.23959e-20
4.37282e-20
1.05611e-20
4.11042e-20
4.38798e-20
2.69486e-20
6.54948e-20
5.50392e-20
5.73501e-20
9.9243e-20
8.81217e-20
1.24927e-19
1.56368e-19
1.79124e-19
1.19886e-18
6.63333e-19
9.4014e-19
2.01503e-18
1.33822e-18
3.567e-19
3.54912e-19
2.73753e-19
2.48951e-19
2.11479e-19
1.90656e-19
1.81537e-19
1.86752e-19
1.80411e-19
1.67685e-19
1.43465e-19
1.28797e-19
1.13276e-19
1.08972e-19
9.44655e-20
8.87949e-20
7.97746e-20
7.70639e-20
6.25407e-20
6.42836e-20
5.09676e-20
5.20749e-20
4.42212e-20
4.3398e-20
3.7058e-20
3.56295e-20
2.96955e-20
3.06404e-20
2.35188e-20
2.57095e-20
2.11994e-20
1.75338e-20
2.36272e-20
1.00214e-20
2.29014e-20
1.3795e-20
1.00564e-20
2.85193e-20
3.57733e-22
2.87829e-20
1.77577e-20
1.09128e-20
4.26085e-20
1.00162e-20
3.82749e-20
4.27097e-20
2.40431e-20
6.17744e-20
5.1626e-20
5.13251e-20
9.21495e-20
7.9327e-20
1.11461e-19
1.39458e-19
1.52794e-19
9.86326e-19
5.2943e-19
7.70728e-19
1.62918e-18
1.16979e-18
3.04805e-19
3.17191e-19
2.45226e-19
2.28106e-19
1.95208e-19
1.77941e-19
1.71847e-19
1.77607e-19
1.72104e-19
1.60778e-19
1.38216e-19
1.24573e-19
1.10136e-19
1.06073e-19
9.21452e-20
8.65619e-20
7.78583e-20
7.54265e-20
6.14798e-20
6.28291e-20
5.03707e-20
5.09654e-20
4.36879e-20
4.26374e-20
3.65939e-20
3.49899e-20
2.94355e-20
3.00464e-20
2.34142e-20
2.52146e-20
2.11321e-20
1.71328e-20
2.33135e-20
1.00549e-20
2.21301e-20
1.3985e-20
9.4771e-21
2.77035e-20
6.43586e-22
2.72666e-20
1.80279e-20
9.56245e-21
4.14807e-20
9.63016e-21
3.5542e-20
4.16637e-20
2.14013e-20
5.826e-20
4.86023e-20
4.58763e-20
8.56914e-20
7.17645e-20
9.94417e-20
1.25246e-19
1.30479e-19
8.07745e-19
4.37884e-19
6.39262e-19
1.30758e-18
9.99999e-19
2.63359e-19
2.82409e-19
2.20881e-19
2.09718e-19
1.80947e-19
1.66352e-19
1.62903e-19
1.69184e-19
1.64455e-19
1.54352e-19
1.33292e-19
1.20571e-19
1.07196e-19
1.03343e-19
8.99614e-20
8.44491e-20
7.60745e-20
7.38525e-20
6.04986e-20
6.14443e-20
4.98136e-20
4.99106e-20
4.31869e-20
4.19212e-20
3.61658e-20
3.43874e-20
2.9198e-20
2.94802e-20
2.33218e-20
2.47514e-20
2.10717e-20
1.67716e-20
2.30117e-20
1.01123e-20
2.14e-20
1.41675e-20
8.96634e-21
2.70408e-20
9.71476e-22
2.58859e-20
1.83175e-20
8.35448e-21
4.03575e-20
9.39419e-21
3.29289e-20
4.07334e-20
1.90338e-20
5.49553e-20
4.59489e-20
4.09784e-20
7.98233e-20
6.52826e-20
8.86735e-20
1.1324e-19
1.1204e-19
6.63713e-19
3.80044e-19
5.51912e-19
1.04552e-18
8.37199e-19
2.29898e-19
2.50548e-19
2.00116e-19
1.93496e-19
1.68463e-19
1.55808e-19
1.54616e-19
1.61405e-19
1.57405e-19
1.48369e-19
1.28665e-19
1.16771e-19
1.04437e-19
1.00772e-19
8.79031e-20
8.24477e-20
7.44148e-20
7.23405e-20
5.95897e-20
6.01296e-20
4.92916e-20
4.89087e-20
4.27155e-20
4.12478e-20
3.57722e-20
3.38231e-20
2.89819e-20
2.89444e-20
2.32403e-20
2.43221e-20
2.10179e-20
1.64506e-20
2.27232e-20
1.01935e-20
2.0711e-20
1.43455e-20
8.52738e-21
2.64541e-20
1.33242e-21
2.46013e-20
1.86278e-20
7.28658e-21
3.92464e-20
9.29622e-21
3.0451e-20
3.99047e-20
1.69396e-20
5.18513e-20
4.36382e-20
3.65888e-20
7.44893e-20
5.97262e-20
7.89794e-20
1.02985e-19
9.72159e-20
5.519e-19
3.45855e-19
5.11967e-19
8.34776e-19
6.89197e-19
2.01855e-19
2.2177e-19
1.82398e-19
1.79214e-19
1.5754e-19
1.46239e-19
1.46911e-19
1.54194e-19
1.50901e-19
1.42794e-19
1.24306e-19
1.13156e-19
1.01844e-19
9.83472e-20
8.59597e-20
8.0549e-20
7.28696e-20
7.08887e-20
5.87456e-20
5.88841e-20
4.88003e-20
4.79578e-20
4.22708e-20
4.06156e-20
3.54114e-20
3.32977e-20
2.87858e-20
2.84398e-20
2.31685e-20
2.39275e-20
2.09704e-20
1.61695e-20
2.24492e-20
1.02974e-20
2.00636e-20
1.45218e-20
8.15603e-21
2.59022e-20
1.7237e-21
2.33974e-20
1.89566e-20
6.35508e-21
3.81523e-20
9.32089e-21
2.81198e-20
3.91605e-20
1.51111e-20
4.89355e-20
4.16359e-20
3.26636e-20
6.96264e-20
5.49545e-20
7.0192e-20
9.41301e-20
8.57712e-20
4.68354e-19
3.24817e-19
5.19468e-19
6.64068e-19
5.62063e-19
1.76966e-19
1.96188e-19
1.67264e-19
1.66685e-19
1.47993e-19
1.37583e-19
1.39729e-19
1.4749e-19
1.44892e-19
1.37593e-19
1.20189e-19
1.09709e-19
9.94012e-20
9.60585e-20
8.41215e-20
7.87448e-20
7.14295e-20
6.94946e-20
5.79597e-20
5.77057e-20
4.83366e-20
4.70547e-20
4.18507e-20
4.00223e-20
3.50818e-20
3.28114e-20
2.86086e-20
2.7966e-20
2.31054e-20
2.35678e-20
2.09287e-20
1.59272e-20
2.21907e-20
1.04212e-20
1.94598e-20
1.46964e-20
7.84819e-21
2.53761e-20
2.1421e-21
2.22687e-20
1.92974e-20
5.55536e-21
3.70833e-20
9.45196e-21
2.59444e-20
3.84886e-20
1.35365e-20
4.6202e-20
3.99092e-20
2.91644e-20
6.51876e-20
5.08592e-20
6.21763e-20
8.63966e-20
7.75022e-20
4.07827e-19
3.07033e-19
2.7808e-18
3.24879e-18
3.05137e-18
2.55316e-18
1.81238e-18
1.27018e-18
9.37006e-19
6.91601e-19
5.14006e-19
4.22921e-19
3.95454e-19
3.57317e-19
3.05519e-19
2.44482e-19
2.05166e-19
1.7218e-19
1.58628e-19
1.35364e-19
1.2644e-19
1.11704e-19
1.01348e-19
8.31995e-20
8.46879e-20
6.34049e-20
6.74777e-20
5.25741e-20
5.36682e-20
4.30036e-20
4.30285e-20
3.3351e-20
3.55776e-20
2.56117e-20
2.96534e-20
2.10853e-20
2.2717e-20
2.20533e-20
1.24151e-20
2.459e-20
8.86475e-21
1.58948e-20
2.04434e-20
2.32381e-21
3.12894e-20
7.61828e-21
2.27947e-20
3.44558e-20
1.34995e-20
4.7201e-20
3.6685e-20
3.9435e-20
7.08997e-20
6.23173e-20
9.08933e-20
1.31207e-19
1.63549e-19
2.43301e-19
3.90846e-19
7.03173e-19
1.88416e-18
1.78434e-18
2.92007e-18
3.32651e-18
3.13237e-18
2.61441e-18
1.84003e-18
1.28607e-18
9.47473e-19
6.98294e-19
5.17718e-19
4.25133e-19
3.97293e-19
3.58944e-19
3.06694e-19
2.45252e-19
2.05684e-19
1.72589e-19
1.59009e-19
1.35678e-19
1.26655e-19
1.11992e-19
1.01578e-19
8.32922e-20
8.4879e-20
6.35634e-20
6.75472e-20
5.27425e-20
5.37411e-20
4.31316e-20
4.31165e-20
3.34309e-20
3.56911e-20
2.56687e-20
2.9763e-20
2.11951e-20
2.27442e-20
2.23368e-20
1.23304e-20
2.49223e-20
9.01276e-21
1.58922e-20
2.10612e-20
2.15114e-21
3.19088e-20
8.04409e-21
2.2904e-20
3.56758e-20
1.37525e-20
4.83324e-20
3.82026e-20
4.04658e-20
7.33882e-20
6.49417e-20
9.41861e-20
1.36705e-19
1.7056e-19
2.53668e-19
4.08139e-19
7.30206e-19
1.96623e-18
1.83208e-18
3.02845e-18
3.3856e-18
3.16359e-18
2.63146e-18
1.84508e-18
1.29035e-18
9.52393e-19
7.02392e-19
5.20206e-19
4.26695e-19
3.98943e-19
3.60507e-19
3.07871e-19
2.45952e-19
2.06187e-19
1.72963e-19
1.5949e-19
1.35998e-19
1.26911e-19
1.12329e-19
1.01884e-19
8.33419e-20
8.52014e-20
6.36837e-20
6.77261e-20
5.29099e-20
5.38992e-20
4.32744e-20
4.3293e-20
3.35134e-20
3.5917e-20
2.57243e-20
2.9985e-20
2.13491e-20
2.28331e-20
2.27838e-20
1.2227e-20
2.54941e-20
9.23664e-21
1.59865e-20
2.20245e-20
1.95497e-21
3.29626e-20
8.69788e-21
2.32599e-20
3.75432e-20
1.42994e-20
5.01929e-20
4.05835e-20
4.22371e-20
7.72446e-20
6.89974e-20
9.91557e-20
1.44539e-19
1.80084e-19
2.66271e-19
4.27103e-19
7.59914e-19
2.05174e-18
1.87948e-18
3.02377e-18
3.34143e-18
3.10518e-18
2.56495e-18
1.81091e-18
1.27187e-18
9.43841e-19
6.9845e-19
5.17917e-19
4.2526e-19
3.98495e-19
3.60542e-19
3.07923e-19
2.45895e-19
2.06138e-19
1.72935e-19
1.59686e-19
1.36077e-19
1.26941e-19
1.12527e-19
1.02089e-19
8.32757e-20
8.54559e-20
6.37541e-20
6.78582e-20
5.30648e-20
5.40456e-20
4.34179e-20
4.34651e-20
3.35994e-20
3.61621e-20
2.5779e-20
3.02419e-20
2.15244e-20
2.29295e-20
2.33152e-20
1.21025e-20
2.61798e-20
9.51161e-21
1.61094e-20
2.31741e-20
1.75538e-21
3.41924e-20
9.51567e-21
2.36784e-20
3.97305e-20
1.49953e-20
5.23164e-20
4.33816e-20
4.42585e-20
8.15236e-20
7.35438e-20
1.04315e-19
1.52576e-19
1.89152e-19
2.76717e-19
4.40582e-19
7.68475e-19
2.11038e-18
1.86578e-18
2.91053e-18
3.23405e-18
2.97033e-18
2.41556e-18
1.7398e-18
1.23061e-18
9.20146e-19
6.84741e-19
5.09288e-19
4.19399e-19
3.94521e-19
3.57783e-19
3.05955e-19
2.44474e-19
2.05105e-19
1.72164e-19
1.59268e-19
1.35668e-19
1.26531e-19
1.12363e-19
1.02015e-19
8.30011e-20
8.54866e-20
6.36991e-20
6.7868e-20
5.31317e-20
5.41201e-20
4.35113e-20
4.35807e-20
3.36536e-20
3.6375e-20
2.58121e-20
3.04799e-20
2.16892e-20
2.29973e-20
2.38518e-20
1.19606e-20
2.68574e-20
9.80495e-21
1.62139e-20
2.43289e-20
1.57829e-21
3.53601e-20
1.03911e-20
2.40419e-20
4.18752e-20
1.57249e-20
5.42533e-20
4.61253e-20
4.61298e-20
8.53921e-20
7.77504e-20
1.08573e-19
1.59104e-19
1.95966e-19
2.82738e-19
4.47795e-19
7.54477e-19
2.15367e-18
1.81243e-18
2.76975e-18
3.17788e-18
2.80585e-18
2.21827e-18
1.64593e-18
1.17457e-18
8.84569e-19
6.62545e-19
4.94937e-19
4.09208e-19
3.86803e-19
3.51895e-19
3.01649e-19
2.41424e-19
2.02891e-19
1.7049e-19
1.58081e-19
1.34642e-19
1.25567e-19
1.11702e-19
1.01542e-19
8.24483e-20
8.52013e-20
6.34435e-20
6.77049e-20
5.30548e-20
5.40822e-20
4.35181e-20
4.36016e-20
3.36497e-20
3.65153e-20
2.58003e-20
3.06556e-20
2.18164e-20
2.30067e-20
2.43334e-20
1.18025e-20
2.74568e-20
1.0081e-20
1.6284e-20
2.53664e-20
1.43601e-21
3.63354e-20
1.12155e-20
2.43091e-20
4.36989e-20
1.64023e-20
5.5801e-20
4.84578e-20
4.76905e-20
8.83907e-20
8.1193e-20
1.11627e-19
1.63733e-19
2.00259e-19
2.85177e-19
4.50203e-19
7.26185e-19
2.21279e-18
1.77393e-18
2.6352e-18
3.24833e-18
2.63962e-18
2.001e-18
1.53648e-18
1.10812e-18
8.39718e-19
6.33581e-19
4.75802e-19
3.95339e-19
3.75754e-19
3.43102e-19
2.95099e-19
2.36793e-19
1.99526e-19
1.67935e-19
1.56123e-19
1.32984e-19
1.24053e-19
1.10515e-19
1.00642e-19
8.15943e-20
8.45621e-20
6.29427e-20
6.73352e-20
5.28109e-20
5.38928e-20
4.34223e-20
4.35027e-20
3.35728e-20
3.65559e-20
2.57347e-20
3.07422e-20
2.1892e-20
2.29446e-20
2.47251e-20
1.16278e-20
2.79319e-20
1.0314e-20
1.63219e-20
2.62258e-20
1.32693e-21
3.70894e-20
1.19157e-20
2.44952e-20
4.51266e-20
1.69638e-20
5.69594e-20
5.02445e-20
4.89344e-20
9.05235e-20
8.37555e-20
1.13595e-19
1.66564e-19
2.0224e-19
2.85071e-19
4.48736e-19
6.88669e-19
2.29949e-18
1.79428e-18
2.52171e-18
3.47403e-18
2.48415e-18
1.78463e-18
1.41413e-18
1.03358e-18
7.87521e-19
5.99123e-19
4.52894e-19
3.78558e-19
3.62009e-19
3.31931e-19
2.8666e-19
2.30781e-19
1.9514e-19
1.6459e-19
1.5347e-19
1.30772e-19
1.22059e-19
1.08861e-19
9.93548e-20
8.04577e-20
8.35901e-20
6.22022e-20
6.6747e-20
5.24055e-20
5.35402e-20
4.32252e-20
4.32794e-20
3.34233e-20
3.64896e-20
2.56184e-20
3.0728e-20
2.19176e-20
2.28076e-20
2.50187e-20
1.14396e-20
2.82876e-20
1.05024e-20
1.63293e-20
2.69243e-20
1.23787e-21
3.76616e-20
1.24864e-20
2.46177e-20
4.62113e-20
1.7384e-20
5.78582e-20
5.15264e-20
4.99035e-20
9.19909e-20
8.55351e-20
1.14668e-19
1.67947e-19
2.02158e-19
2.83225e-19
4.43506e-19
6.46225e-19
2.41072e-18
1.88684e-18
2.43481e-18
3.82771e-18
2.34653e-18
1.58612e-18
1.28278e-18
9.53501e-19
7.30191e-19
5.60759e-19
4.27396e-19
3.59724e-19
3.46324e-19
3.18987e-19
2.76792e-19
2.23697e-19
1.89927e-19
1.60592e-19
1.50234e-19
1.28103e-19
1.1968e-19
1.06834e-19
9.77584e-20
7.90874e-20
8.23417e-20
6.12605e-20
6.59447e-20
5.186e-20
5.30264e-20
4.29371e-20
4.29387e-20
3.3213e-20
3.63249e-20
2.54623e-20
3.06184e-20
2.19064e-20
2.25981e-20
2.52309e-20
1.12424e-20
2.85344e-20
1.06667e-20
1.62953e-20
2.75191e-20
1.14725e-21
3.80954e-20
1.29692e-20
2.4648e-20
4.70924e-20
1.76295e-20
5.85431e-20
5.24124e-20
5.05405e-20
9.29184e-20
8.65221e-20
1.14804e-19
1.68024e-19
1.99999e-19
2.79534e-19
4.33936e-19
6.02104e-19
2.53102e-18
2.02836e-18
2.37213e-18
4.24041e-18
2.23231e-18
1.41369e-18
1.14859e-18
8.70602e-19
6.70264e-19
5.20218e-19
4.00488e-19
3.39736e-19
3.29424e-19
3.04884e-19
2.65983e-19
2.15885e-19
1.84137e-19
1.56118e-19
1.46556e-19
1.25078e-19
1.1701e-19
1.04533e-19
9.59552e-20
7.75466e-20
8.08917e-20
6.01804e-20
6.49474e-20
5.12123e-20
5.23652e-20
4.25711e-20
4.24932e-20
3.29578e-20
3.60735e-20
2.52795e-20
3.04213e-20
2.18754e-20
2.23179e-20
2.53794e-20
1.10404e-20
2.86697e-20
1.08435e-20
1.61899e-20
2.80628e-20
1.03476e-21
3.8395e-20
1.34237e-20
2.44958e-20
4.78308e-20
1.76564e-20
5.89228e-20
5.29478e-20
5.06524e-20
9.31997e-20
8.66177e-20
1.13703e-19
1.66549e-19
1.95282e-19
2.73146e-19
4.17734e-19
5.56793e-19
2.63623e-18
2.16416e-18
2.32161e-18
4.60537e-18
2.14397e-18
1.26544e-18
1.01838e-18
7.8784e-19
6.10287e-19
4.79171e-19
3.73329e-19
3.19428e-19
3.11999e-19
2.90205e-19
2.54675e-19
2.07675e-19
1.78017e-19
1.51359e-19
1.42579e-19
1.21819e-19
1.14123e-19
1.02039e-19
9.40351e-20
7.58995e-20
7.93062e-20
5.90338e-20
6.37885e-20
5.04927e-20
5.158e-20
4.21353e-20
4.19581e-20
3.26719e-20
3.57454e-20
2.5082e-20
3.01436e-20
2.18364e-20
2.19656e-20
2.54736e-20
1.08375e-20
2.86725e-20
1.10564e-20
1.59587e-20
2.85687e-20
8.88064e-22
3.84781e-20
1.3884e-20
2.40607e-20
4.83838e-20
1.74186e-20
5.88159e-20
5.30808e-20
5.00393e-20
9.2633e-20
8.56186e-20
1.10985e-19
1.63165e-19
1.8766e-19
2.63187e-19
3.94243e-19
5.10046e-19
2.69499e-18
2.23947e-18
2.26802e-18
4.83812e-18
2.07876e-18
1.13558e-18
8.97718e-19
7.07665e-19
5.52388e-19
4.38986e-19
3.46804e-19
2.99479e-19
2.94621e-19
2.75426e-19
2.43236e-19
1.99343e-19
1.71771e-19
1.46477e-19
1.38439e-19
1.18427e-19
1.11095e-19
9.94204e-20
9.20575e-20
7.42034e-20
7.76356e-20
5.78849e-20
6.25092e-20
4.97326e-20
5.06985e-20
4.16375e-20
4.13474e-20
3.23632e-20
3.53456e-20
2.48784e-20
2.97932e-20
2.17946e-20
2.15422e-20
2.55079e-20
1.06383e-20
2.85166e-20
1.13133e-20
1.55732e-20
2.90107e-20
7.0918e-22
3.82718e-20
1.43453e-20
2.32672e-20
4.86751e-20
1.68997e-20
5.80932e-20
5.27641e-20
4.86127e-20
9.10864e-20
8.34623e-20
1.06591e-19
1.57791e-19
1.77234e-19
2.49445e-19
3.64329e-19
4.62309e-19
2.68599e-18
2.21815e-18
2.19476e-18
4.88545e-18
2.02786e-18
1.01655e-18
7.90055e-19
6.31946e-19
4.98224e-19
4.00657e-19
3.21525e-19
2.80384e-19
2.77739e-19
2.60928e-19
2.31959e-19
1.91093e-19
1.65563e-19
1.41609e-19
1.34258e-19
1.14999e-19
1.08006e-19
9.67374e-20
9.00623e-20
7.25052e-20
7.59172e-20
5.67788e-20
6.11586e-20
4.89581e-20
4.97553e-20
4.10882e-20
4.06765e-20
3.20357e-20
3.48775e-20
2.4676e-20
2.93748e-20
2.1749e-20
2.10556e-20
2.54719e-20
1.04505e-20
2.8183e-20
1.16056e-20
1.5033e-20
2.93458e-20
5.13702e-22
3.77361e-20
1.47897e-20
2.21291e-20
4.86519e-20
1.61297e-20
5.67299e-20
5.19999e-20
4.63998e-20
8.86014e-20
8.02774e-20
1.00714e-19
1.50696e-19
1.64611e-19
2.32564e-19
3.30092e-19
4.14411e-19
2.59937e-18
2.09184e-18
2.09064e-18
4.73736e-18
1.98051e-18
9.0283e-19
6.96709e-19
5.61834e-19
4.4872e-19
3.64856e-19
2.97857e-19
2.62471e-19
2.61657e-19
2.46993e-19
2.21054e-19
1.83093e-19
1.5951e-19
1.36863e-19
1.30129e-19
1.11623e-19
1.04927e-19
9.40435e-20
8.80728e-20
7.08413e-20
7.41773e-20
5.5741e-20
5.9776e-20
4.81903e-20
4.8782e-20
4.0502e-20
3.99611e-20
3.16942e-20
3.43468e-20
2.44801e-20
2.88982e-20
2.16962e-20
2.05241e-20
2.53604e-20
1.02826e-20
2.7678e-20
1.1918e-20
1.43664e-20
2.95453e-20
3.25329e-22
3.68946e-20
1.52052e-20
2.071e-20
4.83135e-20
1.51796e-20
5.48039e-20
5.08782e-20
4.3572e-20
8.53656e-20
7.6336e-20
9.37768e-20
1.42379e-19
1.50696e-19
2.13681e-19
2.94469e-19
3.67651e-19
2.44075e-18
1.88015e-18
1.94998e-18
4.42004e-18
1.92538e-18
7.92418e-19
6.17139e-19
4.97993e-19
4.04238e-19
3.31976e-19
2.75968e-19
2.459e-19
2.46586e-19
2.33798e-19
2.10657e-19
1.75447e-19
1.53685e-19
1.32308e-19
1.26122e-19
1.08355e-19
1.01914e-19
9.13877e-20
8.61071e-20
6.92382e-20
7.2437e-20
5.47805e-20
5.83935e-20
4.74443e-20
4.78032e-20
3.98964e-20
3.92195e-20
3.13455e-20
3.37645e-20
2.42948e-20
2.83768e-20
2.16341e-20
1.99704e-20
2.51769e-20
1.01421e-20
2.70299e-20
1.22352e-20
1.36159e-20
2.96002e-20
1.68805e-22
3.57957e-20
1.55929e-20
1.91015e-20
4.77044e-20
1.41409e-20
5.24308e-20
4.95241e-20
4.0344e-20
8.16178e-20
7.19643e-20
8.62572e-20
1.33408e-19
1.36444e-19
1.94051e-19
2.59961e-19
3.23194e-19
2.22459e-18
1.61624e-18
1.77485e-18
3.98285e-18
1.85361e-18
6.86432e-19
5.4959e-19
4.40707e-19
3.6475e-19
3.02174e-19
2.55873e-19
2.30706e-19
2.32597e-19
2.21437e-19
2.00847e-19
1.68202e-19
1.48125e-19
1.27983e-19
1.22279e-19
1.05232e-19
9.90064e-20
8.88117e-20
8.41792e-20
6.77143e-20
7.07141e-20
5.38964e-20
5.70338e-20
4.67294e-20
4.68398e-20
3.92901e-20
3.84678e-20
3.09976e-20
3.31454e-20
2.41219e-20
2.78277e-20
2.15634e-20
1.94162e-20
2.49343e-20
1.00344e-20
2.62785e-20
1.25461e-20
1.28277e-20
2.95135e-20
6.48003e-23