/*--------------------------------*- C++ -*----------------------------------*\
| =========                 |                                                 |
| \\      /  F ield         | OpenFOAM: The Open Source CFD Toolbox           |
|  \\    /   O peration     | Version:  2312                                  |
|   \\  /    A nd           | Website:  www.openfoam.com                      |
|    \\/     M anipulation  |                                                 |
\*---------------------------------------------------------------------------*/
FoamFile
{
    version     2.0;
    format      ascii;
    arch        "LSB;label=32;scalar=64";
    class       volScalarField;
    location    "100";
    object      pPrime2Mean;
}
// * * * * * * * * * * * * * * * * * * * * * * * * * * * * * * * * * * * * * //

dimensions      [0 4 -4 0 0 0 0];

internalField   nonuniform List<scalar> 
144000
(
4.03488e-17
3.67761e-17
4.87537e-17
5.52841e-17
4.10534e-17
2.48214e-17
1.72785e-17
1.32275e-17
1.01513e-17
8.30653e-18
7.14352e-18
6.25989e-18
5.70291e-18
5.36078e-18
5.0855e-18
4.94739e-18
4.86397e-18
4.74655e-18
4.67248e-18
4.62247e-18
4.57656e-18
4.50184e-18
4.43594e-18
4.41927e-18
4.38389e-18
4.34434e-18
4.3299e-18
4.30098e-18
4.25792e-18
4.24392e-18
4.21856e-18
4.20679e-18
4.17794e-18
4.15724e-18
4.15181e-18
4.11953e-18
4.1257e-18
4.10218e-18
4.06758e-18
4.09937e-18
4.03538e-18
4.061e-18
4.04338e-18
4.02859e-18
4.04268e-18
4.03441e-18
3.98647e-18
4.06365e-18
4.13391e-18
3.87195e-18
4.5623e-18
4.01435e-18
4.38433e-18
5.44581e-18
4.46775e-18
5.98422e-18
1.12744e-17
6.76618e-18
1.68428e-17
4.05682e-17
4.23016e-17
3.75354e-17
4.99496e-17
5.61665e-17
4.1453e-17
2.49863e-17
1.73701e-17
1.32803e-17
1.01787e-17
8.32686e-18
7.16003e-18
6.26969e-18
5.70912e-18
5.3658e-18
5.0882e-18
4.94918e-18
4.86632e-18
4.74786e-18
4.67323e-18
4.6233e-18
4.57743e-18
4.50259e-18
4.43599e-18
4.41977e-18
4.38451e-18
4.34443e-18
4.33027e-18
4.3015e-18
4.25799e-18
4.24419e-18
4.21878e-18
4.20712e-18
4.17819e-18
4.15731e-18
4.15232e-18
4.11948e-18
4.12609e-18
4.10281e-18
4.06727e-18
4.10041e-18
4.03559e-18
4.0613e-18
4.04477e-18
4.02869e-18
4.04453e-18
4.03616e-18
3.98837e-18
4.06565e-18
4.14285e-18
3.87086e-18
4.58077e-18
4.02883e-18
4.39379e-18
5.50236e-18
4.52326e-18
6.04487e-18
1.15174e-17
7.04693e-18
1.74979e-17
4.10908e-17
4.36365e-17
3.80576e-17
5.00413e-17
5.63944e-17
4.13172e-17
2.48494e-17
1.73131e-17
1.32554e-17
1.01626e-17
8.32409e-18
7.16243e-18
6.27131e-18
5.71051e-18
5.36761e-18
5.08813e-18
4.94924e-18
4.86775e-18
4.74817e-18
4.67331e-18
4.62364e-18
4.57794e-18
4.50304e-18
4.43559e-18
4.42006e-18
4.38497e-18
4.34428e-18
4.33064e-18
4.30203e-18
4.25787e-18
4.24443e-18
4.2189e-18
4.20749e-18
4.17843e-18
4.15738e-18
4.15295e-18
4.11927e-18
4.12666e-18
4.10347e-18
4.06695e-18
4.10171e-18
4.03577e-18
4.06169e-18
4.04656e-18
4.02856e-18
4.04754e-18
4.03741e-18
3.99169e-18
4.06793e-18
4.15226e-18
3.87406e-18
4.59555e-18
4.05221e-18
4.40503e-18
5.54553e-18
4.61042e-18
6.05206e-18
1.16701e-17
7.33713e-18
1.79184e-17
4.16898e-17
4.31184e-17
3.68063e-17
4.82401e-17
5.50195e-17
4.02924e-17
2.42184e-17
1.69915e-17
1.30833e-17
1.0065e-17
8.27069e-18
7.13075e-18
6.25087e-18
5.69811e-18
5.35986e-18
5.08105e-18
4.94418e-18
4.86522e-18
4.74534e-18
4.67111e-18
4.62222e-18
4.57693e-18
4.50236e-18
4.4342e-18
4.41955e-18
4.38474e-18
4.34356e-18
4.33062e-18
4.30218e-18
4.25741e-18
4.2444e-18
4.2188e-18
4.20766e-18
4.17854e-18
4.15737e-18
4.15347e-18
4.11889e-18
4.12723e-18
4.10399e-18
4.06675e-18
4.1028e-18
4.03607e-18
4.06179e-18
4.04869e-18
4.02776e-18
4.05154e-18
4.03693e-18
3.99631e-18
4.06875e-18
4.15806e-18
3.88326e-18
4.59236e-18
4.08507e-18
4.3982e-18
5.53974e-18
4.71701e-18
5.90173e-18
1.16554e-17
7.44893e-18
1.71784e-17
4.11178e-17
4.0694e-17
3.34676e-17
4.47228e-17
5.19449e-17
3.84011e-17
2.31418e-17
1.64352e-17
1.27805e-17
9.888e-18
8.16061e-18
7.05866e-18
6.20386e-18
5.66862e-18
5.33999e-18
5.06552e-18
4.93273e-18
4.85716e-18
4.73805e-18
4.66559e-18
4.61813e-18
4.5736e-18
4.50001e-18
4.43147e-18
4.41775e-18
4.38335e-18
4.34202e-18
4.32986e-18
4.3016e-18
4.25643e-18
4.24388e-18
4.21835e-18
4.20743e-18
4.17847e-18
4.15713e-18
4.15372e-18
4.11832e-18
4.12759e-18
4.10436e-18
4.06664e-18
4.10347e-18
4.03647e-18
4.06151e-18
4.05086e-18
4.0264e-18
4.05585e-18
4.03473e-18
4.00145e-18
4.0673e-18
4.1595e-18
3.89533e-18
4.56961e-18
4.12148e-18
4.3693e-18
5.4847e-18
4.82509e-18
5.60266e-18
1.15252e-17
7.3616e-18
1.53977e-17
3.92728e-17
3.7302e-17
2.91113e-17
4.04064e-17
4.80866e-17
3.61382e-17
2.1876e-17
1.57585e-17
1.24084e-17
9.66557e-18
8.01328e-18
6.9563e-18
6.13667e-18
5.62527e-18
5.31019e-18
5.0433e-18
4.916e-18
4.84404e-18
4.72651e-18
4.6567e-18
4.61121e-18
4.56784e-18
4.49593e-18
4.42741e-18
4.41461e-18
4.38068e-18
4.3396e-18
4.32818e-18
4.30011e-18
4.25491e-18
4.24276e-18
4.21747e-18
4.20667e-18
4.17816e-18
4.15658e-18
4.15353e-18
4.1176e-18
4.12762e-18
4.10458e-18
4.06657e-18
4.10359e-18
4.03686e-18
4.06079e-18
4.05285e-18
4.02476e-18
4.05954e-18
4.03157e-18
4.00577e-18
4.06378e-18
4.15695e-18
3.90661e-18
4.53411e-18
4.15326e-18
4.32679e-18
5.39473e-18
4.92019e-18
5.23403e-18
1.13265e-17
7.16038e-18
1.32914e-17
3.69826e-17
3.37732e-17
2.4788e-17
3.61504e-17
4.41069e-17
3.38148e-17
2.05889e-17
1.50579e-17
1.20133e-17
9.42576e-18
7.84897e-18
6.84013e-18
6.05924e-18
5.57459e-18
5.27515e-18
5.01795e-18
4.8965e-18
4.82773e-18
4.71215e-18
4.64534e-18
4.60204e-18
4.56008e-18
4.49047e-18
4.42239e-18
4.41038e-18
4.37696e-18
4.33646e-18
4.32563e-18
4.29771e-18
4.25291e-18
4.24103e-18
4.2162e-18
4.20539e-18
4.17759e-18
4.15576e-18
4.15283e-18
4.11674e-18
4.12721e-18
4.10465e-18
4.06648e-18
4.10313e-18
4.03717e-18
4.05969e-18
4.0544e-18
4.02308e-18
4.0621e-18
4.02809e-18
4.00864e-18
4.05893e-18
4.15152e-18
3.91583e-18
4.49288e-18
4.17687e-18
4.28129e-18
5.2866e-18
4.993e-18
4.86519e-18
1.10673e-17
6.87303e-18
1.13419e-17
3.48235e-17
3.03829e-17
2.08859e-17
3.22404e-17
4.02794e-17
3.15505e-17
1.9354e-17
1.43674e-17
1.16159e-17
9.18465e-18
7.68368e-18
6.72196e-18
5.98033e-18
5.52229e-18
5.23856e-18
4.99188e-18
4.87622e-18
4.81007e-18
4.69657e-18
4.63274e-18
4.59149e-18
4.55104e-18
4.48411e-18
4.4168e-18
4.40541e-18
4.37257e-18
4.33291e-18
4.32241e-18
4.29457e-18
4.25058e-18
4.23881e-18
4.21463e-18
4.2037e-18
4.17677e-18
4.15473e-18
4.15164e-18
4.11576e-18
4.1264e-18
4.10456e-18
4.06637e-18
4.10216e-18
4.03734e-18
4.05832e-18
4.0555e-18
4.02145e-18
4.06359e-18
4.0247e-18
4.01016e-18
4.05363e-18
4.14427e-18
3.92304e-18
4.4504e-18
4.19286e-18
4.23832e-18
5.17227e-18
5.0438e-18
4.52148e-18
1.07542e-17
6.52399e-18
9.65623e-18
3.29189e-17
2.72399e-17
1.75424e-17
2.87067e-17
3.6697e-17
2.93592e-17
1.81852e-17
1.36996e-17
1.12245e-17
8.94914e-18
7.52391e-18
6.60853e-18
5.90479e-18
5.47163e-18
5.20271e-18
4.96647e-18
4.8563e-18
4.79228e-18
4.68093e-18
4.61984e-18
4.58033e-18
4.54133e-18
4.47727e-18
4.41098e-18
4.4e-18
4.36784e-18
4.32923e-18
4.31876e-18
4.29091e-18
4.24807e-18
4.23625e-18
4.21284e-18
4.20176e-18
4.17575e-18
4.1536e-18
4.15006e-18
4.11466e-18
4.12526e-18
4.10436e-18
4.06627e-18
4.10078e-18
4.03735e-18
4.05681e-18
4.05629e-18
4.01986e-18
4.06425e-18
4.02165e-18
4.01053e-18
4.04849e-18
4.13601e-18
3.92882e-18
4.40942e-18
4.20274e-18
4.20004e-18
5.06001e-18
5.0753e-18
4.2147e-18
1.04118e-17
6.15942e-18
8.23615e-18
3.12464e-17
2.44268e-17
1.47821e-17
2.55204e-17
3.33819e-17
2.72489e-17
1.70853e-17
1.30593e-17
1.08427e-17
8.72211e-18
7.37304e-18
6.50281e-18
5.83486e-18
5.4243e-18
5.1687e-18
4.94243e-18
4.83732e-18
4.77501e-18
4.66591e-18
4.60724e-18
4.56909e-18
4.53141e-18
4.47026e-18
4.40513e-18
4.39432e-18
4.36299e-18
4.32561e-18
4.31487e-18
4.28694e-18
4.24552e-18
4.23351e-18
4.21091e-18
4.19967e-18
4.17459e-18
4.15243e-18
4.14824e-18
4.11346e-18
4.12389e-18
4.10407e-18
4.06619e-18
4.09914e-18
4.03721e-18
4.05526e-18
4.05689e-18
4.01829e-18
4.06427e-18
4.01908e-18
4.00993e-18
4.04384e-18
4.12723e-18
3.93356e-18
4.37094e-18
4.20732e-18
4.16712e-18
4.95319e-18
5.09026e-18
3.95582e-18
1.00589e-17
5.82413e-18
7.06687e-18
2.97124e-17
2.19814e-17
1.25396e-17
2.26564e-17
3.03785e-17
2.52247e-17
1.60565e-17
1.24504e-17
1.04727e-17
8.50464e-18
7.23204e-18
6.40559e-18
5.77104e-18
5.38083e-18
5.13699e-18
4.92006e-18
4.81951e-18
4.75859e-18
4.65176e-18
4.59522e-18
4.55809e-18
4.52158e-18
4.46329e-18
4.3994e-18
4.3885e-18
4.35813e-18
4.32218e-18
4.31086e-18
4.28279e-18
4.24302e-18
4.2307e-18
4.20889e-18
4.19753e-18
4.17334e-18
4.15127e-18
4.14629e-18
4.11219e-18
4.12237e-18
4.10374e-18
4.06613e-18
4.09735e-18
4.03695e-18
4.05373e-18
4.05742e-18
4.01676e-18
4.06376e-18
4.01706e-18
4.00852e-18
4.03974e-18
4.11828e-18
3.93752e-18
4.33533e-18
4.20772e-18
4.13921e-18
4.85232e-18
5.09145e-18
3.74438e-18
9.69595e-18
5.54155e-18
6.11441e-18
2.82254e-17
1.98814e-17
1.06806e-17
2.00847e-17
2.76624e-17
2.33002e-17
1.50998e-17
1.18759e-17
1.01156e-17
8.29726e-18
7.10072e-18
6.31654e-18
5.71312e-18
5.34122e-18
5.10773e-18
4.89944e-18
4.80291e-18
4.74311e-18
4.63858e-18
4.58389e-18
4.54749e-18
4.512e-18
4.45647e-18
4.39386e-18
4.38261e-18
4.35332e-18
4.31898e-18
4.30681e-18
4.27856e-18
4.24065e-18
4.22791e-18
4.2068e-18
4.19537e-18
4.17202e-18
4.15013e-18
4.14427e-18
4.11086e-18
4.12077e-18
4.10341e-18
4.0661e-18
4.09549e-18
4.03659e-18
4.05224e-18
4.05794e-18
4.01526e-18
4.0628e-18
4.01562e-18
4.00644e-18
4.03618e-18
4.10942e-18
3.94078e-18
4.30265e-18
4.20442e-18
4.11559e-18
4.75752e-18
5.08079e-18
3.57769e-18
9.31719e-18
5.3213e-18
5.32738e-18
2.66378e-17
1.80556e-17
9.05564e-18
1.77722e-17
2.52025e-17
2.14898e-17
1.42142e-17
1.13374e-17
9.77257e-18
8.09953e-18
6.97833e-18
6.23487e-18
5.66055e-18
5.30524e-18
5.08083e-18
4.88047e-18
4.7875e-18
4.72859e-18
4.62636e-18
4.57327e-18
4.53734e-18
4.50276e-18
4.44985e-18
4.38856e-18
4.37672e-18
4.34858e-18
4.31605e-18
4.30279e-18
4.27431e-18
4.23845e-18
4.22518e-18
4.20469e-18
4.19325e-18
4.17068e-18
4.14902e-18
4.14225e-18
4.1095e-18
4.1191e-18
4.10309e-18
4.0661e-18
4.0936e-18
4.03617e-18
4.05081e-18
4.05848e-18
4.01383e-18
4.06144e-18
4.01475e-18
4.00383e-18
4.03309e-18
4.10082e-18
3.94341e-18
4.27281e-18
4.19774e-18
4.09547e-18
4.66882e-18
5.05891e-18
3.45278e-18
8.91845e-18
5.15984e-18
4.65723e-18
2.48501e-17
1.64304e-17
7.56034e-18
1.56887e-17
2.29621e-17
1.98016e-17
1.33975e-17
1.08363e-17
9.4448e-18
7.91133e-18
6.86397e-18
6.15963e-18
5.61271e-18
5.27259e-18
5.05612e-18
4.86302e-18
4.77321e-18
4.71498e-18
4.61506e-18
4.56332e-18
4.52767e-18
4.49391e-18
4.44346e-18
4.38352e-18
4.37089e-18
4.34392e-18
4.31337e-18
4.29882e-18
4.27005e-18
4.23643e-18
4.22256e-18
4.20257e-18
4.19118e-18
4.16933e-18
4.14796e-18
4.14024e-18
4.10812e-18
4.1174e-18
4.10281e-18
4.06611e-18
4.09172e-18
4.03572e-18
4.04945e-18
4.05907e-18
4.0125e-18
4.05974e-18
4.01443e-18
4.00082e-18
4.0304e-18
4.09262e-18
3.94539e-18
4.24564e-18
4.18803e-18
4.07817e-18
4.5863e-18
5.02584e-18
3.36617e-18
8.49965e-18
5.04799e-18
4.06977e-18
2.28394e-17
1.494e-17
6.15641e-18
1.38165e-17
2.09095e-17
1.82431e-17
1.26477e-17
1.03736e-17
9.13381e-18
7.73267e-18
6.75687e-18
6.08994e-18
5.56895e-18
5.24288e-18
5.03338e-18
4.84695e-18
4.75992e-18
4.70222e-18
4.6046e-18
4.55402e-18
4.51847e-18
4.48545e-18
4.43731e-18
4.37874e-18
4.36514e-18
4.33935e-18
4.31093e-18
4.29493e-18
4.26583e-18
4.23459e-18
4.22007e-18
4.20046e-18
4.18917e-18
4.16799e-18
4.14697e-18
4.13827e-18
4.10672e-18
4.11568e-18
4.10255e-18
4.06613e-18
4.08984e-18
4.03526e-18
4.04817e-18
4.05971e-18
4.01128e-18
4.05776e-18
4.01462e-18
3.99755e-18
4.02804e-18
4.08493e-18
3.94671e-18
4.22096e-18
4.17584e-18
4.06304e-18
4.51047e-18
4.9817e-18
3.31432e-18
8.06574e-18
4.97332e-18
3.55122e-18
2.06529e-17
1.35436e-17
4.86251e-18
1.21399e-17
1.90218e-17
1.68152e-17
1.19626e-17
9.94976e-18
8.8409e-18
7.56368e-18
6.65632e-18
6.02496e-18
5.52867e-18
5.21575e-18
5.01241e-18
4.83211e-18
4.74757e-18
4.69023e-18
4.59491e-18
4.54532e-18
4.50969e-18
4.47738e-18
4.43141e-18
4.37421e-18
4.35951e-18
4.33487e-18
4.30872e-18
4.29112e-18
4.26163e-18
4.23292e-18
4.21771e-18
4.19837e-18
4.18723e-18
4.16669e-18
4.14605e-18
4.13634e-18
4.10533e-18
4.11396e-18
4.10232e-18
4.06618e-18
4.08798e-18
4.03481e-18
4.04699e-18
4.06037e-18
4.01021e-18
4.05554e-18
4.01528e-18
3.99413e-18
4.02594e-18
4.07784e-18
3.94734e-18
4.19862e-18
4.16183e-18
4.0496e-18
4.4421e-18
4.92726e-18
3.29355e-18
7.62475e-18
4.92223e-18
3.1041e-18
1.83845e-17
1.22163e-17
3.72758e-18
1.06506e-17
1.72853e-17
1.55157e-17
1.13396e-17
9.56387e-18
8.56683e-18
7.40436e-18
6.56179e-18
5.96399e-18
5.4913e-18
5.19085e-18
4.99298e-18
4.81833e-18
4.73604e-18
4.67894e-18
4.58591e-18
4.53716e-18
4.50133e-18
4.4697e-18
4.42575e-18
4.36991e-18
4.35401e-18
4.33049e-18
4.30671e-18
4.2874e-18
4.25748e-18
4.23141e-18
4.21548e-18
4.1963e-18
4.18537e-18
4.16544e-18
4.14523e-18
4.13447e-18
4.10394e-18
4.11225e-18
4.10212e-18
4.06623e-18
4.08613e-18
4.03436e-18
4.04591e-18
4.06107e-18
4.00928e-18
4.05316e-18
4.01636e-18
3.99067e-18
4.02404e-18
4.07141e-18
3.94731e-18
4.1785e-18
4.14678e-18
4.03751e-18
4.38203e-18
4.86387e-18
3.30027e-18
7.18687e-18
4.884e-18
2.74069e-18
1.61394e-17
1.09539e-17
2.8057e-18
9.34391e-18
1.56923e-17
1.43388e-17
1.07752e-17
9.21437e-18
8.31192e-18
7.25468e-18
6.47281e-18
5.90645e-18
5.45637e-18
5.16784e-18
4.97493e-18
4.8055e-18
4.72525e-18
4.66827e-18
4.57753e-18
4.52951e-18
4.49333e-18
4.46239e-18
4.42033e-18
4.36583e-18
4.34866e-18
4.32622e-18
4.30489e-18
4.28377e-18
4.25338e-18
4.23003e-18
4.21337e-18
4.19425e-18
4.18359e-18
4.16425e-18
4.1445e-18
4.13266e-18
4.10256e-18
4.11058e-18
4.10194e-18
4.06629e-18
4.0843e-18
4.03393e-18
4.04495e-18
4.06178e-18
4.0085e-18
4.05067e-18
4.0178e-18
3.98727e-18
4.02227e-18
4.06568e-18
3.94665e-18
4.16052e-18
4.13143e-18
4.02651e-18
4.33092e-18
4.79327e-18
3.33001e-18
6.7618e-18
4.85079e-18
2.47302e-18
1.40135e-17
9.76366e-18
2.13592e-18
8.21715e-18
1.42383e-17
1.32763e-17
1.02656e-17
8.89908e-18
8.07602e-18
7.11446e-18
6.38902e-18
5.85187e-18
5.42345e-18
5.14644e-18
4.95806e-18
4.79349e-18
4.71512e-18
4.65816e-18
4.56969e-18
4.52234e-18
4.48567e-18
4.45543e-18
4.41515e-18
4.36194e-18
4.34345e-18
4.32206e-18
4.30323e-18
4.28026e-18
4.24933e-18
4.22879e-18
4.21138e-18
4.19222e-18
4.18188e-18
4.16312e-18
4.14388e-18
4.13092e-18
4.10119e-18
4.10897e-18
4.10179e-18
4.06637e-18
4.08249e-18
4.03352e-18
4.04412e-18
4.06248e-18
4.00786e-18
4.04812e-18
4.01954e-18
3.984e-18
4.0206e-18
4.06071e-18
3.94544e-18
4.14456e-18
4.11649e-18
4.01633e-18
4.28897e-18
4.71747e-18
3.37839e-18
6.35846e-18
4.81608e-18
2.31131e-18
1.20772e-17
8.65872e-18
1.73166e-18
7.26779e-18
1.29194e-17
1.23186e-17
9.80688e-18
8.61546e-18
7.85857e-18
6.98339e-18
6.31004e-18
5.79986e-18
5.39219e-18
5.1264e-18
4.94221e-18
4.78219e-18
4.70559e-18
4.64857e-18
4.56235e-18
4.51558e-18
4.47832e-18
4.4488e-18
4.41021e-18
4.35821e-18
4.33838e-18
4.318e-18
4.30173e-18
4.27684e-18
4.24535e-18
4.22766e-18
4.2095e-18
4.1902e-18
4.18025e-18
4.16206e-18
4.14337e-18
4.12925e-18
4.09985e-18
4.10744e-18
4.10168e-18
4.06647e-18
4.0807e-18
4.03312e-18
4.04344e-18
4.06319e-18
4.00735e-18
4.04556e-18
4.02152e-18
3.98093e-18
4.019e-18
4.05651e-18
3.94378e-18
4.13057e-18
4.10253e-18
4.0068e-18
4.25598e-18
4.63854e-18
3.44082e-18
5.98401e-18
4.77527e-18
2.25749e-18
1.03707e-17
7.64858e-18
1.58008e-18
6.49206e-18
1.17319e-17
1.14558e-17
9.39447e-18
8.3606e-18
7.6586e-18
6.86097e-18
6.23552e-18
5.75012e-18
5.36232e-18
5.10749e-18
4.92725e-18
4.7715e-18
4.69659e-18
4.63944e-18
4.55544e-18
4.50922e-18
4.47125e-18
4.44249e-18
4.40549e-18
4.35463e-18
4.33346e-18
4.31407e-18
4.30037e-18
4.27354e-18
4.24143e-18
4.22665e-18
4.20772e-18
4.18818e-18
4.17868e-18
4.16108e-18
4.14295e-18
4.12765e-18
4.09851e-18
4.10599e-18
4.10163e-18
4.06658e-18
4.07895e-18
4.03273e-18
4.0429e-18
4.06388e-18
4.00695e-18
4.04306e-18
4.0237e-18
3.97811e-18
4.01744e-18
4.05308e-18
3.94178e-18
4.11844e-18
4.08998e-18
3.99777e-18
4.23143e-18
4.5583e-18
3.51277e-18
5.64306e-18
4.72604e-18
2.30577e-18
8.90517e-18
6.73973e-18
1.64832e-18
5.88528e-18
1.06669e-17
1.06786e-17
9.02413e-18
8.13173e-18
7.47499e-18
6.74669e-18
6.16514e-18
5.70237e-18
5.33359e-18
5.08953e-18
4.91303e-18
4.76133e-18
4.68805e-18
4.63075e-18
4.54894e-18
4.50322e-18
4.46444e-18
4.43647e-18
4.401e-18
4.35116e-18
4.32866e-18
4.31025e-18
4.29915e-18
4.27034e-18
4.23759e-18
4.22574e-18
4.20606e-18
4.18616e-18
4.17718e-18
4.16018e-18
4.14263e-18
4.1261e-18
4.09719e-18
4.10465e-18
4.10162e-18
4.06672e-18
4.07722e-18
4.03237e-18
4.04253e-18
4.06457e-18
4.00666e-18
4.04064e-18
4.02603e-18
3.97557e-18
4.01592e-18
4.05042e-18
3.93956e-18
4.10806e-18
4.07909e-18
3.98911e-18
4.21452e-18
4.4785e-18
3.59014e-18
5.33808e-18
4.66726e-18
2.44424e-18
7.67206e-18
5.93538e-18
1.89073e-18
5.44058e-18
9.71827e-18
9.9777e-18
8.69191e-18
7.92643e-18
7.30668e-18
6.64004e-18
6.09861e-18
5.65646e-18
5.30583e-18
5.07236e-18
4.89946e-18
4.75161e-18
4.67994e-18
4.62244e-18
4.5428e-18
4.49754e-18
4.45786e-18
4.43074e-18
4.39673e-18
4.34781e-18
4.32399e-18
4.30656e-18
4.29804e-18
4.26724e-18
4.23384e-18
4.22493e-18
4.20449e-18
4.18413e-18
4.17573e-18
4.15936e-18
4.1424e-18
4.12461e-18
4.09587e-18
4.10342e-18
4.10169e-18
4.06688e-18
4.07553e-18
4.03202e-18
4.04232e-18
4.06525e-18
4.00646e-18
4.03836e-18
4.02846e-18
3.97332e-18
4.01443e-18
4.04849e-18
3.93723e-18
4.09929e-18
4.06999e-18
3.98072e-18
4.20426e-18
4.40059e-18
3.66954e-18
5.06996e-18
4.59868e-18
2.65734e-18
6.65255e-18
5.23409e-18
2.25649e-18
5.14923e-18
8.87824e-18
9.34486e-18
8.39438e-18
7.74272e-18
7.15268e-18
6.54059e-18
6.03568e-18
5.61222e-18
5.27892e-18
5.05585e-18
4.88644e-18
4.74229e-18
4.6722e-18
4.6145e-18
4.53699e-18
4.49217e-18
4.4515e-18
4.42527e-18
4.39268e-18
4.34454e-18
4.31943e-18
4.303e-18
4.29705e-18
4.26425e-18
4.23017e-18
4.22424e-18
4.20303e-18
4.1821e-18
4.17434e-18
4.15864e-18
4.14226e-18
4.12316e-18
4.09454e-18
4.10231e-18
4.10182e-18
4.06707e-18
4.07388e-18
4.0317e-18
4.0423e-18
4.06594e-18
4.00631e-18
4.03625e-18
4.03097e-18
3.9714e-18
4.01299e-18
4.04727e-18
3.9349e-18
4.09202e-18
4.06269e-18
3.97258e-18
4.19975e-18
4.32586e-18
3.74821e-18
4.83817e-18
4.52029e-18
2.92827e-18
5.81886e-18
4.63243e-18
2.69589e-18
5.00087e-18
8.13937e-18
8.77301e-18
8.12836e-18
7.57883e-18
7.01206e-18
6.44791e-18
5.97613e-18
5.56953e-18
5.25272e-18
5.03991e-18
4.87388e-18
4.7333e-18
4.66478e-18
4.60688e-18
4.5315e-18
4.48708e-18
4.44532e-18
4.42005e-18
4.38884e-18
4.34134e-18
4.31496e-18
4.29957e-18
4.29615e-18
4.26134e-18
4.2266e-18
4.22365e-18
4.20166e-18
4.18006e-18
4.173e-18
4.15801e-18
4.14221e-18
4.12174e-18
4.09321e-18
4.10133e-18
4.10203e-18
4.06727e-18
4.07227e-18
4.03142e-18
4.04247e-18
4.06664e-18
4.0062e-18
4.03435e-18
4.03353e-18
3.9698e-18
4.01163e-18
4.0467e-18
3.93265e-18
4.0861e-18
4.05712e-18
3.96469e-18
4.19996e-18
4.2553e-18
3.82407e-18
4.64125e-18
4.43248e-18
3.24078e-18
5.14481e-18
4.04611e-17
3.68778e-17
4.8791e-17
5.53973e-17
4.115e-17
2.48604e-17
1.72916e-17
1.32332e-17
1.01554e-17
8.31041e-18
7.14747e-18
6.26389e-18
5.70615e-18
5.36306e-18
5.08674e-18
4.94791e-18
4.86422e-18
4.74712e-18
4.67308e-18
4.62316e-18
4.57717e-18
4.50247e-18
4.43657e-18
4.4196e-18
4.38432e-18
4.34446e-18
4.33017e-18
4.30119e-18
4.25813e-18
4.24396e-18
4.2186e-18
4.20666e-18
4.17775e-18
4.15691e-18
4.15133e-18
4.11928e-18
4.12529e-18
4.10207e-18
4.06716e-18
4.09931e-18
4.03517e-18
4.06083e-18
4.04353e-18
4.02846e-18
4.04225e-18
4.03471e-18
3.9855e-18
4.06358e-18
4.1349e-18
3.86987e-18
4.56538e-18
4.01554e-18
4.3828e-18
5.45534e-18
4.47679e-18
5.97821e-18
1.13311e-17
6.78946e-18
1.67842e-17
4.07728e-17
4.24188e-17
3.76382e-17
4.99785e-17
5.62839e-17
4.15475e-17
2.50244e-17
1.73825e-17
1.3286e-17
1.01826e-17
8.33057e-18
7.16386e-18
6.27361e-18
5.71231e-18
5.36804e-18
5.0894e-18
4.94966e-18
4.86655e-18
4.74842e-18
4.67383e-18
4.62399e-18
4.57804e-18
4.50321e-18
4.43663e-18
4.42009e-18
4.38494e-18
4.34454e-18
4.33055e-18
4.30171e-18
4.25822e-18
4.24423e-18
4.21883e-18
4.20699e-18
4.178e-18
4.15699e-18
4.15184e-18
4.11923e-18
4.12567e-18
4.1027e-18
4.06685e-18
4.10035e-18
4.03538e-18
4.06112e-18
4.04492e-18
4.02856e-18
4.04409e-18
4.03646e-18
3.9874e-18
4.06557e-18
4.14392e-18
3.86867e-18
4.58385e-18
4.03021e-18
4.39205e-18
5.51194e-18
4.53272e-18
6.03835e-18
1.15748e-17
7.07357e-18
1.74357e-17
4.12975e-17
4.37398e-17
3.81953e-17
5.00681e-17
5.65192e-17
4.14081e-17
2.48841e-17
1.73247e-17
1.32598e-17
1.01665e-17
8.32775e-18
7.16615e-18
6.27512e-18
5.71358e-18
5.36976e-18
5.08926e-18
4.94967e-18
4.86793e-18
4.74871e-18
4.6739e-18
4.62431e-18
4.57855e-18
4.50366e-18
4.43623e-18
4.42037e-18
4.38541e-18
4.34438e-18
4.33092e-18
4.30225e-18
4.2581e-18
4.24448e-18
4.21896e-18
4.20736e-18
4.17823e-18
4.15707e-18
4.15246e-18
4.11903e-18
4.12624e-18
4.10336e-18
4.06653e-18
4.10165e-18
4.03559e-18
4.0615e-18
4.04674e-18
4.02842e-18
4.04709e-18
4.03772e-18
3.99069e-18
4.06779e-18
4.15336e-18
3.8718e-18
4.59864e-18
4.05369e-18
4.40303e-18
5.55545e-18
4.62021e-18
6.04489e-18
1.17289e-17
7.36647e-18
1.78494e-17
4.1925e-17
4.32073e-17
3.69707e-17
4.82718e-17
5.51455e-17
4.03773e-17
2.42477e-17
1.70023e-17
1.30889e-17
1.0069e-17
8.27439e-18
7.13431e-18
6.25444e-18
5.70096e-18
5.36182e-18
5.08205e-18
4.94447e-18
4.86532e-18
4.74583e-18
4.67168e-18
4.62286e-18
4.57752e-18
4.50298e-18
4.43484e-18
4.41985e-18
4.38517e-18
4.34364e-18
4.33089e-18
4.30241e-18
4.25766e-18
4.24446e-18
4.21886e-18
4.20754e-18
4.17835e-18
4.15705e-18
4.15299e-18
4.11864e-18
4.1268e-18
4.10389e-18
4.06633e-18
4.10273e-18
4.0359e-18
4.06158e-18
4.04888e-18
4.02762e-18
4.05109e-18
4.03723e-18
3.99531e-18
4.06857e-18
4.15915e-18
3.88099e-18
4.5953e-18
4.08662e-18
4.39601e-18
5.54945e-18
4.72679e-18
5.89358e-18
1.17123e-17
7.47857e-18
1.71163e-17
4.13662e-17
4.07867e-17
3.36421e-17
4.47334e-17
5.20534e-17
3.84776e-17
2.31665e-17
1.64431e-17
1.27865e-17
9.8928e-18
8.16435e-18
7.06197e-18
6.207e-18
5.67113e-18
5.34167e-18
5.0663e-18
4.93282e-18
4.8571e-18
4.73843e-18
4.6661e-18
4.6187e-18
4.57416e-18
4.50061e-18
4.4321e-18
4.41804e-18
4.38377e-18
4.34207e-18
4.33011e-18
4.30184e-18
4.2567e-18
4.24396e-18
4.21842e-18
4.20731e-18
4.17828e-18
4.15682e-18
4.15323e-18
4.11808e-18
4.12716e-18
4.10425e-18
4.06622e-18
4.1034e-18
4.0363e-18
4.06129e-18
4.05105e-18
4.02624e-18
4.0554e-18
4.035e-18
4.00047e-18
4.06705e-18
4.16053e-18
3.89322e-18
4.57228e-18
4.12306e-18
4.36739e-18
5.49341e-18
4.83519e-18
5.59242e-18
1.15771e-17
7.39153e-18
1.53465e-17
3.95054e-17
3.73983e-17
2.92513e-17
4.04273e-17
4.81765e-17
3.62006e-17
2.18937e-17
1.57653e-17
1.24154e-17
9.67109e-18
8.01731e-18
6.95942e-18
6.13931e-18
5.62739e-18
5.31154e-18
5.04384e-18
4.91587e-18
4.84381e-18
4.72676e-18
4.65712e-18
4.61169e-18
4.56834e-18
4.4965e-18
4.42804e-18
4.41489e-18
4.38108e-18
4.33962e-18
4.3284e-18
4.30036e-18
4.25518e-18
4.24285e-18
4.21754e-18
4.20655e-18
4.17797e-18
4.15628e-18
4.15304e-18
4.11736e-18
4.12719e-18
4.10446e-18
4.06615e-18
4.10351e-18
4.03672e-18
4.06057e-18
4.05306e-18
4.0246e-18
4.05909e-18
4.0318e-18
4.00484e-18
4.06348e-18
4.15788e-18
3.90466e-18
4.53647e-18
4.15482e-18
4.32515e-18
5.40236e-18
4.93045e-18
5.22683e-18
1.13723e-17
7.19137e-18
1.32542e-17
3.71832e-17
3.38734e-17
2.48945e-17
3.61664e-17
4.41732e-17
3.38643e-17
2.06023e-17
1.50642e-17
1.20211e-17
9.43227e-18
7.85335e-18
6.84272e-18
6.0615e-18
5.57629e-18
5.27618e-18
5.01826e-18
4.89616e-18
4.82731e-18
4.71226e-18
4.64567e-18
4.60242e-18
4.56051e-18
4.49101e-18
4.423e-18
4.41064e-18
4.37734e-18
4.33645e-18
4.32582e-18
4.29796e-18
4.25319e-18
4.24114e-18
4.21628e-18
4.20528e-18
4.17739e-18
4.15545e-18
4.15234e-18
4.1165e-18
4.12679e-18
4.10451e-18
4.06606e-18
4.10305e-18
4.03705e-18
4.05949e-18
4.05461e-18
4.02293e-18
4.06166e-18
4.02828e-18
4.0078e-18
4.05859e-18
4.15235e-18
3.91407e-18
4.49485e-18
4.17831e-18
4.27988e-18
5.29305e-18
5.00303e-18
4.85897e-18
1.11073e-17
6.90313e-18
1.1319e-17
3.4988e-17
3.04811e-17
2.09625e-17
3.22512e-17
4.03286e-17
3.15907e-17
1.93643e-17
1.43732e-17
1.16244e-17
9.19177e-18
7.68797e-18
6.72429e-18
5.9822e-18
5.52356e-18
5.23932e-18
4.992e-18
4.8757e-18
4.80951e-18
4.69655e-18
4.63297e-18
4.59176e-18
4.55139e-18
4.4846e-18
4.4174e-18
4.40567e-18
4.37292e-18
4.33287e-18
4.32256e-18
4.29481e-18
4.25086e-18
4.23893e-18
4.21471e-18
4.2036e-18
4.17657e-18
4.15442e-18
4.15116e-18
4.11551e-18
4.12598e-18
4.1044e-18
4.06596e-18
4.10206e-18
4.03724e-18
4.05814e-18
4.05573e-18
4.0213e-18
4.06317e-18
4.02485e-18
4.00939e-18
4.05325e-18
4.14498e-18
3.92147e-18
4.45203e-18
4.19421e-18
4.23708e-18
5.17774e-18
5.05333e-18
4.51637e-18
1.07878e-17
6.55213e-18
9.64511e-18
3.30509e-17
2.73326e-17
1.75965e-17
2.87149e-17
3.67342e-17
2.9392e-17
1.81932e-17
1.37052e-17
1.12334e-17
8.9566e-18
7.52819e-18
6.61074e-18
5.90642e-18
5.47263e-18
5.20324e-18
4.96642e-18
4.85562e-18
4.79158e-18
4.68081e-18
4.61999e-18
4.5805e-18
4.5416e-18
4.47772e-18
4.41156e-18
4.40025e-18
4.36817e-18
4.32916e-18
4.31887e-18
4.29115e-18
4.24835e-18
4.23639e-18
4.21292e-18
4.20166e-18
4.17554e-18
4.15329e-18
4.14959e-18
4.1144e-18
4.12485e-18
4.10417e-18
4.06586e-18
4.10068e-18
4.03727e-18
4.05666e-18
4.05651e-18
4.01972e-18
4.06384e-18
4.02176e-18
4.00982e-18
4.04809e-18
4.13659e-18
3.92742e-18
4.41071e-18
4.20394e-18
4.19884e-18
5.06463e-18
5.08414e-18
4.21086e-18
1.04408e-17
6.18473e-18
8.23355e-18
3.13517e-17
2.4511e-17
1.482e-17
2.55271e-17
3.34095e-17
2.72751e-17
1.70915e-17
1.30647e-17
1.08519e-17
8.72978e-18
7.37737e-18
6.50492e-18
5.83622e-18
5.42505e-18
5.16901e-18
4.94223e-18
4.83652e-18
4.7742e-18
4.66568e-18
4.60732e-18
4.56917e-18
4.53162e-18
4.47069e-18
4.4057e-18
4.39458e-18
4.3633e-18
4.32552e-18
4.31493e-18
4.28717e-18
4.24579e-18
4.23367e-18
4.21099e-18
4.19958e-18
4.17438e-18
4.15212e-18
4.14778e-18
4.1132e-18
4.1235e-18
4.10386e-18
4.06579e-18
4.09903e-18
4.03715e-18
4.05514e-18
4.05712e-18
4.01817e-18
4.06387e-18
4.01915e-18
4.00927e-18
4.04341e-18
4.12768e-18
3.93231e-18
4.37193e-18
4.20839e-18
4.16595e-18
4.95706e-18
5.09822e-18
3.95245e-18
1.00835e-17
5.84627e-18
7.06964e-18
2.97981e-17
2.20559e-17
1.25658e-17
2.26617e-17
3.03985e-17
2.52449e-17
1.60611e-17
1.24556e-17
1.04819e-17
8.51241e-18
7.23642e-18
6.40758e-18
5.77217e-18
5.38136e-18
5.13714e-18
4.91974e-18
4.8186e-18
4.75768e-18
4.65145e-18
4.59523e-18
4.5581e-18
4.52172e-18
4.46369e-18
4.39995e-18
4.38875e-18
4.35842e-18
4.32207e-18
4.31088e-18
4.28301e-18
4.24329e-18
4.23087e-18
4.20897e-18
4.19744e-18
4.17312e-18
4.15096e-18
4.14584e-18
4.11193e-18
4.122e-18
4.10351e-18
4.06574e-18
4.09723e-18
4.0369e-18
4.05363e-18
4.05764e-18
4.01664e-18
4.06338e-18
4.0171e-18
4.00791e-18
4.03929e-18
4.11861e-18
3.93639e-18
4.33605e-18
4.20867e-18
4.13807e-18
4.85562e-18
5.09846e-18
3.74142e-18
9.71711e-18
5.56073e-18
6.12003e-18
2.82949e-17
1.99456e-17
1.07001e-17
2.00891e-17
2.76768e-17
2.33154e-17
1.51031e-17
1.18808e-17
1.01247e-17
8.30506e-18
7.10511e-18
6.31843e-18
5.71406e-18
5.34158e-18
5.10774e-18
4.89902e-18
4.80193e-18
4.74213e-18
4.63819e-18
4.58385e-18
4.54743e-18
4.51209e-18
4.45684e-18
4.3944e-18
4.38287e-18
4.35359e-18
4.31886e-18
4.3068e-18
4.27877e-18
4.24093e-18
4.22809e-18
4.2069e-18
4.19529e-18
4.1718e-18
4.14983e-18
4.14384e-18
4.1106e-18
4.1204e-18
4.10316e-18
4.06572e-18
4.09537e-18
4.03656e-18
4.05217e-18
4.05816e-18
4.01516e-18
4.06243e-18
4.01562e-18
4.00587e-18
4.03572e-18
4.10963e-18
3.93977e-18
4.30314e-18
4.20524e-18
4.11444e-18
4.7603e-18
5.08687e-18
3.57518e-18
9.33517e-18
5.33792e-18
5.3341e-18
2.6696e-17
1.81096e-17
9.07174e-18
1.7776e-17
2.52128e-17
2.15006e-17
1.42163e-17
1.1342e-17
9.7815e-18
8.10729e-18
6.98269e-18
6.23667e-18
5.66134e-18
5.30547e-18
5.08072e-18
4.87998e-18
4.78646e-18
4.72754e-18
4.6259e-18
4.57318e-18
4.53723e-18
4.5028e-18
4.45019e-18
4.38908e-18
4.37698e-18
4.34883e-18
4.31591e-18
4.30275e-18
4.2745e-18
4.23872e-18
4.22538e-18
4.20479e-18
4.19318e-18
4.17045e-18
4.14872e-18
4.14183e-18
4.10924e-18
4.11875e-18
4.10283e-18
4.06571e-18
4.09347e-18
4.03615e-18
4.05076e-18
4.05871e-18
4.01374e-18
4.06108e-18
4.01472e-18
4.00329e-18
4.03262e-18
4.10093e-18
3.94249e-18
4.27306e-18
4.19843e-18
4.09428e-18
4.67112e-18
5.06408e-18
3.45061e-18
8.934e-18
5.17414e-18
4.66356e-18
2.49e-17
1.64749e-17
7.57496e-18
1.5692e-17
2.29694e-17
1.98089e-17
1.33988e-17
1.08406e-17
9.45347e-18
7.91895e-18
6.86828e-18
6.16137e-18
5.61338e-18
5.2727e-18
5.05591e-18
4.86248e-18
4.77212e-18
4.71389e-18
4.61455e-18
4.56319e-18
4.52751e-18
4.4939e-18
4.44378e-18
4.38402e-18
4.37115e-18
4.34415e-18
4.31322e-18
4.29876e-18
4.27023e-18
4.2367e-18
4.22277e-18
4.20268e-18
4.19111e-18
4.1691e-18
4.14767e-18
4.13983e-18
4.10786e-18
4.11706e-18
4.10254e-18
4.06573e-18
4.09158e-18
4.03571e-18
4.04942e-18
4.0593e-18
4.01242e-18
4.05939e-18
4.01438e-18
4.00031e-18
4.02992e-18
4.09264e-18
3.94455e-18
4.24571e-18
4.18861e-18
4.07694e-18
4.58821e-18
5.03021e-18
3.36432e-18
8.513e-18
5.06003e-18
4.07552e-18
2.28827e-17
1.49763e-17
6.17039e-18
1.38197e-17
2.09146e-17
1.82474e-17
1.26482e-17
1.03776e-17
9.14215e-18
7.74011e-18
6.76108e-18
6.09161e-18
5.56953e-18
5.24291e-18
5.0331e-18
4.84636e-18
4.7588e-18
4.70109e-18
4.60405e-18
4.55385e-18
4.51827e-18
4.48541e-18
4.43761e-18
4.37922e-18
4.3654e-18
4.33956e-18
4.31077e-18
4.29484e-18
4.26599e-18
4.23486e-18
4.22028e-18
4.20058e-18
4.18911e-18
4.16777e-18
4.14668e-18
4.13786e-18
4.10646e-18
4.11535e-18
4.10227e-18
4.06577e-18
4.08969e-18
4.03526e-18
4.04816e-18
4.05993e-18
4.01122e-18
4.05741e-18
4.01455e-18
3.99705e-18
4.02756e-18
4.08486e-18
3.94593e-18
4.22087e-18
4.17629e-18
4.06178e-18
4.51207e-18
4.98543e-18
3.31267e-18
8.07728e-18
4.98333e-18
3.55614e-18
2.06908e-17
1.35729e-17
4.87604e-18
1.21431e-17
1.90253e-17
1.68172e-17
1.19625e-17
9.95339e-18
8.84885e-18
7.57086e-18
6.66043e-18
6.02657e-18
5.52917e-18
5.2157e-18
5.01206e-18
4.83147e-18
4.74642e-18
4.68908e-18
4.59432e-18
4.54511e-18
4.50946e-18
4.47731e-18
4.43169e-18
4.37468e-18
4.35977e-18
4.33508e-18
4.30855e-18
4.29101e-18
4.26179e-18
4.23318e-18
4.21793e-18
4.1985e-18
4.18719e-18
4.16648e-18
4.14577e-18
4.13595e-18
4.10506e-18
4.11364e-18
4.10203e-18
4.06581e-18
4.08783e-18
4.03481e-18
4.04699e-18
4.0606e-18
4.01015e-18
4.0552e-18
4.01519e-18