/*--------------------------------*- C++ -*----------------------------------*\
| =========                 |                                                 |
| \\      /  F ield         | OpenFOAM: The Open Source CFD Toolbox           |
|  \\    /   O peration     | Version:  2312                                  |
|   \\  /    A nd           | Website:  www.openfoam.com                      |
|    \\/     M anipulation  |                                                 |
\*---------------------------------------------------------------------------*/
FoamFile
{
    version     2.0;
    format      ascii;
    arch        "LSB;label=32;scalar=64";
    class       volScalarField;
    location    "40";
    object      pPrime2Mean;
}
// * * * * * * * * * * * * * * * * * * * * * * * * * * * * * * * * * * * * * //

dimensions      [0 4 -4 0 0 0 0];

internalField   nonuniform List<scalar> 
144000
(
2.37395e-17
2.97149e-17
2.62705e-17
2.52732e-17
1.75029e-17
1.04552e-17
6.19997e-18
3.79359e-18
2.42019e-18
1.70492e-18
1.35607e-18
1.12484e-18
9.24973e-19
7.70787e-19
6.6301e-19
5.80795e-19
5.11617e-19
4.55897e-19
4.1027e-19
3.66863e-19
3.24647e-19
2.85629e-19
2.47884e-19
2.14911e-19
1.83043e-19
1.57098e-19
1.31801e-19
1.12747e-19
9.27088e-20
7.77599e-20
6.38429e-20
4.73052e-20
3.92176e-20
2.58575e-20
1.95117e-20
1.45768e-20
7.37204e-21
1.09713e-20
3.11698e-21
7.1152e-21
7.808e-21
1.9202e-21
1.48437e-20
4.95574e-21
1.50819e-20
2.33913e-20
1.56885e-20
4.53356e-20
4.28217e-20
6.59031e-20
1.16922e-19
1.45509e-19
2.57037e-19
4.36601e-19
6.87397e-19
1.25038e-18
2.33939e-18
4.3627e-18
8.27165e-18
1.46774e-17
2.51143e-17
3.03283e-17
2.68617e-17
2.57979e-17
1.76647e-17
1.05216e-17
6.2324e-18
3.81131e-18
2.43124e-18
1.71286e-18
1.36247e-18
1.12962e-18
9.28028e-19
7.72648e-19
6.64294e-19
5.81764e-19
5.1233e-19
4.56444e-19
4.10775e-19
3.67362e-19
3.25085e-19
2.86048e-19
2.48252e-19
2.15261e-19
1.83345e-19
1.57395e-19
1.32051e-19
1.12996e-19
9.29282e-20
7.79408e-20
6.40843e-20
4.74213e-20
3.93793e-20
2.59788e-20
1.95628e-20
1.47129e-20
7.36464e-21
1.11054e-20
3.16938e-21
7.14027e-21
8.04173e-21
1.88448e-21
1.51446e-20
5.1753e-21
1.53046e-20
2.41249e-20
1.61752e-20
4.65275e-20
4.45558e-20
6.81696e-20
1.21344e-19
1.52046e-19
2.68325e-19
4.56473e-19
7.22477e-19
1.31067e-18
2.47454e-18
4.50038e-18
8.87724e-18
1.48858e-17
2.50485e-17
3.00079e-17
2.6163e-17
2.52194e-17
1.71838e-17
1.02509e-17
6.08479e-18
3.7334e-18
2.39226e-18
1.69361e-18
1.35254e-18
1.12344e-18
9.23377e-19
7.69089e-19
6.61703e-19
5.79901e-19
5.10962e-19
4.5545e-19
4.10123e-19
3.67018e-19
3.24906e-19
2.86015e-19
2.4826e-19
2.15361e-19
1.83452e-19
1.57568e-19
1.32199e-19
1.13184e-19
9.30943e-20
7.80984e-20
6.43209e-20
4.75335e-20
3.95685e-20
2.61005e-20
1.96335e-20
1.4862e-20
7.36256e-21
1.12712e-20
3.22364e-21
7.19095e-21
8.29618e-21
1.86858e-21
1.54883e-20
5.40966e-21
1.5591e-20
2.49243e-20
1.6748e-20
4.78675e-20
4.63707e-20
7.05451e-20
1.25664e-19
1.57723e-19
2.76789e-19
4.68803e-19
7.38223e-19
1.32564e-18
2.48304e-18
4.4649e-18
8.9374e-18
1.46693e-17
2.26393e-17
2.73179e-17
2.38387e-17
2.31793e-17
1.59579e-17
9.56863e-18
5.70664e-18
3.52489e-18
2.27789e-18
1.62978e-18
1.31348e-18
1.09666e-18
9.03895e-19
7.54837e-19
6.51159e-19
5.71942e-19
5.0493e-19
4.50855e-19
4.06608e-19
3.64439e-19
3.23028e-19
2.84675e-19
2.47262e-19
2.14682e-19
1.82965e-19
1.57276e-19
1.32004e-19
1.13089e-19
9.30433e-20
7.80951e-20
6.44367e-20
4.75815e-20
3.9719e-20
2.62003e-20
1.96911e-20
1.50026e-20
7.36262e-21
1.14203e-20
3.27974e-21
7.22161e-21
8.52529e-21
1.8426e-21
1.57615e-20
5.59394e-21
1.57523e-20
2.55721e-20
1.7095e-20
4.8704e-20
4.7442e-20
7.14059e-20
1.27251e-19
1.58209e-19
2.75392e-19
4.61725e-19
7.15252e-19
1.26449e-18
2.31344e-18
4.05468e-18
8.06573e-18
1.31208e-17
1.86633e-17
2.3102e-17
2.0569e-17
2.03104e-17
1.42946e-17
8.63027e-18
5.18573e-18
3.22739e-18
2.10652e-18
1.52789e-18
1.2469e-18
1.04937e-18
8.69318e-19
7.29466e-19
6.32075e-19
5.57266e-19
4.93597e-19
4.41982e-19
3.99552e-19
3.58961e-19
3.18843e-19
2.81509e-19
2.44817e-19
2.12859e-19
1.81596e-19
1.56272e-19
1.31272e-19
1.12528e-19
9.26442e-20
7.78023e-20
6.43345e-20
4.7496e-20
3.97765e-20
2.62509e-20
1.97054e-20
1.51314e-20
7.35971e-21
1.15364e-20
3.3412e-21
7.20676e-21
8.72711e-21
1.77848e-21
1.59296e-20
5.71451e-21
1.56876e-20
2.6005e-20
1.70139e-20
4.87741e-20
4.75014e-20
7.00007e-20
1.25463e-19
1.52612e-19
2.62633e-19
4.35524e-19
6.5894e-19
1.14219e-18
2.04732e-18
3.45741e-18
6.66245e-18
1.09244e-17
1.49259e-17
1.90459e-17
1.73958e-17
1.74728e-17
1.2644e-17
7.69584e-18
4.64522e-18
2.90838e-18
1.91702e-18
1.40969e-18
1.16629e-18
9.9035e-19
8.25609e-19
6.97004e-19
6.07264e-19
5.3784e-19
4.78341e-19
4.29768e-19
3.89559e-19
3.50953e-19
3.12533e-19
2.76598e-19
2.40956e-19
2.09879e-19
1.79322e-19
1.54517e-19
1.29959e-19
1.11446e-19
9.18553e-20
7.71538e-20
6.39649e-20
4.72335e-20
3.96965e-20
2.62353e-20
1.96497e-20
1.52452e-20
7.33975e-21
1.16111e-20
3.4129e-21
7.12834e-21
8.91138e-21
1.65571e-21
1.59717e-20
5.7835e-21
1.53389e-20
2.62201e-20
1.64986e-20
4.80599e-20
4.67226e-20
6.67435e-20
1.21136e-19
1.43243e-19
2.43673e-19
4.00608e-19
5.90743e-19
1.00699e-18
1.77549e-18
2.89073e-18
5.3849e-18
8.85719e-18
1.18978e-17
1.56537e-17
1.46903e-17
1.4973e-17
1.11754e-17
6.85363e-18
4.14644e-18
2.60811e-18
1.73342e-18
1.29183e-18
1.08316e-18
9.27924e-19
7.7881e-19
6.61979e-19
5.8012e-19
5.16333e-19
4.61176e-19
4.158e-19
3.779e-19
3.41393e-19
3.04815e-19
2.70449e-19
2.36055e-19
2.06011e-19
1.76345e-19
1.52162e-19
1.28169e-19
1.09925e-19
9.07337e-20
7.61763e-20
6.33438e-20
4.67996e-20
3.9462e-20
2.61553e-20
1.95124e-20
1.53398e-20
7.30188e-21
1.16358e-20
3.49553e-21
6.9831e-21
9.07768e-21
1.48116e-21
1.589e-20
5.82469e-21
1.47554e-20
2.62573e-20
1.57021e-20
4.67468e-20
4.5497e-20
6.24778e-20
1.1554e-19
1.32598e-19
2.22729e-19
3.64326e-19
5.23539e-19
8.79264e-19
1.52977e-18
2.41508e-18
4.35995e-18
7.18136e-18
9.52265e-18
1.28563e-17
1.24127e-17
1.28067e-17
9.88121e-18
6.11304e-18
3.70294e-18
2.33685e-18
1.56438e-18
1.18123e-18
1.00325e-18
8.67106e-19
7.3281e-19
6.27114e-19
5.52844e-19
4.94445e-19
4.43536e-19
4.01288e-19
3.65617e-19
3.31177e-19
2.96424e-19
2.63637e-19
2.3057e-19
2.01611e-19
1.72943e-19
1.49425e-19
1.26072e-19
1.08116e-19
8.93881e-20
7.49617e-20
6.25319e-20
4.6239e-20
3.9093e-20
2.60252e-20
1.93091e-20
1.5411e-20
7.25281e-21
1.1614e-20
3.58672e-21
6.78675e-21
9.22789e-21
1.27805e-21
1.57073e-20
5.866e-21
1.40207e-20
2.61734e-20
1.47852e-20
4.50964e-20
4.41262e-20
5.78757e-20
1.09532e-19
1.22067e-19
2.02122e-19
3.3016e-19
4.61792e-19
7.64896e-19
1.31339e-18
2.01588e-18
3.53753e-18
5.82631e-18
7.62894e-18
1.05086e-17
1.04605e-17
1.09153e-17
8.7269e-18
5.46131e-18
3.31273e-18
2.0964e-18
1.41283e-18
1.08024e-18
9.2909e-19
8.09896e-19
6.89177e-19
5.9381e-19
5.26483e-19
4.73084e-19
4.26189e-19
3.86902e-19
3.53351e-19
3.20858e-19
2.87857e-19
2.56583e-19
2.24855e-19
1.96967e-19
1.69342e-19
1.46494e-19
1.23816e-19
1.06157e-19
8.79211e-20
7.3613e-20
6.16005e-20
4.56057e-20
3.86296e-20
2.58639e-20
1.90663e-20
1.5462e-20
7.20147e-21
1.15593e-20
3.68519e-21
6.55915e-21
9.36759e-21
1.06676e-21
1.54573e-20
5.9269e-21
1.32075e-20
2.60171e-20
1.38513e-20
4.32762e-20
4.27753e-20
5.3297e-20
1.03572e-19
1.12276e-19
1.82782e-19
2.99129e-19
4.07119e-19
6.65187e-19
1.12715e-18
1.68286e-18
2.87056e-18
4.71308e-18
6.11833e-18
8.54721e-18
8.78891e-18
9.27401e-18
7.69582e-18
4.88879e-18
2.97165e-18
1.88514e-18
1.27826e-18
9.89169e-19
8.61178e-19
7.56929e-19
6.48513e-19
5.62532e-19
5.0148e-19
4.52652e-19
4.09491e-19
3.72981e-19
3.41398e-19
3.10725e-19
2.79387e-19
2.49542e-19
2.19122e-19
1.92265e-19
1.65688e-19
1.43495e-19
1.21498e-19
1.04143e-19
8.6405e-20
7.22099e-20
6.06082e-20
4.49417e-20
3.81121e-20
2.5688e-20
1.88077e-20
1.55001e-20
7.15486e-21
1.14849e-20
3.7915e-21
6.31672e-21
9.50288e-21
8.60936e-22
1.51668e-20
6.01674e-21
1.23613e-20
2.58168e-20
1.29574e-20
4.13797e-20
4.15042e-20
4.88925e-20
9.78075e-20
1.03379e-19
1.65001e-19
2.71366e-19
3.59145e-19
5.79401e-19
9.69197e-19
1.40925e-18
2.33484e-18
3.81146e-18
4.91848e-18
6.93227e-18
7.37055e-18
7.86378e-18
6.7781e-18
4.38654e-18
2.67458e-18
1.70026e-18
1.15931e-18
9.07482e-19
7.99362e-19
7.08248e-19
6.10893e-19
5.33387e-19
4.77979e-19
4.33301e-19
3.93593e-19
3.59653e-19
3.29895e-19
3.00913e-19
2.71153e-19
2.42647e-19
2.1349e-19
1.87613e-19
1.62064e-19
1.40503e-19
1.19177e-19
1.0213e-19
8.48844e-20
7.08033e-20
5.95949e-20
4.42743e-20
3.75699e-20
2.55089e-20
1.85484e-20
1.55315e-20
7.117e-21
1.13998e-20
3.90599e-21
6.07072e-21
9.64072e-21
6.69763e-22
1.48496e-20
6.1377e-21
1.15088e-20
2.55863e-20
1.21277e-20
3.94535e-20
4.03267e-20
4.47452e-20
9.22807e-20
9.53658e-20
1.48718e-19
2.46561e-19
3.17221e-19
5.05568e-19
8.35244e-19
1.1853e-18
1.90746e-18
3.09367e-18
3.9635e-18
5.61267e-18
6.16921e-18
6.65711e-18
5.96108e-18
3.94389e-18
2.41534e-18
1.53842e-18
1.05423e-18
8.34286e-19
7.4317e-19
6.6358e-19
5.7617e-19
5.06313e-19
4.55978e-19
4.15058e-19
3.78524e-19
3.46957e-19
3.18891e-19
2.91482e-19
2.63215e-19
2.35964e-19
2.08016e-19
1.8307e-19
1.58515e-19
1.37562e-19
1.16887e-19
1.0015e-19
8.3385e-20
6.94226e-20
5.8585e-20
4.36192e-20
3.7022e-20
2.53333e-20
1.82968e-20
1.55597e-20
7.08973e-21
1.13096e-20
4.02801e-21
5.82786e-21
9.78623e-21
4.98529e-22
1.45233e-20
6.29015e-21
1.06636e-20
2.53294e-20
1.13731e-20
3.75233e-20
3.92424e-20
4.08702e-20
8.70049e-20
8.81872e-20
1.33856e-19
2.2438e-19
2.80478e-19
4.41766e-19
7.21089e-19
1.00039e-18
1.56562e-18
2.52362e-18
3.20122e-18
4.53732e-18
5.15029e-18
5.62548e-18
5.23246e-18
3.55087e-18
2.18813e-18
1.39647e-18
9.61333e-19
7.68668e-19
6.92066e-19
6.22583e-19
5.44126e-19
4.81184e-19
4.35409e-19
3.97883e-19
3.64266e-19
3.34889e-19
3.08397e-19
2.82448e-19
2.55591e-19
2.2952e-19
2.02726e-19
1.78662e-19
1.55064e-19
1.34694e-19
1.14646e-19
9.82206e-20
8.19209e-20
6.80835e-20
5.75925e-20
4.29852e-20
3.64789e-20
2.5165e-20
1.80568e-20
1.55865e-20
7.07372e-21
1.12176e-20
4.15726e-21
5.59087e-21
9.94686e-21
3.46631e-22
1.42103e-20
6.47306e-21
9.83382e-21
2.50471e-20
1.06982e-20
3.56056e-20
3.82495e-20
3.72761e-20
8.19785e-20
8.17846e-20
1.20301e-19
2.04564e-19
2.48386e-19
3.86588e-19
6.23845e-19
8.46926e-19
1.29175e-18
2.0698e-18
2.59363e-18
3.66453e-18
4.28694e-18
4.74497e-18
4.58294e-18
3.19986e-18
1.98826e-18
1.27177e-18
8.79152e-19
7.09801e-19
6.45544e-19
5.84914e-19
5.14534e-19
4.57852e-19
4.16177e-19
3.81717e-19
3.50781e-19
3.23429e-19
2.984e-19
2.73807e-19
2.48283e-19
2.23322e-19
1.97626e-19
1.74403e-19
1.51719e-19
1.3191e-19
1.12464e-19
9.63502e-20
8.04989e-20
6.67936e-20
5.66251e-20
4.23764e-20
3.59466e-20
2.50055e-20
1.7831e-20
1.56121e-20
7.06995e-21
1.11239e-20
4.29571e-21
5.36005e-21
1.01362e-20
2.11395e-22
1.39372e-20
6.68572e-21
9.03026e-21
2.47439e-20
1.01053e-20
3.37122e-20
3.73392e-20
3.39597e-20
7.7194e-20
7.6083e-20
1.08015e-19
1.86832e-19
2.20429e-19
3.3887e-19
5.41207e-19
7.19381e-19
1.07292e-18
1.70827e-18
2.11082e-18
2.95951e-18
3.55747e-18
3.99515e-18
4.00512e-18
2.88502e-18
1.81186e-18
1.1621e-18
8.06402e-19
6.56944e-19
6.03138e-19
5.50253e-19
4.8717e-19
4.36169e-19
3.98183e-19
3.66492e-19
3.38025e-19
3.12545e-19
2.88879e-19
2.65547e-19
2.4128e-19
2.17366e-19
1.92718e-19
1.70294e-19
1.48483e-19
1.29214e-19
1.10345e-19
9.45422e-20
7.91218e-20
6.55556e-20
5.56867e-20
4.17944e-20
3.54293e-20
2.48542e-20
1.76217e-20
1.56348e-20
7.08094e-21
1.10263e-20
4.44543e-21
5.14161e-21
1.03946e-20
8.01564e-23
1.37439e-20
6.92741e-21
8.26599e-21
2.44285e-20
9.5973e-21
3.18555e-20
3.65049e-20
3.09248e-20
7.26437e-20
7.10189e-20
9.68738e-20
1.70927e-19
1.96117e-19
2.97529e-19
4.70999e-19
6.13247e-19
8.98487e-19
1.4201e-18
1.72846e-18
2.3924e-18
2.94296e-18
3.35774e-18
3.49233e-18
2.60151e-18
1.65557e-18
1.06548e-18
7.41943e-19
6.09429e-19
5.64426e-19
5.18309e-19
4.61833e-19
4.15998e-19
3.81331e-19
3.52143e-19
3.2595e-19
3.02206e-19
2.79808e-19
2.57649e-19
2.3457e-19
2.11646e-19
1.87994e-19
1.66334e-19
1.45356e-19
1.26608e-19
1.08291e-19
9.27975e-20
7.77903e-20
6.43694e-20
5.4779e-20
4.12389e-20
3.49291e-20
2.47107e-20
1.74299e-20
1.5654e-20
7.1066e-21
1.09258e-20
4.60369e-21
4.93641e-21
1.09018e-20
1.58962e-23
1.38076e-20
7.18229e-21
7.55211e-21
2.40999e-20
9.17475e-21
3.00458e-20
3.57408e-20
2.81623e-20
6.83269e-20
6.65367e-20
8.68012e-20
1.56644e-19
1.75005e-19
2.61613e-19
4.11342e-19
5.24764e-19
7.59533e-19
1.19004e-18
1.4266e-18
1.93799e-18
2.42691e-18
2.8166e-18
3.03828e-18
2.34531e-18
1.51646e-18
9.80162e-19
6.84758e-19
5.66667e-19
5.29034e-19
4.8882e-19
4.38336e-19
3.97209e-19
3.65533e-19
3.38605e-19
3.14513e-19
2.92379e-19
2.71162e-19
2.50095e-19
2.28139e-19
2.06152e-19
1.83449e-19
1.62518e-19
1.42333e-19
1.2409e-19
1.06301e-19
9.11152e-20
7.65033e-20
6.32342e-20
5.39016e-20
4.07096e-20
3.44465e-20
2.45755e-20
1.72545e-20
1.56719e-20
7.14397e-21
1.08245e-20
4.76939e-21
4.73293e-21
1.15291e-20
8.91525e-29
1.39487e-20
7.43585e-21
6.86644e-21
2.37541e-20
8.83263e-21
2.82921e-20
3.50395e-20
2.56644e-20
6.42383e-20
6.25798e-20
7.77234e-20
1.43804e-19
1.5671e-19
2.30422e-19
3.60643e-19
4.50952e-19
6.48952e-19
1.00612e-18
1.18906e-18
1.57549e-18
1.9951e-18
2.3578e-18
2.63722e-18
2.11318e-18
1.39209e-18
9.04654e-19
6.33965e-19
5.28141e-19
4.96632e-19
4.61557e-19
4.16517e-19
3.79689e-19
3.50706e-19
3.25823e-19
3.03671e-19
2.83032e-19
2.62914e-19
2.42867e-19
2.21973e-19
2.00875e-19
1.79074e-19
1.58841e-19
1.39413e-19
1.21657e-19
1.04373e-19
8.94941e-20
7.52593e-20
6.2148e-20
5.30541e-20
4.02061e-20
3.39817e-20
2.44488e-20
1.7095e-20
1.56895e-20
7.19345e-21
1.07217e-20
4.94584e-21
4.53472e-21
1.1022e-20
1.54556e-23
1.31401e-20
7.67618e-21
6.20958e-21
2.33897e-20
8.56531e-21
2.65989e-20
3.43949e-20
2.34218e-20
6.03739e-20
5.90962e-20
6.95709e-20
1.3225e-19
1.40892e-19
2.03305e-19
3.1757e-19
3.89411e-19
5.61121e-19
8.59037e-19
1.00242e-18
1.28763e-18
1.6352e-18
1.96935e-18
2.28384e-18
1.90252e-18
1.28042e-18
8.37669e-19
5.88794e-19
4.93396e-19
4.66928e-19
4.36313e-19
3.96228e-19
3.63331e-19
3.36775e-19
3.13743e-19
2.93387e-19
2.74137e-19
2.55042e-19
2.35947e-19
2.16059e-19
1.95805e-19
1.74861e-19
1.55297e-19
1.3659e-19
1.19308e-19
1.02508e-19
8.79324e-20
7.40567e-20
6.11083e-20
5.22358e-20
3.97266e-20
3.35356e-20
2.43293e-20
1.69521e-20
1.57062e-20
7.25391e-21
1.06212e-20
5.12917e-21
4.35113e-21
1.06306e-20
5.57873e-23
1.2313e-20
7.91487e-21
5.5911e-21
2.30163e-20
8.3707e-21
2.49754e-20
3.38024e-20
2.14245e-20
5.67291e-20
5.60381e-20
6.22735e-20
1.21838e-19
1.27249e-19
1.79718e-19
2.81005e-19
3.38166e-19
4.91466e-19
7.41423e-19
8.56518e-19
1.06018e-18
1.33653e-18
1.641e-18
1.97324e-18
1.71118e-18
1.17975e-18
7.78092e-19
5.48572e-19
4.62029e-19
4.39665e-19
4.12907e-19
3.77338e-19
3.48043e-19
3.23671e-19
3.02316e-19
2.83626e-19
2.65669e-19
2.47524e-19
2.2932e-19
2.10384e-19
1.90933e-19
1.70803e-19
1.51881e-19
1.33861e-19
1.17039e-19
1.00703e-19
8.64282e-20
7.28939e-20
6.01124e-20
5.14464e-20
3.92693e-20
3.31094e-20
2.42153e-20
1.68274e-20
1.57203e-20
7.32677e-21
1.05202e-20
5.3174e-21
4.18464e-21
1.05057e-20
1.38614e-22
1.17463e-20
8.15938e-21
5.02412e-21
2.2645e-20
8.24619e-21
2.34295e-20
3.32579e-20
1.96605e-20
5.33043e-20
5.33596e-20
5.5768e-20
1.12459e-19
1.1551e-19
1.59195e-19
2.49962e-19
2.95488e-19
4.36315e-19
6.47422e-19
7.42554e-19
8.8155e-19
1.08992e-18
1.36401e-18
1.70104e-18
1.53739e-18
1.08866e-18
7.24961e-19
5.12704e-19
4.33685e-19
4.14615e-19
3.91178e-19
3.5973e-19
3.3374e-19
3.11334e-19
2.91499e-19
2.74357e-19
2.57602e-19
2.40341e-19
2.2297e-19
2.04937e-19
1.86251e-19
1.66893e-19
1.48587e-19
1.31223e-19
1.14848e-19
9.89573e-20
8.498e-20
7.17691e-20
5.91581e-20
5.06847e-20
3.88335e-20
3.27031e-20
2.41066e-20
1.67204e-20
1.57324e-20
7.41211e-21
1.04193e-20
5.51189e-21
4.03565e-21
1.04491e-20
2.27338e-22
1.12767e-20
8.41018e-21
4.51742e-21
2.22738e-20
8.18691e-21
2.19661e-20
3.27567e-20
1.81159e-20
5.00971e-20
5.10191e-20
4.99921e-20
1.04005e-19
1.05428e-19
1.4133e-19
2.236e-19
2.60147e-19
3.92766e-19
5.72534e-19
6.5371e-19
7.42368e-19
8.87437e-19
1.13091e-18
1.46305e-18
1.37962e-18
1.00597e-18
6.7744e-19
4.80665e-19
4.08047e-19
3.91573e-19
3.70981e-19
3.43299e-19
3.20344e-19
2.99705e-19
2.8125e-19
2.65551e-19
2.49915e-19
2.33473e-19
2.16883e-19
1.99707e-19
1.81751e-19
1.63125e-19
1.4541e-19
1.28671e-19
1.12733e-19
9.72696e-20
8.35861e-20
7.06807e-20
5.82432e-20
4.99497e-20
3.84182e-20
3.23162e-20
2.40043e-20
1.66295e-20
1.57454e-20
7.50677e-21
1.0323e-20
5.7115e-21
3.90364e-21
1.04307e-20
3.35226e-22
1.08681e-20
8.6627e-21
4.06553e-21
2.1898e-20
8.18274e-21
2.05885e-20
3.22932e-20
1.67788e-20
4.71019e-20
4.89788e-20
4.48935e-20
9.63841e-20
9.67944e-20
1.25783e-19
2.01217e-19
2.30907e-19
3.58499e-19
5.13245e-19
5.84477e-19
6.34981e-19
7.22298e-19
9.35285e-19
1.25548e-18
1.23659e-18
9.30722e-19
6.34806e-19
4.51991e-19
3.84831e-19
3.70354e-19
3.52189e-19
3.27951e-19
3.07786e-19
2.88733e-19
2.71533e-19
2.57182e-19
2.42588e-19
2.26904e-19
2.11045e-19
1.94684e-19
1.77426e-19
1.59492e-19
1.42346e-19
1.26203e-19
1.10691e-19
9.56388e-20
8.22452e-20
6.96275e-20
5.73652e-20
4.92409e-20
3.80219e-20
3.19489e-20
2.3908e-20
1.65543e-20
1.57606e-20
7.60818e-21
1.02347e-20
5.91115e-21
3.79113e-21
1.04383e-20
4.58114e-22
1.05034e-20
8.91572e-21
3.66442e-21
2.15207e-20
8.22669e-21
1.92995e-20
3.18628e-20
1.56337e-20
4.43129e-20
4.72028e-20
4.04122e-20
8.95164e-20
8.94181e-20
1.12259e-19
1.82229e-19
2.06786e-19
3.31699e-19
4.66778e-19
5.30513e-19
5.5312e-19
5.88747e-19
7.71739e-19
1.07495e-18
1.10726e-18
8.62179e-19
5.96473e-19
4.26285e-19
3.63788e-19
3.50798e-19
3.34689e-19
3.13605e-19
2.96003e-19
2.7837e-19
2.62312e-19
2.49226e-19
2.35603e-19
2.20619e-19
2.05445e-19
1.8986e-19
1.73268e-19
1.5599e-19
1.39388e-19
1.23815e-19
1.0872e-19
9.40642e-20
8.09561e-20
6.86085e-20
5.65218e-20
4.85577e-20
3.76434e-20
3.16013e-20
2.38177e-20
1.64951e-20
1.57777e-20
7.71575e-21
1.01545e-20
6.10781e-21
3.7002e-21
1.04596e-20
5.95146e-22
1.01751e-20
9.16575e-21
3.31412e-21
2.11475e-20
8.31268e-21
1.81027e-20
3.14611e-20
1.46653e-20
4.17256e-20
4.56575e-20
3.64953e-20
8.33314e-20
8.31315e-20
1.0052e-19
1.66125e-19
1.86966e-19
3.10858e-19
4.30952e-19
4.88525e-19
4.92294e-19
4.81967e-19
6.35602e-19
9.18286e-19
9.906e-19
7.99762e-19
5.61981e-19
4.03221e-19
3.44703e-19
3.32759e-19
3.18378e-19
3.00188e-19
2.84942e-19
2.68574e-19
2.53558e-19
2.41661e-19
2.28943e-19
2.14602e-19
2.0007e-19
1.85225e-19
1.69273e-19
1.52614e-19
1.36534e-19
1.21505e-19
1.06816e-19
9.2545e-20
7.9718e-20
6.76228e-20
5.57112e-20
4.78997e-20
3.72815e-20
3.12734e-20
2.37339e-20
1.64518e-20
1.57976e-20
7.82901e-21
1.00826e-20
6.30181e-21
3.6314e-21
1.04888e-20
7.45136e-22
9.8785e-21
9.41075e-21
3.01458e-21
2.0784e-20
8.43458e-21
1.70021e-20
3.10875e-20
1.38592e-20
3.93401e-20
4.43177e-20
3.30978e-20
7.77767e-20
7.7795e-20
9.03403e-20
1.52524e-19
1.70796e-19
2.94765e-19
4.04345e-19
2.36889e-17
2.98762e-17
2.64002e-17
2.54083e-17
1.75943e-17
1.04945e-17
6.21765e-18
3.80247e-18
2.4255e-18
1.70892e-18
1.35919e-18
1.12717e-18
9.26433e-19
7.71749e-19
6.63477e-19
5.81054e-19
5.11623e-19
4.55932e-19
4.10275e-19
3.66945e-19
3.24706e-19
2.85663e-19
2.48038e-19
2.14892e-19
1.83165e-19
1.57038e-19
1.31911e-19
1.12724e-19
9.28764e-20
7.7774e-20
6.39809e-20
4.73596e-20
3.92494e-20
2.59621e-20
1.94635e-20
1.46601e-20
7.34812e-21
1.09751e-20
3.16284e-21
7.02602e-21
7.89949e-21
1.81179e-21
1.4794e-20
4.97323e-21
1.48212e-20
2.35127e-20
1.54013e-20
4.50927e-20
4.27728e-20
6.50231e-20
1.16391e-19
1.44239e-19
2.54692e-19
4.33687e-19
6.81753e-19
1.24163e-18
2.32428e-18
4.337e-18
8.21586e-18
1.46896e-17
2.5042e-17
3.04982e-17
2.69879e-17
2.59399e-17
1.77551e-17
1.05607e-17
6.25008e-18
3.81997e-18
2.43652e-18
1.71685e-18
1.36559e-18
1.13196e-18
9.29489e-19
7.73605e-19
6.64756e-19
5.82014e-19
5.12332e-19
4.56473e-19
4.10779e-19
3.67439e-19
3.25143e-19
2.86077e-19
2.48408e-19
2.15238e-19
1.83466e-19
1.57333e-19
1.3216e-19
1.12971e-19
9.30956e-20
7.79551e-20
6.42215e-20
4.74775e-20
3.94081e-20
2.60862e-20
1.95129e-20
1.47964e-20
7.34176e-21
1.11062e-20
3.2178e-21
7.04674e-21
8.13491e-21
1.77356e-21
1.50905e-20
5.19806e-21
1.50261e-20
2.42386e-20
1.58719e-20
4.62554e-20
4.44838e-20
6.7217e-20
1.20712e-19
1.50643e-19
2.6565e-19
4.53144e-19
7.1617e-19
1.30102e-18
2.45657e-18
4.47282e-18
8.81119e-18
1.48966e-17
2.49989e-17
3.01754e-17
2.62866e-17
2.5358e-17
1.72691e-17
1.02857e-17
6.09996e-18
3.74137e-18
2.39711e-18
1.69746e-18
1.3556e-18
1.12573e-18
9.248e-19
7.70022e-19
6.62151e-19
5.80136e-19
5.10953e-19
4.55473e-19
4.10122e-19
3.67089e-19
3.24963e-19
2.8604e-19
2.48419e-19
2.15334e-19
1.83573e-19
1.575e-19
1.32308e-19
1.13158e-19
9.32628e-20
7.81117e-20
6.44571e-20
4.7591e-20
3.95947e-20
2.62104e-20
1.95811e-20
1.49468e-20
7.33979e-21
1.12696e-20
3.27402e-21
7.09139e-21
8.38997e-21
1.75079e-21
1.54257e-20
5.43847e-21
1.52971e-20
2.50309e-20
1.64342e-20
4.75449e-20
4.62736e-20
6.9513e-20
1.24943e-19
1.56224e-19
2.73981e-19
4.65519e-19
7.31518e-19
1.31536e-18
2.46339e-18
4.44212e-18
8.85852e-18
1.4687e-17
2.2597e-17
2.74876e-17
2.39474e-17
2.33012e-17
1.60327e-17
9.59517e-18
5.71929e-18
3.53112e-18
2.2821e-18
1.63326e-18
1.31632e-18
1.0988e-18
9.05206e-19
7.55698e-19
6.51557e-19
5.7214e-19
5.04895e-19
4.5086e-19
4.06594e-19
3.64499e-19
3.23075e-19
2.84693e-19
2.4742e-19
2.14651e-19
1.83085e-19
1.57202e-19
1.32111e-19
1.13059e-19
9.32137e-20
7.81067e-20
6.45751e-20
4.76369e-20
3.97427e-20
2.63119e-20
1.96372e-20
1.50873e-20
7.34105e-21
1.14176e-20
3.33069e-21
7.11708e-21
8.62047e-21
1.71729e-21
1.56937e-20
5.63413e-21
1.54518e-20
2.56711e-20
1.67703e-20
4.83764e-20
4.73543e-20
7.03161e-20
1.26574e-19
1.56766e-19
2.72531e-19
4.58487e-19
7.09106e-19
1.25499e-18
2.2959e-18
4.0409e-18
8.00183e-18
1.31447e-17
1.85907e-17
2.32494e-17
2.06523e-17
2.04068e-17
1.43539e-17
8.65466e-18
5.1938e-18
3.23151e-18
2.10946e-18
1.53085e-18
1.24933e-18
1.05124e-18
8.70446e-19
7.30203e-19
6.32391e-19
5.57404e-19
4.93518e-19
4.41953e-19
3.9951e-19
3.59002e-19
3.18871e-19
2.81515e-19
2.44968e-19
2.12821e-19
1.8171e-19
1.5619e-19
1.31373e-19
1.12494e-19
9.28143e-20
7.78118e-20
6.44728e-20
4.7548e-20
3.97999e-20
2.63614e-20
1.9653e-20
1.52135e-20
7.33921e-21
1.15318e-20
3.39104e-21
7.10082e-21
8.81924e-21
1.64779e-21
1.58627e-20
5.76725e-21
1.53987e-20
2.60969e-20
1.67029e-20
4.84577e-20
4.74281e-20
6.89837e-20
1.24901e-19
1.51313e-19
2.60241e-19
4.32797e-19
6.53905e-19
1.13433e-18
2.03423e-18
3.43996e-18
6.62129e-18
1.09479e-17
1.48839e-17
1.91555e-17
1.74609e-17
1.75451e-17
1.26867e-17
7.71464e-18
4.65021e-18
2.91054e-18
1.91941e-18
1.41236e-18
1.16836e-18
9.91914e-19
8.26532e-19
6.97599e-19
6.07486e-19
5.37909e-19
4.7821e-19
4.29702e-19
3.89484e-19
3.50963e-19
3.12538e-19
2.7659e-19
2.41093e-19
2.09834e-19
1.79426e-19
1.54428e-19
1.30051e-19
1.11408e-19
9.20216e-20
7.71618e-20
6.41004e-20
4.72817e-20
3.97199e-20
2.63406e-20
1.96007e-20
1.53232e-20
7.32244e-21
1.16049e-20
3.46047e-21
7.0242e-21
8.99657e-21
1.52512e-21
1.59101e-20
5.85124e-21
1.50723e-20
2.63111e-20
1.62228e-20
4.77632e-20
4.66898e-20
6.58479e-20
1.20669e-19
1.42177e-19
2.41656e-19
3.98437e-19
5.86727e-19
1.00076e-18
1.76611e-18
2.87671e-18
5.36061e-18
8.87313e-18
1.18702e-17
1.57267e-17
1.47417e-17
1.50263e-17
1.12083e-17
6.86781e-18
4.14957e-18
2.60949e-18
1.73528e-18
1.294e-18
1.0848e-18
9.29162e-19
7.79542e-19
6.62443e-19
5.80254e-19
5.16338e-19
4.60995e-19
4.15695e-19
3.77791e-19
3.41371e-19
3.04795e-19
2.70425e-19
2.36173e-19
2.0596e-19
1.76437e-19
1.52067e-19
1.2825e-19
1.09885e-19
9.08931e-20
7.61835e-20
6.34745e-20
4.6844e-20
3.94861e-20
2.62526e-20
1.94705e-20
1.54104e-20
7.28866e-21
1.16277e-20
3.54053e-21
6.88408e-21
9.15343e-21
1.356e-21
1.58374e-20
5.90887e-21
1.45185e-20
2.63468e-20
1.54708e-20
4.64856e-20
4.55127e-20
6.1705e-20
1.15183e-19
1.31777e-19
2.21061e-19
3.62757e-19
5.20364e-19
8.74486e-19
1.52318e-18
2.40378e-18
4.34537e-18
7.18849e-18
9.50454e-18
1.29022e-17
1.24529e-17
1.28456e-17
9.9065e-18
6.12349e-18
3.70465e-18
2.33779e-18
1.56595e-18
1.18295e-18
1.00465e-18
8.68119e-19
7.33377e-19
6.27465e-19
5.52905e-19
4.94398e-19
4.43312e-19
4.01151e-19
3.65479e-19
3.3113e-19
2.96377e-19
2.63599e-19
2.30667e-19
2.01556e-19
1.73022e-19
1.49327e-19
1.2614e-19
1.08076e-19
8.95383e-20
7.49693e-20
6.26569e-20
4.62793e-20
3.91182e-20
2.61126e-20
1.9276e-20
1.54721e-20
7.24458e-21
1.16041e-20
3.6287e-21
6.69446e-21
9.29199e-21
1.1612e-21
1.56661e-20
5.96446e-21
1.38141e-20
2.62607e-20
1.45974e-20
4.4866e-20
4.41836e-20
5.7236e-20
1.09282e-19
1.2147e-19
2.00773e-19
3.28995e-19
4.59422e-19
7.61232e-19
1.30787e-18
2.00651e-18
3.52927e-18
5.82745e-18
7.61814e-18
1.05371e-17
1.04919e-17
1.09431e-17
8.74586e-18
5.46875e-18
3.31356e-18
2.09689e-18
1.4139e-18
1.08157e-18
9.30223e-19
8.10715e-19
6.8961e-19
5.94069e-19
5.26484e-19
4.72995e-19
4.25931e-19
3.86743e-19
3.53187e-19
3.20788e-19
2.87787e-19
2.56535e-19
2.24929e-19
1.9691e-19
1.69408e-19
1.46396e-19
1.23871e-19
1.06118e-19
8.8061e-20
7.36219e-20
6.17196e-20
4.56411e-20
3.86564e-20
2.59406e-20
1.90431e-20
1.55128e-20
7.19913e-21
1.15471e-20
3.72407e-21
6.47415e-21
9.41711e-21
9.60432e-22
1.54263e-20
6.03439e-21
1.30301e-20
2.61009e-20
1.37041e-20
4.30785e-20
4.28601e-20
5.27733e-20
1.03377e-19
1.11856e-19
1.81713e-19
2.98282e-19
4.05311e-19
6.62368e-19
1.12319e-18
1.6759e-18
2.86605e-18
4.71166e-18
6.11189e-18
8.56457e-18
8.81314e-18
9.29373e-18
7.70969e-18
4.89396e-18
2.97184e-18
1.88519e-18
1.27893e-18
9.90212e-19
8.621e-19
7.57599e-19
6.48847e-19
5.62718e-19
5.01434e-19
4.52529e-19
4.09209e-19
3.72804e-19
3.41216e-19
3.10638e-19
2.79296e-19
2.49486e-19
2.19175e-19
1.92208e-19
1.65741e-19
1.43399e-19
1.21541e-19
1.04106e-19
8.65342e-20
7.22203e-20
6.07214e-20
4.49721e-20
3.81406e-20
2.5754e-20
1.87944e-20
1.55404e-20
7.15924e-21
1.14694e-20
3.82789e-21
6.23786e-21
9.53403e-21
7.67818e-22
1.51413e-20
6.12673e-21
1.22108e-20
2.58956e-20
1.2845e-20
4.12106e-20
4.16069e-20
4.84749e-20
9.7662e-20
1.03103e-19
1.64142e-19
2.70757e-19
3.57831e-19
5.77176e-19
9.66288e-19
1.40422e-18
2.33254e-18
3.80925e-18
4.91447e-18
6.94258e-18
7.38863e-18
7.87748e-18
6.78792e-18
4.39001e-18
2.67429e-18
1.69999e-18
1.15969e-18
9.08301e-19
8.00118e-19
7.08803e-19
6.11147e-19
5.33515e-19
4.77896e-19
4.33157e-19
3.93292e-19
3.59463e-19
3.29695e-19
3.00814e-19
2.71045e-19
2.42586e-19
2.13524e-19
1.87558e-19
1.62105e-19
1.4041e-19
1.19209e-19
1.02095e-19
8.50029e-20
7.08153e-20
5.97024e-20
4.42998e-20
3.76003e-20
2.55647e-20
1.85446e-20
1.55612e-20
7.12869e-21
1.138e-20
3.94154e-21
5.99535e-21
9.64572e-21
5.92014e-22
1.48256e-20
6.24415e-21
1.13812e-20
2.5658e-20
1.20449e-20
3.9309e-20
4.04411e-20
4.44071e-20
9.21766e-20
9.52013e-20
1.48029e-19
2.46127e-19
3.16207e-19
5.03776e-19
8.33071e-19
1.18159e-18
1.90627e-18
3.09141e-18
3.96099e-18
5.61846e-18
6.18244e-18
6.6664e-18
5.96772e-18
3.94606e-18
2.4147e-18
1.53792e-18
1.0544e-18
8.34923e-19
7.43793e-19
6.64044e-19
5.76359e-19
5.06395e-19
4.55867e-19
4.14896e-19
3.78209e-19
3.46757e-19
3.18679e-19
2.91374e-19
2.63091e-19
2.359e-19
2.08033e-19
1.83016e-19
1.58544e-19
1.37472e-19
1.16909e-19
1.00118e-19
8.3493e-20
6.94359e-20
5.86871e-20
4.36403e-20
3.70541e-20
2.53797e-20
1.83022e-20
1.55791e-20
7.10921e-21
1.12837e-20
4.06564e-21
5.75282e-21
9.75305e-21
4.37977e-22
1.44884e-20
6.38622e-21
1.05564e-20
2.53942e-20
1.13157e-20
3.73998e-20
3.93652e-20
4.05981e-20
8.69338e-20
8.80916e-20
1.33303e-19
2.24085e-19
2.79727e-19
4.40315e-19
7.1953e-19
9.97711e-19
1.56497e-18
2.52173e-18
3.19995e-18
4.54053e-18
5.15987e-18
5.63161e-18
5.23665e-18
3.55203e-18
2.18724e-18
1.39582e-18
9.61333e-19
7.69149e-19
6.9258e-19
6.2297e-19
5.44264e-19
4.8123e-19
4.35276e-19
3.9771e-19
3.63943e-19
3.34684e-19
3.08175e-19
2.82333e-19
2.55454e-19
2.29452e-19
2.02727e-19
1.78611e-19
1.55082e-19
1.34607e-19
1.1466e-19
9.81916e-20
8.20189e-20
6.80979e-20
5.76894e-20
4.30022e-20
3.65128e-20
2.52028e-20
1.8071e-20
1.55957e-20
7.10149e-21
1.11834e-20
4.20012e-21
5.51412e-21
9.85557e-21
3.08467e-22
1.41353e-20
6.55174e-21
9.74659e-21
2.51074e-20
1.06633e-20
3.55002e-20
3.83745e-20
3.7058e-20
8.19294e-20
8.17491e-20
1.19882e-19
2.04367e-19
2.47848e-19
3.85391e-19
6.22756e-19
8.45042e-19
1.29137e-18
2.06849e-18
2.59292e-18
3.66641e-18
4.29376e-18
4.74883e-18
4.58524e-18
3.20025e-18
1.9872e-18
1.27101e-18
8.79024e-19
7.10157e-19
6.45966e-19
5.85238e-19
5.14631e-19
4.57871e-19
4.16029e-19
3.81536e-19
3.50454e-19
3.23221e-19
2.98171e-19
2.73688e-19
2.48136e-19
2.23252e-19
1.97615e-19
1.74354e-19
1.51727e-19
1.31827e-19
1.1247e-19
9.63232e-20
8.05877e-20
6.68088e-20
5.67169e-20
4.23899e-20
3.59824e-20
2.50355e-20
1.78531e-20
1.56115e-20
7.10579e-21
1.10806e-20
4.34438e-21
5.28225e-21
9.95234e-21
2.05044e-22
1.37717e-20
6.7392e-21
8.95908e-21
2.48011e-20
1.00905e-20
3.36232e-20
3.74634e-20
3.37886e-20
7.71589e-20
7.60931e-20
1.0768e-19
1.86702e-19
2.20029e-19
3.37873e-19
5.40437e-19
7.18097e-19
1.0726e-18
1.70756e-18
2.11055e-18
2.96083e-18
3.56224e-18
3.99738e-18
4.00598e-18
2.8848e-18
1.81068e-18
1.16126e-18
8.06178e-19
6.57199e-19
6.03483e-19
5.50526e-19
4.87237e-19
4.36169e-19
3.98025e-19
3.66308e-19
3.37696e-19
3.12338e-19
2.88645e-19
2.65424e-19
2.41125e-19
2.17294e-19
1.92696e-19
1.70248e-19
1.48483e-19
1.29136e-19
1.10344e-19
9.45168e-20
7.92024e-20
6.55716e-20
5.57733e-20
4.18048e-20
3.54662e-20
2.48781e-20
1.76495e-20
1.56267e-20
7.12206e-21
1.09764e-20
4.49757e-21
5.05998e-21
1.00424e-20
1.28429e-22
1.33997e-20
6.94664e-21
8.20008e-21
2.4477e-20
9.59816e-21
3.17796e-20
3.66261e-20
3.07899e-20
7.26208e-20
7.10629e-20
9.66076e-20
1.70846e-19
1.95837e-19
2.96679e-19
4.70421e-19
6.12419e-19
8.98105e-19
1.41996e-18
1.72851e-18
2.39363e-18
2.94625e-18
3.35882e-18
3.49213e-18
2.60082e-18
1.65429e-18
1.06459e-18
7.4165e-19
6.09602e-19
5.64707e-19
5.18541e-19
4.61875e-19
4.15983e-19
3.81168e-19
3.51958e-19
3.25623e-19
3.02e-19
2.79571e-19
2.57525e-19
2.3441e-19
2.11572e-19
1.87964e-19
1.6629e-19
1.45349e-19
1.26533e-19
1.08283e-19
9.27732e-20
7.78634e-20
6.43866e-20
5.48602e-20
4.12473e-20
3.4966e-20
2.47302e-20
1.7461e-20
1.56413e-20
7.15003e-21
1.08719e-20
4.65864e-21
4.8488e-21
1.01254e-20
7.99536e-23
1.30173e-20
7.17039e-21
7.47487e-21
2.41373e-20