/*--------------------------------*- C++ -*----------------------------------*\
| =========                 |                                                 |
| \\      /  F ield         | OpenFOAM: The Open Source CFD Toolbox           |
|  \\    /   O peration     | Version:  2312                                  |
|   \\  /    A nd           | Website:  www.openfoam.com                      |
|    \\/     M anipulation  |                                                 |
\*---------------------------------------------------------------------------*/
FoamFile
{
    version     2.0;
    format      ascii;
    arch        "LSB;label=32;scalar=64";
    class       volScalarField;
    location    "400";
    object      nut;
}
// * * * * * * * * * * * * * * * * * * * * * * * * * * * * * * * * * * * * * //

dimensions      [0 2 -1 0 0 0 0];

internalField   nonuniform List<scalar> 
144000
(
3.05274e-27
8.59002e-28
8.13041e-29
1.21589e-27
4.30062e-28
3.8223e-32
1.18478e-28
3.33222e-29
8.50473e-29
5.19271e-29
7.80876e-29
5.76307e-29
8.4966e-29
7.08771e-29
7.98214e-29
6.58441e-29
9.4202e-29
9.37835e-29
9.31474e-29
8.80983e-29
1.07336e-28
1.08143e-28
1.10068e-28
1.072e-28
1.09351e-28
1.09581e-28
1.22475e-28
1.22551e-28
1.24184e-28
1.21275e-28
1.17652e-28
1.13948e-28
1.32121e-28
1.29672e-28
1.22204e-28
1.11987e-28
1.05902e-28
9.81374e-29
9.73256e-29
8.18063e-29
7.87988e-29
6.23058e-29
1.0479e-28
7.04414e-29
6.12588e-29
4.83998e-29
2.79294e-29
1.5265e-29
6.07918e-30
1.74717e-30
3.17134e-32
3.46907e-30
3.55834e-29
1.52255e-28
6.98037e-28
2.64966e-28
7.20901e-27
3.34404e-25
4.85174e-25
3.18633e-26
3.49698e-25
8.22709e-27
1.22523e-26
1.33117e-26
4.44558e-28
3.07703e-30
2.20589e-28
8.67079e-29
1.23222e-28
1.64565e-28
1.17493e-28
1.59958e-28
1.41429e-28
1.82198e-28
1.47615e-28
1.5354e-28
1.71708e-28
2.20809e-28
1.84613e-28
1.89211e-28
2.08271e-28
2.40517e-28
2.17857e-28
2.30127e-28
2.1685e-28
2.31532e-28
2.39574e-28
2.62092e-28
2.4602e-28
2.51685e-28
2.34939e-28
2.29436e-28
2.54315e-28
2.68358e-28
2.4107e-28
2.19094e-28
2.07425e-28
1.88785e-28
1.89334e-28
1.69708e-28
1.60159e-28
1.45256e-28
2.13843e-28
1.10177e-28
1.284e-28
8.77106e-29
5.76521e-29
2.19155e-29
1.1953e-29
1.70331e-30
5.26946e-32
1.2963e-29
6.85502e-29
4.59652e-28
1.30734e-27
1.20898e-27
9.8015e-27
8.6123e-25
2.81905e-24
2.52489e-26
8.93157e-25
1.29444e-25
6.43724e-26
1.90024e-26
1.1131e-27
3.71356e-30
2.63061e-28
1.45707e-28
1.69155e-28
2.20545e-28
1.82855e-28
2.06712e-28
2.19258e-28
2.34636e-28
2.2105e-28
2.08429e-28
2.57236e-28
2.9101e-28
2.72874e-28
2.59377e-28
3.05116e-28
3.23799e-28
3.16044e-28
3.1586e-28
3.10758e-28
3.22885e-28
3.41936e-28
3.59901e-28
3.49465e-28
3.48428e-28
3.29519e-28
3.2537e-28
3.56623e-28
3.68065e-28
3.37203e-28
3.05329e-28
2.90162e-28
2.68092e-28
2.71096e-28
2.45369e-28
2.44892e-28
2.09604e-28
3.04716e-28
1.4549e-28
1.96095e-28
1.18568e-28
8.32947e-29
3.21355e-29
1.71325e-29
3.10473e-30
9.7199e-32
1.36233e-29
1.07542e-28
5.55685e-28
1.82166e-27
1.15387e-27
3.04148e-26
1.42005e-24
3.01065e-24
3.04709e-25
3.26121e-24
1.23182e-24
2.16923e-25
9.60346e-26
1.26845e-27
8.03725e-30
2.62674e-28
1.58173e-28
1.75538e-28
2.20019e-28
1.93556e-28
2.04605e-28
2.30891e-28
2.33106e-28
2.3154e-28
2.06103e-28
2.65668e-28
2.91628e-28
2.82087e-28
2.56821e-28
3.14956e-28
3.22193e-28
3.26388e-28
3.12656e-28
3.19487e-28
3.20801e-28
3.4842e-28
3.6047e-28
3.5617e-28
3.46935e-28
3.36042e-28
3.24572e-28
3.60946e-28
3.71709e-28
3.4263e-28
3.07759e-28
2.98991e-28
2.75087e-28
2.86875e-28
2.57792e-28
2.59599e-28
2.36218e-28
2.94841e-28
1.4948e-28
2.16188e-28
1.18195e-28
9.29955e-29
3.24523e-29
2.14462e-29
4.10005e-30
5.61265e-32
1.48339e-29
8.79132e-29
5.08818e-28
1.51391e-27
9.85359e-28
3.97472e-26
2.20033e-24
4.32228e-24
1.89487e-24
6.20531e-24
5.65612e-24
3.34948e-25
3.35954e-25
3.6087e-27
2.30219e-29
2.85224e-28
1.80574e-28
1.78071e-28
2.37e-28
1.91498e-28
2.17843e-28
2.3434e-28
2.46056e-28
2.35495e-28
2.1392e-28
2.71317e-28
3.04767e-28
2.86854e-28
2.61355e-28
3.24409e-28
3.29732e-28
3.35084e-28
3.15574e-28
3.28286e-28
3.24195e-28
3.58607e-28
3.67645e-28
3.6454e-28
3.52333e-28
3.45244e-28
3.29705e-28
3.73837e-28
3.85757e-28
3.53727e-28
3.19849e-28
3.1428e-28
2.9172e-28
3.05948e-28
2.71877e-28
2.68058e-28
2.33805e-28
2.83346e-28
1.73254e-28
2.33582e-28
1.26454e-28
1.03162e-28
3.66501e-29
2.81725e-29
6.92905e-30
1.79774e-31
1.42523e-29
6.92093e-29
4.49469e-28
1.13922e-27
7.30748e-28
5.90855e-26
3.60956e-24
5.6893e-24
7.70534e-24
8.35973e-24
1.6366e-23
3.41186e-25
8.32049e-25
9.27806e-27
5.73541e-29
3.36196e-28
2.09352e-28
1.93492e-28
2.60006e-28
1.94047e-28
2.37364e-28
2.43039e-28
2.66408e-28
2.43503e-28
2.28741e-28
2.86062e-28
3.29193e-28
2.97257e-28
2.77323e-28
3.42848e-28
3.50504e-28
3.51998e-28
3.30528e-28
3.46878e-28
3.40522e-28
3.81434e-28
3.88862e-28
3.8585e-28
3.71409e-28
3.6735e-28
3.49958e-28
4.04932e-28
4.16634e-28
3.80577e-28
3.47118e-28
3.43766e-28
3.21819e-28
3.32849e-28
2.87705e-28
2.70089e-28
2.53311e-28
2.96352e-28
2.1485e-28
2.60036e-28
1.47856e-28
1.18664e-28
4.79107e-29
4.02945e-29
1.42625e-29
1.25042e-30
1.47738e-29
5.26917e-29
3.75172e-28
7.54231e-28
4.44786e-28
8.79413e-26
5.75148e-24
7.10697e-24
2.09953e-23
9.41189e-24
3.63442e-23
2.59658e-25
1.67134e-24
2.22246e-26
1.16135e-28
4.17191e-28
2.38216e-28
2.20442e-28
2.80817e-28
2.03898e-28
2.54794e-28
2.58669e-28
2.86783e-28
2.55418e-28
2.45934e-28
3.08209e-28
3.56792e-28
3.11766e-28
2.99182e-28
3.67252e-28
3.7769e-28
3.72659e-28
3.52109e-28
3.70872e-28
3.65223e-28
4.12183e-28
4.17516e-28
4.13907e-28
3.98928e-28
3.97601e-28
3.81131e-28
4.4799e-28
4.57028e-28
4.16686e-28
3.83361e-28
3.82719e-28
3.6089e-28
3.65489e-28
3.07843e-28
2.76372e-28
2.61686e-28
3.21221e-28
2.77821e-28
3.01063e-28
1.82419e-28
1.42529e-28
6.9911e-29
6.33303e-29
3.25386e-29
7.72201e-30
2.13262e-29
4.70024e-29
2.95639e-28
4.7016e-28
2.9656e-28
1.1679e-25
8.67565e-24
9.54041e-24
4.43287e-23
9.09865e-24
6.70611e-23
1.4689e-25
2.88109e-24
4.97464e-26
1.91584e-28
5.31069e-28
2.62955e-28
2.52893e-28
3.02512e-28
2.18053e-28
2.70207e-28
2.79541e-28
3.06581e-28
2.71226e-28
2.64748e-28
3.35018e-28
3.85131e-28
3.29199e-28
3.23341e-28
3.95463e-28
4.08435e-28
3.95559e-28
3.77662e-28
3.98592e-28
3.94905e-28
4.46307e-28
4.51498e-28
4.46568e-28
4.31843e-28
4.33444e-28
4.19043e-28
4.97968e-28
5.04648e-28
4.59593e-28
4.27174e-28
4.31226e-28
4.09949e-28
4.06307e-28
3.33438e-28
2.87268e-28
2.89211e-28
3.52547e-28
3.62495e-28
3.62135e-28
2.34986e-28
1.80678e-28
1.10738e-28
1.07562e-28
7.56135e-29
3.23354e-29
5.12904e-29
7.62817e-29
2.78599e-28
4.79723e-28
7.82697e-28
1.46076e-25
1.24601e-23
1.34298e-23
7.75039e-23
8.39156e-24
1.09147e-22
6.81237e-26
4.44228e-24
1.03808e-25
2.84979e-28
6.89167e-28
2.78399e-28
2.85915e-28
3.29348e-28
2.33927e-28
2.85992e-28
3.05357e-28
3.26524e-28
2.90244e-28
2.85339e-28
3.6835e-28
4.14322e-28
3.49606e-28
3.49549e-28
4.29627e-28
4.41541e-28
4.20721e-28
4.06841e-28
4.30163e-28
4.29018e-28
4.86123e-28
4.89708e-28
4.82372e-28
4.70688e-28
4.74592e-28
4.64122e-28
5.57241e-28
5.60225e-28
5.0997e-28
4.82288e-28
4.94428e-28
4.76863e-28
4.67808e-28
3.80774e-28
3.23391e-28
3.47659e-28
3.67704e-28
4.87024e-28
4.5471e-28
3.1674e-28
2.42754e-28
1.86161e-28
1.9599e-28
1.74479e-28
1.07915e-28
1.60514e-28
2.3189e-28
4.9281e-28
1.367e-27
3.96228e-27
1.66008e-25
1.72068e-23
2.14318e-23
1.18995e-22
7.67851e-24
1.62031e-22
6.08971e-26
6.25638e-24
2.01539e-25
4.29353e-28
9.46534e-28
2.76958e-28
3.20256e-28
3.63274e-28
2.50619e-28
3.03667e-28
3.35032e-28
3.47804e-28
3.13142e-28
3.0747e-28
4.06801e-28
4.44536e-28
3.73766e-28
3.77539e-28
4.68914e-28
4.76709e-28
4.49804e-28
4.38845e-28
4.66872e-28
4.66973e-28
5.29879e-28
5.32533e-28
5.2342e-28
5.14716e-28
5.22589e-28
5.16734e-28
6.24994e-28
6.26373e-28
5.72134e-28
5.52809e-28
5.79931e-28
5.71737e-28
5.6295e-28
4.69678e-28
4.40345e-28
3.39403e-28
3.47069e-28
6.58352e-28
5.95799e-28
4.45794e-28
3.46412e-28
3.25597e-28
3.72991e-28
3.95524e-28
3.23555e-28
4.99196e-28
8.07154e-28
1.46721e-27
5.18169e-27
1.58568e-26
1.7996e-25
2.31138e-23
3.56674e-23
1.65177e-22
8.56694e-24
2.24256e-22
1.45741e-25
8.20911e-24
3.6454e-25
7.02843e-28
1.41218e-27
2.46078e-28
3.58736e-28
4.03879e-28
2.68323e-28
3.23116e-28
3.69076e-28
3.70626e-28
3.38848e-28
3.32231e-28
4.51084e-28
4.75837e-28
4.01155e-28
4.07963e-28
5.14677e-28
5.13224e-28
4.82489e-28
4.73931e-28
5.08667e-28
5.08854e-28
5.80377e-28
5.78842e-28
5.69474e-28
5.65145e-28
5.78327e-28
5.78562e-28
7.05235e-28
7.04113e-28
6.47805e-28
6.41783e-28
6.90559e-28
6.94673e-28
6.86051e-28
5.87771e-28
5.54661e-28
4.1479e-28
3.74679e-28
8.10135e-28
8.55798e-28
6.31346e-28
5.25212e-28
5.73527e-28
7.12897e-28
8.55361e-28
8.65548e-28
1.41371e-27
2.49482e-27
4.57459e-27
1.65387e-26
4.74991e-26
1.81596e-25
3.07971e-23
6.31861e-23
2.11426e-22
1.10784e-23
2.95181e-22
5.01825e-25
1.02638e-23
6.17888e-25
1.40259e-27
2.0146e-27
1.97474e-28
3.96398e-28
4.57033e-28
2.84568e-28
3.46361e-28
4.05094e-28
3.97167e-28
3.66737e-28
3.60149e-28
4.98646e-28
5.09636e-28
4.31096e-28
4.4136e-28
5.64748e-28
5.52132e-28
5.19007e-28
5.12415e-28
5.56139e-28
5.547e-28
6.3488e-28
6.30011e-28
6.23127e-28
6.21993e-28
6.43538e-28
6.49878e-28
7.97703e-28
7.96273e-28
7.4087e-28
7.53078e-28
8.33752e-28
8.55978e-28
8.59627e-28
8.0892e-28
8.29099e-28
7.4437e-28
3.39634e-28
1.02946e-27
1.23523e-27
9.17419e-28
8.25171e-28
1.00132e-27
1.33222e-27
1.74634e-27
2.0801e-27
3.54253e-27
6.59982e-27
1.23974e-26
4.29534e-26
1.12802e-25
1.83339e-25
4.1494e-23
1.07175e-22
2.53014e-22
1.87284e-23
3.73979e-22
1.1655e-24
1.2283e-23
9.70624e-25
3.39828e-27
2.79315e-27
1.34311e-28
4.36204e-28
5.2406e-28
2.98832e-28
3.73312e-28
4.43664e-28
4.27537e-28
3.94887e-28
3.92194e-28
5.51078e-28
5.45727e-28
4.62544e-28
4.78554e-28
6.20938e-28
5.93319e-28
5.5796e-28
5.55659e-28
6.08319e-28
6.04815e-28
6.9743e-28
6.85875e-28
6.82757e-28
6.87938e-28
7.18592e-28
7.32862e-28
9.10098e-28
9.07204e-28
8.5928e-28
9.07075e-28
1.05057e-27
1.14188e-27
1.28707e-27
1.67091e-27
2.64237e-27
1.19771e-27
6.00351e-29
1.81917e-27
1.49925e-27
1.4851e-27
1.25995e-27
1.75334e-27
2.42512e-27
3.3998e-27
4.49649e-27
7.93366e-27
1.51482e-26
2.88616e-26
9.42399e-26
2.27098e-25
1.7753e-25
5.61519e-23
1.80099e-22
2.80326e-22
3.33717e-23
4.61605e-22
2.29087e-24
1.46937e-23
1.42674e-24
8.61128e-27
3.77237e-27
6.94498e-29
4.84107e-28
6.04639e-28
3.11943e-28
4.03192e-28
4.85038e-28
4.61025e-28
4.25806e-28
4.27528e-28
6.05725e-28
5.85062e-28
4.96643e-28
5.19668e-28
6.80472e-28
6.37951e-28
6.00942e-28
6.0322e-28
6.66504e-28
6.59738e-28
7.64677e-28
7.48678e-28
7.50915e-28
7.62517e-28
8.06038e-28
8.28736e-28
1.03959e-27
1.04081e-27
1.00759e-27
1.10601e-27
1.34579e-27
1.55411e-27
1.99939e-27
3.38533e-27
4.98041e-27
6.72336e-29
1.70146e-28
2.00234e-27
1.96684e-27
2.36607e-27
1.92828e-27
3.00872e-27
4.25587e-27
6.27398e-27
8.88867e-27
1.59731e-26
3.08179e-26
5.86445e-26
1.8109e-25
4.01602e-25
1.72345e-25
7.6417e-23
2.88704e-22
2.94287e-22
6.31837e-23
5.44672e-22
3.802e-24
1.77593e-23
1.93046e-24
2.02121e-26
4.99518e-27
2.16885e-29
5.55071e-28
6.90543e-28
3.27335e-28
4.32365e-28
5.3375e-28
4.9492e-28
4.60155e-28
4.65575e-28
6.66186e-28
6.25832e-28
5.33767e-28
5.64561e-28
7.46483e-28
6.84686e-28
6.47993e-28
6.5591e-28
7.30247e-28
7.1979e-28
8.40374e-28
8.17315e-28
8.26279e-28
8.47322e-28
9.0362e-28
9.35904e-28
1.18239e-27
1.17925e-27
1.15e-27
1.27424e-27
1.53476e-27
1.68361e-27
2.07673e-27
3.26617e-27
5.45225e-28
5.37247e-27
7.71991e-27
4.0371e-28
4.23925e-27
2.95179e-27
3.2551e-27
4.80423e-27
7.23298e-27
1.08551e-26
1.61902e-26
2.92739e-26
5.62686e-26
1.06043e-25
3.0897e-25
6.32387e-25
1.72555e-25
1.05285e-22
4.57251e-22
2.95196e-22
1.13187e-22
6.52986e-22
5.50099e-24
2.22098e-23
2.476e-24
4.63036e-26
5.83352e-27
4.24196e-30
6.35712e-28
7.9651e-28
3.38602e-28
4.66047e-28
5.8583e-28
5.32203e-28
4.98177e-28
5.06712e-28
7.29267e-28
6.70121e-28
5.74173e-28
6.13768e-28
8.16053e-28
7.3529e-28
7.00318e-28
7.13615e-28
8.01007e-28
7.85385e-28
9.20353e-28
8.93844e-28
9.12721e-28
9.42125e-28
1.01548e-27
1.05895e-27
1.34666e-27
1.3526e-27
1.34862e-27
1.55193e-27
1.97755e-27
2.39656e-27
3.96334e-27
9.85484e-27
1.91531e-26
1.75861e-26
2.18073e-31
9.87279e-28
4.92322e-27
4.70702e-27
4.75038e-27
7.53116e-27
1.16046e-26
1.77528e-26
2.7302e-26
4.91515e-26
9.35445e-26
1.72842e-25
4.7734e-25
8.99647e-25
2.0245e-25
1.46133e-22
6.79249e-22
2.8728e-22
1.98445e-22
7.93076e-22
6.61215e-24
2.83664e-23
2.9641e-24
9.71226e-26
6.17883e-27
7.66773e-30
7.49357e-28
9.15764e-28
3.46351e-28
5.04001e-28
6.42968e-28
5.72917e-28
5.37135e-28
5.51794e-28
7.99526e-28
7.16227e-28
6.17196e-28
6.67437e-28
8.93785e-28
7.88592e-28
7.56342e-28
7.78129e-28
8.77157e-28
8.56177e-28
1.011e-27
9.7714e-28
1.00715e-27
1.05082e-27
1.14087e-27
1.20129e-27
1.54814e-27
1.57192e-27
1.62684e-27
1.99968e-27
2.81068e-27
4.05216e-27
9.02308e-27
3.3225e-26
2.18562e-25
4.69159e-28
2.33738e-26
4.05236e-27
4.54999e-27
7.78923e-27
6.40351e-27
1.13877e-26
1.76707e-26
2.74794e-26
4.26341e-26
7.65271e-26
1.42674e-25
2.57954e-25
6.77441e-25
1.18018e-24
2.68629e-25
2.01033e-22
9.71666e-22
2.63142e-22
3.26847e-22
9.71922e-22
7.10107e-24
3.80037e-23
3.29509e-24
1.82755e-25
5.95902e-27
5.46536e-29
9.23891e-28
1.04022e-27
3.50958e-28
5.4778e-28
7.03888e-28
6.17183e-28
5.80326e-28
6.00487e-28
8.7229e-28
7.66833e-28
6.64496e-28
7.2621e-28
9.75202e-28
8.46892e-28
8.18265e-28
8.48034e-28
9.6073e-28
9.32353e-28
1.10747e-27
1.0688e-27
1.11061e-27
1.16721e-27
1.27514e-27
1.34506e-27
1.73648e-27
1.75061e-27
1.79488e-27
2.1545e-27
2.82493e-27
3.51427e-27
5.92634e-27
1.42602e-26
3.0006e-26
2.15552e-26
4.98793e-29
1.35776e-27
9.56191e-27
8.58085e-27
9.99847e-27
1.57948e-26
2.59768e-26
3.95148e-26
6.25181e-26
1.09998e-25
2.01515e-25
3.535e-25
8.90012e-25
1.4352e-24
4.06718e-25
2.72668e-22
1.33661e-21
2.38085e-22
5.13099e-22
1.18517e-21
6.65906e-24
5.15878e-23
3.37721e-24
3.11937e-25
5.083e-27
2.18801e-28
1.21345e-27
1.14596e-27
3.58021e-28
5.91923e-28
7.76338e-28
6.59878e-28
6.29541e-28
6.51208e-28
9.5417e-28
8.17896e-28
7.17148e-28
7.88916e-28
1.0657e-27
9.06969e-28
8.86444e-28
9.2371e-28
1.051e-27
1.01358e-27
1.21501e-27
1.16667e-27
1.22265e-27
1.29563e-27
1.42018e-27
1.50194e-27
1.94481e-27
1.94359e-27
1.97928e-27
2.33466e-27
2.86776e-27
3.11699e-27
3.58555e-27
4.4401e-27
2.41589e-28
9.68485e-27
7.21549e-27
3.57186e-27
1.20948e-26
1.13681e-26
1.3504e-26
2.20594e-26
3.53686e-26
5.37983e-26
8.54279e-26
1.47453e-25
2.63865e-25
4.49175e-25
1.0879e-24
1.63475e-24
6.47691e-25
3.63271e-22
1.77345e-21
2.1052e-22
7.54754e-22
1.4519e-21
5.58208e-24
7.08151e-23
3.19982e-24
4.94567e-25
3.46981e-27
5.42294e-28
1.64091e-27
1.24177e-27
3.61587e-28
6.45485e-28
8.53544e-28
7.05592e-28
6.86231e-28
7.05644e-28
1.03912e-27
8.73514e-28
7.76075e-28
8.56936e-28
1.16001e-27
9.71494e-28
9.62873e-28
1.00436e-27
1.15005e-27
1.10067e-27
1.32719e-27
1.27249e-27
1.34888e-27
1.43413e-27
1.58353e-27
1.67987e-27
2.18487e-27
2.19927e-27
2.28594e-27
2.77371e-27
3.54055e-27
4.16478e-27
5.20214e-27
7.50084e-27
8.17477e-27
4.45502e-28
3.82683e-28
1.32757e-26
1.25489e-26
1.54067e-26
1.70942e-26
2.94437e-26
4.58336e-26
6.94041e-26
1.09515e-25
1.84592e-25
3.22248e-25
5.31749e-25
1.24988e-24
1.76872e-24
1.0417e-24
4.70945e-22
2.22949e-21
1.92893e-22
1.05408e-21
1.75882e-21
4.05104e-24
9.51353e-23
2.75364e-24
7.25033e-25
1.75481e-27
1.00978e-27
2.27637e-27
1.31512e-27
3.61603e-28
7.12008e-28
9.32033e-28
7.57539e-28
7.43998e-28
7.65989e-28
1.12979e-27
9.32294e-28
8.38076e-28
9.30383e-28
1.26117e-27
1.03926e-27
1.04341e-27
1.09222e-27
1.25303e-27
1.19174e-27
1.44806e-27
1.3819e-27
1.47922e-27
1.5793e-27
1.74623e-27
1.85098e-27
2.40807e-27
2.40019e-27
2.48083e-27
2.97477e-27
3.65127e-27
4.07755e-27
4.54592e-27
5.45941e-27
7.13226e-27
5.47951e-27
3.1551e-27
1.41038e-26
1.77964e-26
1.70157e-26
2.24876e-26
3.62656e-26
5.70968e-26
8.44221e-26
1.31427e-25
2.16343e-25
3.65687e-25
5.86602e-25
1.34603e-24
1.78834e-24
1.65272e-24
5.91532e-22
2.67999e-21
1.87746e-22
1.40648e-21
2.11743e-21
2.5804e-24
1.2426e-22
2.1298e-24
9.79009e-25
5.96588e-28
1.57039e-27
3.19518e-27
1.36402e-27
3.57019e-28
7.96966e-28
1.0042e-27
8.19403e-28
8.00965e-28
8.33177e-28
1.21974e-27
9.98575e-28
9.02335e-28
1.00957e-27
1.36417e-27
1.11276e-27
1.12664e-27
1.18492e-27
1.35825e-27
1.28521e-27
1.5722e-27
1.49573e-27
1.61164e-27
1.72665e-27
1.90969e-27
2.01612e-27
2.62517e-27
2.58325e-27
2.64258e-27
3.1099e-27
3.63042e-27
3.76641e-27
3.57984e-27
3.17867e-27
2.89665e-27
3.71915e-27
8.25748e-27
1.75353e-26
1.97968e-26
2.01494e-26
2.68917e-26
4.31683e-26
6.64365e-26
9.66666e-26
1.47096e-25
2.35741e-25
3.85131e-25
5.95098e-25
1.34188e-24
1.64115e-24
2.59942e-24
7.22709e-22
3.1115e-21
2.03861e-22
1.79298e-21
2.49131e-21
1.51677e-24
1.56145e-22
1.46929e-24
1.22731e-24
1.709e-28
2.24469e-27
4.61546e-27
1.34284e-27
3.62179e-28
8.75124e-28
1.09182e-27
8.72421e-28
8.65168e-28
8.94457e-28
1.32027e-27
1.06065e-27
9.69508e-28
1.08477e-27
1.47488e-27
1.1812e-27
1.21255e-27
1.27366e-27
1.46259e-27
1.37347e-27
1.6985e-27
1.60457e-27
1.73988e-27
1.86868e-27
2.06345e-27
2.17307e-27
2.84177e-27
2.7644e-27
2.81726e-27
3.3032e-27
3.77612e-27
3.85781e-27
3.61349e-27
3.10491e-27
2.59819e-27
5.20505e-27
1.20425e-26
2.09387e-26
2.09918e-26
2.29638e-26
3.04311e-26
4.84604e-26
7.24291e-26
1.03469e-25
1.52386e-25
2.37768e-25
3.72102e-25
5.49638e-25
1.22212e-24
1.39188e-24
3.89597e-24
8.52862e-22
3.4541e-21
2.53194e-22
2.26749e-21
2.90404e-21
1.11824e-24
1.89182e-22
9.25156e-25
1.47805e-24
2.45513e-28
3.08106e-27
6.87863e-27
1.2443e-27
3.84722e-28
9.25404e-28
1.22156e-27
8.96149e-28
9.64689e-28
9.29223e-28
1.43779e-27
1.10859e-27
1.05308e-27
1.14124e-27
1.59553e-27
1.23793e-27
1.31495e-27
1.34645e-27
1.57786e-27
1.44939e-27
1.81867e-27
1.70497e-27
1.8689e-27
1.99361e-27
2.20873e-27
2.30583e-27
3.00578e-27
2.91553e-27
2.93724e-27
3.41695e-27
3.81151e-27
3.85528e-27
3.60875e-27
3.21665e-27
2.49343e-27
6.59663e-27
1.5784e-26
2.23761e-26
2.19442e-26
2.47594e-26
3.26343e-26
5.12662e-26
7.36351e-26
1.03736e-25
1.45697e-25
2.21389e-25
3.27427e-25
4.67125e-25
1.02599e-24
1.14623e-24
5.17841e-24
9.64335e-22
3.75637e-21
3.65123e-22
2.64237e-21
3.46623e-21
1.22146e-24
2.34827e-22
5.02084e-25
1.79421e-24
1.49623e-27
3.86836e-27
1.05453e-26
1.17903e-27
3.94036e-28
1.05309e-27
1.37666e-27
9.64482e-28
1.07791e-27
1.01314e-27
1.61006e-27
1.20181e-27
1.1506e-27
1.25479e-27
1.77247e-27
1.34109e-27
1.44818e-27
1.46902e-27
1.73824e-27
1.57156e-27
2.00401e-27
1.85212e-27
2.04517e-27
2.17479e-27
2.40526e-27
2.49373e-27
3.26558e-27
3.11098e-27
3.09439e-27
3.56973e-27
3.91441e-27
3.88573e-27
3.70085e-27
3.31488e-27
2.43691e-27
8.44067e-27
1.92792e-26
2.30157e-26
2.2922e-26
2.59637e-26
3.41391e-26
5.2134e-26
7.26915e-26
9.87132e-26
1.33091e-25
1.93767e-25
2.72296e-25
3.72915e-25
8.24965e-25
9.09885e-25
6.8166e-24
1.07928e-21
3.91499e-21
5.86711e-22
3.54812e-27
8.56475e-28
8.58717e-29
1.22999e-27
3.88024e-28
6.9743e-32
1.08985e-28
3.70839e-29
8.01341e-29
5.47135e-29
7.5685e-29
5.88567e-29
8.41153e-29
7.10268e-29
8.08596e-29
6.51128e-29
9.55551e-29
9.24391e-29
9.48764e-29
8.72398e-29
1.0905e-28
1.07936e-28
1.1201e-28
1.07518e-28
1.12737e-28
1.10198e-28
1.26011e-28
1.25774e-28
1.27543e-28
1.26921e-28
1.22686e-28
1.21236e-28
1.39348e-28
1.40695e-28
1.32596e-28
1.25833e-28
1.20289e-28
1.15243e-28
1.14114e-28
1.01719e-28
8.62671e-29
7.16081e-29
8.1796e-29
7.19193e-29
5.88013e-29
5.16456e-29
2.60986e-29
1.63703e-29
5.60597e-30
1.94984e-30
3.79352e-32
3.12181e-30
3.65594e-29
1.47544e-28
7.12366e-28
2.68634e-28
7.08808e-27
3.39099e-25
4.98214e-25
3.10116e-26
3.62356e-25
8.36779e-27
1.23816e-26
1.33176e-26
3.87149e-28
3.55084e-30
2.0395e-28
9.64664e-29
1.14003e-28
1.74282e-28
1.12032e-28
1.65741e-28
1.37437e-28
1.86218e-28
1.46229e-28
1.55702e-28
1.71404e-28
2.22584e-28
1.84628e-28
1.92076e-28
2.09284e-28
2.44689e-28
2.20268e-28
2.34714e-28
2.23269e-28
2.36566e-28
2.48113e-28
2.72292e-28
2.55212e-28
2.67081e-28
2.48396e-28
2.48543e-28
2.73262e-28
2.97004e-28
2.67389e-28
2.52649e-28
2.41514e-28
2.27666e-28
2.26587e-28
2.12223e-28
1.78184e-28
1.71982e-28
1.57938e-28
1.24825e-28
1.17784e-28
9.58336e-29
5.26246e-29
2.436e-29
1.06047e-29
2.04097e-30
8.11047e-32
1.17708e-29
7.23646e-29
4.43086e-28
1.34586e-27
1.22765e-27
9.58215e-27
8.70283e-25
2.87453e-24
2.47359e-26
9.02287e-25
1.296e-25
6.42173e-26
1.89124e-26
1.02455e-27
4.07483e-30
2.4235e-28
1.61132e-28
1.55848e-28
2.34141e-28
1.74409e-28
2.15121e-28
2.12401e-28
2.4153e-28
2.17862e-28
2.13252e-28
2.55937e-28
2.96441e-28
2.71431e-28
2.67103e-28
3.04905e-28
3.34827e-28
3.17826e-28
3.27311e-28
3.19357e-28
3.34945e-28
3.54875e-28
3.79745e-28
3.64136e-28
3.75705e-28
3.51208e-28
3.5839e-28
3.8763e-28
4.15142e-28
3.79067e-28
3.59138e-28
3.42455e-28
3.28308e-28
3.27233e-28
3.08866e-28
2.72881e-28
2.54126e-28
2.06823e-28
1.82167e-28
1.69497e-28
1.34186e-28
7.37237e-29
3.67583e-29
1.45781e-29
3.78946e-30
1.66485e-31
1.19991e-29
1.15561e-28
5.28211e-28
1.89614e-27
1.15413e-27
3.00863e-26
1.43128e-24
3.06696e-24
3.02615e-25
3.28059e-24
1.23143e-24
2.16747e-25
9.56094e-26
1.19916e-27
8.11214e-30
2.44899e-28
1.73018e-28
1.62886e-28
2.33955e-28
1.84637e-28
2.14158e-28
2.22909e-28
2.42061e-28
2.27266e-28
2.13874e-28
2.64044e-28
2.99989e-28
2.80231e-28
2.68702e-28
3.13903e-28
3.38792e-28
3.26659e-28
3.30398e-28
3.27707e-28
3.39618e-28
3.62317e-28
3.8715e-28
3.722e-28
3.8151e-28
3.60245e-28
3.65041e-28
3.9563e-28
4.26877e-28
3.88148e-28
3.68252e-28
3.54791e-28
3.40494e-28
3.47403e-28
3.26482e-28
2.98331e-28
2.59531e-28
1.98441e-28
1.94667e-28
1.77428e-28
1.39349e-28
7.96153e-29
3.84606e-29
1.76687e-29
5.05085e-30
8.57876e-32
1.2789e-29
9.58178e-29
4.78647e-28
1.58375e-27
9.75562e-28
3.95476e-26
2.208e-24
4.40655e-24
1.89095e-24
6.23842e-24
5.66121e-24
3.35167e-25
3.34901e-25
3.45124e-27
2.17598e-29
2.69143e-28
1.9547e-28
1.66996e-28
2.52194e-28
1.8277e-28
2.29329e-28
2.25715e-28
2.57931e-28
2.30589e-28
2.25334e-28
2.69399e-28
3.1609e-28
2.85643e-28
2.76897e-28
3.23513e-28
3.51084e-28
3.3469e-28
3.39585e-28
3.3612e-28
3.49692e-28
3.73156e-28
4.00271e-28
3.81372e-28
3.93538e-28
3.70356e-28
3.76272e-28
4.09499e-28
4.46828e-28
3.99338e-28
3.84501e-28
3.69773e-28
3.60331e-28
3.69789e-28
3.46574e-28
3.18822e-28
2.56373e-28
1.98395e-28
2.13662e-28
1.87434e-28
1.53001e-28
8.61772e-29
4.4502e-29
2.27653e-29
8.52517e-30
1.56454e-31
1.22034e-29
7.60569e-29
4.1959e-28
1.2008e-27
7.15008e-28
5.90228e-26
3.61671e-24
5.80997e-24
7.70931e-24
8.39793e-24
1.63847e-23
3.41849e-25
8.29432e-25
9.03604e-27
5.40611e-29
3.19656e-28
2.25199e-28
1.83338e-28
2.77152e-28
1.85459e-28
2.51205e-28
2.34046e-28
2.81705e-28
2.38313e-28
2.44094e-28
2.83797e-28
3.43823e-28
2.97308e-28
2.96321e-28
3.42811e-28
3.76064e-28
3.51899e-28
3.6047e-28
3.54579e-28
3.72527e-28
3.96182e-28
4.27031e-28
4.02941e-28
4.18836e-28
3.91932e-28
4.02113e-28
4.39324e-28
4.82488e-28
4.23875e-28
4.15021e-28
3.96963e-28
3.94268e-28
4.01424e-28
3.77711e-28
3.4708e-28
2.72319e-28
2.13949e-28
2.4005e-28
2.11042e-28
1.79206e-28
9.87002e-29
5.8314e-29
3.26551e-29
1.72114e-29
9.56594e-31
1.31765e-29
5.77265e-29
3.49824e-28
8.01613e-28
4.29141e-28
8.82571e-26
5.76251e-24
7.25736e-24
2.10208e-23
9.45877e-24
3.6417e-23
2.60456e-25
1.66757e-24
2.19212e-26
1.10311e-28
3.99682e-28
2.55472e-28
2.10272e-28
3.01061e-28
1.94626e-28
2.71861e-28
2.48658e-28
3.06366e-28
2.49443e-28
2.6577e-28
3.04593e-28
3.7566e-28
3.12578e-28
3.21734e-28
3.67847e-28
4.07055e-28
3.73147e-28
3.87325e-28
3.78103e-28
4.02959e-28
4.26268e-28
4.59967e-28
4.3042e-28
4.50982e-28
4.19856e-28
4.37277e-28
4.7817e-28
5.25298e-28
4.54635e-28
4.52265e-28
4.30609e-28
4.36311e-28
4.40067e-28
4.19169e-28
3.88185e-28
3.02452e-28
2.39399e-28
2.74019e-28
2.52089e-28
2.17476e-28
1.20503e-28
8.35168e-29
5.25328e-29
3.79408e-29
6.08359e-30
2.11312e-29
4.94904e-29
2.80385e-28
4.9884e-28
2.89021e-28
1.17517e-25
8.69994e-24
9.74232e-24
4.44335e-23
9.12927e-24
6.72185e-23
1.46833e-25
2.87607e-24
4.92486e-26
1.83558e-28
5.13627e-28
2.80431e-28
2.43005e-28
3.26316e-28
2.07553e-28
2.91123e-28
2.67813e-28
3.31097e-28
2.63682e-28
2.89613e-28
3.28991e-28
4.09296e-28
3.29739e-28
3.49804e-28
3.95894e-28
4.41495e-28
3.96178e-28
4.17338e-28
4.04564e-28
4.375e-28
4.58351e-28
4.97029e-28
4.61036e-28
4.86458e-28
4.51282e-28
4.76942e-28
5.20799e-28
5.72096e-28
4.88152e-28
4.93028e-28
4.68753e-28
4.84628e-28
4.84568e-28
4.7488e-28
4.4463e-28
3.53563e-28
2.78606e-28
3.16324e-28
3.14741e-28
2.72802e-28
1.5741e-28
1.28429e-28
9.23284e-29
8.56126e-29
2.73409e-29
5.50093e-29
7.45758e-29
2.77649e-28
4.84465e-28
8.02258e-28
1.47579e-25
1.25029e-23
1.36638e-23
7.77149e-23
8.4171e-24
1.09456e-22
6.69415e-26
4.43707e-24
1.02878e-25
2.75468e-28
6.64631e-28
2.96173e-28
2.76548e-28
3.56858e-28
2.21947e-28
3.11045e-28
2.91193e-28
3.5642e-28
2.80304e-28
3.1557e-28
3.5846e-28
4.44703e-28
3.48507e-28
3.80343e-28
4.28439e-28
4.78349e-28
4.20467e-28
4.50363e-28
4.3367e-28
4.75577e-28
4.944e-28
5.3708e-28
4.93086e-28
5.25776e-28
4.85742e-28
5.21057e-28
5.68942e-28
6.22498e-28
5.23789e-28
5.38858e-28
5.13085e-28
5.41732e-28
5.40594e-28
5.5158e-28
5.21347e-28
4.31327e-28
3.32864e-28
3.71863e-28
4.09661e-28
3.55173e-28
2.19895e-28
2.08735e-28
1.74442e-28
1.92755e-28
9.70981e-29
1.74109e-28
2.19714e-28
5.15379e-28
1.32616e-27
4.09171e-27
1.68062e-25
1.72632e-23
2.17411e-23
1.19369e-22
7.7078e-24
1.62593e-22
5.76861e-26
6.25173e-24
1.99583e-25
4.20891e-28
9.19506e-28
2.93897e-28
3.12231e-28
3.93887e-28
2.37412e-28
3.32582e-28
3.18108e-28
3.83035e-28
3.00218e-28
3.43186e-28
3.9187e-28
4.81793e-28
3.69718e-28
4.13091e-28
4.64515e-28
5.17454e-28
4.47399e-28
4.85716e-28
4.66539e-28
5.16801e-28
5.32513e-28
5.8081e-28
5.28373e-28
5.68346e-28
5.24428e-28
5.69873e-28
6.2111e-28
6.78323e-28
5.64456e-28
5.91588e-28
5.66831e-28
6.10471e-28
6.08983e-28
6.56324e-28
6.26039e-28
5.2727e-28
4.07047e-28
4.46838e-28
5.48854e-28
4.81813e-28
3.26939e-28
3.53207e-28
3.42562e-28
4.28459e-28
3.01121e-28
5.34919e-28
7.69854e-28
1.54367e-27
5.03212e-27
1.63289e-26
1.82424e-25
2.31728e-23
3.60946e-23
1.65749e-22
8.65292e-24
2.2523e-22
1.36417e-25
8.20633e-24
3.61506e-25
6.89009e-28
1.41157e-27
2.58189e-28
3.53509e-28
4.36099e-28
2.54538e-28
3.55032e-28
3.4949e-28
4.10614e-28
3.22705e-28
3.73201e-28
4.30326e-28
5.20095e-28
3.93042e-28
4.48538e-28
5.05505e-28
5.58037e-28
4.76564e-28
5.23835e-28
5.02956e-28
5.6133e-28
5.75267e-28
6.27205e-28
5.66266e-28
6.1575e-28
5.67683e-28
6.25094e-28
6.80636e-28
7.40327e-28
6.1116e-28
6.54018e-28
6.32144e-28
6.92972e-28
6.93625e-28
7.9e-28
7.39168e-28
6.78765e-28
5.17197e-28
5.44205e-28
7.57378e-28
6.7522e-28
5.07973e-28
6.08237e-28
6.70311e-28
9.09474e-28
8.23276e-28
1.49227e-27
2.40909e-27
4.76691e-27
1.61875e-26
4.87007e-26
1.8404e-25
3.08617e-23
6.39401e-23
2.12304e-22
1.11655e-23
2.96662e-22
4.81805e-25
1.02617e-23
6.14198e-25
1.38035e-27
2.0207e-27
2.06361e-28
3.93122e-28
4.90854e-28
2.70453e-28
3.80938e-28
3.82824e-28
4.41675e-28
3.47006e-28
4.06316e-28
4.71444e-28
5.61093e-28
4.17836e-28
4.87392e-28
5.49271e-28
6.01405e-28
5.08092e-28
5.65214e-28
5.43416e-28
6.09391e-28
6.19836e-28
6.77861e-28
6.09019e-28
6.68072e-28
6.16911e-28
6.86905e-28
7.46712e-28
8.11084e-28
6.6665e-28
7.28255e-28
7.1218e-28
7.92437e-28
7.97226e-28
9.71225e-28
8.87979e-28
8.44915e-28
6.88455e-28
6.77264e-28
1.05665e-27
9.73547e-28
8.09199e-28
1.04836e-27
1.27403e-27
1.82363e-27
2.0102e-27
3.69294e-27
6.43645e-27
1.27994e-26
4.2315e-26
1.15262e-25
1.86225e-25
4.15905e-23
1.08117e-22
2.54151e-22
1.88896e-23
3.75971e-22
1.12907e-24
1.2271e-23
9.66225e-25
3.39658e-27
2.78638e-27
1.40767e-28
4.34315e-28
5.59388e-28
2.84758e-28
4.09995e-28
4.18992e-28
4.76057e-28
3.71652e-28
4.43341e-28
5.1709e-28
6.04129e-28
4.43489e-28
5.30295e-28
5.97751e-28
6.47289e-28
5.40745e-28
6.11363e-28
5.86991e-28
6.61296e-28
6.70126e-28
7.3261e-28
6.54794e-28
7.28164e-28
6.72013e-28
7.56951e-28
8.24683e-28
8.91606e-28
7.31468e-28
8.18895e-28
8.10042e-28
9.14099e-28
9.30895e-28
1.21685e-27
1.06258e-27
1.05721e-27
9.34726e-28
8.53124e-28
1.48704e-27
1.43067e-27
1.29835e-27
1.79412e-27
2.3579e-27
3.51197e-27
4.38884e-27
8.19975e-27
1.48714e-26
2.96119e-26
9.32326e-26
2.31384e-25
1.80509e-25
5.62649e-23
1.81506e-22
2.816e-22
3.37577e-23
4.64494e-22
2.2258e-24
1.46697e-23
1.42286e-24
8.63293e-27
3.77611e-27
7.27606e-29
4.83401e-28
6.4157e-28
2.97997e-28
4.41685e-28
4.58021e-28
5.13196e-28
3.99071e-28
4.83512e-28
5.64574e-28
6.50272e-28
4.71293e-28
5.77317e-28
6.48295e-28
6.9687e-28
5.76208e-28
6.61799e-28
6.35036e-28
7.17656e-28
7.23143e-28
7.93722e-28
7.06368e-28
7.95516e-28
7.35524e-28
8.36548e-28
9.1142e-28
9.85872e-28
8.09653e-28
9.27378e-28
9.29005e-28
1.05865e-27
1.0897e-27
1.51413e-27
1.23454e-27
1.26871e-27
1.29568e-27
1.07058e-27
2.09927e-27
2.11724e-27
2.0794e-27
2.99883e-27
4.20244e-27
6.43134e-27
8.742e-27
1.64041e-26
3.04033e-26
5.99193e-26
1.79735e-25
4.08555e-25
1.75216e-25
7.65378e-23
2.91042e-22
2.96003e-22
6.40995e-23
5.48465e-22
3.69473e-24
1.77061e-23
1.92845e-24
2.02835e-26
5.00551e-27
2.26659e-29
5.54181e-28
7.29668e-28
3.13181e-28
4.72459e-28
5.04211e-28
5.50346e-28
4.29778e-28
5.26314e-28
6.17626e-28
6.97537e-28
5.01716e-28
6.28298e-28
7.04266e-28
7.48672e-28
6.14549e-28
7.17565e-28
6.87216e-28
7.78994e-28
7.82902e-28
8.60422e-28
7.63119e-28
8.72922e-28
8.07069e-28
9.28046e-28
1.01195e-27
1.09388e-27
9.00779e-28
1.05573e-27
1.06702e-27
1.22297e-27
1.2725e-27
1.85366e-27
1.45595e-27
1.72971e-27
1.86094e-27
1.33143e-27
2.98748e-27
3.07992e-27
3.24473e-27
4.85519e-27
7.1294e-27
1.11091e-26
1.59844e-26
2.99505e-26
5.56842e-26
1.08071e-25
3.07219e-25
6.42315e-25
1.75171e-25
1.05407e-22
4.6127e-22
2.97271e-22
1.14365e-22
6.57812e-22
5.38014e-24
2.21296e-23
2.47972e-24
4.66939e-26
5.81036e-27
4.01182e-30
6.31373e-28
8.406e-28
3.23457e-28
5.08521e-28
5.53112e-28
5.91177e-28
4.63675e-28
5.72415e-28
6.72676e-28
7.48508e-28
5.34765e-28
6.83969e-28
7.6262e-28
8.04728e-28
6.56915e-28
7.78693e-28
7.44919e-28
8.46083e-28
8.45349e-28
9.35216e-28
8.28722e-28
9.60001e-28
8.89237e-28
1.0324e-27
1.12437e-27
1.22158e-27
1.01191e-27
1.21318e-27
1.24242e-27
1.44398e-27
1.54336e-27
2.41206e-27
2.18878e-27
2.12419e-27
2.45553e-27
1.82399e-27
4.11756e-27
4.43224e-27