/*--------------------------------*- C++ -*----------------------------------*\
| =========                 |                                                 |
| \\      /  F ield         | OpenFOAM: The Open Source CFD Toolbox           |
|  \\    /   O peration     | Version:  2312                                  |
|   \\  /    A nd           | Website:  www.openfoam.com                      |
|    \\/     M anipulation  |                                                 |
\*---------------------------------------------------------------------------*/
FoamFile
{
    version     2.0;
    format      ascii;
    arch        "LSB;label=32;scalar=64";
    class       volScalarField;
    location    "400";
    object      pMean;
}
// * * * * * * * * * * * * * * * * * * * * * * * * * * * * * * * * * * * * * //

dimensions      [0 2 -2 0 0 0 0];

internalField   nonuniform List<scalar> 
144000
(
1.16257e-09
5.16424e-10
-6.50593e-10
-1.11487e-09
-9.05554e-10
-5.92277e-10
-3.14426e-10
-1.63808e-10
-3.70587e-11
-1.54003e-12
5.35771e-11
4.80877e-11
8.32197e-11
6.41186e-11
9.44189e-11
7.12695e-11
9.66117e-11
6.46693e-11
9.18086e-11
6.26528e-11
9.10046e-11
5.67624e-11
8.63491e-11
5.26941e-11
8.47045e-11
5.00291e-11
8.26228e-11
4.40112e-11
7.84632e-11
4.02671e-11
7.76841e-11
3.89974e-11
7.58726e-11
3.1146e-11
6.97867e-11
2.66577e-11
6.75858e-11
2.33759e-11
6.42806e-11
1.67475e-11
5.78834e-11
1.27037e-11
5.578e-11
6.52974e-12
4.81267e-11
-1.74702e-12
3.96968e-11
-2.4685e-12
3.65499e-11
1.1611e-12
3.46912e-11
1.63823e-11
3.07031e-11
3.18344e-11
2.49602e-12
5.82335e-11
1.10534e-11
1.48529e-10
-1.54572e-09
-3.73574e-10
1.20742e-09
5.44395e-10
-6.62227e-10
-1.12387e-09
-9.08153e-10
-5.9231e-10
-3.14664e-10
-1.64166e-10
-3.77002e-11
-2.11554e-12
5.29315e-11
4.76557e-11
8.27252e-11
6.38189e-11
9.40377e-11
7.11041e-11
9.63037e-11
6.45151e-11
9.15259e-11
6.25964e-11
9.07719e-11
5.67155e-11
8.61249e-11
5.27082e-11
8.4508e-11
5.00752e-11
8.24341e-11
4.40604e-11
7.8271e-11
4.03515e-11
7.75077e-11
3.91184e-11
7.56931e-11
3.12497e-11
6.95883e-11
2.68141e-11
6.74005e-11
2.35548e-11
6.40886e-11
1.69181e-11
5.75913e-11
1.28036e-11
5.54643e-11
6.79145e-12
4.79083e-11
-1.43338e-12
3.94527e-11
-2.05578e-12
3.63285e-11
1.61021e-12
3.44901e-11
1.69194e-11
3.05791e-11
3.22908e-11
2.34149e-12
5.78037e-11
1.5767e-11
1.66376e-10
-1.57269e-09
-4.127e-10
1.2689e-09
5.49256e-10
-6.81455e-10
-1.12571e-09
-9.07891e-10
-5.91282e-10
-3.14147e-10
-1.64295e-10
-3.80732e-11
-2.92746e-12
5.222e-11
4.68759e-11
8.22074e-11
6.31805e-11
9.36503e-11
7.06555e-11
9.61011e-11
6.40859e-11
9.13064e-11
6.22759e-11
9.06822e-11
5.64161e-11
8.60338e-11
5.24755e-11
8.44852e-11
4.98797e-11
8.24448e-11
4.38582e-11
7.82677e-11
4.01845e-11
7.75406e-11
3.89979e-11
7.57735e-11
3.10905e-11
6.96149e-11
2.6709e-11
6.74775e-11
2.34724e-11
6.41807e-11
1.68374e-11
5.75295e-11
1.25471e-11
5.53549e-11
6.71979e-12
4.80314e-11
-1.36586e-12
3.95116e-11
-1.89484e-12
3.64603e-11
1.79269e-12
3.46081e-11
1.71468e-11
3.08771e-11
3.23703e-11
2.91238e-12
5.48303e-11
2.03408e-11
1.9538e-10
-1.62057e-09
-4.37999e-10
1.33266e-09
5.058e-10
-7.0261e-10
-1.11247e-09
-9.0383e-10
-5.89244e-10
-3.12677e-10
-1.63624e-10
-3.79371e-11
-3.641e-12
5.13886e-11
4.58885e-11
8.15211e-11
6.23641e-11
9.30965e-11
7.00731e-11
9.58329e-11
6.35294e-11
9.09516e-11
6.18482e-11
9.05471e-11
5.60309e-11
8.58638e-11
5.21708e-11
8.44183e-11
4.96409e-11
8.2448e-11
4.36085e-11
7.82258e-11
3.99731e-11
7.75527e-11
3.88567e-11
7.58856e-11
3.09043e-11
6.96125e-11
2.65737e-11
6.75636e-11
2.33812e-11
6.43076e-11
1.67778e-11
5.74356e-11
1.22186e-11
5.51469e-11
6.51168e-12
4.82239e-11
-1.29303e-12
3.96039e-11
-1.7749e-12
3.67318e-11
1.85191e-12
3.49435e-11
1.70463e-11
3.18673e-11
3.14604e-11
5.18821e-12
4.72419e-11
3.15616e-11
2.21195e-10
-1.68252e-09
-4.23222e-10
1.38798e-09
3.91571e-10
-7.22301e-10
-1.07182e-09
-8.9344e-10
-5.86884e-10
-3.10731e-10
-1.62098e-10
-3.72162e-11
-4.18482e-12
5.04064e-11
4.47195e-11
8.06136e-11
6.13732e-11
9.23167e-11
6.93692e-11
9.54395e-11
6.28684e-11
9.04023e-11
6.13272e-11
9.03076e-11
5.55926e-11
8.5548e-11
5.18207e-11
8.42487e-11
4.93909e-11
8.23785e-11
4.3355e-11
7.8075e-11
3.97538e-11
7.74758e-11
3.87469e-11
7.59622e-11
3.07484e-11
6.95048e-11
2.64584e-11
6.75892e-11
2.33369e-11
6.44027e-11
1.68253e-11
5.72398e-11
1.19566e-11
5.4705e-11
6.17345e-12
4.83808e-11
-1.12301e-12
3.96449e-11
-1.67787e-12
3.70805e-11
1.76001e-12
3.55313e-11
1.64555e-11
3.37562e-11
2.91058e-11
9.8888e-12
3.43813e-11
5.15667e-11
2.36844e-10
-1.75487e-09
-3.48229e-10
1.43699e-09
1.95037e-10
-7.43389e-10
-9.98043e-10
-8.73934e-10
-5.85029e-10
-3.08977e-10
-1.59935e-10
-3.6023e-11
-4.6068e-12
4.92238e-11
4.33378e-11
7.94603e-11
6.01961e-11
9.13015e-11
6.85287e-11
9.49087e-11
6.21206e-11
8.966e-11
6.07151e-11
8.99519e-11
5.51131e-11
8.50851e-11
5.14253e-11
8.39693e-11
4.91359e-11
8.22262e-11
4.31084e-11
7.78049e-11
3.95339e-11
7.73014e-11
3.86716e-11
7.59826e-11
3.06369e-11
6.9279e-11
2.63631e-11
6.75368e-11
2.33495e-11
6.445e-11
1.70179e-11
5.69359e-11
1.1794e-11
5.39487e-11
5.64961e-12
4.84549e-11
-8.47638e-13
3.96361e-11
-1.63309e-12
3.75269e-11
1.43937e-12
3.64582e-11
1.51678e-11
3.67981e-11
2.48986e-11
1.76553e-11
1.59467e-11
8.07715e-11
2.40655e-10
-1.84046e-09
-2.03919e-10
1.48793e-09
-8.43393e-11
-7.731e-10
-8.89658e-10
-8.42514e-10
-5.83929e-10
-3.08055e-10
-1.5738e-10
-3.44575e-11
-4.99598e-12
4.77678e-11
4.16856e-11
7.80176e-11
5.88165e-11
9.00381e-11
6.75378e-11
9.42268e-11
6.12966e-11
8.87342e-11
6.00163e-11
8.94785e-11
5.46105e-11
8.44815e-11
5.09939e-11
8.35821e-11
4.88876e-11
8.19839e-11
4.28848e-11
7.74176e-11
3.93247e-11
7.70263e-11
3.86385e-11
7.59369e-11
3.05863e-11
6.89372e-11
2.62954e-11
6.74018e-11
2.34265e-11
6.44503e-11
1.7372e-11
5.65859e-11
1.1756e-11
5.27638e-11
4.87234e-12
4.84513e-11
-4.67406e-13
3.95958e-11
-1.6988e-12
3.81008e-11
7.97254e-13
3.78266e-11
1.30281e-11
4.11517e-11
1.86113e-11
2.86105e-11
-7.33506e-12
1.17408e-10
2.34614e-10
-1.94089e-09
7.77746e-12
1.54824e-09
-4.33765e-10
-8.18007e-10
-7.50015e-10
-7.97153e-10
-5.83427e-10
-3.08488e-10
-1.5467e-10
-3.26062e-11
-5.412e-12
4.59887e-11
3.97071e-11
7.62296e-11
5.72066e-11
8.84975e-11
6.63742e-11
9.33586e-11
6.03949e-11
8.76267e-11
5.92308e-11
8.88723e-11
5.40934e-11
8.37414e-11
5.0536e-11
8.30851e-11
4.86552e-11
8.1648e-11
4.26985e-11
7.69179e-11
3.91386e-11
7.66506e-11
3.86581e-11
7.58138e-11
3.06093e-11
6.84845e-11
2.62581e-11
6.71864e-11
2.35654e-11
6.44203e-11
1.78911e-11
5.63062e-11
1.18167e-11
5.09891e-11
3.76489e-12
4.83818e-11
-1.35943e-15
3.956e-11
-1.92461e-12
3.88392e-11
-2.33417e-13
3.96949e-11
9.967e-12
4.67881e-11
1.04579e-11
4.22387e-11
-3.36419e-11
1.57485e-10
2.23326e-10
-2.05392e-09
2.70829e-10
1.62375e-09
-8.30832e-10
-8.83299e-10
-5.86812e-10
-7.36872e-10
-5.82871e-10
-3.10704e-10
-1.52089e-10
-3.05679e-11
-5.89006e-12
4.38341e-11
3.73793e-11
7.407e-11
5.53434e-11
8.66607e-11
6.50151e-11
9.22674e-11
5.9406e-11
8.63312e-11
5.83546e-11
8.81112e-11
5.35599e-11
8.28618e-11
5.00555e-11
8.24717e-11
4.84405e-11
8.12099e-11
4.2558e-11
7.63076e-11
3.89849e-11
7.61766e-11
3.87348e-11
7.56057e-11
3.07124e-11
6.79347e-11
2.62524e-11
6.68982e-11
2.3751e-11
6.43925e-11
1.85579e-11
5.62874e-11
1.1931e-11
4.84006e-11
2.26626e-12
4.82834e-11
5.29072e-13
3.95646e-11
-2.34145e-12
3.97547e-11
-1.65306e-12
4.20494e-11
6.07964e-12
5.34561e-11
9.7354e-13
5.74471e-11
-6.05411e-11
1.96403e-10
2.12062e-10
-2.17456e-09
5.60723e-10
1.7153e-09
-1.24917e-09
-9.71272e-10
-4.10379e-10
-6.62062e-10
-5.81354e-10
-3.14931e-10
-1.49933e-10
-2.84265e-11
-6.43858e-12
4.13188e-11
3.47082e-11
7.15325e-11
5.32265e-11
8.45241e-11
6.34597e-11
9.09304e-11
5.83194e-11
8.48502e-11
5.73844e-11
8.71786e-11
5.30039e-11
8.18428e-11
4.95504e-11
8.17345e-11
4.82456e-11
8.06593e-11
4.24576e-11
7.55895e-11
3.88642e-11
7.56049e-11
3.8869e-11
7.53038e-11
3.08953e-11
6.72982e-11
2.62751e-11
6.65456e-11
2.39697e-11
6.43952e-11
1.93486e-11
5.67666e-11
1.1998e-11
4.47225e-11
3.30349e-13
4.82003e-11
1.09937e-12
3.96385e-11
-2.9507e-12
4.08321e-11
-3.41252e-12
4.47896e-11
1.60864e-12
6.07074e-11
-8.99748e-12
7.2838e-11
-8.54403e-11
2.30022e-10
2.04773e-10
-2.2945e-09
8.53455e-10
1.81899e-09
-1.65962e-09
-1.08112e-09
-2.32285e-10
-5.74438e-10
-5.77799e-10
-3.21178e-10
-1.4851e-10
-2.63218e-11
-7.05129e-12
3.84683e-11
3.17158e-11
6.86279e-11
5.08676e-11
8.20985e-11
6.17092e-11
8.93399e-11
5.71345e-11
8.31861e-11
5.63226e-11
8.60662e-11
5.24184e-11
8.06849e-11
4.90199e-11
8.08683e-11
4.80625e-11
7.99901e-11
4.23948e-11
7.47693e-11
3.87792e-11
7.49351e-11
3.90564e-11
7.49034e-11
3.11492e-11
6.65881e-11
2.63271e-11
6.61313e-11
2.41969e-11
6.44733e-11
2.02377e-11
5.80382e-11
1.17833e-11
3.96278e-11
-2.05813e-12
4.81707e-11
1.69749e-12
3.97751e-11
-3.71842e-12
4.20055e-11
-5.40485e-12
4.77233e-11
-3.10754e-12
6.79804e-11
-1.85399e-11
8.69867e-11
-1.06121e-10
2.55375e-10
2.03666e-10
-2.4037e-09
1.12615e-09
1.92743e-09
-2.03851e-09
-1.20842e-09
-6.30399e-11
-4.76798e-10
-5.71139e-10
-3.29227e-10
-1.48124e-10
-2.43952e-11
-7.724e-12
3.53236e-11
2.84352e-11
6.53753e-11
4.82849e-11
7.93946e-11
5.97762e-11
8.74944e-11
5.58522e-11
8.13483e-11
5.51762e-11
8.47686e-11
5.17971e-11
7.9392e-11
4.84631e-11
7.987e-11
4.78878e-11
7.91991e-11
4.23634e-11
7.38516e-11
3.87273e-11
7.41675e-11
3.92896e-11
7.44064e-11
3.1466e-11
6.58099e-11
2.64059e-11
6.56598e-11
2.44077e-11
6.46634e-11
2.11752e-11
6.06017e-11
1.10713e-11
3.26481e-11
-4.85193e-12
4.82218e-11
2.30395e-12
3.99397e-11
-4.57696e-12
4.32038e-11
-7.48212e-12
5.0609e-11
-7.67383e-12
7.4699e-11
-2.6756e-11
9.86879e-11
-1.20972e-10
2.70877e-10
2.09313e-10
-2.49297e-09
1.36064e-09
2.0318e-09
-2.3666e-09
-1.34647e-09
8.83194e-11
-3.72671e-10
-5.6041e-10
-3.38598e-10
-1.49023e-10
-2.28326e-11
-8.45695e-12
3.1936e-11
2.49079e-11
6.18043e-11
4.5497e-11
7.64348e-11
5.76717e-11
8.5402e-11
5.44771e-11
7.93515e-11
5.39544e-11
8.32879e-11
5.11368e-11
7.79716e-11
4.78831e-11
7.87431e-11
4.77155e-11
7.82904e-11
4.23564e-11
7.28416e-11
3.8705e-11
7.33036e-11
3.95615e-11
7.38095e-11
3.18381e-11
6.49702e-11
2.65128e-11
6.51276e-11
2.45938e-11
6.49615e-11
2.21568e-11
6.50211e-11
9.58592e-12
2.33061e-11
-7.89464e-12
4.83816e-11
2.92448e-12
4.00916e-11
-5.45018e-12
4.4283e-11
-9.45169e-12
5.31955e-11
-1.17002e-11
8.03288e-11
-3.29525e-11
1.07096e-10
-1.29142e-10
2.76261e-10
2.20576e-10
-2.55491e-09
1.54498e-09
2.12329e-09
-2.63155e-09
-1.48772e-09
2.15204e-10
-2.65997e-10
-5.44889e-10
-3.48649e-10
-1.51373e-10
-2.18162e-11
-9.26124e-12
2.83601e-11
2.11828e-11
5.7947e-11
4.25347e-11
7.32462e-11
5.54193e-11
8.30766e-11
5.30176e-11
7.72127e-11
5.26664e-11
8.16303e-11
5.04362e-11
7.64337e-11
4.72841e-11
7.7492e-11
4.75411e-11
7.7268e-11
4.23677e-11
7.17459e-11
3.87105e-11
7.23483e-11
3.98657e-11
7.311e-11
3.22597e-11
6.40684e-11
2.66629e-11
6.4511e-11
2.47875e-11
6.52685e-11
2.32569e-11
7.16919e-11
6.38548e-12
1.12061e-11
-1.09153e-11
4.87066e-11
3.61134e-12
4.02072e-11
-6.23673e-12
4.51392e-11
-1.11274e-11
5.52509e-11
-1.48387e-11
8.44595e-11
-3.66704e-11
1.1178e-10
-1.305e-10
2.72431e-10
2.35318e-10
-2.58467e-09
1.67345e-09
2.19341e-09
-2.82644e-09
-1.62402e-09
3.13485e-10
-1.60849e-10
-5.24218e-10
-3.5866e-10
-1.55254e-10
-2.15405e-11
-1.01655e-11
2.46498e-11
1.73072e-11
5.38371e-11
3.94209e-11
6.98532e-11
5.30379e-11
8.0535e-11
5.14806e-11
7.49475e-11
5.1323e-11
7.98079e-11
4.96942e-11
7.4789e-11
4.66689e-11
7.61242e-11
4.73607e-11
7.61376e-11
4.23925e-11
7.05733e-11
3.87423e-11
7.13065e-11
4.01972e-11
7.23092e-11
3.27286e-11
6.31024e-11
2.68712e-11
6.3793e-11
2.50204e-11
6.5495e-11
2.43556e-11
8.19799e-11
3.06783e-13
-4.86888e-12
-1.39768e-11
4.90554e-11
4.36034e-12
4.02422e-11
-6.82881e-12
4.56659e-11
-1.235e-11
5.65832e-11
-1.68458e-11
8.68353e-11
-3.76989e-11
1.12698e-10
-1.25516e-10
2.60885e-10
2.51136e-10
-2.57953e-09
1.74533e-09
2.23518e-09
-2.94959e-09
-1.74761e-09
3.81451e-10
-6.11e-11
-4.98424e-10
-3.67879e-10
-1.60659e-10
-2.21986e-11
-1.12168e-11
2.08511e-11
1.33266e-11
4.95079e-11
3.61744e-11
6.62797e-11
5.05463e-11
7.77988e-11
4.98728e-11
7.2571e-11
4.99343e-11
7.78343e-11
4.89109e-11
7.30485e-11
4.60404e-11
7.46486e-11
4.71709e-11
7.49074e-11
4.24278e-11
6.93322e-11
3.87987e-11
7.0185e-11
4.05494e-11
7.14128e-11
3.32368e-11
6.20807e-11
2.71315e-11
6.29899e-11
2.52771e-11
6.56591e-11
2.48699e-11
9.88909e-11
-2.32855e-12
-2.58849e-11
-1.73034e-11
4.88304e-11
5.06047e-12
4.00706e-11
-7.16684e-12
4.57529e-11
-1.30024e-11
5.70548e-11
-1.75736e-11
8.73522e-11
-3.60503e-11
1.10141e-10
-1.15062e-10
2.43613e-10
2.65723e-10
-2.53901e-09
1.76375e-09
2.24297e-09
-3.0038e-09
-1.85138e-09
4.19442e-10
2.9911e-11
-4.67908e-10
-3.756e-10
-1.67487e-10
-2.39624e-11
-1.24765e-11
1.70036e-11
9.28435e-12
4.49902e-11
3.28129e-11
6.25483e-11
4.79632e-11
7.48897e-11
4.82017e-11
7.00983e-11
4.8509e-11
7.57259e-11
4.80873e-11
7.12215e-11
4.54009e-11
7.30748e-11
4.69689e-11
7.35878e-11
4.24704e-11
6.80315e-11
3.88776e-11
6.89897e-11
4.09195e-11
7.04249e-11
3.37879e-11
6.09897e-11
2.74814e-11
6.20262e-11
2.57556e-11
6.52996e-11
2.53498e-11
1.09116e-10
-3.20951e-14
-3.90591e-11
-1.91589e-11
4.8082e-11
5.80217e-12
3.97037e-11
-7.15923e-12
4.53433e-11
-1.29989e-11
5.65937e-11
-1.69721e-11
8.60475e-11
-3.19138e-11
1.04658e-10
-1.00234e-10
2.22658e-10
2.77114e-10
-2.46426e-09
1.73402e-09
2.21393e-09
-2.9947e-09
-1.93009e-09
4.29426e-10
1.09479e-10
-4.33355e-10
-3.81194e-10
-1.75552e-10
-2.69646e-11
-1.40127e-11
1.31414e-11
5.2223e-12
4.03162e-11
2.93524e-11
5.86816e-11
4.53039e-11
7.18286e-11
4.64748e-11
6.75442e-11
4.70552e-11
7.34976e-11
4.72246e-11
6.9321e-11
4.47527e-11
7.14157e-11
4.67523e-11
7.21881e-11
4.25173e-11
6.66792e-11
3.89787e-11
6.77266e-11
4.13067e-11
6.93442e-11
3.43913e-11
5.98071e-11
2.79765e-11
6.07884e-11
2.67e-11
6.38132e-11
2.69519e-11
9.61201e-11
1.22485e-12
-2.66447e-11
-1.73276e-11
4.71954e-11
6.77042e-12
3.92019e-11
-6.70957e-12
4.4426e-11
-1.2289e-11
5.52057e-11
-1.50751e-11
8.30858e-11
-2.56345e-11
9.69455e-11
-8.22367e-11
1.99795e-10
2.83818e-10
-2.35831e-09
1.66336e-09
2.1469e-09
-2.93007e-09
-1.97993e-09
4.14602e-10
1.75614e-10
-3.9573e-10
-3.84174e-10
-1.84588e-10
-3.12959e-11
-1.59002e-11
9.28715e-12
1.1779e-12
3.55168e-11
2.58099e-11
5.46993e-11
4.25818e-11
6.86357e-11
4.46983e-11
6.49222e-11
4.55797e-11
7.11653e-11
4.63242e-11
6.73561e-11
4.40972e-11
6.96814e-11
4.65187e-11
7.07184e-11
4.2566e-11
6.52839e-11
3.90993e-11
6.64047e-11
4.17047e-11
6.81831e-11
3.50311e-11
5.85579e-11
2.85727e-11
5.93758e-11
2.79006e-11
6.17249e-11
2.85699e-11
7.64111e-11
6.61886e-12
-5.59487e-12
-1.36582e-11
4.5731e-11
7.80449e-12
3.84422e-11
-5.83971e-12
4.29783e-11
-1.08941e-11
5.29377e-11
-1.20106e-11
7.87274e-11
-1.76593e-11
8.7722e-11
-6.22768e-11
1.76598e-10
2.84966e-10
-2.22495e-09
1.55958e-09
2.04285e-09
-2.81856e-09
-1.99892e-09
3.78928e-10
2.27151e-10
-3.56144e-10
-3.8424e-10
-1.9431e-10
-3.70052e-11
-1.82204e-11
5.44797e-12
-2.81984e-12
3.06192e-11
2.21951e-11
5.06169e-11
3.98078e-11
6.53312e-11
4.28778e-11
6.22432e-11
4.40871e-11
6.87437e-11
4.53874e-11
6.53356e-11
4.3435e-11
6.78823e-11
4.62668e-11
6.91885e-11
4.26144e-11
6.38538e-11
3.92366e-11
6.50331e-11
4.21084e-11
6.69536e-11
3.56955e-11
5.72651e-11
2.92282e-11
5.78855e-11
2.91278e-11
5.95816e-11
2.94944e-11
6.33949e-11
1.49332e-11
9.54714e-12
-9.93109e-12
4.36512e-11
8.83116e-12
3.73684e-11
-4.5725e-12
4.10206e-11
-8.86513e-12
4.99024e-11
-7.95129e-12
7.32897e-11
-8.47458e-12
7.77263e-11
-4.14438e-11
1.54368e-10
2.80327e-10
-2.06879e-09
1.43039e-09
1.9034e-09
-2.66906e-09
-1.98609e-09
3.26935e-10
2.63619e-10
-3.15822e-10
-3.81293e-10
-2.04416e-10
-4.40927e-11
-2.10521e-11
1.61688e-12
-6.74894e-12
2.56473e-11
1.85166e-11
4.64471e-11
3.699e-11
6.19338e-11
4.10186e-11
5.95167e-11
4.25805e-11
6.62473e-11
4.44145e-11
6.32668e-11
4.27653e-11
6.60277e-11
4.59955e-11
6.76084e-11
4.26601e-11
6.2395e-11
3.93878e-11
6.36181e-11
4.25159e-11
6.56637e-11
3.63863e-11
5.59257e-11
2.99503e-11
5.63009e-11
3.03911e-11
5.73446e-11
3.02543e-11
5.49322e-11
1.96877e-11
2.02204e-11
-5.79194e-12
4.15449e-11
9.99131e-12
3.60397e-11
-2.90269e-12
3.86292e-11
-6.27782e-12
4.62435e-11
-3.11097e-12
6.71148e-11
1.44334e-12
6.7607e-11
-2.06667e-11
1.33819e-10
2.70264e-10
-1.89411e-09
1.28251e-09
1.73162e-09
-2.49083e-09
-1.94223e-09
2.63247e-10
2.85377e-10
-2.75934e-10
-3.75403e-10
-2.14603e-10
-5.25031e-11
-2.44586e-11
-2.21855e-12
-1.05929e-11
2.06249e-11
1.47839e-11
4.22023e-11
3.41342e-11
5.84598e-11
3.91255e-11
5.67517e-11
4.10611e-11
6.36887e-11
4.34073e-11
6.11572e-11
4.20869e-11
6.41269e-11
4.57031e-11
6.59872e-11
4.27012e-11
6.09145e-11
3.95493e-11
6.21684e-11
4.29217e-11
6.43257e-11
3.70938e-11
5.45536e-11
3.07184e-11
5.46519e-11
3.16455e-11
5.50959e-11
3.10257e-11
4.89716e-11
2.24001e-11
2.79118e-11
-1.16969e-12
3.95979e-11
1.13117e-11
3.44737e-11
-8.77586e-13
3.58838e-11
-3.23663e-12
4.21232e-11
2.27545e-12
6.05531e-11
1.16483e-11
5.79277e-11
-6.64183e-13
1.15316e-10
2.55409e-10
-1.70527e-09
1.12229e-09
1.53146e-09
-2.2931e-09
-1.86949e-09
1.92466e-10
2.93533e-10
-2.37502e-10
-3.66794e-10
-2.246e-10
-6.21322e-11
-2.84839e-11
-6.07564e-12
-1.4342e-11
1.55737e-11
1.10056e-11
3.7895e-11
3.12429e-11
5.4924e-11
3.72039e-11
5.39573e-11
3.95279e-11
6.10789e-11
4.23676e-11
5.90139e-11
4.13975e-11
6.21886e-11
4.53874e-11
6.43338e-11
4.27359e-11
5.94201e-11
3.97166e-11
6.06942e-11
4.33177e-11
6.29527e-11
3.78064e-11
5.31695e-11
3.14983e-11
5.29896e-11
3.28195e-11
5.29755e-11
3.17379e-11
4.4692e-11
2.40686e-11
3.33574e-11
3.66922e-12
3.77961e-11
1.2757e-11
3.26814e-11
1.42808e-12
3.28724e-11
1.40376e-13
3.77305e-11
7.97505e-12
5.39342e-11
2.1744e-11
4.91391e-11
1.80435e-11
9.88549e-11
2.36421e-10
-1.50627e-09
9.55932e-10
1.30802e-09
-2.08539e-09
-1.77167e-09
1.18891e-10
2.89902e-10
-2.01299e-10
-3.55794e-10
-2.34199e-10
-7.28703e-11
-3.31653e-11
-9.98277e-12
-1.80001e-11
1.05054e-11
7.18364e-12
3.35327e-11
2.83119e-11
5.13352e-11
3.52576e-11
5.11409e-11
3.79766e-11
5.84249e-11
4.12967e-11
5.68427e-11
4.06926e-11
6.022e-11
4.50448e-11
6.26544e-11
4.27621e-11
5.79191e-11
3.98849e-11
5.92047e-11
4.3696e-11
6.15553e-11
3.85161e-11
5.17896e-11
3.22673e-11
5.1343e-11
3.38868e-11
5.10205e-11
3.23557e-11
4.16293e-11
2.52475e-11
3.70157e-11
8.4707e-12
3.61202e-11
1.43101e-11
3.07075e-11
3.94107e-12
2.97013e-11
3.73541e-12
3.32554e-11
1.37682e-11
4.75648e-11
3.1414e-11
4.15676e-11
3.51872e-11
8.42727e-11
2.13767e-10
-1.30101e-09
7.8971e-10
1.06736e-09
-1.87543e-09
-1.65337e-09
4.59845e-11
2.76578e-10
-1.67863e-10
-3.42758e-10
-2.43241e-10
-8.46128e-11
-3.85362e-11
-1.39744e-11
-2.15741e-11
5.42363e-12
3.31767e-12
2.91159e-11
2.53347e-11
4.76961e-11
3.32916e-11
4.83071e-11
3.64045e-11
5.57296e-11
4.01979e-11
5.46463e-11
3.99691e-11
5.82238e-11
4.46731e-11
6.09528e-11
4.27803e-11
5.64154e-11
4.00506e-11
5.77056e-11
4.40504e-11
6.01414e-11
3.92197e-11
5.04246e-11
3.30106e-11
4.97222e-11
3.4847e-11
4.92222e-11
3.2893e-11
3.94273e-11
2.62149e-11
3.92486e-11
1.30852e-11
3.45691e-11
1.59661e-11
2.86127e-11
6.58546e-12
2.64713e-11
7.42864e-12
2.88733e-11
1.94545e-11
4.16761e-11
4.04308e-11
3.5425e-11
5.06761e-11
7.12433e-11
1.87892e-10
-1.09321e-09
6.28707e-10
1.16523e-09
5.18776e-10
-6.49109e-10
-1.11389e-09
-9.04602e-10
-5.90103e-10
-3.11653e-10
-1.61245e-10
-3.52345e-11
-6.75421e-13
5.36911e-11
4.76886e-11
8.25176e-11
6.32057e-11
9.34241e-11
7.0221e-11
9.57231e-11
6.3985e-11
9.1309e-11
6.2241e-11
9.0744e-11
5.65946e-11
8.62631e-11
5.25917e-11
8.46474e-11
4.99037e-11
8.26053e-11
4.39965e-11
7.85245e-11
4.02282e-11
7.77254e-11
3.88708e-11
7.58559e-11
3.09183e-11
6.97659e-11
2.64071e-11
6.76813e-11
2.31508e-11
6.45876e-11
1.68216e-11
5.87757e-11
1.37775e-11
5.6188e-11
7.0098e-12
4.81757e-11
-2.04726e-12
3.91245e-11
-3.04209e-12
3.58043e-11
4.663e-13
3.37714e-11
1.55209e-11
2.97079e-11
3.119e-11
1.6476e-12
5.81768e-11
1.11601e-11
1.47214e-10
-1.5485e-09
-3.74986e-10
1.21015e-09
5.46983e-10
-6.60805e-10
-1.12293e-09
-9.07168e-10
-5.90117e-10
-3.11866e-10
-1.6159e-10
-3.58713e-11
-1.25366e-12
5.30397e-11
4.72482e-11
8.20145e-11
6.28958e-11
9.30327e-11
7.0043e-11
9.54083e-11
6.38257e-11
9.10227e-11
6.2179e-11
9.05103e-11
5.65476e-11
8.60377e-11
5.26036e-11
8.44493e-11
4.99475e-11
8.24191e-11
4.40506e-11
7.83351e-11
4.03161e-11
7.75497e-11
3.89938e-11
7.56761e-11
3.10267e-11
6.95644e-11
2.65688e-11
6.74911e-11
2.33383e-11
6.43913e-11
1.70132e-11
5.85283e-11
1.3947e-11
5.59376e-11
7.2919e-12
4.79568e-11
-1.735e-12
3.88794e-11
-2.63306e-12
3.55804e-11
9.12507e-13
3.35651e-11
1.60516e-11
2.95841e-11
3.1644e-11
1.49943e-12
5.77618e-11
1.58991e-11
1.6513e-10
-1.57548e-09
-4.14308e-10
1.27183e-09
5.52389e-10
-6.8012e-10
-1.12489e-09
-9.06889e-10
-5.89068e-10
-3.11312e-10
-1.617e-10
-3.62291e-11
-2.06482e-12
5.23212e-11
4.64571e-11
8.1486e-11
6.22448e-11
9.26329e-11
6.95767e-11
9.51935e-11
6.33877e-11
9.07986e-11
6.18506e-11
9.04189e-11
5.62485e-11
8.59473e-11
5.23679e-11
8.44256e-11
4.97481e-11
8.24328e-11
4.38548e-11
7.83387e-11
4.01532e-11
7.7586e-11
3.88749e-11
7.57576e-11
3.08724e-11
6.95904e-11
2.64678e-11
6.75641e-11
2.32622e-11
6.44819e-11
1.69395e-11
5.85301e-11
1.37795e-11
5.59424e-11
7.28768e-12
4.8085e-11
-1.67114e-12
3.89345e-11
-2.47493e-12
3.57073e-11
1.09351e-12
3.36799e-11
1.62724e-11
2.98823e-11
3.1721e-11
2.0688e-12
5.47765e-11
2.05211e-11
1.94435e-10
-1.62348e-09
-4.40274e-10
1.33573e-09
5.09727e-10
-7.01332e-10
-1.11183e-09
-9.0283e-10
-5.87004e-10
-3.09801e-10
-1.60993e-10
-3.60691e-11
-2.77198e-12
5.14846e-11
4.54581e-11
8.0788e-11
6.14141e-11
9.20649e-11
6.89728e-11
9.49067e-11
6.28187e-11
9.04372e-11
6.14128e-11
9.02793e-11
5.58639e-11
8.57792e-11
5.20605e-11
8.43578e-11
4.95037e-11
8.24365e-11
4.36127e-11
7.83056e-11
3.99482e-11
7.76032e-11
3.87366e-11
7.587e-11
3.06932e-11
6.95857e-11
2.63391e-11
6.76435e-11
2.31774e-11
6.46031e-11
1.68645e-11
5.85218e-11
1.35398e-11
5.59031e-11
7.23406e-12
4.83015e-11
-1.60752e-12
3.90285e-11
-2.3569e-12
3.59767e-11
1.14813e-12
3.40151e-11
1.61535e-11
3.08813e-11
3.0801e-11
4.34943e-12
4.71656e-11
3.17682e-11
2.20686e-10
-1.68549e-09
-4.26398e-10
1.39086e-09
3.96248e-10
-7.21015e-10
-1.07135e-09
-8.9243e-10
-5.84644e-10
-3.07792e-10
-1.5941e-10
-3.53043e-11
-3.29971e-12
5.0503e-11
4.42806e-11
7.98697e-11
6.04091e-11
9.12711e-11
6.82452e-11
9.44888e-11
6.21412e-11
8.98797e-11
6.08797e-11
9.0032e-11
5.54265e-11
8.54666e-11
5.17088e-11
8.41861e-11
4.92472e-11
8.23631e-11
4.33682e-11
7.81647e-11
3.97398e-11
7.75306e-11
3.86342e-11
7.59425e-11
3.05502e-11
6.94704e-11
2.6238e-11
6.76527e-11
2.31452e-11
6.46805e-11
1.68657e-11
5.84412e-11
1.33157e-11
5.56829e-11
7.17975e-12
4.85147e-11
-1.45161e-12
3.90731e-11
-2.26046e-12
3.63305e-11
1.05234e-12
3.46079e-11
1.55512e-11
3.27763e-11
2.84284e-11
9.04576e-12
3.42816e-11
5.17907e-11
2.36725e-10
-1.75777e-09
-3.52305e-10
1.43962e-09
2.00274e-10
-7.42043e-10
-9.97737e-10
-8.72903e-10
-5.82769e-10
-3.05974e-10
-1.57179e-10
-3.40631e-11
-3.69903e-12
4.93246e-11
4.28932e-11
7.8709e-11
5.92219e-11
9.02439e-11
6.73829e-11
9.39305e-11
6.13748e-11
8.91273e-11
6.02552e-11
8.9665e-11
5.49476e-11
8.50077e-11
5.13138e-11
8.39038e-11
4.89861e-11
8.22014e-11
4.31314e-11
7.79032e-11
3.95357e-11
7.73576e-11
3.85727e-11
7.59519e-11
3.04599e-11
6.9227e-11
2.61701e-11
6.75711e-11
2.31796e-11
6.46927e-11
1.6974e-11
5.82788e-11
1.31191e-11
5.52152e-11
7.10904e-12
4.86931e-11
-1.19649e-12
3.90728e-11
-2.21029e-12
3.67875e-11
7.28031e-13
3.55481e-11
1.42469e-11
3.58204e-11
2.42033e-11
1.68052e-11
1.58076e-11
8.09867e-11
2.40918e-10
-1.84317e-09
-2.08627e-10
1.49009e-09
-7.88004e-11
-7.71635e-10
-8.89486e-10
-8.4148e-10
-5.81639e-10
-3.04989e-10
-1.54556e-10
-3.24395e-11
-4.05028e-12
4.78819e-11
4.12422e-11
7.72632e-11
5.78359e-11
8.89718e-11
6.63737e-11
9.32205e-11
6.05311e-11
8.81895e-11
5.95444e-11
8.91771e-11
5.44451e-11
8.4408e-11
5.08856e-11
8.35121e-11
4.87335e-11
8.19444e-11
4.29184e-11
7.75209e-11
3.93481e-11
7.70787e-11
3.85619e-11
7.58873e-11
3.04412e-11
6.88546e-11
2.61479e-11
6.73871e-11
2.32959e-11
6.46301e-11
1.72082e-11
5.80535e-11
1.29521e-11
5.44448e-11
7.00583e-12
4.88416e-11
-8.43874e-13
3.90488e-11
-2.26056e-12
3.73788e-11
8.69615e-14
3.69357e-11
1.20929e-11
4.01775e-11
1.7904e-11
2.77561e-11
-7.52414e-12
1.1761e-10
2.35195e-10
-1.94329e-09
2.69725e-12
1.54985e-09
-4.28183e-10
-8.16365e-10
-7.49932e-10
-7.96147e-10
-5.81109e-10
-3.05363e-10
-1.51779e-10
-3.05278e-11
-4.41948e-12
4.61202e-11
3.92685e-11
7.54768e-11
5.62249e-11
8.7426e-11
6.5197e-11
9.23259e-11
5.96099e-11
8.70687e-11
5.87474e-11
8.8554e-11
5.39276e-11
8.36704e-11
5.04341e-11
8.30084e-11
4.84994e-11
8.15884e-11
4.27437e-11
7.70206e-11
3.91902e-11
7.66928e-11
3.86132e-11
7.57335e-11
3.05094e-11
6.83545e-11
2.61761e-11
6.70978e-11
2.34999e-11
6.44937e-11
1.75783e-11
5.78082e-11
1.27996e-11
5.3344e-11
6.84597e-12
4.8965e-11
-4.15803e-13
3.90351e-11
-2.45937e-12
3.81429e-11
-9.39182e-13
3.88268e-11
9.02232e-12
4.58175e-11
9.73607e-12
4.13933e-11
-3.38888e-11
1.57679e-10
2.24155e-10
-2.056e-09
2.65634e-10
1.62486e-09
-8.25493e-10
-8.81502e-10
-5.86766e-10
-7.35897e-10
-5.8053e-10
-3.07524e-10
-1.49129e-10
-2.84224e-11
-4.84584e-12
4.39895e-11
3.69512e-11
7.33233e-11
5.4366e-11
8.55876e-11
6.38308e-11
9.12111e-11
5.86031e-11
8.57593e-11
5.78615e-11
8.77738e-11
5.33932e-11
8.27918e-11
4.99632e-11
8.23868e-11
4.82862e-11
8.11252e-11
4.26158e-11
7.64037e-11
3.90712e-11
7.62015e-11
3.8731e-11
7.54828e-11
3.06717e-11
6.77387e-11
2.62604e-11
6.67038e-11
2.37924e-11
6.42967e-11
1.80796e-11
5.75924e-11
1.26424e-11
5.1884e-11
6.63319e-12
4.90817e-11
5.61118e-14
3.90685e-11
-2.83778e-12
3.90927e-11
-2.349e-12
4.12082e-11
5.13006e-12
5.2491e-11
2.35193e-13
5.66183e-11
-6.08546e-11
1.96594e-10
2.13033e-10
-2.17638e-09
5.55734e-10
1.71606e-09
-1.24435e-09
-9.694e-10
-4.10334e-10
-6.61129e-10
-5.78999e-10
-3.11704e-10
-1.46905e-10
-2.62158e-11
-5.34178e-12
4.1502e-11
3.42952e-11
7.07958e-11
5.22589e-11
8.34542e-11
6.22746e-11
8.98547e-11
5.75017e-11
8.4264e-11
5.68837e-11
8.68209e-11
5.28361e-11
8.17711e-11
4.94706e-11
8.16396e-11
4.80965e-11
8.05456e-11
4.25297e-11
7.56733e-11
3.89904e-11
7.56054e-11
3.89147e-11
7.51287e-11
3.09273e-11
6.70178e-11
2.64013e-11
6.62092e-11
2.4169e-11
6.40362e-11
1.87089e-11
5.74615e-11
1.24455e-11
5.00471e-11
6.36055e-12
4.92062e-11
5.44477e-13
3.91768e-11
-3.39831e-12
4.02125e-11
-4.09303e-12
4.39819e-11
6.59362e-13
5.97519e-11
-9.75303e-12
7.20386e-11
-8.58211e-11
2.3022e-10
2.0579e-10
-2.29619e-09
8.48998e-10
1.81962e-09
-1.65546e-09
-1.07927e-09
-2.32212e-10
-5.73553e-10
-5.75445e-10
-3.17916e-10
-1.45421e-10
-2.40511e-11
-5.90313e-12
3.86813e-11
3.13215e-11
6.79044e-11
4.99147e-11
8.10359e-11
6.05287e-11
8.82497e-11
5.63062e-11
8.25864e-11
5.58167e-11
8.56878e-11
5.22498e-11
8.06087e-11
4.89547e-11
8.07613e-11
4.79221e-11
7.98451e-11
4.24822e-11
7.4834e-11
3.89489e-11
7.49048e-11
3.9159e-11
7.46668e-11
3.1266e-11
6.62056e-11
2.65977e-11
6.56185e-11
2.46202e-11
6.3722e-11
1.94527e-11
5.74652e-11
1.21726e-11
4.78461e-11
6.02655e-12
4.93431e-11
1.03687e-12
3.93534e-11
-4.10954e-12
4.14352e-11
-6.06455e-12
4.69519e-11
-4.05295e-12
6.70395e-11
-1.9312e-11
8.62287e-11
-1.06563e-10
2.55589e-10
2.04668e-10
-2.40537e-09
1.1224e-09
1.92809e-09
-2.03506e-09
-1.20666e-09
-6.29129e-11
-4.75968e-10
-5.68803e-10
-3.25941e-10
-1.44986e-10
-2.20746e-11
-6.52811e-12
3.55666e-11
2.80615e-11
6.46681e-11
4.73509e-11
7.83429e-11
5.86053e-11
8.63946e-11
5.50173e-11
8.07362e-11
5.46678e-11
8.43698e-11
5.1628e-11
7.93088e-11
4.84145e-11
7.97498e-11
4.77588e-11
7.90219e-11
4.24666e-11
7.38921e-11
3.89423e-11
7.41021e-11
3.94539e-11
7.41013e-11
3.16763e-11
6.53109e-11
2.68413e-11
6.49328e-11
2.51309e-11
6.33572e-11
2.0282e-11
5.76502e-11
1.18187e-11
4.52994e-11
5.65739e-12
4.94865e-11
1.52726e-12
3.95706e-11
-4.90335e-12
4.26879e-11
-8.11612e-12
4.98763e-11
-8.61305e-12
7.3776e-11
-2.75425e-11
9.79776e-11
-1.2146e-10
2.71104e-10
2.10262e-10
-2.49471e-09
1.35766e-09
2.03267e-09
-2.36387e-09
-1.34488e-09
8.8518e-11
-3.71894e-10
-5.58113e-10
-3.35305e-10
-1.45849e-10
-2.04719e-11
-7.21853e-12
3.22081e-11
2.45565e-11
6.1114e-11
4.45856e-11
7.5397e-11
5.65151e-11
8.42972e-11
5.36403e-11
7.87284e-11
5.34461e-11
8.28701e-11
5.09678e-11
7.78794e-11
4.78515e-11
7.86089e-11
4.75996e-11
7.80807e-11
4.24755e-11
7.28549e-11
3.8965e-11
7.32012e-11
3.97892e-11
7.34332e-11
3.21458e-11
6.43465e-11
2.71263e-11
6.41587e-11
2.56893e-11
6.29347e-11
2.11682e-11
5.80299e-11
1.13996e-11
4.24583e-11
5.28565e-12
4.96068e-11
2.02417e-12
3.9788e-11
-5.70538e-12
4.3826e-11
-1.00579e-11
5.25035e-11
-1.26294e-11
7.94255e-11
-3.37502e-11
1.06435e-10
-1.29662e-10
2.76501e-10
2.2145e-10
-2.55682e-09
1.54278e-09
2.12451e-09
-2.62952e-09
-1.48637e-09
2.1548e-10
-2.65259e-10
-5.42642e-10
-3.45365e-10
-1.48176e-10
-1.94265e-11
-7.98698e-12
2.86584e-11
2.08531e-11
5.72736e-11
4.16475e-11
7.22234e-11
5.42799e-11
8.1971e-11
5.21826e-11
7.65809e-11
5.2161e-11
8.11954e-11
5.0268e-11
7.63312e-11
4.7269e-11
7.73438e-11
4.7439e-11
7.70274e-11
4.25015e-11
7.17309e-11
3.90129e-11
7.22098e-11
4.01548e-11
7.26666e-11
3.26607e-11
6.33247e-11
2.74502e-11
6.33007e-11
2.62858e-11
6.24426e-11
2.20814e-11
5.85731e-11
1.09824e-11
3.94335e-11
4.95435e-12
4.96609e-11
2.55073e-12
3.99567e-11
-6.42731e-12
4.47374e-11
-1.17058e-11
5.45996e-11
-1.57548e-11
8.35789e-11
-3.74762e-11
1.11169e-10
-1.31037e-10
2.72691e-10
2.36096e-10
-2.58683e-09
1.67202e-09
2.19508e-09
-2.82505e-09
-1.62294e-09
3.13848e-10
-1.60137e-10
-5.22032e-10
-3.55402e-10
-1.5205e-10
-1.91341e-11
-8.86306e-12
2.49712e-11
1.69984e-11
5.31802e-11
3.85572e-11
6.8847e-11
5.19185e-11
7.94323e-11
5.06506e-11
7.43093e-11
5.08227e-11
7.93579e-11
4.95271e-11
7.46755e-11
4.66692e-11
7.59627e-11
4.72721e-11
7.5869e-11
4.25386e-11
7.05308e-11
3.90824e-11
7.11363e-11
4.05411e-11
7.18079e-11
3.32105e-11
6.22552e-11
2.78101e-11
6.23635e-11
2.69128e-11
6.18607e-11
2.29853e-11
5.91518e-11
1.07022e-11
3.64529e-11
4.71637e-12
4.95909e-11
3.13186e-12
4.0021e-11
-6.96806e-12
4.53121e-11
-1.29031e-11
5.59694e-11
-1.77475e-11
8.59772e-11
-3.85091e-11
1.12132e-10
-1.26053e-10
2.61165e-10
2.51811e-10
-2.58198e-09
1.7446e-09
2.23732e-09