/*--------------------------------*- C++ -*----------------------------------*\
| =========                 |                                                 |
| \\      /  F ield         | OpenFOAM: The Open Source CFD Toolbox           |
|  \\    /   O peration     | Version:  2312                                  |
|   \\  /    A nd           | Website:  www.openfoam.com                      |
|    \\/     M anipulation  |                                                 |
\*---------------------------------------------------------------------------*/
FoamFile
{
    version     2.0;
    format      ascii;
    arch        "LSB;label=32;scalar=64";
    class       volScalarField;
    location    "800";
    object      nut;
}
// * * * * * * * * * * * * * * * * * * * * * * * * * * * * * * * * * * * * * //

dimensions      [0 2 -1 0 0 0 0];

internalField   nonuniform List<scalar> 
330000
(
2.92996e-24
4.30416e-25
3.10672e-26
1.35076e-27
1.33834e-29
1.90503e-29
2.3047e-28
1.9106e-28
3.00638e-28
2.15716e-28
2.83324e-28
3.08962e-28
3.81785e-28
4.00981e-28
4.53854e-28
5.49362e-28
5.58746e-28
5.42881e-28
6.2893e-28
6.92588e-28
7.68097e-28
7.67141e-28
8.90949e-28
9.37708e-28
1.06135e-27
1.11459e-27
1.24919e-27
1.23746e-27
1.44662e-27
1.47544e-27
1.69639e-27
1.73771e-27
1.95658e-27
1.9064e-27
2.19535e-27
2.25379e-27
2.51302e-27
2.5057e-27
2.82411e-27
2.65349e-27
3.09027e-27
2.94733e-27
3.35299e-27
3.18945e-27
3.52392e-27
2.99371e-27
3.34598e-27
2.88706e-27
2.99643e-27
2.25501e-27
2.13554e-27
1.37885e-27
7.90698e-28
1.94622e-28
2.47145e-30
1.02763e-28
2.05318e-27
4.55252e-26
4.39345e-25
2.49792e-24
3.24354e-24
1.16294e-24
1.16716e-25
1.88799e-27
2.44657e-31
6.7906e-29
3.25524e-28
4.48322e-28
5.51902e-28
4.56285e-28
5.24574e-28
6.45896e-28
7.50215e-28
8.12476e-28
8.85727e-28
1.12031e-27
1.10405e-27
1.09942e-27
1.22495e-27
1.39949e-27
1.50662e-27
1.54515e-27
1.74052e-27
1.88511e-27
2.0787e-27
2.22342e-27
2.45785e-27
2.45933e-27
2.82164e-27
2.93371e-27
3.31691e-27
3.4214e-27
3.84104e-27
3.72938e-27
4.27018e-27
4.4076e-27
4.82937e-27
4.90609e-27
5.4524e-27
5.15846e-27
5.87224e-27
5.71354e-27
6.31746e-27
6.11724e-27
6.64305e-27
5.6361e-27
6.1632e-27
5.34648e-27
5.44956e-27
3.96441e-27
3.7131e-27
2.24734e-27
1.31814e-27
1.81437e-28
3.4782e-32
5.9309e-28
5.92318e-27
9.78948e-26
1.20397e-24
3.89921e-24
5.67625e-24
1.77199e-24
1.30605e-25
3.63891e-27
1.51215e-30
1.05649e-28
4.73461e-28
5.93409e-28
8.05337e-28
6.12474e-28
7.86315e-28
8.61897e-28
1.134e-27
1.06753e-27
1.33188e-27
1.48055e-27
1.60857e-27
1.50868e-27
1.78801e-27
1.90619e-27
2.17058e-27
2.13403e-27
2.50129e-27
2.60572e-27
2.98494e-27
3.07851e-27
3.51269e-27
3.42531e-27
4.01098e-27
4.10851e-27
4.73754e-27
4.76261e-27
5.4598e-27
5.22024e-27
6.07107e-27
6.1537e-27
6.83009e-27
6.91959e-27
7.71442e-27
7.28107e-27
8.26464e-27
8.10951e-27
8.93837e-27
8.63528e-27
9.35279e-27
8.02871e-27
8.70277e-27
7.63649e-27
7.71808e-27
5.68312e-27
5.29092e-27
3.22819e-27
1.85839e-27
2.77881e-28
5.6272e-32
6.37486e-28
8.94406e-27
1.44143e-25
1.56332e-24
5.47873e-24
6.61101e-24
1.79675e-24
1.41521e-25
3.34736e-27
3.10697e-30
9.38203e-29
5.20893e-28
5.39106e-28
8.64272e-28
5.5691e-28
8.61236e-28
8.00294e-28
1.21846e-27
9.92671e-28
1.42642e-27
1.38292e-27
1.69116e-27
1.44981e-27
1.85998e-27
1.83819e-27
2.23822e-27
2.08596e-27
2.57785e-27
2.54761e-27
3.05937e-27
3.02258e-27
3.58776e-27
3.38153e-27
4.09255e-27
4.06993e-27
4.82203e-27
4.7044e-27
5.54213e-27
5.18373e-27
6.18477e-27
6.08235e-27
6.92411e-27
6.9058e-27
7.8067e-27
7.28469e-27
8.36029e-27
8.13764e-27
9.02327e-27
8.66454e-27
9.42446e-27
8.12527e-27
8.83407e-27
7.73151e-27
7.83707e-27
5.79425e-27
5.45163e-27
3.31451e-27
1.97362e-27
2.87547e-28
1.32812e-31
5.76923e-28
8.31726e-27
1.41332e-25
1.90883e-24
6.42843e-24
8.06651e-24
2.1033e-24
1.77665e-25
3.29681e-27
5.35742e-30
9.20567e-29
5.18036e-28
5.31001e-28
8.77658e-28
5.26705e-28
8.91679e-28
7.53786e-28
1.25421e-27
9.25046e-28
1.47197e-27
1.28884e-27
1.74457e-27
1.37474e-27
1.88605e-27
1.75115e-27
2.26564e-27
2.00467e-27
2.59392e-27
2.45507e-27
3.07011e-27
2.91845e-27
3.59443e-27
3.27558e-27
4.08927e-27
3.9563e-27
4.7987e-27
4.56403e-27
5.51984e-27
5.04009e-27
6.14903e-27
5.89955e-27
6.88791e-27
6.73836e-27
7.74147e-27
7.11366e-27
8.27372e-27
7.96956e-27
8.90034e-27
8.48336e-27
9.3074e-27
7.98797e-27
8.71668e-27
7.60531e-27
7.72683e-27
5.70068e-27
5.39504e-27
3.26568e-27
1.96406e-27
2.73172e-28
2.35707e-31
5.54177e-28
8.28806e-27
1.47274e-25
2.48584e-24
6.86632e-24
1.07375e-23
2.57695e-24
2.58174e-25
3.32122e-27
1.25901e-29
9.32732e-29
5.12643e-28
5.38761e-28
8.94854e-28
5.23883e-28
9.2796e-28
7.37422e-28
1.29885e-27
8.97252e-28
1.53751e-27
1.24275e-27
1.83706e-27
1.33551e-27
1.95384e-27
1.71395e-27
2.34783e-27
1.97534e-27
2.67255e-27
2.42611e-27
3.1526e-27
2.88913e-27
3.68765e-27
3.25041e-27
4.18911e-27
3.93655e-27
4.88792e-27
4.53787e-27
5.62865e-27
5.02167e-27
6.26131e-27
5.8662e-27
7.02782e-27
6.72148e-27
7.86658e-27
7.1029e-27
8.40343e-27
7.97346e-27
8.99766e-27
8.48854e-27
9.42174e-27
8.02072e-27
8.81521e-27
7.62944e-27
7.78992e-27
5.72175e-27
5.45074e-27
3.26909e-27
1.97969e-27
2.63716e-28
3.97351e-31
5.68326e-28
8.58633e-27
1.65061e-25
3.49104e-24
7.35217e-24
1.50646e-23
3.10288e-24
3.96258e-25
3.45359e-27
3.52959e-29
9.16913e-29
5.11801e-28
5.50221e-28
9.17825e-28
5.29046e-28
9.65891e-28
7.34114e-28
1.34756e-27
8.86862e-28
1.61005e-27
1.22244e-27
1.94676e-27
1.31031e-27
2.04288e-27
1.69704e-27
2.45719e-27
1.9634e-27
2.78045e-27
2.42033e-27
3.27054e-27
2.88895e-27
3.8216e-27
3.25631e-27
4.33666e-27
3.94849e-27
5.03034e-27
4.55945e-27
5.79975e-27
5.05113e-27
6.4387e-27
5.89618e-27
7.25209e-27
6.76455e-27
8.08409e-27
7.15846e-27
8.63676e-27
8.04104e-27
9.20828e-27
8.58093e-27
9.65799e-27
8.12595e-27
9.017e-27
7.72659e-27
7.95002e-27
5.79889e-27
5.57056e-27
3.314e-27
2.02349e-27
2.65633e-28
7.21818e-31
5.98663e-28
9.21093e-27
1.94715e-25
4.95665e-24
7.84149e-24
2.12999e-23
3.60686e-24
6.0397e-25
3.78216e-27
9.15659e-29
8.8174e-29
5.12328e-28
5.61226e-28
9.37554e-28
5.37592e-28
9.97622e-28
7.34402e-28
1.38665e-27
8.85074e-28
1.67475e-27
1.21158e-27
2.05019e-27
1.28568e-27
2.13427e-27
1.68184e-27
2.5684e-27
1.95054e-27
2.89391e-27
2.41333e-27
3.39142e-27
2.88802e-27
3.95985e-27
3.25949e-27
4.49171e-27
3.95583e-27
5.18002e-27
4.57915e-27
5.97506e-27
5.07971e-27
6.6278e-27
5.92979e-27
7.4843e-27
6.79879e-27
8.31586e-27
7.20616e-27
8.89234e-27
8.0976e-27
9.44144e-27
8.66326e-27
9.91281e-27
8.21919e-27
9.24873e-27
7.80747e-27
8.12815e-27
5.87459e-27
5.70844e-27
3.35616e-27
2.07945e-27
2.72545e-28
1.35694e-30
6.58844e-28
1.0336e-26
2.40951e-25
6.85537e-24
8.22047e-24
2.95377e-23
4.03203e-24
8.90346e-25
4.35942e-27
2.07638e-28
8.36017e-29
5.16209e-28
5.68433e-28
9.57848e-28
5.47449e-28
1.02423e-27
7.38333e-28
1.42187e-27
8.88726e-28
1.73325e-27
1.21082e-27
2.14582e-27
1.26524e-27
2.22613e-27
1.66947e-27
2.67991e-27
1.93729e-27
3.00929e-27
2.40527e-27
3.51622e-27
2.88671e-27
4.10024e-27
3.26222e-27
4.65004e-27
3.95729e-27
5.33652e-27
4.59808e-27
6.1555e-27
5.10599e-27
6.82139e-27
5.96418e-27
7.72185e-27
6.82803e-27
8.55743e-27
7.25072e-27
9.15931e-27
8.14053e-27
9.69481e-27
8.74138e-27
1.01846e-26
8.30219e-27
9.48961e-27
7.87907e-27
8.32328e-27
5.94151e-27
5.8562e-27
3.40106e-27
2.14938e-27
2.84395e-28
2.91934e-30
7.76522e-28
1.22393e-26
3.06509e-25
9.1542e-24
8.4852e-24
3.97699e-23
4.37162e-24
1.25555e-24
5.28503e-27
4.08365e-28
8.1995e-29
5.23114e-28
5.71478e-28
9.7792e-28
5.57819e-28
1.04744e-27
7.44574e-28
1.45187e-27
8.98508e-28
1.78605e-27
1.21686e-27
2.23031e-27
1.24982e-27
2.31704e-27
1.66008e-27
2.78929e-27
1.92617e-27
3.12757e-27
2.39781e-27
3.64251e-27
2.88569e-27
4.24286e-27
3.26458e-27
4.81214e-27
3.95773e-27
5.5001e-27
4.61501e-27
6.33906e-27
5.13308e-27
7.02522e-27
5.99997e-27
7.95991e-27
6.85408e-27
8.80796e-27
7.29112e-27
9.43869e-27
8.17729e-27
9.96422e-27
8.80783e-27
1.04647e-26
8.37443e-27
9.74964e-27
7.93448e-27
8.52888e-27
6.00143e-27
6.01628e-27
3.43988e-27
2.23026e-27
2.98256e-28
6.87454e-30
9.86436e-28
1.52265e-26
3.93875e-25
1.17265e-23
8.62653e-24
5.17626e-23
4.6085e-24
1.70082e-24
6.62861e-27
7.13005e-28
8.47136e-29
5.36099e-28
5.69197e-28
1.00209e-27
5.67067e-28
1.06984e-27
7.53617e-28
1.48324e-27
9.12084e-28
1.83644e-27
1.231e-27
2.3078e-27
1.24217e-27
2.40742e-27
1.65605e-27
2.89899e-27
1.91904e-27
3.24829e-27
2.39363e-27
3.77484e-27
2.88818e-27
4.39026e-27
3.27155e-27
4.97981e-27
3.96031e-27
5.67484e-27
4.63592e-27
6.53408e-27
5.16429e-27
7.23912e-27
6.04084e-27
8.20765e-27
6.8868e-27
9.07291e-27
7.3382e-27
9.73239e-27
8.21443e-27
1.02577e-26
8.87714e-27
1.0767e-26
8.445e-27
1.00225e-26
7.98939e-27
8.75664e-27
6.05496e-27
6.18977e-27
3.48225e-27
2.32442e-27
3.1624e-28
1.6847e-29
1.33525e-27
1.95111e-26
5.02344e-25
1.44831e-23
8.71855e-24
6.52819e-23
4.76403e-24
2.21798e-24
8.44127e-27
1.12179e-27
9.42506e-29
5.53405e-28
5.6371e-28
1.02784e-27
5.74755e-28
1.09271e-27
7.63502e-28
1.51342e-27
9.29261e-28
1.88478e-27
1.24903e-27
2.37611e-27
1.24072e-27
2.49469e-27
1.65625e-27
3.00545e-27
1.91645e-27
3.37023e-27
2.39251e-27
3.90865e-27
2.89312e-27
4.53997e-27
3.28045e-27
5.15072e-27
3.9663e-27
5.85697e-27
4.65705e-27
6.73448e-27
5.19866e-27
7.46287e-27
6.0837e-27
8.45777e-27
6.92269e-27
9.34528e-27
7.38548e-27
1.0035e-26
8.2531e-27
1.05646e-26
8.93892e-27
1.10761e-26
8.50946e-27
1.03101e-26
8.03351e-27
8.9925e-27
6.10326e-27
6.37531e-27
3.52089e-27
2.42799e-27
3.38236e-28
3.8868e-29
1.8689e-27
2.52907e-26
6.31457e-25
1.72701e-23
8.77418e-24
7.99467e-23
4.83834e-24
2.80397e-24
1.07536e-26
1.62762e-27
1.10678e-28
5.76573e-28
5.55327e-28
1.05805e-27
5.80303e-28
1.11749e-27
7.74351e-28
1.5471e-27
9.47831e-28
1.93288e-27
1.2714e-27
2.43991e-27
1.24598e-27
2.57917e-27
1.66172e-27
3.1106e-27
1.91883e-27
3.49208e-27
2.39571e-27
4.04628e-27
2.90197e-27
4.6925e-27
3.29431e-27
5.32547e-27
3.97642e-27
6.04695e-27
4.68194e-27
6.94479e-27
5.23688e-27
7.69364e-27
6.12974e-27
8.71608e-27
6.96545e-27
9.62618e-27
7.43908e-27
1.03461e-26
8.29422e-27
1.08861e-26
9.00137e-27
1.14e-26
8.57181e-27
1.06036e-26
8.0759e-27
9.24326e-27
6.1444e-27
6.57018e-27
3.56138e-27
2.54247e-27
3.68401e-28
8.25575e-29
2.63707e-27
3.2606e-26
7.77341e-25
2.00063e-23
8.86173e-24
9.5488e-23
4.8625e-24
3.44933e-24
1.36e-26
2.20747e-27
1.35021e-28
6.02574e-28
5.45847e-28
1.09137e-27
5.83703e-28
1.14551e-27
7.84472e-28
1.58206e-27
9.67549e-28
1.98152e-27
1.29476e-27
2.49895e-27
1.25597e-27
2.66002e-27
1.67133e-27
3.21205e-27
1.92622e-27
3.61344e-27
2.40285e-27
4.18332e-27
2.91407e-27
4.84651e-27
3.31107e-27
5.50227e-27
3.99104e-27
6.24105e-27
4.70831e-27
7.1593e-27
5.27825e-27
7.93149e-27
6.17674e-27
8.97571e-27
7.01169e-27
9.91076e-27
7.49383e-27
1.06614e-26
8.33739e-27
1.12119e-26
9.0577e-27
1.17256e-26
8.62927e-27
1.0905e-26
8.10864e-27
9.4949e-27
6.18014e-27
6.77178e-27
3.59824e-27
2.66757e-27
4.09174e-28
1.59077e-28
3.67693e-27
4.1516e-26
9.37501e-25
2.25623e-23
8.9752e-24
1.11444e-22
4.8353e-24
4.15205e-24
1.7057e-26
2.84691e-27
1.66563e-28
6.32422e-28
5.36016e-28
1.12971e-27
5.85351e-28
1.17699e-27
7.94556e-28
1.62213e-27
9.86765e-28
2.03188e-27
1.32014e-27
2.55765e-27
1.27037e-27
2.73869e-27
1.68569e-27
3.31236e-27
1.93831e-27
3.73356e-27
2.41491e-27
4.32254e-27
2.9305e-27
5.00209e-27
3.33331e-27
5.68183e-27
4.01053e-27
6.43984e-27
4.73946e-27
7.38181e-27
5.32283e-27
8.17365e-27
6.22677e-27
9.24262e-27
7.06343e-27
1.01999e-26
7.55443e-27
1.09808e-26
8.38297e-27
1.1544e-26
9.11516e-27
1.20605e-26
8.6834e-27
1.12059e-26
8.13998e-27
9.75534e-27
6.20826e-27
6.97869e-27
3.6377e-27
2.80658e-27
4.65592e-28
2.82416e-28
5.02536e-27
5.19381e-26
1.10661e-24
2.48972e-23
9.18237e-24
1.27563e-22
4.78445e-24
4.89841e-24
2.12374e-26
3.52653e-27
2.05492e-28
6.62817e-28
5.28037e-28
1.17002e-27
5.86026e-28
1.21221e-27
8.03685e-28
1.66435e-27
1.00599e-27
2.08506e-27
1.34526e-27
2.61495e-27
1.28722e-27
2.81528e-27
1.7035e-27
3.40964e-27
1.95483e-27
3.85256e-27
2.4313e-27
4.46056e-27
2.95097e-27
5.15806e-27
3.35869e-27
5.86196e-27
4.03508e-27
6.64099e-27
4.77336e-27
7.60639e-27
5.37006e-27
8.41991e-27
6.27867e-27
9.51063e-27
7.11814e-27
1.04894e-26
7.61544e-27
1.12993e-26
8.43113e-27
1.1876e-26
9.16893e-27
1.23914e-26
8.73195e-27
1.15083e-26
8.16348e-27
1.00108e-26
6.23254e-27
7.19114e-27
3.67872e-27
2.96133e-27
5.40894e-28
4.65521e-28
6.7098e-27
6.38823e-26
1.2819e-24
2.69156e-23
9.46399e-24
1.43375e-22
4.70784e-24
5.68161e-24
2.62969e-26
4.24325e-27
2.50508e-28
6.95082e-28
5.21607e-28
1.21368e-27
5.86296e-28
1.25055e-27
8.12644e-28
1.71176e-27
1.02417e-27
2.14115e-27
1.37093e-27
2.67426e-27
1.30626e-27
2.89152e-27
1.7247e-27
3.50664e-27
1.97514e-27
3.97018e-27
2.45222e-27
4.59987e-27
2.97566e-27
5.31416e-27
3.38925e-27
6.0435e-27
4.06429e-27
6.84435e-27
4.81205e-27
7.83578e-27
5.42011e-27
8.66755e-27
6.3335e-27
9.78352e-27
7.17623e-27
1.07794e-26
7.68058e-27
1.16173e-26
8.48072e-27
1.22082e-26
9.22331e-27
1.2724e-26
8.77672e-27
1.18039e-26
8.1849e-27
1.02691e-26
6.25141e-27
7.40711e-27
3.72618e-27
3.13569e-27
6.40202e-28
7.24656e-28
8.76075e-27
7.73524e-26
1.45775e-24
2.85878e-23
9.88626e-24
1.58704e-22
4.63264e-24
6.48172e-24
3.23668e-26
4.98561e-27
3.01465e-28
7.2661e-28
5.16857e-28
1.25977e-27
5.86256e-28
1.29267e-27
8.20598e-28
1.76194e-27
1.04188e-27
2.20085e-27
1.39528e-27
2.73511e-27
1.32628e-27
2.96818e-27
1.74791e-27
3.60242e-27
1.99885e-27
4.08745e-27
2.4766e-27
4.73733e-27
3.00416e-27
5.47061e-27
3.42307e-27
6.22487e-27
4.09779e-27
7.04786e-27
4.85379e-27
8.06511e-27
5.47308e-27
8.91711e-27
6.38947e-27
1.00543e-26
7.23603e-27
1.10679e-26
7.74582e-27
1.19313e-26
8.53074e-27
1.2534e-26
9.27429e-27
1.30484e-26
8.8173e-27
1.2096e-26
8.19881e-27
1.05186e-26
6.26859e-27
7.62629e-27
3.77839e-27
3.33376e-27
7.67575e-28
1.07431e-27
1.12211e-26
9.24249e-26
1.63078e-24
2.98396e-23
1.04264e-23
1.73007e-22
4.55712e-24
7.28921e-24
3.96113e-26
5.75117e-27
3.57335e-28
7.59143e-28
5.136e-28
1.30898e-27
5.86445e-28
1.33729e-27
8.28757e-28
1.81707e-27
1.05842e-27
2.26361e-27
1.41957e-27
2.79943e-27
1.34706e-27
3.0464e-27
1.77315e-27
3.69942e-27
2.02499e-27
4.20427e-27
2.50453e-27
4.87593e-27
3.036e-27
5.62657e-27
3.46148e-27
6.40682e-27
4.13514e-27
7.25162e-27
4.89995e-27
8.29669e-27
5.52813e-27
9.16581e-27
6.44783e-27
1.03268e-26
7.29719e-27
1.13537e-26
7.81343e-27
1.22418e-26
8.58033e-27
1.28548e-26
9.32473e-27
1.33694e-26
8.85271e-27
1.23772e-26
8.21071e-27
1.07682e-26
6.28141e-27
7.84894e-27
3.83976e-27
3.559e-27
9.2839e-28
1.53549e-27
1.41362e-26
1.09216e-25
1.79518e-24
3.06787e-23
1.11597e-23
1.86169e-22
4.51205e-24
8.08028e-24
4.81872e-26
6.53062e-27
4.17861e-28
7.90778e-28
5.12706e-28
1.35891e-27
5.87086e-28
1.38473e-27
8.36785e-28
1.87415e-27
1.07476e-27
2.33073e-27
1.44294e-27
2.86545e-27
1.36778e-27
3.12662e-27
1.79942e-27
3.79647e-27
2.05317e-27
4.32175e-27
2.53515e-27
5.01371e-27
3.07107e-27
5.78254e-27
3.50221e-27
6.58745e-27
4.17631e-27
7.45533e-27
4.94889e-27
8.526e-27
5.58512e-27
9.41402e-27
6.50782e-27
1.05957e-26
7.35936e-27
1.16353e-26
7.87934e-27
1.25441e-26
8.63026e-27
1.31684e-26
9.37241e-27
1.36771e-26
8.88243e-27
1.26511e-26
8.21734e-27
1.1006e-26
6.29475e-27
8.07786e-27
3.91231e-27
3.81433e-27
1.12823e-27
2.12655e-27
1.75826e-26
1.2784e-25
1.94821e-24
3.10776e-23
1.20448e-23
1.97711e-22
4.49194e-24
8.84157e-24
5.82947e-26
7.32475e-27
4.80786e-28
8.23522e-28
5.13416e-28
1.41048e-27
5.88529e-28
1.4337e-27
8.45501e-28
1.9353e-27
1.0905e-27
2.40065e-27
1.46626e-27
2.93478e-27
1.38868e-27
3.2093e-27
1.82665e-27
3.89579e-27
2.08268e-27
4.43961e-27
2.56817e-27
5.15324e-27
3.10844e-27
5.9377e-27
3.54634e-27
6.76802e-27
4.22042e-27
7.65831e-27
5.00109e-27
8.75547e-27
5.64347e-27
9.65898e-27
6.56949e-27
1.08636e-26
7.4215e-27
1.19111e-26
7.94581e-27
1.28397e-26
8.67874e-27
1.34739e-26
9.41809e-27
1.39762e-26
8.90678e-27
1.29103e-26
8.22198e-27
1.12412e-26
6.3064e-27
8.31135e-27
3.99832e-27
4.10321e-27
1.37354e-27
2.87659e-27
2.16211e-26
1.48636e-25
2.08437e-24
3.10491e-23
1.31695e-23
2.07733e-22
4.52007e-24
9.54798e-24
7.01044e-26
8.12751e-27
5.44576e-28
8.55875e-28
5.14894e-28
1.46445e-27
5.90136e-28
1.48572e-27
8.53988e-28
1.99869e-27
1.10627e-27
2.47418e-27
1.48831e-27
3.00707e-27
1.40955e-27
3.29488e-27
1.85401e-27
3.9967e-27
2.11344e-27
4.55924e-27
2.60245e-27
5.29213e-27
3.14799e-27
6.09374e-27
3.59221e-27
6.94751e-27
4.2669e-27
7.85999e-27
5.05516e-27
8.98201e-27
5.70369e-27
9.9019e-27
6.63092e-27
1.11248e-26
7.48377e-27
1.21814e-26
8.01043e-27
1.31256e-26
8.7251e-27
1.37676e-26
9.45963e-27
1.42608e-26
8.92718e-27
1.31593e-26
8.22101e-27
1.14645e-26
6.32059e-27
8.54948e-27
4.0969e-27
4.43128e-27
1.6717e-27
3.81108e-27
2.63825e-26
1.71694e-25
2.2008e-24
3.05867e-23
1.4504e-23
2.15716e-22
4.59179e-24
1.01884e-23
8.37948e-26
8.92642e-27
6.07115e-28
8.88634e-28
5.1746e-28
1.52028e-27
5.92428e-28
1.5388e-27
8.63341e-28
2.06529e-27
1.12167e-27
2.54935e-27
1.5103e-27
3.08236e-27
1.43036e-27
3.38278e-27
1.88177e-27
4.10022e-27
2.14457e-27
4.67986e-27
2.63801e-27
5.43272e-27
3.18837e-27
6.24881e-27
3.6402e-27
7.12671e-27
4.31492e-27
8.05958e-27
5.11104e-27
9.20706e-27
5.76376e-27
1.01401e-26
6.69245e-27
1.13821e-26
7.54383e-27
1.24429e-26
8.07351e-27
1.34028e-26
8.76763e-27
1.40489e-26
9.49639e-27
1.45338e-26
8.93992e-27
1.3392e-26
8.21689e-27
1.16842e-26
6.33254e-27
8.79298e-27
4.20917e-27
4.80193e-27
2.02933e-27
4.96946e-27
3.19469e-26
1.97578e-25
2.2937e-24
2.97424e-23
1.61355e-23
2.21848e-22
4.74415e-24
1.07404e-23
9.95881e-26
9.71354e-27
6.67057e-28
9.20562e-28
5.21678e-28
1.57663e-27
5.95189e-28
1.59431e-27
8.73153e-28
2.13301e-27
1.13738e-27
2.62849e-27
1.5321e-27
3.15902e-27
1.45092e-27
3.47356e-27
1.90968e-27
4.2051e-27
2.17618e-27
4.80262e-27
2.67439e-27
5.57365e-27
3.23013e-27
6.4047e-27
3.68866e-27
7.30417e-27
4.3646e-27
8.25855e-27
5.16796e-27
9.42773e-27
5.82392e-27
1.03748e-26
6.75384e-27
1.16319e-26
7.60323e-27
1.26968e-26
8.13293e-27
1.36669e-26
8.80799e-27
1.43191e-26
9.5292e-27
1.47879e-26
8.94634e-27
1.36128e-26
8.20924e-27
1.18894e-26
6.3477e-27
9.04504e-27
4.33964e-27
5.21796e-27
2.45675e-27
6.38261e-27
3.85024e-26
2.26515e-25
2.3624e-24
2.85602e-23
1.79834e-23
2.25739e-22
4.9605e-24
1.11913e-23
1.17681e-25
1.04874e-26
7.20692e-28
9.52705e-28
5.27367e-28
1.6334e-27
5.9896e-28
1.65034e-27
8.84051e-28
2.20324e-27
1.15317e-27
2.70879e-27
1.55422e-27
3.23771e-27
1.47152e-27
3.56627e-27
1.93785e-27
4.31242e-27
2.20782e-27
4.9263e-27
2.71142e-27
5.71667e-27
3.27194e-27
6.55947e-27
3.73813e-27
7.48111e-27
4.41489e-27
8.45522e-27
5.22536e-27
9.64589e-27
5.88286e-27
1.06032e-26
6.81435e-27
1.18766e-26
7.65924e-27
1.29398e-26
8.18932e-27
1.39197e-26
8.84375e-27
1.45752e-26
9.55591e-27
1.50269e-26
8.94481e-27
1.3815e-26
8.19822e-27
1.20895e-26
6.36218e-27
9.30355e-27
4.48762e-27
5.68386e-27
2.96144e-27
8.10315e-27
4.61485e-26
2.59393e-25
2.40462e-24
2.70785e-23
2.01601e-23
2.27899e-22
5.25897e-24
1.15239e-23
1.38314e-25
1.12555e-26
7.65433e-28
9.84795e-28
5.33009e-28
1.69345e-27
6.02666e-28
1.70972e-27
8.94816e-28
2.27555e-27
1.16932e-27
2.79203e-27
1.57551e-27
3.31917e-27
1.49238e-27
3.66166e-27
1.96587e-27
4.42173e-27
2.23991e-27
5.05221e-27
2.74839e-27
5.85962e-27
3.3145e-27
6.71581e-27
3.78768e-27
7.65685e-27
4.46547e-27
8.65019e-27
5.28266e-27
9.86e-27
5.94171e-27
1.08272e-26
6.87234e-27
1.21117e-26
7.71367e-27
1.31746e-26
8.24196e-27
1.41589e-26
8.87488e-27
1.48158e-26
9.57671e-27
1.52481e-26
8.93869e-27
1.40031e-26
8.18215e-27
1.22763e-26
6.38101e-27
9.56771e-27
4.65335e-27
6.207e-27
3.55547e-27
1.01732e-26
5.51718e-26
2.96167e-25
2.42029e-24
2.53401e-23
2.26255e-23
2.27874e-22
5.62643e-24
1.17316e-23
1.61621e-25
1.19918e-26
7.99287e-28
1.01573e-27
5.39892e-28
1.75408e-27
6.07243e-28
1.76912e-27
9.06563e-28
2.34936e-27
1.18555e-27
2.87497e-27
1.59694e-27
3.40199e-27
1.51316e-27
3.75788e-27
1.994e-27
4.5326e-27
2.27164e-27
5.17852e-27
2.7854e-27
6.00347e-27
3.35599e-27
6.87019e-27
3.83713e-27
7.83148e-27
4.51531e-27
8.84117e-27
5.3388e-27
1.007e-26
5.9975e-27
1.10438e-26
6.92734e-27
1.23389e-26
7.76204e-27
1.33958e-26
8.28889e-27
1.4385e-26
8.89845e-27
1.50378e-26
9.58769e-27
1.54518e-26
8.92131e-27
1.41715e-26
8.15989e-27
1.24571e-26
6.3966e-27
9.83867e-27
4.8343e-27
6.79141e-27
4.244e-27
1.26572e-26
6.56809e-26
3.38057e-25
2.40928e-24
2.34098e-23
2.54667e-23
2.2616e-22
6.1152e-24
1.18063e-23
1.87987e-25
1.26907e-26
8.21638e-28
1.04534e-27
5.4828e-28
1.81495e-27
6.12317e-28
1.83103e-27
9.18958e-28
2.42397e-27
1.20223e-27
2.96153e-27
1.61882e-27
3.48521e-27
1.53396e-27
3.85648e-27
2.02247e-27
4.64418e-27
2.30355e-27
5.30658e-27
2.82251e-27
6.14734e-27
3.39796e-27
7.0254e-27
3.88584e-27
8.00379e-27
4.56499e-27
9.03104e-27
5.39429e-27
1.02741e-26
6.05137e-27
1.1255e-26
6.97991e-27
1.2556e-26
7.80779e-27
1.36069e-26
8.33019e-27
1.45942e-26
8.91709e-27
1.52455e-26
9.59319e-27
1.56324e-26
8.89645e-27
1.43251e-26
8.1343e-27
1.26209e-26
6.41594e-27
1.01192e-26
5.03851e-27
7.43777e-27
5.04359e-27
1.55982e-26
7.80164e-26
3.85391e-25
2.37315e-24
2.1369e-23
2.85363e-23
2.2246e-22
6.68716e-24
1.17405e-23
2.17413e-25
1.33481e-26
8.29432e-28
1.07366e-27
5.58616e-28
1.87442e-27
6.18797e-28
1.89232e-27
9.32628e-28
2.49952e-27
1.21932e-27
3.04763e-27
1.64126e-27
3.56874e-27
1.55487e-27
3.95549e-27
2.05116e-27
4.75668e-27
2.33518e-27
5.43426e-27
2.85958e-27
6.29196e-27
3.43871e-27
7.17799e-27
3.93391e-27
8.17431e-27
4.61348e-27
9.2166e-27
5.44767e-27
1.04732e-26
6.10135e-27
1.14573e-26
7.02867e-27
1.27642e-26
7.84651e-27
1.38027e-26
8.3645e-27
1.4788e-26
8.9276e-27
1.54335e-26
9.58801e-27
1.57924e-26
8.8603e-27
1.44568e-26
8.10241e-27
1.27769e-26
6.43303e-27
1.04069e-26
5.26154e-27
8.15147e-27
5.95891e-27
1.90764e-26
9.22869e-26
4.39559e-25
2.31346e-24
1.92503e-23
3.19698e-23
2.17649e-22
7.35241e-24
1.15368e-23
2.50136e-25
1.39888e-26
8.2126e-28
1.10263e-27
5.68373e-28
1.93818e-27
6.25121e-28
1.95752e-27
9.46115e-28
2.57744e-27
1.2368e-27
3.13631e-27
1.66292e-27
3.65502e-27
1.5763e-27
4.05644e-27
2.07979e-27
4.8705e-27
2.36719e-27
5.56324e-27
2.89621e-27
6.43569e-27
3.47977e-27
7.33152e-27
3.98126e-27
8.34258e-27
4.66095e-27
9.3994e-27
5.49942e-27
1.06667e-26
6.14954e-27
1.1653e-26
7.07267e-27
1.29607e-26
7.88173e-27
1.39879e-26
8.39301e-27
1.49644e-26
8.93109e-27
1.56025e-26
9.57486e-27
1.59315e-26
8.81851e-27
1.4571e-26
8.06503e-27
1.29183e-26
6.45461e-27
1.06995e-26
5.50488e-27
8.94078e-27
7.00718e-27
2.31471e-26
1.08958e-25
4.9994e-25
2.23287e-24
1.71084e-23
3.57234e-23
2.11305e-22
8.08065e-24
1.11965e-23
2.86019e-25
1.45676e-26
7.97192e-28
1.12953e-27
5.79638e-28
2.00107e-27
6.32642e-28
2.02146e-27
9.60684e-28
2.65502e-27
1.25463e-27
3.22277e-27
1.68481e-27
3.74128e-27
1.5976e-27
4.15643e-27
2.10845e-27
4.98419e-27
2.39859e-27
5.69087e-27
2.93241e-27
6.5783e-27
3.51883e-27
7.48112e-27
4.02705e-27
8.50782e-27
4.70606e-27
9.57546e-27
5.54759e-27
1.08531e-26
6.1921e-27
1.18382e-26
7.11071e-27
1.31453e-26
7.90729e-27
1.41552e-26
8.41135e-27
1.51237e-26
8.923e-27
1.57472e-26
9.54682e-27
1.60485e-26
8.76163e-27
1.4663e-26
8.01756e-27
1.3051e-26
6.46997e-27
1.09985e-26
5.76175e-27
9.80828e-27
8.18649e-27
2.78885e-26
1.28081e-25
5.68152e-25
2.13344e-24
1.49928e-23
3.98634e-23
2.04102e-22
8.94635e-24
1.07341e-23
3.2571e-25
1.50724e-26
7.59325e-28
1.15511e-27
5.92477e-28
2.0637e-27
6.40825e-28
2.0879e-27
9.76126e-28
2.73329e-27
1.27291e-27
3.31286e-27
1.70761e-27
3.82689e-27
1.61903e-27
4.25847e-27
2.13769e-27
5.09739e-27
2.43013e-27
5.81912e-27
2.96844e-27
6.7196e-27
3.55818e-27
7.63021e-27
4.07164e-27
8.66903e-27
4.74987e-27
9.74881e-27
5.59398e-27
1.10312e-26
6.23118e-27
1.20155e-26
7.14413e-27
1.33166e-26
7.92841e-27
1.4309e-26
8.42222e-27
1.52619e-26
8.90732e-27
1.58738e-26
9.51196e-27
1.61377e-26
8.69624e-27
1.47366e-26
7.96635e-27
1.31636e-26
6.48824e-27
1.13053e-26
6.04378e-27
1.07492e-26
9.51853e-27
3.334e-26
1.50045e-25
6.4431e-25
2.01739e-24
1.29833e-23
4.41518e-23
1.95826e-22
9.87277e-24
1.01493e-23
3.68637e-25
1.54957e-26
7.07031e-28
1.17887e-27
6.07836e-28
2.12283e-27
6.50929e-28
2.15231e-27
9.93112e-28
2.81074e-27
1.2919e-27
3.40089e-27
1.73116e-27
3.91127e-27
1.64055e-27
4.35942e-27
2.16707e-27
5.20981e-27
2.4612e-27
5.94516e-27
3.00405e-27
6.85956e-27
3.59559e-27
7.77446e-27
4.11442e-27
8.82614e-27
4.79117e-27
9.91488e-27
5.63622e-27
1.12007e-26
6.26419e-27
1.21806e-26
7.17108e-27
1.34749e-26
7.9393e-27
1.44434e-26
8.42215e-27
1.53804e-26
8.87993e-27
1.59758e-26
9.46221e-27
1.62015e-26
8.61655e-27
1.47859e-26
7.90555e-27
1.32651e-26
6.50108e-27
1.16173e-26
6.34206e-27
1.17672e-26
1.0998e-26
3.95832e-26
1.74822e-25
7.29619e-25
1.88869e-24
1.1089e-23
4.8749e-23
1.87506e-22
1.08522e-23
9.46886e-24
4.14828e-25
1.58761e-26
6.41814e-28
1.20485e-27
6.222e-28
2.18739e-27
6.60805e-28
2.22134e-27
1.00981e-27
2.89109e-27
1.31114e-27
3.49133e-27
1.7535e-27
3.9987e-27
1.66264e-27
4.46169e-27
2.19618e-27
5.3228e-27
2.49255e-27
6.07122e-27
3.03896e-27
6.99731e-27
3.63301e-27
7.918e-27
4.15607e-27
8.97886e-27
4.83069e-27
1.00758e-26
5.67555e-27
1.13623e-26
6.294e-27
1.23356e-26
7.19131e-27
1.36186e-26
7.9447e-27
1.45632e-26
8.41461e-27
1.54772e-26
8.84381e-27
1.60541e-26
9.40254e-27
1.62412e-26
8.53053e-27
1.48135e-26
7.83869e-27
1.33496e-26
6.51728e-27
1.19291e-26
6.65829e-27
1.28703e-26
1.2643e-26
4.66585e-26
2.02899e-25
8.22002e-25
1.75175e-24
9.34563e-24
5.36346e-23
1.78613e-22
1.18348e-23
8.70034e-24
4.6355e-25
1.61536e-26
5.6647e-28
1.2297e-27
6.38205e-28
2.25e-27
6.72221e-28
2.28773e-27
1.02774e-27
2.9691e-27
1.33104e-27
3.57758e-27
1.77629e-27
4.0853e-27
1.68458e-27
4.56129e-27
2.2252e-27
5.4343e-27
2.52291e-27
6.19413e-27
3.07302e-27
7.13178e-27
3.66776e-27
8.05577e-27
4.19479e-27
9.12621e-27
4.86639e-27
1.02268e-26
5.70929e-27
1.15132e-26
6.31608e-27
1.24763e-26
7.20308e-27
1.37457e-26
7.93769e-27
1.46621e-26
8.39274e-27
1.55532e-26
8.79239e-27
1.61036e-26
9.32389e-27
1.62559e-26
8.42647e-27
1.4817e-26
7.75795e-27
1.34223e-26
6.52293e-27
1.22427e-26
6.98155e-27
1.40551e-26
1.44362e-26
5.45996e-26
2.34053e-25
9.22601e-25
1.6086e-24
7.77433e-24
5.88187e-23
1.69827e-22
1.29204e-23
7.87862e-24
5.15847e-25
1.62999e-26
4.85993e-28
1.25403e-27
6.55964e-28
2.31169e-27
6.84421e-28
2.35672e-27
1.0467e-27
3.04804e-27
1.35127e-27
3.66791e-27
1.80018e-27
4.16974e-27
1.70642e-27
4.66298e-27
2.25476e-27
5.54378e-27
2.55317e-27
6.31648e-27
3.10641e-27
7.26341e-27
3.70248e-27
8.19061e-27
4.23182e-27
9.26703e-27
4.89972e-27
1.03726e-26
5.74014e-27
1.16522e-26
6.33316e-27
1.26058e-26
7.20812e-27
1.38559e-26
7.9247e-27
1.47417e-26
8.36208e-27
1.56031e-26
8.73142e-27
1.61308e-26
9.23773e-27
1.62373e-26
8.31352e-27
1.47981e-26
7.67298e-27
1.347e-26
6.52932e-27
1.25578e-26
7.32565e-27
1.53068e-26
1.63942e-26
6.34028e-26
2.68353e-25
1.03059e-24
1.46076e-24
6.42618e-24
6.39644e-23
1.6118e-22
1.39842e-23
7.00746e-24
5.70063e-25
1.6316e-26
4.02311e-28
1.27779e-27
6.76922e-28
2.36798e-27
6.99111e-28
2.42222e-27
1.06756e-27
3.12428e-27
1.37251e-27
3.75463e-27
1.8252e-27
4.25177e-27
1.72832e-27
4.76226e-27
2.28432e-27
5.65114e-27
2.58252e-27
6.43494e-27
3.13886e-27
7.39175e-27
3.73452e-27
8.31882e-27
4.26566e-27
9.4014e-27
4.92905e-27
1.0508e-26
5.76499e-27
1.17791e-26
6.34219e-27
1.27189e-26
7.2044e-27
1.39485e-26
7.89915e-27
1.47989e-26
8.31701e-27
1.56295e-26
8.65574e-27
1.61293e-26
9.13395e-27
1.61902e-26
8.18429e-27
1.47529e-26
7.57546e-27
1.35024e-26
6.52591e-27
1.2871e-26
7.67769e-27
1.66233e-26
1.84923e-26
7.30723e-26
3.05383e-25
1.14583e-24
1.31296e-24
5.28494e-24
6.92674e-23
1.53617e-22
1.49944e-23
6.12927e-24
6.2571e-25
1.62457e-26
3.19138e-28
1.30631e-27
6.96753e-28
2.43051e-27
7.13535e-28
2.49322e-27
1.08789e-27
3.20417e-27
1.39363e-27
3.84372e-27
1.84797e-27
4.33737e-27
1.75055e-27
4.86224e-27
2.31289e-27
5.75828e-27
2.61172e-27
6.55215e-27
3.16998e-27
7.51636e-27
3.76569e-27
8.44407e-27
4.29757e-27
9.52872e-27
4.95559e-27
1.06351e-26
5.7852e-27
1.18946e-26
6.34642e-27
1.28182e-26
7.19206e-27
1.4023e-26
7.86586e-27
1.48364e-26
8.26328e-27
1.56295e-26
8.57047e-27
1.60991e-26
9.01876e-27
1.61153e-26
8.04862e-27
1.46816e-26
7.47129e-27
1.35135e-26
6.52315e-27
1.31725e-26
8.03716e-27
1.80102e-26
2.07368e-26
8.35798e-26
3.45267e-25
1.26407e-24
1.17072e-24
4.35314e-24
7.47748e-23
1.46687e-22
1.58948e-23
5.25184e-24
6.81303e-25
1.60356e-26
2.40335e-28
1.33744e-27
7.18184e-28
2.49111e-27
7.2975e-28
2.56075e-27
1.10951e-27
3.28029e-27
1.41559e-27
3.92716e-27
1.87125e-27
4.42204e-27
1.77264e-27
4.95828e-27
2.341e-27
5.86314e-27
2.63931e-27
6.66474e-27
3.19956e-27
7.63607e-27
3.79332e-27
8.56252e-27
4.32492e-27
9.64864e-27
4.97664e-27
1.07494e-26
5.79792e-27
1.19966e-26
6.34107e-27
1.28991e-26
7.16923e-27
1.40768e-26
7.81842e-27
1.48513e-26
8.19222e-27
1.56059e-26
8.46756e-27
1.60374e-26
8.88276e-27
1.60151e-26
7.89406e-27
1.45847e-26
7.35087e-27
1.35091e-26
6.50544e-27
1.3465e-26
8.39105e-27
1.94516e-26
2.30899e-26
9.48061e-26
3.87318e-25
1.38519e-24
1.03461e-24
3.6291e-24
8.0409e-23
1.40785e-22
1.68114e-23
4.4144e-24
7.38338e-25
1.56308e-26
1.70925e-28
1.36966e-27
7.418e-28
2.54947e-27
7.46967e-28
2.6309e-27
1.13226e-27
3.35767e-27
1.43752e-27
4.01563e-27
1.89527e-27
4.50248e-27
1.7941e-27
5.05641e-27
2.36926e-27
5.96387e-27
2.66622e-27
6.77563e-27
3.22743e-27
7.75134e-27
3.81989e-27
8.67459e-27
4.34954e-27
9.75901e-27
4.99366e-27
1.08557e-26
5.80576e-27
1.20819e-26
6.32882e-27
1.29651e-26
7.13723e-27
1.41099e-26
7.76324e-27
1.48395e-26
8.11142e-27
1.5551e-26
8.35382e-27
1.59496e-26
8.73869e-27
1.58747e-26
7.73113e-27
1.4461e-26
7.22537e-27
1.34731e-26
6.48426e-27
1.37482e-26
8.75038e-27
2.09207e-26
2.55378e-26
1.06673e-25
4.30632e-25
1.50447e-24
9.04376e-25
3.13137e-24
8.57292e-23
1.35943e-22
1.75985e-23
3.61902e-24
7.93933e-25
1.50694e-26
1.12644e-28
1.40536e-27
7.69158e-28
2.60172e-27
7.67056e-28
2.69686e-27
1.15707e-27
3.43134e-27
1.4606e-27
4.09963e-27
1.92032e-27
4.58034e-27
1.81538e-27
5.15167e-27
2.39685e-27
6.06202e-27
2.69137e-27
6.88137e-27
3.2535e-27
7.8618e-27
3.84263e-27
8.77912e-27
4.36916e-27
9.86086e-27
5.00507e-27
1.09485e-26
5.80572e-27
1.21523e-26
6.30673e-27
1.30106e-26
7.09493e-27
1.41207e-26
7.69409e-27
1.48034e-26
8.01412e-27
1.54696e-26
8.22457e-27
1.58304e-26
8.57648e-27
1.57059e-26
7.55219e-27
1.43093e-26