/*--------------------------------*- C++ -*----------------------------------*\
| =========                 |                                                 |
| \\      /  F ield         | OpenFOAM: The Open Source CFD Toolbox           |
|  \\    /   O peration     | Version:  2312                                  |
|   \\  /    A nd           | Website:  www.openfoam.com                      |
|    \\/     M anipulation  |                                                 |
\*---------------------------------------------------------------------------*/
FoamFile
{
    version     2.0;
    format      ascii;
    arch        "LSB;label=32;scalar=64";
    class       volScalarField;
    location    "800";
    object      p;
}
// * * * * * * * * * * * * * * * * * * * * * * * * * * * * * * * * * * * * * //

dimensions      [0 2 -2 0 0 0 0];

internalField   nonuniform List<scalar> 
330000
(
-2.06455e-09
-3.23072e-10
-1.30212e-09
-9.44017e-10
-7.2845e-10
-5.87171e-10
-3.42891e-10
-3.38374e-10
-1.15661e-10
-1.68188e-10
-1.76395e-11
-1.21018e-10
3.29126e-11
-8.85736e-11
6.92548e-11
-5.97949e-11
1.24653e-10
-8.38975e-12
1.62078e-10
8.65923e-12
1.9125e-10
2.40663e-11
2.01835e-10
1.84699e-11
2.12375e-10
2.61444e-11
2.35351e-10
3.71924e-11
2.4553e-10
3.02962e-11
2.53507e-10
3.49873e-11
2.77241e-10
4.72882e-11
2.85509e-10
3.93411e-11
2.98264e-10
5.39531e-11
3.28574e-10
7.44305e-11
3.46229e-10
7.78448e-11
3.62774e-10
1.01293e-10
4.06874e-10
1.44602e-10
4.26632e-10
1.58953e-10
4.37803e-10
1.88437e-10
4.36425e-10
2.22531e-10
4.35695e-10
2.93922e-10
3.325e-10
3.2452e-10
9.94426e-11
3.26271e-10
-4.98696e-10
1.54128e-09
-2.04911e-09
-3.24354e-10
-1.30535e-09
-9.45451e-10
-7.29209e-10
-5.87165e-10
-3.4322e-10
-3.38333e-10
-1.15915e-10
-1.68154e-10
-1.78604e-11
-1.20957e-10
3.26874e-11
-8.85046e-11
6.90417e-11
-5.97048e-11
1.24443e-10
-8.27911e-12
1.61844e-10
8.78091e-12
1.91014e-10
2.42001e-11
2.01607e-10
1.86425e-11
2.12137e-10
2.63256e-11
2.35093e-10
3.73797e-11
2.45276e-10
3.05301e-11
2.53231e-10
3.52262e-11
2.76943e-10
4.75351e-11
2.85211e-10
3.96348e-11
2.97949e-10
5.42569e-11
3.28224e-10
7.47383e-11
3.45879e-10
7.82145e-11
3.62392e-10
1.0166e-10
4.06458e-10
1.44981e-10
4.26206e-10
1.59393e-10
4.37355e-10
1.88912e-10
4.35984e-10
2.23031e-10
4.3534e-10
2.94523e-10
3.32323e-10
3.25384e-10
9.97052e-11
3.25353e-10
-5.03391e-10
1.5376e-09
-2.03278e-09
-3.26083e-10
-1.31018e-09
-9.47407e-10
-7.30082e-10
-5.87106e-10
-3.43402e-10
-3.38369e-10
-1.16059e-10
-1.68247e-10
-1.79509e-11
-1.21022e-10
3.25931e-11
-8.85828e-11
6.89827e-11
-5.97735e-11
1.24376e-10
-8.33648e-12
1.61758e-10
8.72292e-12
1.90929e-10
2.41399e-11
2.0156e-10
1.8634e-11
2.1209e-10
2.63042e-11
2.35019e-10
3.73456e-11
2.45235e-10
3.05586e-11
2.5318e-10
3.52376e-11
2.7686e-10
4.75331e-11
2.8516e-10
3.96983e-11
2.97887e-10
5.43066e-11
3.28114e-10
7.47727e-11
3.45798e-10
7.83401e-11
3.62284e-10
1.01756e-10
4.06288e-10
1.45076e-10
4.2604e-10
1.59591e-10
4.37149e-10
1.8917e-10
4.35786e-10
2.23363e-10
4.35191e-10
2.95087e-10
3.32345e-10
3.26529e-10
1.00157e-10
3.24562e-10
-5.12731e-10
1.53896e-09
-2.01551e-09
-3.30199e-10
-1.31584e-09
-9.50254e-10
-7.30981e-10
-5.86875e-10
-3.43435e-10
-3.38291e-10
-1.16141e-10
-1.68331e-10
-1.79682e-11
-1.21081e-10
3.25513e-11
-8.86779e-11
6.8987e-11
-5.98641e-11
1.24346e-10
-8.42805e-12
1.61711e-10
8.62429e-12
1.90874e-10
2.4027e-11
2.01569e-10
1.8594e-11
2.12099e-10
2.62353e-11
2.34984e-10
3.72472e-11
2.45256e-10
3.05484e-11
2.53194e-10
3.51941e-11
2.76824e-10
4.74591e-11
2.85186e-10
3.9717e-11
2.979e-10
5.42917e-11
3.28058e-10
7.47216e-11
3.45799e-10
7.84148e-11
3.6226e-10
1.01771e-10
4.0617e-10
1.45067e-10
4.25957e-10
1.59717e-10
4.37026e-10
1.8935e-10
4.35708e-10
2.23613e-10
4.35204e-10
2.95596e-10
3.32708e-10
3.27738e-10
1.01379e-10
3.22929e-10
-5.25106e-10
1.54493e-09
-1.99759e-09
-3.36105e-10
-1.32196e-09
-9.54039e-10
-7.31919e-10
-5.86472e-10
-3.43358e-10
-3.38105e-10
-1.16203e-10
-1.68372e-10
-1.79574e-11
-1.21101e-10
3.25188e-11
-8.87479e-11
6.90063e-11
-5.99317e-11
1.24306e-10
-8.50598e-12
1.61653e-10
8.53559e-12
1.90795e-10
2.39161e-11
2.01574e-10
1.85787e-11
2.12103e-10
2.61801e-11
2.34925e-10
3.71483e-11
2.45271e-10
3.05664e-11
2.53201e-10
3.51662e-11
2.76762e-10
4.73885e-11
2.85208e-10
3.97678e-11
2.97905e-10
5.42935e-11
3.27973e-10
7.46679e-11
3.45792e-10
7.85227e-11
3.62229e-10
1.01793e-10
4.06017e-10
1.45045e-10
4.25864e-10
1.59853e-10
4.36899e-10
1.89531e-10
4.35673e-10
2.23847e-10
4.35323e-10
2.96076e-10
3.33404e-10
3.2895e-10
1.03488e-10
3.20212e-10
-5.39232e-10
1.55387e-09
-1.98014e-09
-3.42733e-10
-1.32818e-09
-9.58717e-10
-7.32898e-10
-5.85924e-10
-3.43189e-10
-3.37834e-10
-1.16257e-10
-1.68386e-10
-1.79308e-11
-1.2109e-10
3.24891e-11
-8.87963e-11
6.90333e-11
-5.99798e-11
1.24252e-10
-8.57063e-12
1.61579e-10
8.4557e-12
1.9069e-10
2.38084e-11
2.01569e-10
1.85875e-11
2.12098e-10
2.61399e-11
2.34839e-10
3.70513e-11
2.45275e-10
3.06132e-11
2.53197e-10
3.51554e-11
2.76672e-10
4.73258e-11
2.85219e-10
3.98522e-11
2.979e-10
5.43158e-11
3.27855e-10
7.46171e-11
3.4577e-10
7.86671e-11
3.62187e-10
1.01826e-10
4.05825e-10
1.45017e-10
4.25751e-10
1.60006e-10
4.36762e-10
1.89722e-10
4.35667e-10
2.24072e-10
4.35528e-10
2.96534e-10
3.34413e-10
3.3014e-10
1.06538e-10
3.16359e-10
-5.54194e-10
1.56477e-09
-1.96469e-09
-3.49178e-10
-1.33406e-09
-9.64203e-10
-7.33894e-10
-5.85252e-10
-3.42934e-10
-3.375e-10
-1.16307e-10
-1.68384e-10
-1.78937e-11
-1.21062e-10
3.24623e-11
-8.88315e-11
6.90675e-11
-6.00175e-11
1.24186e-10
-8.62797e-12
1.61494e-10
8.37746e-12
1.90564e-10
2.36984e-11
2.01558e-10
1.86127e-11
2.1209e-10
2.61079e-11
2.34733e-10
3.69509e-11
2.45271e-10
3.06811e-11
2.53189e-10
3.51544e-11
2.76562e-10
4.72658e-11
2.85226e-10
3.99616e-11
2.9789e-10
5.43514e-11
3.27711e-10
7.45639e-11
3.45738e-10
7.88395e-11
3.62138e-10
1.01863e-10
4.056e-10
1.44981e-10
4.25621e-10
1.60169e-10
4.36616e-10
1.89922e-10
4.35687e-10
2.24289e-10
4.35811e-10
2.96968e-10
3.35722e-10
3.31264e-10
1.10602e-10
3.11294e-10
-5.69047e-10
1.57697e-09
-1.95276e-09
-3.54778e-10
-1.3391e-09
-9.70392e-10
-7.34866e-10
-5.84466e-10
-3.42594e-10
-3.3712e-10
-1.1636e-10
-1.68375e-10
-1.78527e-11
-1.21023e-10
3.24349e-11
-8.88588e-11
6.91054e-11
-6.00496e-11
1.24107e-10
-8.68014e-12
1.61397e-10
8.29794e-12
1.90417e-10
2.35849e-11
2.0154e-10
1.86511e-11
2.12077e-10
2.60821e-11
2.34607e-10
3.68467e-11
2.4526e-10
3.07671e-11
2.53176e-10
3.51611e-11
2.76433e-10
4.72085e-11
2.85228e-10
4.00933e-11
2.97875e-10
5.43991e-11
3.27544e-10
7.45094e-11
3.45696e-10
7.90375e-11
3.62082e-10
1.01905e-10
4.05345e-10
1.44941e-10
4.25473e-10
1.60345e-10
4.36461e-10
1.90132e-10
4.35728e-10
2.245e-10
4.36162e-10
2.97375e-10
3.37326e-10
3.32266e-10
1.15774e-10
3.04851e-10
-5.82833e-10
1.58999e-09
-1.94577e-09
-3.59063e-10
-1.34281e-09
-9.7715e-10
-7.3577e-10
-5.83569e-10
-3.4217e-10
-3.36706e-10
-1.16423e-10
-1.68366e-10
-1.78146e-11
-1.20979e-10
3.24028e-11
-8.88815e-11
6.91424e-11
-6.00791e-11
1.24012e-10
-8.72828e-12
1.61288e-10
8.21584e-12
1.90248e-10
2.34683e-11
2.01513e-10
1.87013e-11
2.12059e-10
2.60623e-11
2.34461e-10
3.67403e-11
2.4524e-10
3.08707e-11
2.53156e-10
3.5176e-11
2.76285e-10
4.71563e-11
2.85221e-10
4.02472e-11
2.97852e-10
5.44604e-11
3.27352e-10
7.44572e-11
3.45639e-10
7.92619e-11
3.62015e-10
1.01954e-10
4.05055e-10
1.44903e-10
4.253e-10
1.60537e-10
4.36288e-10
1.90359e-10
4.3578e-10
2.24708e-10
4.36569e-10
2.97749e-10
3.39224e-10
3.33076e-10
1.22163e-10
2.96867e-10
-5.94687e-10
1.6035e-09
-1.94502e-09
-3.61728e-10
-1.34471e-09
-9.84346e-10
-7.36557e-10
-5.82556e-10
-3.41661e-10
-3.36269e-10
-1.16499e-10
-1.68363e-10
-1.77852e-11
-1.20936e-10
3.23617e-11
-8.89027e-11
6.91739e-11
-6.01084e-11
1.23898e-10
-8.77341e-12
1.61164e-10
8.13019e-12
1.90057e-10
2.3349e-11
2.01474e-10
1.87621e-11
2.12032e-10
2.60486e-11
2.34295e-10
3.66334e-11
2.45207e-10
3.09914e-11
2.53128e-10
3.51999e-11
2.76117e-10
4.71119e-11
2.85202e-10
4.04235e-11
2.97819e-10
5.45371e-11
3.27134e-10
7.44116e-11
3.45563e-10
7.9514e-11
3.61932e-10
1.02014e-10
4.04727e-10
1.44874e-10
4.25095e-10
1.6075e-10
4.36092e-10
1.90608e-10
4.35832e-10
2.24919e-10
4.37022e-10
2.98083e-10
3.41423e-10
3.33619e-10
1.29886e-10
2.87165e-10
-6.0386e-10
1.61733e-09
-1.9516e-09
-3.62621e-10
-1.34437e-09
-9.91841e-10
-7.37179e-10
-5.81417e-10
-3.41062e-10
-3.35814e-10
-1.16592e-10
-1.68369e-10
-1.77694e-11
-1.20898e-10
3.23085e-11
-8.8925e-11
6.91958e-11
-6.01398e-11
1.23762e-10
-8.81692e-12
1.61025e-10
8.04001e-12
1.89843e-10
2.32274e-11
2.01421e-10
1.88325e-11
2.11994e-10
2.60412e-11
2.34107e-10
3.65276e-11
2.45159e-10
3.11289e-11
2.53089e-10
3.52335e-11
2.75927e-10
4.70776e-11
2.85169e-10
4.06228e-11
2.97772e-10
5.46312e-11
3.26887e-10
7.43764e-11
3.45464e-10
7.97953e-11
3.6183e-10
1.02089e-10
4.04357e-10
1.44861e-10
4.24852e-10
1.60987e-10
4.35864e-10
1.90884e-10
4.35876e-10
2.25136e-10
4.37514e-10
2.98363e-10
3.43933e-10
3.33811e-10
1.39062e-10
2.75565e-10
-6.09758e-10
1.63145e-09
-1.96647e-09
-3.6171e-10
-1.34142e-09
-9.99496e-10
-7.3759e-10
-5.80138e-10
-3.40367e-10
-3.35344e-10
-1.16703e-10
-1.68389e-10
-1.7771e-11
-1.20869e-10
3.22401e-11
-8.89504e-11
6.92047e-11
-6.01749e-11
1.23602e-10
-8.85992e-12
1.60868e-10
7.94466e-12
1.89603e-10
2.31036e-11
2.01351e-10
1.89116e-11
2.11944e-10
2.60401e-11
2.33898e-10
3.64245e-11
2.45093e-10
3.12829e-11
2.53037e-10
3.52781e-11
2.75714e-10
4.70558e-11
2.85117e-10
4.08457e-11
2.97707e-10
5.47448e-11
3.2661e-10
7.43559e-11
3.45336e-10
8.01075e-11
3.61702e-10
1.02183e-10
4.0394e-10
1.44869e-10
4.24565e-10
1.61254e-10
4.35599e-10
1.9119e-10
4.35903e-10
2.25357e-10
4.38043e-10
2.98572e-10
3.46773e-10
3.33568e-10
1.49803e-10
2.61913e-10
-6.11915e-10
1.64593e-09
-1.99035e-09
-3.59069e-10
-1.33553e-09
-1.00718e-09
-7.37752e-10
-5.78705e-10
-3.39568e-10
-3.3486e-10
-1.16832e-10
-1.68423e-10
-1.77926e-11
-1.2085e-10
3.21543e-11
-8.898e-11
6.91973e-11
-6.02146e-11
1.23415e-10
-8.90347e-12
1.60691e-10
7.84372e-12
1.89337e-10
2.29783e-11
2.01261e-10
1.89987e-11
2.11879e-10
2.60459e-11
2.33664e-10
3.63258e-11
2.45007e-10
3.14535e-11
2.52969e-10
3.53349e-11
2.75475e-10
4.70491e-11
2.85044e-10
4.10934e-11
2.97622e-10
5.48803e-11
3.263e-10
7.43538e-11
3.45175e-10
8.04525e-11
3.61543e-10
1.023e-10
4.03471e-10
1.44904e-10
4.24227e-10
1.61553e-10
4.35289e-10
1.9153e-10
4.35906e-10
2.25583e-10
4.38606e-10
2.98691e-10
3.49963e-10
3.32803e-10
1.62211e-10
2.4608e-10
-6.10006e-10
1.66092e-09
-2.02382e-09
-3.54848e-10
-1.3264e-09
-1.01475e-09
-7.37634e-10
-5.77102e-10
-3.38661e-10
-3.3436e-10
-1.16979e-10
-1.68473e-10
-1.78362e-11
-1.20843e-10
3.2049e-11
-8.90147e-11
6.91709e-11
-6.02593e-11
1.232e-10
-8.94828e-12
1.60493e-10
7.73714e-12
1.89043e-10
2.2852e-11
2.0115e-10
1.90934e-11
2.11796e-10
2.60593e-11
2.33406e-10
3.6233e-11
2.44899e-10
3.1641e-11
2.52882e-10
3.54055e-11
2.75209e-10
4.70599e-11
2.84945e-10
4.1367e-11
2.97511e-10
5.50403e-11
3.25953e-10
7.43742e-11
3.44977e-10
8.08324e-11
3.61348e-10
1.02445e-10
4.02945e-10
1.44971e-10
4.2383e-10
1.61889e-10
4.34929e-10
1.91906e-10
4.35881e-10
2.2581e-10
4.39205e-10
2.98697e-10
3.53525e-10
3.31435e-10
1.76373e-10
2.27974e-10
-6.03825e-10
1.67661e-09
-2.06724e-09
-3.49266e-10
-1.3138e-09
-1.02211e-09
-7.37214e-10
-5.75314e-10
-3.37641e-10
-3.33841e-10
-1.17142e-10
-1.68537e-10
-1.79031e-11
-1.20848e-10
3.1923e-11
-8.90544e-11
6.91232e-11
-6.03093e-11
1.22954e-10
-8.99485e-12
1.60272e-10
7.62504e-12
1.88721e-10
2.27254e-11
2.01015e-10
1.91956e-11
2.11693e-10
2.60811e-11
2.33122e-10
3.6148e-11
2.44764e-10
3.18458e-11
2.52775e-10
3.54914e-11
2.74914e-10
4.70907e-11
2.84818e-10
4.1668e-11
2.97372e-10
5.52274e-11
3.25567e-10
7.44211e-11
3.44735e-10
8.12494e-11
3.61112e-10
1.02623e-10
4.02357e-10
1.45075e-10
4.23371e-10
1.62263e-10
4.34514e-10
1.92318e-10
4.35824e-10
2.26032e-10
4.39845e-10
2.98566e-10
3.57483e-10
3.2939e-10
1.92356e-10
2.07537e-10
-5.93292e-10
1.69322e-09
-2.12082e-09
-3.42596e-10
-1.29753e-09
-1.02913e-09
-7.36476e-10
-5.73331e-10
-3.36503e-10
-3.33303e-10
-1.17319e-10
-1.68615e-10
-1.79942e-11
-1.20866e-10
3.1775e-11
-8.90988e-11
6.90523e-11
-6.03641e-11
1.22676e-10
-9.04336e-12
1.60026e-10
7.50787e-12
1.88368e-10
2.25993e-11
2.00854e-10
1.93053e-11
2.11567e-10
2.61121e-11
2.3281e-10
3.60725e-11
2.44602e-10
3.20684e-11
2.52643e-10
3.55946e-11
2.74587e-10
4.71441e-11
2.84659e-10
4.19979e-11
2.972e-10
5.54443e-11
3.25139e-10
7.44983e-11
3.44446e-10
8.17056e-11
3.6083e-10
1.02836e-10
4.01704e-10
1.45221e-10
4.22843e-10
1.62679e-10
4.34039e-10
1.92768e-10
4.35731e-10
2.26245e-10
4.40531e-10
2.98275e-10
3.61856e-10
3.26603e-10
2.10204e-10
1.84752e-10
-5.7841e-10
1.71098e-09
-2.18462e-09
-3.35153e-10
-1.27745e-09
-1.0357e-09
-7.3541e-10
-5.71141e-10
-3.35247e-10
-3.32741e-10
-1.17511e-10
-1.68706e-10
-1.81101e-11
-1.20895e-10
3.16042e-11
-8.91472e-11
6.89564e-11
-6.04231e-11
1.22364e-10
-9.09384e-12
1.59754e-10
7.3863e-12
1.87984e-10
2.24748e-11
2.00665e-10
1.94227e-11
2.11417e-10
2.61536e-11
2.32468e-10
3.60085e-11
2.44408e-10
3.23097e-11
2.52484e-10
3.57169e-11
2.74225e-10
4.72225e-11
2.84463e-10
4.23585e-11
2.96992e-10
5.56936e-11
3.24665e-10
7.46094e-11
3.44104e-10
8.22031e-11
3.60495e-10
1.03088e-10
4.00981e-10
1.45412e-10
4.22243e-10
1.63136e-10
4.335e-10
1.93253e-10
4.35602e-10
2.26441e-10
4.41267e-10
2.97803e-10
3.66661e-10
3.23018e-10
2.29939e-10
1.59636e-10
-5.59273e-10
1.73014e-09
-2.25857e-09
-3.27282e-10
-1.25342e-09
-1.04171e-09
-7.34013e-10
-5.68739e-10
-3.33871e-10
-3.32153e-10
-1.17716e-10
-1.6881e-10
-1.82512e-11
-1.20936e-10
3.14097e-11
-8.91986e-11
6.8834e-11
-6.04852e-11
1.22019e-10
-9.14609e-12
1.59455e-10
7.2612e-12
1.87568e-10
2.23528e-11
2.00446e-10
1.95483e-11
2.1124e-10
2.62066e-11
2.32095e-10
3.59576e-11
2.44181e-10
3.25704e-11
2.52295e-10
3.58602e-11
2.73827e-10
4.73284e-11
2.84229e-10
4.27514e-11
2.96744e-10
5.59779e-11
3.24143e-10
7.47579e-11
3.43707e-10
8.27437e-11
3.60105e-10
1.03384e-10
4.00184e-10
1.4565e-10
4.21566e-10
1.63636e-10
4.32896e-10
1.93772e-10
4.35435e-10
2.26613e-10
4.42059e-10
2.97128e-10
3.71912e-10
3.18594e-10
2.51556e-10
1.32248e-10
-5.3604e-10
1.7509e-09
-2.34241e-09
-3.19355e-10
-1.22538e-09
-1.04706e-09
-7.32289e-10
-5.66119e-10
-3.32378e-10
-3.31538e-10
-1.17934e-10
-1.68924e-10
-1.84182e-11
-1.20986e-10
3.1191e-11
-8.9252e-11
6.8684e-11
-6.05496e-11
1.21638e-10
-9.19975e-12
1.59126e-10
7.13352e-12
1.87118e-10
2.22345e-11
2.00194e-10
1.96826e-11
2.11034e-10
2.62724e-11
2.3169e-10
3.59218e-11
2.43917e-10
3.28514e-11
2.52074e-10
3.60265e-11
2.7339e-10
4.7464e-11
2.83953e-10
4.31783e-11
2.96452e-10
5.62999e-11
3.2357e-10
7.49468e-11
3.4325e-10
8.33293e-11
3.59654e-10
1.03725e-10
3.9931e-10
1.45938e-10
4.20809e-10
1.64179e-10
4.32224e-10
1.94324e-10
4.35231e-10
2.26755e-10
4.42912e-10
2.96235e-10
3.77616e-10
3.133e-10
2.75031e-10
1.02679e-10
-5.08955e-10
1.77347e-09
-2.43579e-09
-3.11753e-10
-1.19331e-09
-1.05165e-09
-7.30241e-10
-5.6328e-10
-3.30769e-10
-3.30893e-10
-1.18164e-10
-1.69049e-10
-1.86116e-11
-1.21046e-10
3.0947e-11
-8.93061e-11
6.85052e-11
-6.0615e-11
1.2122e-10
-9.25435e-12
1.58768e-10
7.00436e-12
1.86633e-10
2.2121e-11
1.99909e-10
1.98262e-11
2.10797e-10
2.63523e-11
2.31251e-10
3.59029e-11
2.43616e-10
3.31538e-11
2.51817e-10
3.62178e-11
2.72911e-10
4.76316e-11
2.83632e-10
4.36407e-11
2.96114e-10
5.66617e-11
3.22944e-10
7.51792e-11
3.42729e-10
8.39614e-11
3.59138e-10
1.04115e-10
3.98356e-10
1.46278e-10
4.1997e-10
1.64765e-10
4.31482e-10
1.94905e-10
4.34989e-10
2.2686e-10
4.43829e-10
2.95108e-10
3.83775e-10
3.07119e-10
3.00315e-10
7.10606e-11
-4.783e-10
1.79802e-09
-2.53824e-09
-3.04881e-10
-1.15722e-09
-1.05539e-09
-7.27877e-10
-5.60221e-10
-3.29047e-10
-3.30217e-10
-1.18408e-10
-1.69183e-10
-1.8832e-11
-1.21115e-10
3.06774e-11
-8.93597e-11
6.82967e-11
-6.06802e-11
1.20766e-10
-9.30941e-12
1.58378e-10
6.87493e-12
1.86113e-10
2.20136e-11
1.99588e-10
1.99798e-11
2.10527e-10
2.64476e-11
2.30777e-10
3.59026e-11
2.43275e-10
3.34784e-11
2.51523e-10
3.64358e-11
2.72389e-10
4.78331e-11
2.83263e-10
4.41403e-11
2.95726e-10
5.70655e-11
3.22261e-10
7.54578e-11
3.42142e-10
8.46414e-11
3.58555e-10
1.04556e-10
3.9732e-10
1.46671e-10
4.19046e-10
1.65394e-10
4.30669e-10
1.95514e-10
4.34709e-10
2.26923e-10
4.44812e-10
2.93736e-10
3.90384e-10
3.00048e-10
3.27332e-10
3.75491e-11
-4.44408e-10
1.82468e-09
-2.64918e-09
-2.99136e-10
-1.11716e-09
-1.05816e-09
-7.25207e-10
-5.56946e-10
-3.27217e-10
-3.29508e-10
-1.18664e-10
-1.69326e-10
-1.908e-11
-1.2119e-10
3.03813e-11
-8.94117e-11
6.80575e-11
-6.07439e-11
1.20273e-10
-9.36441e-12
1.57956e-10
6.74643e-12
1.85557e-10
2.19133e-11
1.99231e-10
2.01442e-11
2.10221e-10
2.65596e-11
2.30266e-10
3.59226e-11
2.42891e-10
3.38263e-11
2.51189e-10
3.66824e-11
2.71822e-10
4.80706e-11
2.82844e-10
4.46786e-11
2.95286e-10
5.75136e-11
3.21519e-10
7.57849e-11
3.41486e-10
8.53706e-11
3.579e-10
1.05049e-10
3.962e-10
1.47119e-10
4.18036e-10
1.66066e-10
4.29784e-10
1.96149e-10
4.3439e-10
2.2694e-10
4.45862e-10
2.92113e-10
3.97433e-10
2.92094e-10
3.55982e-10
2.33924e-12
-4.07636e-10
1.85357e-09
-2.76791e-09
-2.94913e-10
-1.07323e-09
-1.0599e-09
-7.22245e-10
-5.53458e-10
-3.25284e-10
-3.28765e-10
-1.18934e-10
-1.69478e-10
-1.93562e-11
-1.21272e-10
3.00581e-11
-8.94609e-11
6.77868e-11
-6.08049e-11
1.19743e-10
-9.41877e-12
1.57501e-10
6.62007e-12
1.84963e-10
2.18215e-11
1.98835e-10
2.03203e-11
2.09879e-10
2.66894e-11
2.29716e-10
3.59645e-11
2.42464e-10
3.41984e-11
2.50813e-10
3.69593e-11
2.71207e-10
4.83457e-11
2.82373e-10
4.52571e-11
2.94791e-10
5.80076e-11
3.20717e-10
7.61629e-11
3.40758e-10
8.61501e-11
3.57171e-10
1.05598e-10
3.94993e-10
1.47623e-10
4.16939e-10
1.66779e-10
4.28825e-10
1.96806e-10
4.34033e-10
2.26907e-10
4.46978e-10
2.90235e-10
4.04906e-10
2.8328e-10
3.86147e-10
-3.43459e-11
-3.68397e-10
1.88472e-09
-2.89364e-09
-2.92585e-10
-1.02557e-09
-1.0605e-09
-7.19003e-10
-5.49766e-10
-3.23251e-10
-3.27986e-10
-1.19217e-10
-1.69637e-10
-1.96613e-11
-1.21358e-10
2.9707e-11
-8.95063e-11
6.7484e-11
-6.08623e-11
1.19174e-10
-9.47196e-12
1.57011e-10
6.497e-12
1.84332e-10
2.1739e-11
1.984e-10
2.05086e-11
2.09499e-10
2.68383e-11
2.29128e-10
3.60299e-11
2.41991e-10
3.45955e-11
2.50393e-10
3.72681e-11
2.70544e-10
4.86602e-11
2.81847e-10
4.58768e-11
2.94238e-10
5.85492e-11
3.19853e-10
7.65936e-11
3.39956e-10
8.69807e-11
3.56366e-10
1.06203e-10
3.93699e-10
1.48182e-10
4.15753e-10
1.67534e-10
4.27791e-10
1.97484e-10
4.33636e-10
2.26821e-10
4.48156e-10
2.88102e-10
4.12778e-10
2.73642e-10
4.17687e-10
-7.22505e-11
-3.27115e-10
1.91813e-09
-3.02551e-09
-2.92534e-10
-9.74366e-10
-1.0599e-09
-7.15495e-10
-5.45877e-10
-3.21124e-10
-3.27171e-10
-1.19515e-10
-1.69802e-10
-1.99955e-11
-1.21449e-10
2.93276e-11
-8.95465e-11
6.71483e-11
-6.09148e-11
1.18565e-10
-9.52352e-12
1.56487e-10
6.37841e-12
1.83661e-10
2.16671e-11
1.97925e-10
2.07101e-11
2.09079e-10
2.70073e-11
2.28499e-10
3.61202e-11
2.41471e-10
3.50188e-11
2.49926e-10
3.76103e-11
2.6983e-10
4.90155e-11
2.81266e-10
4.65392e-11
2.93625e-10
5.91398e-11
3.18925e-10
7.70789e-11
3.39079e-10
8.78632e-11
3.55481e-10
1.06865e-10
3.92315e-10
1.48797e-10
4.14477e-10
1.68328e-10
4.26682e-10
1.98182e-10
4.33197e-10
2.2668e-10
4.49392e-10
2.85718e-10
4.21022e-10
2.63228e-10
4.50437e-10
-1.11104e-10
-2.84225e-10
1.95376e-09
-3.1626e-09
-2.95116e-10
-9.19827e-10
-1.05799e-09
-7.11733e-10
-5.41804e-10
-3.18909e-10
-3.26316e-10
-1.19826e-10
-1.69973e-10
-2.03591e-11
-1.21543e-10
2.89195e-11
-8.95807e-11
6.67793e-11
-6.09612e-11
1.17917e-10
-9.57299e-12
1.55926e-10
6.26543e-12
1.82952e-10
2.16067e-11
1.97409e-10
2.09256e-11
2.08618e-10
2.71974e-11
2.27829e-10
3.62367e-11
2.40904e-10
3.54688e-11
2.49412e-10
3.79872e-11
2.69064e-10
4.94128e-11
2.80627e-10
4.72453e-11
2.92951e-10
5.97809e-11
3.17931e-10
7.76202e-11
3.38125e-10
8.87985e-11
3.54515e-10
1.07586e-10
3.90841e-10
1.49469e-10
4.13111e-10
1.69163e-10
4.25497e-10
1.98898e-10
4.32716e-10
2.26484e-10
4.50679e-10
2.8309e-10
4.296e-10
2.52096e-10
4.8421e-10
-1.50608e-10
-2.40163e-10
1.99153e-09
-3.30389e-09
-3.00656e-10
-8.6222e-10
-1.05472e-09
-7.07733e-10
-5.37558e-10
-3.16611e-10
-3.25421e-10
-1.2015e-10
-1.70149e-10
-2.07523e-11
-1.21638e-10
2.84822e-11
-8.96077e-11
6.63765e-11
-6.10008e-11
1.1723e-10
-9.6199e-12
1.55329e-10
6.15913e-12
1.82203e-10
2.15587e-11
1.96851e-10
2.11557e-11
2.08115e-10
2.74097e-11
2.27117e-10
3.63807e-11
2.40287e-10
3.59466e-11
2.48848e-10
3.84002e-11
2.68245e-10
4.98534e-11
2.79929e-10
4.79961e-11
2.92214e-10
6.04735e-11
3.16871e-10
7.82191e-11
3.37093e-10
8.9787e-11
3.53467e-10
1.08367e-10
3.89276e-10
1.50197e-10
4.11654e-10
1.70037e-10
4.24235e-10
1.9963e-10
4.3219e-10
2.26235e-10
4.52009e-10
2.80231e-10
4.38469e-10
2.4032e-10
5.18808e-10
-1.90443e-10
-1.95395e-10
2.03127e-09
-3.44829e-09
-3.09439e-10
-8.01836e-10
-1.05002e-09
-7.03505e-10
-5.33157e-10
-3.14236e-10
-3.24483e-10
-1.20487e-10
-1.70329e-10
-2.11751e-11
-1.21734e-10
2.80155e-11
-8.96263e-11
6.594e-11
-6.10325e-11
1.16502e-10
-9.66382e-12
1.54695e-10
6.06046e-12
1.81413e-10
2.15241e-11
1.9625e-10
2.14011e-11
2.07568e-10
2.76448e-11
2.26362e-10
3.65533e-11
2.3962e-10
3.64528e-11
2.48234e-10
3.88503e-11
2.67371e-10
5.03384e-11
2.79171e-10
4.87925e-11
2.91413e-10
6.12186e-11
3.15743e-10
7.88767e-11
3.35981e-10
9.08294e-11
3.52334e-10
1.09208e-10
3.87619e-10
1.50981e-10
4.10105e-10
1.70949e-10
4.22894e-10
2.00377e-10
4.31616e-10
2.25932e-10
4.5337e-10
2.77156e-10
4.47582e-10
2.27984e-10
5.54014e-10
-2.30266e-10
-1.5038e-10
2.07277e-09
-3.59472e-09
-3.21757e-10
-7.39007e-10
-1.04381e-09
-6.99061e-10
-5.28614e-10
-3.11789e-10
-3.23501e-10
-1.20836e-10
-1.7051e-10
-2.1627e-11
-1.21829e-10
2.75195e-11
-8.96355e-11
6.54694e-11
-6.10556e-11
1.15734e-10
-9.70443e-12
1.54023e-10
5.97045e-12
1.80582e-10
2.15035e-11
1.95605e-10
2.16624e-11
2.06977e-10
2.79036e-11
2.25563e-10
3.67556e-11
2.38902e-10
3.69881e-11
2.47567e-10
3.93385e-11
2.66442e-10
5.08687e-11
2.78351e-10
4.96353e-11
2.90545e-10
6.20169e-11
3.14546e-10
7.9594e-11
3.34788e-10
9.19258e-11
3.51116e-10
1.1011e-10
3.85869e-10
1.51821e-10
4.08465e-10
1.71899e-10
4.21473e-10
2.0114e-10
4.30992e-10
2.2558e-10
4.54749e-10
2.73884e-10
4.56883e-10
2.1518e-10
5.89592e-10
-2.69735e-10
-1.05561e-10
2.11578e-09
-3.74204e-09
-3.37864e-10
-6.74085e-10
-1.03604e-09
-6.94405e-10
-5.23948e-10
-3.09276e-10
-3.22471e-10
-1.21195e-10
-1.70692e-10
-2.21072e-11
-1.21921e-10
2.69943e-11
-8.96342e-11
6.49651e-11
-6.10688e-11
1.14926e-10
-9.74139e-12
1.53313e-10
5.89004e-12
1.7971e-10
2.14977e-11
1.94917e-10
2.19404e-11
2.06341e-10
2.81866e-11
2.24719e-10
3.69885e-11
2.38133e-10
3.75531e-11
2.46847e-10
3.98659e-11
2.65457e-10
5.1445e-11
2.77469e-10
5.05253e-11
2.8961e-10
6.28691e-11
3.1328e-10
8.0372e-11
3.33515e-10
9.30767e-11
3.4981e-10
1.11073e-10
3.84027e-10
1.52717e-10
4.06732e-10
1.72887e-10
4.19972e-10
2.01917e-10
4.30313e-10
2.25182e-10
4.56134e-10
2.70436e-10
4.66312e-10
2.02011e-10
6.25294e-10
-3.08491e-10
-6.1362e-11
2.16002e-09
-3.88904e-09
-3.57968e-10
-6.07469e-10
-1.02665e-09
-6.89547e-10
-5.19178e-10
-3.06702e-10
-3.21391e-10
-1.21563e-10
-1.70873e-10
-2.26153e-11
-1.2201e-10
2.64403e-11
-8.96211e-11
6.4427e-11
-6.10715e-11
1.14078e-10
-9.77431e-12
1.52564e-10
5.8201e-12
1.78797e-10
2.15075e-11
1.94184e-10
2.22355e-11
2.05659e-10
2.84946e-11
2.23831e-10
3.72529e-11
2.37311e-10
3.81484e-11
2.46074e-10
4.04332e-11
2.64415e-10
5.2068e-11
2.76524e-10
5.14631e-11
2.88607e-10
6.37757e-11
3.11943e-10
8.12115e-11
3.32159e-10
9.42824e-11
3.48418e-10
1.12098e-10
3.82092e-10
1.53668e-10
4.04907e-10
1.73912e-10
4.18389e-10
2.02708e-10
4.29575e-10
2.24743e-10
4.57506e-10
2.66839e-10
4.75805e-10
1.8859e-10
6.60864e-10
-3.46164e-10
-1.82227e-11
2.20512e-09
-4.03453e-09
-3.82231e-10
-5.39573e-10
-1.0156e-09
-6.8449e-10
-5.14324e-10
-3.04072e-10
-3.20259e-10
-1.21937e-10
-1.71051e-10
-2.31502e-11
-1.22094e-10
2.58578e-11
-8.95952e-11
6.3856e-11
-6.1063e-11
1.1319e-10
-9.80291e-12
1.51777e-10
5.76143e-12
1.77842e-10
2.15335e-11
1.93406e-10
2.25484e-11
2.04931e-10
2.88278e-11
2.22898e-10
3.75495e-11
2.36436e-10
3.87746e-11
2.45245e-10
4.1041e-11
2.63315e-10
5.27384e-11
2.75515e-10
5.24493e-11
2.87535e-10
6.4737e-11
3.10536e-10
8.21129e-11
3.30722e-10
9.55428e-11
3.46937e-10
1.13183e-10
3.80064e-10
1.54673e-10
4.02989e-10
1.74973e-10
4.16723e-10
2.03514e-10
4.28775e-10
2.24269e-10
4.58847e-10
2.63121e-10
4.85291e-10
1.75035e-10
6.96036e-10
-3.82373e-10
2.3437e-11
2.25069e-09
-4.1773e-09
-4.10824e-10
-4.70837e-10
-1.00283e-09
-6.79233e-10
-5.09406e-10
-3.01391e-10
-3.19071e-10
-1.22317e-10
-1.71223e-10
-2.37105e-11
-1.2217e-10
2.52476e-11
-8.95552e-11
6.32525e-11
-6.10424e-11
1.12263e-10
-9.82696e-12
1.50951e-10
5.71491e-12
1.76845e-10
2.15762e-11
1.92584e-10
2.28795e-11
2.04156e-10
2.91869e-11
2.21919e-10
3.78791e-11
2.35508e-10
3.94322e-11
2.44361e-10
4.16901e-11
2.62157e-10
5.34565e-11
2.74442e-10
5.34843e-11
2.86394e-10
6.57533e-11
3.09057e-10
8.30767e-11
3.29202e-10
9.68579e-11
3.45368e-10
1.14331e-10
3.77943e-10
1.55732e-10
4.0098e-10
1.7607e-10
4.14973e-10
2.04334e-10
4.27907e-10
2.23766e-10
4.60139e-10
2.59312e-10
4.94698e-10
1.61472e-10
7.30534e-10
-4.16751e-10
6.32291e-11
2.29632e-09
-4.31615e-09
-4.43882e-10
-4.01711e-10
-9.88305e-10
-6.73771e-10
-5.04443e-10
-2.98662e-10
-3.17822e-10
-1.22697e-10
-1.71387e-10
-2.42944e-11
-1.22238e-10
2.46108e-11
-8.94999e-11
6.26173e-11
-6.10085e-11
1.11296e-10
-9.84624e-12
1.50085e-10
5.68137e-12
1.75806e-10
2.16362e-11
1.91715e-10
2.32294e-11
2.03333e-10
2.9572e-11
2.20893e-10
3.82422e-11
2.34526e-10
4.01215e-11
2.4342e-10
4.23808e-11
2.6094e-10
5.42228e-11
2.73305e-10
5.45685e-11
2.85183e-10
6.68246e-11
3.07507e-10
8.41031e-11
3.276e-10
9.82278e-11
3.4371e-10
1.15539e-10
3.7573e-10
1.56843e-10
3.98877e-10
1.77202e-10
4.13137e-10
2.0517e-10
4.26965e-10
2.23243e-10
4.61359e-10
2.55446e-10
5.03947e-10
1.48027e-10
7.64077e-10
-4.48928e-10
1.00797e-10
2.34156e-09
-4.44987e-09
-4.8149e-10
-3.32678e-10
-9.71985e-10
-6.68097e-10
-4.99456e-10
-2.95891e-10
-3.1651e-10
-1.23076e-10
-1.71541e-10
-2.49003e-11
-1.22296e-10
2.39481e-11
-8.94282e-11
6.19513e-11
-6.09608e-11
1.10291e-10
-9.8605e-12
1.49181e-10
5.66157e-12
1.74725e-10
2.17139e-11
1.90802e-10
2.35985e-11
2.02463e-10
2.99835e-11
2.19822e-10
3.86395e-11
2.33491e-10
4.08431e-11
2.42423e-10
4.31138e-11
2.59665e-10
5.50374e-11
2.72103e-10
5.57023e-11
2.83902e-10
6.79509e-11
3.05886e-10
8.51925e-11
3.25916e-10
9.96522e-11
3.41963e-10
1.16808e-10
3.73424e-10
1.58006e-10
3.96683e-10
1.7837e-10
4.11214e-10
2.06022e-10
4.25944e-10
2.22708e-10
4.62486e-10
2.51558e-10
5.12961e-10
1.34836e-10
7.96385e-10
-4.7853e-10
1.35775e-10
2.38591e-09
-4.57725e-09
-5.23687e-10
-2.64227e-10
-9.53844e-10
-6.62203e-10
-4.94468e-10
-2.93081e-10
-3.15131e-10
-1.2345e-10
-1.71683e-10
-2.55262e-11
-1.22341e-10
2.32608e-11
-8.93388e-11
6.12557e-11
-6.08985e-11
1.09247e-10
-9.86955e-12
1.48238e-10
5.65618e-12
1.73602e-10
2.18098e-11
1.89843e-10
2.39873e-11
2.01545e-10
3.04217e-11
2.18704e-10
3.90714e-11
2.32401e-10
4.15971e-11
2.41369e-10
4.38893e-11
2.5833e-10
5.59006e-11
2.70835e-10
5.68859e-11
2.82551e-10
6.9132e-11
3.04194e-10
8.63448e-11
3.24149e-10
1.01131e-10
3.40128e-10
1.18137e-10
3.71026e-10
1.5922e-10
3.94397e-10
1.79572e-10
4.09202e-10
2.06892e-10
4.24837e-10
2.22169e-10
4.63494e-10
2.47685e-10
5.21657e-10
1.22033e-10
8.27177e-10
-5.05186e-10
1.67821e-10
2.42886e-09
-4.69708e-09
-5.70538e-10
-1.96853e-10
-9.33852e-10
-6.56072e-10
-4.89496e-10
-2.90234e-10
-3.1368e-10
-1.23815e-10
-1.71808e-10
-2.61698e-11
-1.22373e-10
2.25503e-11
-8.92305e-11
6.05319e-11
-6.08204e-11
1.08166e-10
-9.87335e-12
1.47255e-10
5.66605e-12
1.72437e-10
2.19242e-11
1.88839e-10
2.43962e-11
2.00579e-10
3.08867e-11
2.17539e-10
3.95382e-11
2.31257e-10
4.2384e-11
2.40258e-10
4.47076e-11
2.56935e-10
5.68123e-11
2.69503e-10
5.81194e-11
2.81129e-10
7.03676e-11
3.0243e-10
8.75597e-11
3.22301e-10
1.02663e-10
3.38206e-10
1.19525e-10
3.68536e-10
1.60484e-10
3.92019e-10
1.8081e-10
4.07099e-10
2.0778e-10
4.23638e-10
2.21637e-10
4.64359e-10
2.43863e-10
5.29954e-10
1.09752e-10
8.56172e-10
-5.28546e-10
1.96634e-10
2.46991e-09
-4.80826e-09
-6.2208e-10
-1.31051e-10
-9.11979e-10
-6.49684e-10
-4.84558e-10
-2.87352e-10
-3.12151e-10
-1.24166e-10
-1.71915e-10
-2.68278e-11
-1.22388e-10
2.18185e-11
-8.9102e-11
5.97811e-11
-6.07254e-11
1.07047e-10
-9.87189e-12
1.46235e-10
5.692e-12
1.7123e-10
2.20575e-11
1.87789e-10
2.48256e-11
1.99566e-10
3.13787e-11
2.16328e-10
4.00404e-11
2.3006e-10
4.32039e-11
2.3909e-10
4.55691e-11
2.55481e-10
5.77724e-11
2.68106e-10
5.94029e-11
2.79638e-10
7.16575e-11
3.00595e-10
8.8837e-11
3.20371e-10
1.04248e-10
3.36196e-10
1.20973e-10
3.65955e-10
1.61795e-10
3.89549e-10
1.82081e-10
4.04903e-10
2.08689e-10
4.2234e-10
2.21122e-10
4.65057e-10
2.4013e-10
5.3777e-10
9.81274e-11
8.8309e-10
-5.48275e-10
2.21943e-10
2.50854e-09
-4.90967e-09
-6.78294e-10
-6.73254e-11
-8.88209e-10
-6.43016e-10
-4.79673e-10
-2.84437e-10
-3.10539e-10
-1.24499e-10
-1.72e-10
-2.74978e-11
-1.22386e-10
2.10669e-11
-8.8952e-11
5.90049e-11
-6.06124e-11
1.05892e-10
-9.86507e-12
1.45175e-10
5.73473e-12
1.69982e-10
2.221e-11
1.86695e-10
2.52759e-11
1.98504e-10
3.18979e-11
2.1507e-10
4.05783e-11
2.28808e-10
4.4057e-11
2.37865e-10
4.6474e-11
2.53967e-10
5.87808e-11
2.66643e-10
6.07364e-11
2.78076e-10
7.30011e-11
2.9869e-10
9.01765e-11
3.1836e-10
1.05886e-10
3.341e-10
1.22478e-10
3.63284e-10
1.63154e-10
3.86988e-10
1.83387e-10
4.02613e-10
2.09619e-10
4.20935e-10
2.20636e-10
4.65561e-10
2.36525e-10
5.45023e-10
8.72891e-11
9.07661e-10
-5.64032e-10
2.43475e-10
2.54422e-09
-5.00021e-09
-7.39121e-10
-6.17969e-12
-8.62532e-10
-6.36046e-10
-4.74859e-10
-2.8149e-10
-3.0884e-10
-1.2481e-10
-1.72059e-10
-2.81765e-11
-1.22363e-10
2.02973e-11
-8.87793e-11
5.82054e-11
-6.04807e-11
1.047e-10
-9.85293e-12
1.44078e-10
5.79492e-12
1.68691e-10
2.23817e-11
1.85555e-10
2.57476e-11
1.97395e-10
3.24442e-11
2.13766e-10
4.1152e-11
2.27502e-10
4.49434e-11
2.36582e-10
4.74224e-11
2.52394e-10
5.98373e-11
2.65116e-10
6.21199e-11
2.76444e-10
7.43979e-11
2.96714e-10
9.15775e-11
3.16269e-10
1.07576e-10
3.31919e-10
1.24041e-10
3.60523e-10
1.64558e-10
3.84335e-10
1.84727e-10
4.00227e-10
2.10573e-10
4.19417e-10
2.20187e-10