/*--------------------------------*- C++ -*----------------------------------*\
| =========                 |                                                 |
| \\      /  F ield         | OpenFOAM: The Open Source CFD Toolbox           |
|  \\    /   O peration     | Version:  2312                                  |
|   \\  /    A nd           | Website:  www.openfoam.com                      |
|    \\/     M anipulation  |                                                 |
\*---------------------------------------------------------------------------*/
FoamFile
{
    version     2.0;
    format      ascii;
    arch        "LSB;label=32;scalar=64";
    class       volScalarField;
    location    "800";
    object      pMean;
}
// * * * * * * * * * * * * * * * * * * * * * * * * * * * * * * * * * * * * * //

dimensions      [0 2 -2 0 0 0 0];

internalField   nonuniform List<scalar> 
330000
(
-7.7741e-09
-1.84176e-09
-4.71258e-09
-3.61337e-09
-2.44603e-09
-1.80841e-09
-9.2839e-10
-7.74054e-10
-1.12402e-10
-1.80182e-10
2.67422e-10
3.19342e-11
4.71873e-10
1.63922e-10
6.0034e-10
2.44849e-10
7.47084e-10
3.60315e-10
8.44e-10
3.90646e-10
9.18598e-10
4.14721e-10
9.51674e-10
3.89873e-10
9.84173e-10
3.90372e-10
1.04442e-09
3.98953e-10
1.0796e-09
3.67518e-10
1.11156e-09
3.5654e-10
1.17715e-09
3.60836e-10
1.21358e-09
3.21232e-10
1.26127e-09
3.2431e-10
1.34799e-09
3.40812e-10
1.41448e-09
3.2309e-10
1.48473e-09
3.42857e-10
1.61593e-09
4.06964e-10
1.70955e-09
4.19881e-10
1.80326e-09
4.78097e-10
1.8925e-09
5.73414e-10
2.00668e-09
8.01515e-10
1.94724e-09
1.11558e-09
1.62611e-09
1.70394e-09
-2.31556e-09
8.4406e-09
-7.70802e-09
-1.83818e-09
-4.72283e-09
-3.61846e-09
-2.44823e-09
-1.80881e-09
-9.29631e-10
-7.74557e-10
-1.1345e-10
-1.80647e-10
2.6657e-10
3.16295e-11
4.71095e-10
1.63714e-10
5.99653e-10
2.44752e-10
7.46442e-10
3.60315e-10
8.43331e-10
3.9071e-10
9.17944e-10
4.14856e-10
9.51045e-10
3.90124e-10
9.83523e-10
3.90678e-10
1.04372e-09
3.99309e-10
1.0789e-09
3.6801e-10
1.1108e-09
3.57077e-10
1.17632e-09
3.6144e-10
1.21272e-09
3.2198e-10
1.26033e-09
3.25136e-10
1.34694e-09
3.41717e-10
1.41337e-09
3.242e-10
1.48348e-09
3.44047e-10
1.61453e-09
4.08308e-10
1.708e-09
4.21497e-10
1.80151e-09
4.80007e-10
1.89053e-09
5.75699e-10
2.00451e-09
8.04572e-10
1.94461e-09
1.12018e-09
1.62461e-09
1.71005e-09
-2.34039e-09
8.41518e-09
-7.63984e-09
-1.83898e-09
-4.73608e-09
-3.62449e-09
-2.45023e-09
-1.80886e-09
-9.30456e-10
-7.75256e-10
-1.14281e-10
-1.8155e-10
2.66011e-10
3.09097e-11
4.70627e-10
1.63037e-10
5.99356e-10
2.44156e-10
7.46188e-10
3.59783e-10
8.43089e-10
3.90196e-10
9.17746e-10
4.14368e-10
9.50964e-10
3.89759e-10
9.83469e-10
3.90295e-10
1.04364e-09
3.98915e-10
1.07891e-09
3.67755e-10
1.11081e-09
3.56784e-10
1.17628e-09
3.61132e-10
1.21275e-09
3.21803e-10
1.26035e-09
3.24939e-10
1.34687e-09
3.41514e-10
1.41336e-09
3.24205e-10
1.4834e-09
3.44012e-10
1.61431e-09
4.08345e-10
1.70772e-09
4.21823e-10
1.80106e-09
4.80622e-10
1.88989e-09
5.76752e-10
2.00354e-09
8.06693e-10
1.9429e-09
1.1244e-09
1.62383e-09
1.71866e-09
-2.38533e-09
8.4118e-09
-7.57192e-09
-1.85253e-09
-4.74842e-09
-3.63146e-09
-2.45163e-09
-1.8079e-09
-9.30735e-10
-7.75599e-10
-1.14956e-10
-1.82392e-10
2.65628e-10
3.02107e-11
4.70279e-10
1.62313e-10
5.99211e-10
2.43498e-10
7.46028e-10
3.59152e-10
8.42951e-10
3.89564e-10
9.17635e-10
4.13732e-10
9.5103e-10
3.89284e-10
9.83571e-10
3.89766e-10
1.04368e-09
3.98334e-10
1.07911e-09
3.67358e-10
1.11101e-09
3.56304e-10
1.17642e-09
3.60593e-10
1.21303e-09
3.21443e-10
1.26062e-09
3.24506e-10
1.34702e-09
3.41021e-10
1.41363e-09
3.23974e-10
1.48361e-09
3.43666e-10
1.61434e-09
4.08018e-10
1.70775e-09
4.21823e-10
1.8009e-09
4.80883e-10
1.88959e-09
5.7743e-10
2.00293e-09
8.08466e-10
1.94169e-09
1.12804e-09
1.6253e-09
1.7235e-09
-2.43985e-09
8.42881e-09
-7.50969e-09
-1.8761e-09
-4.75653e-09
-3.63877e-09
-2.45223e-09
-1.80583e-09
-9.30553e-10
-7.75583e-10
-1.15611e-10
-1.8316e-10
2.65269e-10
2.95842e-11
4.69906e-10
1.61628e-10
5.99062e-10
2.42882e-10
7.45805e-10
3.58544e-10
8.42754e-10
3.88948e-10
9.17437e-10
4.13102e-10
9.51054e-10
3.88868e-10
9.83628e-10
3.89277e-10
1.04364e-09
3.97769e-10
1.07926e-09
3.67042e-10
1.11117e-09
3.5588e-10
1.17646e-09
3.60093e-10
1.21325e-09
3.2118e-10
1.26082e-09
3.24145e-10
1.34706e-09
3.40569e-10
1.41382e-09
3.23865e-10
1.48374e-09
3.43394e-10
1.6142e-09
4.07742e-10
1.70764e-09
4.21937e-10
1.80057e-09
4.81268e-10
1.88912e-09
5.78248e-10
2.00211e-09
8.10419e-10
1.94039e-09
1.13146e-09
1.62903e-09
1.72235e-09
-2.4948e-09
8.4588e-09
-7.46027e-09
-1.90537e-09
-4.75788e-09
-3.64579e-09
-2.45179e-09
-1.80258e-09
-9.29892e-10
-7.75264e-10
-1.16285e-10
-1.8391e-10
2.64875e-10
2.89764e-11
4.69462e-10
1.60943e-10
5.98867e-10
2.42276e-10
7.45487e-10
3.57938e-10
8.42471e-10
3.8833e-10
9.17131e-10
4.12469e-10
9.51009e-10
3.88499e-10
9.83619e-10
3.88824e-10
1.04349e-09
3.97218e-10
1.07934e-09
3.66804e-10
1.11125e-09
3.55515e-10
1.17638e-09
3.59641e-10
1.21339e-09
3.21023e-10
1.26094e-09
3.23872e-10
1.34694e-09
3.4018e-10
1.41389e-09
3.239e-10
1.48373e-09
3.43229e-10
1.61386e-09
4.07565e-10
1.70731e-09
4.22221e-10
1.79998e-09
4.81867e-10
1.88835e-09
5.79336e-10
2.00086e-09
8.1275e-10
1.93869e-09
1.13483e-09
1.63495e-09
1.71407e-09
-2.5446e-09
8.49742e-09
-7.43039e-09
-1.9367e-09
-4.75015e-09
-3.65198e-09
-2.45008e-09
-1.79808e-09
-9.28673e-10
-7.74655e-10
-1.16966e-10
-1.84663e-10
2.64432e-10
2.83484e-11
4.68938e-10
1.60223e-10
5.9861e-10
2.41641e-10
7.45067e-10
3.57304e-10
8.42099e-10
3.87679e-10
9.16717e-10
4.11806e-10
9.50893e-10
3.88149e-10
9.83549e-10
3.88382e-10
1.04324e-09
3.96661e-10
1.07935e-09
3.6662e-10
1.11127e-09
3.55186e-10
1.17621e-09
3.59219e-10
1.21346e-09
3.20948e-10
1.26097e-09
3.23668e-10
1.3467e-09
3.39837e-10
1.41384e-09
3.24058e-10
1.4836e-09
3.43158e-10
1.6133e-09
4.0749e-10
1.70675e-09
4.22682e-10
1.79909e-09
4.82709e-10
1.8872e-09
5.80757e-10
1.99906e-09
8.15552e-10
1.93643e-09
1.13811e-09
1.64311e-09
1.6977e-09
-2.58485e-09
8.54162e-09
-7.42558e-09
-1.96736e-09
-4.73124e-09
-3.65693e-09
-2.44692e-09
-1.79225e-09
-9.2682e-10
-7.73746e-10
-1.17623e-10
-1.85412e-10
2.63943e-10
2.76884e-11
4.68327e-10
1.59455e-10
5.98279e-10
2.4096e-10
7.44532e-10
3.5663e-10
8.41629e-10
3.86982e-10
9.16188e-10
4.11105e-10
9.50697e-10
3.87805e-10
9.83409e-10
3.87943e-10
1.04289e-09
3.96093e-10
1.07928e-09
3.66481e-10
1.11123e-09
3.54888e-10
1.17594e-09
3.58828e-10
1.21345e-09
3.20951e-10
1.26092e-09
3.23535e-10
1.34631e-09
3.39551e-10
1.41366e-09
3.24346e-10
1.48332e-09
3.43197e-10
1.6125e-09
4.07548e-10
1.70592e-09
4.23359e-10
1.79784e-09
4.83855e-10
1.88558e-09
5.82592e-10
1.99657e-09
8.18905e-10
1.93349e-09
1.14119e-09
1.6537e-09
1.67254e-09
-2.61189e-09
8.58884e-09
-7.45012e-09
-1.99526e-09
-4.69937e-09
-3.66029e-09
-2.44219e-09
-1.78507e-09
-9.24279e-10
-7.72526e-10
-1.18227e-10
-1.86141e-10
2.63415e-10
2.69983e-11
4.67631e-10
1.58637e-10
5.97867e-10
2.40228e-10
7.43875e-10
3.5591e-10
8.41056e-10
3.86234e-10
9.15535e-10
4.10362e-10
9.50409e-10
3.87462e-10
9.83187e-10
3.87505e-10
1.04243e-09
3.95515e-10
1.07913e-09
3.66385e-10
1.1111e-09
3.54624e-10
1.17555e-09
3.58479e-10
1.21334e-09
3.2104e-10
1.26076e-09
3.23487e-10
1.34576e-09
3.39343e-10
1.41331e-09
3.24785e-10
1.48285e-09
3.43379e-10
1.61142e-09
4.07788e-10
1.70475e-09
4.24305e-10
1.79615e-09
4.85377e-10
1.88338e-09
5.84929e-10
1.99326e-09
8.2286e-10
1.92985e-09
1.14388e-09
1.66695e-09
1.63805e-09
-2.623e-09
8.63693e-09
-7.50727e-09
-2.01898e-09
-4.6531e-09
-3.66172e-09
-2.43584e-09
-1.77652e-09
-9.21022e-10
-7.70995e-10
-1.18756e-10
-1.86837e-10
2.62864e-10
2.62863e-11
4.66859e-10
1.57775e-10
5.97373e-10
2.39445e-10
7.43092e-10
3.55146e-10
8.40376e-10
3.85433e-10
9.14755e-10
4.0958e-10
9.5002e-10
3.87117e-10
9.82873e-10
3.87068e-10
1.04185e-09
3.94935e-10
1.07887e-09
3.66335e-10
1.11087e-09
3.544e-10
1.17504e-09
3.58182e-10
1.2131e-09
3.21224e-10
1.26047e-09
3.23541e-10
1.34503e-09
3.39237e-10
1.41277e-09
3.25399e-10
1.48216e-09
3.43742e-10
1.61001e-09
4.0826e-10
1.70319e-09
4.25578e-10
1.79394e-09
4.87347e-10
1.88051e-09
5.87843e-10
1.98904e-09
8.27436e-10
1.92552e-09
1.14594e-09
1.68317e-09
1.59387e-09
-2.61622e-09
8.6843e-09
-7.59918e-09
-2.03775e-09
-4.59127e-09
-3.66094e-09
-2.42785e-09
-1.76662e-09
-9.17038e-10
-7.69163e-10
-1.19194e-10
-1.8749e-10
2.623e-10
2.5561e-11
4.66022e-10
1.56879e-10
5.96801e-10
2.38618e-10
7.42187e-10
3.54342e-10
8.39591e-10
3.84584e-10
9.13847e-10
4.08762e-10
9.49525e-10
3.86772e-10
9.82461e-10
3.86636e-10
1.04114e-09
3.94357e-10
1.07849e-09
3.66334e-10
1.11053e-09
3.54226e-10
1.17438e-09
3.5795e-10
1.21273e-09
3.21515e-10
1.26003e-09
3.23714e-10
1.34409e-09
3.3926e-10
1.412e-09
3.26213e-10
1.48121e-09
3.44321e-10
1.60822e-09
4.09013e-10
1.70116e-09
4.27234e-10
1.79115e-09
4.89829e-10
1.87689e-09
5.9139e-10
1.98385e-09
8.3261e-10
1.92058e-09
1.1471e-09
1.70264e-09
1.53982e-09
-2.59042e-09
8.73003e-09
-7.72699e-09
-2.05138e-09
-4.51315e-09
-3.65768e-09
-2.41824e-09
-1.7554e-09
-9.1234e-10
-7.67049e-10
-1.19537e-10
-1.88096e-10
2.6173e-10
2.48298e-11
4.65129e-10
1.55959e-10
5.96158e-10
2.37756e-10
7.41164e-10
3.53506e-10
8.38705e-10
3.83693e-10
9.12813e-10
4.07916e-10
9.48919e-10
3.86431e-10
9.81946e-10
3.86217e-10
1.04031e-09
3.93792e-10
1.07799e-09
3.66388e-10
1.11008e-09
3.54109e-10
1.17356e-09
3.57798e-10
1.21221e-09
3.21927e-10
1.25941e-09
3.24027e-10
1.34291e-09
3.39439e-10
1.41096e-09
3.27255e-10
1.47995e-09
3.45155e-10
1.60601e-09
4.10097e-10
1.69862e-09
4.29322e-10
1.78771e-09
4.92874e-10
1.87245e-09
5.95597e-10
1.97768e-09
8.38318e-10
1.91516e-09
1.14707e-09
1.72563e-09
1.47594e-09
-2.54516e-09
8.77363e-09
-7.89079e-09
-2.06016e-09
-4.41836e-09
-3.65171e-09
-2.40707e-09
-1.74292e-09
-9.06952e-10
-7.64678e-10
-1.1979e-10
-1.8866e-10
2.61156e-10
2.40959e-11
4.64188e-10
1.55024e-10
5.95449e-10
2.36868e-10
7.40029e-10
3.52645e-10
8.37722e-10
3.82769e-10
9.11656e-10
4.07052e-10
9.48202e-10
3.861e-10
9.81324e-10
3.85818e-10
1.03934e-09
3.93249e-10
1.07736e-09
3.66506e-10
1.10949e-09
3.54065e-10
1.17258e-09
3.57743e-10
1.21151e-09
3.22476e-10
1.25859e-09
3.24501e-10
1.34149e-09
3.398e-10
1.40963e-09
3.28552e-10
1.47836e-09
3.46282e-10
1.60334e-09
4.11552e-10
1.69553e-09
4.31884e-10
1.78357e-09
4.96517e-10
1.86717e-09
6.00471e-10
1.97055e-09
8.44469e-10
1.90944e-09
1.14558e-09
1.75234e-09
1.40247e-09
-2.48069e-09
8.81504e-09
-8.08972e-09
-2.06469e-09
-4.3068e-09
-3.64282e-09
-2.39444e-09
-1.72925e-09
-9.00911e-10
-7.62084e-10
-1.19965e-10
-1.89191e-10
2.60572e-10
2.33588e-11
4.63198e-10
1.5408e-10
5.94673e-10
2.35963e-10
7.38787e-10
3.51768e-10
8.36646e-10
3.81823e-10
9.10379e-10
4.06179e-10
9.47373e-10
3.85788e-10
9.80591e-10
3.8545e-10
1.03823e-09
3.92744e-10
1.07659e-09
3.66699e-10
1.10877e-09
3.54106e-10
1.17143e-09
3.57802e-10
1.21062e-09
3.23179e-10
1.25757e-09
3.25159e-10
1.33978e-09
3.40373e-10
1.40798e-09
3.30129e-10
1.4764e-09
3.47734e-10
1.60016e-09
4.13414e-10
1.69184e-09
4.34949e-10
1.77871e-09
5.00778e-10
1.86102e-09
6.05996e-10
1.96249e-09
8.50955e-10
1.90356e-09
1.14242e-09
1.78282e-09
1.31989e-09
-2.3978e-09
8.85435e-09
-8.32201e-09
-2.06581e-09
-4.17871e-09
-3.63085e-09
-2.38046e-09
-1.71448e-09
-8.94267e-10
-7.59302e-10
-1.2008e-10
-1.89704e-10
2.59968e-10
2.26138e-11
4.62158e-10
1.53129e-10
5.93832e-10
2.35047e-10
7.3744e-10
3.5088e-10
8.35478e-10
3.80864e-10
9.08985e-10
4.0531e-10
9.4643e-10
3.85504e-10
9.79745e-10
3.85125e-10
1.03699e-09
3.92288e-10
1.07567e-09
3.66977e-10
1.10789e-09
3.54249e-10
1.17008e-09
3.57992e-10
1.20952e-09
3.24053e-10
1.2563e-09
3.26021e-10
1.33779e-09
3.41181e-10
1.40599e-09
3.32011e-10
1.47403e-09
3.4954e-10
1.59647e-09
4.15713e-10
1.68752e-09
4.38539e-10
1.7731e-09
5.05661e-10
1.85402e-09
6.12138e-10
1.95357e-09
8.57662e-10
1.89769e-09
1.1374e-09
1.81705e-09
1.22891e-09
-2.29782e-09
8.89172e-09
-8.58516e-09
-2.06447e-09
-4.03454e-09
-3.61564e-09
-2.36527e-09
-1.69869e-09
-8.87074e-10
-7.5637e-10
-1.20161e-10
-1.90217e-10
2.59329e-10
2.18535e-11
4.61062e-10
1.52173e-10
5.92921e-10
2.34123e-10
7.35989e-10
3.49989e-10
8.34219e-10
3.799e-10
9.07474e-10
4.04454e-10
9.45372e-10
3.85257e-10
9.78782e-10
3.84855e-10
1.03561e-09
3.91896e-10
1.07459e-09
3.67353e-10
1.10685e-09
3.54507e-10
1.16854e-09
3.58331e-10
1.20821e-09
3.25114e-10
1.25479e-09
3.27108e-10
1.33549e-09
3.42249e-10
1.40362e-09
3.34216e-10
1.47125e-09
3.51723e-10
1.59223e-09
4.18467e-10
1.68257e-09
4.42662e-10
1.76675e-09
5.11161e-10
1.84617e-09
6.18854e-10
1.94386e-09
8.64483e-10
1.89196e-09
1.13043e-09
1.85486e-09
1.13044e-09
-2.18239e-09
8.92726e-09
-8.87606e-09
-2.06182e-09
-3.87503e-09
-3.59707e-09
-2.34899e-09
-1.68198e-09
-8.79393e-10
-7.53327e-10
-1.20232e-10
-1.90749e-10
2.58638e-10
2.10686e-11
4.59898e-10
1.51208e-10
5.91932e-10
2.33194e-10
7.3443e-10
3.49095e-10
8.32865e-10
3.78939e-10
9.05846e-10
4.03619e-10
9.44194e-10
3.85056e-10
9.77698e-10
3.8465e-10
1.03408e-09
3.9158e-10
1.07335e-09
3.67837e-10
1.10565e-09
3.54896e-10
1.1668e-09
3.58834e-10
1.20667e-09
3.26378e-10
1.25302e-09
3.28435e-10
1.33287e-09
3.43594e-10
1.40088e-09
3.36759e-10
1.46804e-09
3.54298e-10
1.58744e-09
4.21688e-10
1.67698e-09
4.4732e-10
1.75965e-09
5.17261e-10
1.83751e-09
6.26099e-10
1.93342e-09
8.71323e-10
1.88647e-09
1.12147e-09
1.89599e-09
1.02553e-09
-2.05344e-09
8.9611e-09
-9.19108e-09
-2.05901e-09
-3.70112e-09
-3.57499e-09
-2.33177e-09
-1.66447e-09
-8.71282e-10
-7.50207e-10
-1.2032e-10
-1.9132e-10
2.57876e-10
2.02492e-11
4.58657e-10
1.50231e-10
5.90858e-10
2.32261e-10
7.3276e-10
3.48202e-10
8.31413e-10
3.77986e-10
9.04099e-10
4.02813e-10
9.42895e-10
3.84907e-10
9.76489e-10
3.84519e-10
1.03241e-09
3.91354e-10
1.07195e-09
3.68439e-10
1.10428e-09
3.55429e-10
1.16484e-09
3.59515e-10
1.20489e-09
3.27858e-10
1.25098e-09
3.30019e-10
1.32992e-09
3.45233e-10
1.39775e-09
3.39653e-10
1.46438e-09
3.5728e-10
1.58209e-09
4.25384e-10
1.67075e-09
4.5251e-10
1.75183e-09
5.2394e-10
1.82808e-09
6.33824e-10
1.92233e-09
8.781e-10
1.88131e-09
1.11054e-09
1.94004e-09
9.15365e-10
-1.91309e-09
8.99328e-09
-9.52613e-09
-2.05718e-09
-3.51399e-09
-3.54934e-09
-2.31374e-09
-1.64626e-09
-8.62801e-10
-7.47042e-10
-1.2045e-10
-1.91947e-10
2.57026e-10
1.93851e-11
4.57327e-10
1.49238e-10
5.89688e-10
2.31322e-10
7.30974e-10
3.4731e-10
8.29858e-10
3.77046e-10
9.02229e-10
4.02043e-10
9.41469e-10
3.84817e-10
9.7515e-10
3.84471e-10
1.03059e-09
3.91225e-10
1.07037e-09
3.69169e-10
1.10272e-09
3.56116e-10
1.16266e-09
3.60386e-10
1.20286e-09
3.29563e-10
1.24866e-09
3.31871e-10
1.32664e-09
3.47178e-10
1.39423e-09
3.42904e-10
1.46027e-09
3.60674e-10
1.57619e-09
4.29555e-10
1.66388e-09
4.58223e-10
1.74329e-09
5.31175e-10
1.8179e-09
6.41984e-10
1.91064e-09
8.8475e-10
1.87651e-09
1.09773e-09
1.98656e-09
8.01258e-10
-1.76359e-09
9.02367e-09
-9.87687e-09
-2.05736e-09
-3.31498e-09
-3.52005e-09
-2.29502e-09
-1.62745e-09
-8.54006e-10
-7.4386e-10
-1.20646e-10
-1.92648e-10
2.5607e-10
1.84674e-11
4.55894e-10
1.48226e-10
5.88414e-10
2.30378e-10
7.29067e-10
3.46419e-10
8.28193e-10
3.76121e-10
9.00233e-10
4.01312e-10
9.39912e-10
3.84791e-10
9.73676e-10
3.84513e-10
1.02862e-09
3.91204e-10
1.06862e-09
3.70033e-10
1.10098e-09
3.56967e-10
1.16027e-09
3.61457e-10
1.20058e-09
3.31503e-10
1.24605e-09
3.33999e-10
1.32303e-09
3.49438e-10
1.3903e-09
3.46518e-10
1.45571e-09
3.64486e-10
1.56973e-09
4.34198e-10
1.65639e-09
4.64446e-10
1.73407e-09
5.38941e-10
1.80701e-09
6.50534e-10
1.89842e-09
8.91226e-10
1.87208e-09
1.08316e-09
2.03501e-09
6.84596e-10
-1.60723e-09
9.05196e-09
-1.02388e-08
-2.06064e-09
-3.10558e-09
-3.48706e-09
-2.27574e-09
-1.60816e-09
-8.44952e-10
-7.40683e-10
-1.20926e-10
-1.93436e-10
2.54991e-10
1.74884e-11
4.54349e-10
1.47188e-10
5.87026e-10
2.29426e-10
7.27032e-10
3.45527e-10
8.26413e-10
3.75216e-10
8.98107e-10
4.00625e-10
9.38218e-10
3.84832e-10
9.72062e-10
3.8465e-10
1.02649e-09
3.91297e-10
1.06669e-09
3.71036e-10
1.09904e-09
3.57989e-10
1.15764e-09
3.62734e-10
1.19805e-09
3.33684e-10
1.24315e-09
3.3641e-10
1.31908e-09
3.5202e-10
1.38597e-09
3.50495e-10
1.45069e-09
3.68715e-10
1.56274e-09
4.39309e-10
1.64829e-09
4.71165e-10
1.72417e-09
5.47211e-10
1.79546e-09
6.59437e-10
1.88571e-09
8.97495e-10
1.86803e-09
1.06703e-09
2.08479e-09
5.6677e-10
-1.44627e-09
9.07782e-09
-1.06073e-08
-2.06797e-09
-2.88739e-09
-3.45035e-09
-2.25599e-09
-1.58849e-09
-8.35687e-10
-7.37527e-10
-1.21308e-10
-1.94321e-10
2.53778e-10
1.64421e-11
4.52681e-10
1.46124e-10
5.85516e-10
2.28465e-10
7.24865e-10
3.44634e-10
8.24511e-10
3.74332e-10
8.95847e-10
3.99984e-10
9.36385e-10
3.84943e-10
9.70303e-10
3.84886e-10
1.0242e-09
3.9151e-10
1.06457e-09
3.72183e-10
1.09691e-09
3.59189e-10
1.15479e-09
3.64223e-10
1.19526e-09
3.3611e-10
1.23996e-09
3.39108e-10
1.31479e-09
3.54927e-10
1.38125e-09
3.54836e-10
1.44523e-09
3.73361e-10
1.5552e-09
4.44878e-10
1.6396e-09
4.78366e-10
1.71364e-09
5.55958e-10
1.78326e-09
6.68656e-10
1.87255e-09
9.03539e-10
1.8643e-09
1.04955e-09
2.13524e-09
4.49182e-10
-1.28285e-09
9.10079e-09
-1.09777e-08
-2.08013e-09
-2.66214e-09
-3.40994e-09
-2.23587e-09
-1.56854e-09
-8.26259e-10
-7.34407e-10
-1.21806e-10
-1.95312e-10
2.52418e-10
1.53242e-11
4.50882e-10
1.45029e-10
5.83876e-10
2.27495e-10
7.22561e-10
3.43739e-10
8.22483e-10
3.73469e-10
8.93449e-10
3.99391e-10
9.34407e-10
3.85125e-10
9.68394e-10
3.85223e-10
1.02176e-09
3.91846e-10
1.06226e-09
3.73477e-10
1.09458e-09
3.60569e-10
1.15171e-09
3.65928e-10
1.19221e-09
3.38783e-10
1.23648e-09
3.42094e-10
1.31016e-09
3.58161e-10
1.37613e-09
3.59538e-10
1.43932e-09
3.7842e-10
1.54715e-09
4.50897e-10
1.63032e-09
4.86031e-10
1.70248e-09
5.65157e-10
1.77047e-09
6.78159e-10
1.85897e-09
9.09352e-10
1.86084e-09
1.03097e-09
2.18569e-09
3.33254e-10
-1.11907e-09
9.12021e-09
-1.13455e-08
-2.09774e-09
-2.43156e-09
-3.36588e-09
-2.21546e-09
-1.54843e-09
-8.16716e-10
-7.31331e-10
-1.22429e-10
-1.96413e-10
2.50902e-10
1.41319e-11
4.48945e-10
1.43903e-10
5.82101e-10
2.26514e-10
7.20116e-10
3.4284e-10
8.20322e-10
3.7263e-10
8.90909e-10
3.98847e-10
9.3228e-10
3.8538e-10
9.66333e-10
3.85665e-10
1.01915e-09
3.9231e-10
1.05977e-09
3.74918e-10
1.09205e-09
3.62134e-10
1.14841e-09
3.6785e-10
1.18889e-09
3.41704e-10
1.23271e-09
3.4537e-10
1.30521e-09
3.61723e-10
1.37062e-09
3.64596e-10
1.43297e-09
3.83885e-10
1.53858e-09
4.57354e-10
1.62049e-09
4.94143e-10
1.69073e-09
5.74781e-10
1.7571e-09
6.87916e-10
1.84501e-09
9.14942e-10
1.85756e-09
1.01157e-09
2.23542e-09
2.20378e-10
-9.56865e-10
9.13528e-09
-1.17063e-08
-2.12136e-09
-2.19744e-09
-3.3182e-09
-2.19484e-09
-1.52826e-09
-8.07097e-10
-7.28305e-10
-1.23186e-10
-1.97629e-10
2.49225e-10
1.28646e-11
4.46866e-10
1.42745e-10
5.80185e-10
2.25524e-10
7.17526e-10
3.41938e-10
8.18025e-10
3.71816e-10
8.88225e-10
3.98355e-10
9.30002e-10
3.85709e-10
9.64115e-10
3.86211e-10
1.01637e-09
3.92903e-10
1.05708e-09
3.76509e-10
1.08932e-09
3.63884e-10
1.14487e-09
3.69991e-10
1.18532e-09
3.44874e-10
1.22864e-09
3.48934e-10
1.29993e-09
3.65611e-10
1.36473e-09
3.70006e-10
1.42619e-09
3.89751e-10
1.52952e-09
4.64236e-10
1.61011e-09
5.02682e-10
1.67842e-09
5.84803e-10
1.7432e-09
6.97902e-10
1.83068e-09
9.20326e-10
1.85438e-09
9.91647e-10
2.28375e-09
1.1185e-10
-7.97973e-10
9.14522e-09
-1.2056e-08
-2.15143e-09
-1.96155e-09
-3.26697e-09
-2.17405e-09
-1.50813e-09
-7.97442e-10
-7.25328e-10
-1.24079e-10
-1.98958e-10
2.47381e-10
1.15232e-11
4.4464e-10
1.41555e-10
5.78125e-10
2.24524e-10
7.14792e-10
3.41031e-10
8.15589e-10
3.71028e-10
8.85395e-10
3.97914e-10
9.27571e-10
3.86113e-10
9.61738e-10
3.86863e-10
1.01343e-09
3.93626e-10
1.05421e-09
3.78248e-10
1.08638e-09
3.65821e-10
1.1411e-09
3.7235e-10
1.18149e-09
3.48292e-10
1.22429e-09
3.52785e-10
1.29432e-09
3.69822e-10
1.35846e-09
3.75762e-10
1.41898e-09
3.9601e-10
1.51997e-09
4.71529e-10
1.59921e-09
5.11631e-10
1.66556e-09
5.95197e-10
1.72878e-09
7.08093e-10
1.81601e-09
9.2553e-10
1.85118e-09
9.71515e-10
2.32994e-09
8.87862e-12
-6.43901e-10
9.14917e-09
-1.23907e-08
-2.18815e-09
-1.72565e-09
-3.21231e-09
-2.15314e-09
-1.48814e-09
-7.8779e-10
-7.22402e-10
-1.25113e-10
-2.00399e-10
2.45369e-10
1.01094e-11
4.42266e-10
1.40336e-10
5.75919e-10
2.23517e-10
7.1191e-10
3.4012e-10
8.1301e-10
3.70267e-10
8.82418e-10
3.97526e-10
9.24983e-10
3.86591e-10
9.592e-10
3.87622e-10
1.01033e-09
3.94482e-10
1.05114e-09
3.80136e-10
1.08324e-09
3.67944e-10
1.1371e-09
3.74927e-10
1.17741e-09
3.51954e-10
1.21964e-09
3.56918e-10
1.2884e-09
3.74352e-10
1.35181e-09
3.81856e-10
1.41136e-09
4.02651e-10
1.50996e-09
4.79219e-10
1.58781e-09
5.20969e-10
1.65219e-09
6.05939e-10
1.71388e-09
7.18469e-10
1.80099e-09
9.30589e-10
1.84784e-09
9.51488e-10
2.37333e-09
-8.73824e-11
-4.95999e-10
9.14617e-09
-1.27069e-08
-2.23158e-09
-1.49144e-09
-3.15433e-09
-2.13214e-09
-1.46839e-09
-7.78175e-10
-7.19522e-10
-1.26286e-10
-2.01949e-10
2.43186e-10
8.62648e-12
4.39743e-10
1.3909e-10
5.73567e-10
2.22502e-10
7.0888e-10
3.39206e-10
8.10286e-10
3.69534e-10
8.79291e-10
3.97191e-10
9.22239e-10
3.87144e-10
9.56499e-10
3.88486e-10
1.00705e-09
3.95469e-10
1.04787e-09
3.82172e-10
1.07989e-09
3.70252e-10
1.13288e-09
3.77719e-10
1.17306e-09
3.55859e-10
1.21472e-09
3.6133e-10
1.28217e-09
3.79198e-10
1.34481e-09
3.88279e-10
1.40334e-09
4.09664e-10
1.4995e-09
4.8729e-10
1.57592e-09
5.30675e-10
1.63832e-09
6.17001e-10
1.69853e-09
7.29011e-10
1.78564e-09
9.35544e-10
1.84422e-09
9.31886e-10
2.41326e-09
-1.75881e-10
-3.55429e-10
9.13517e-09
-1.30013e-08
-2.28175e-09
-1.26054e-09
-3.09314e-09
-2.11107e-09
-1.44896e-09
-7.68631e-10
-7.16684e-10
-1.27597e-10
-2.03602e-10
2.40834e-10
7.07869e-12
4.37072e-10
1.37818e-10
5.71067e-10
2.21484e-10
7.05704e-10
3.38289e-10
8.07417e-10
3.68832e-10
8.76015e-10
3.96911e-10
9.19337e-10
3.87771e-10
9.53635e-10
3.89456e-10
1.00361e-09
3.96589e-10
1.04442e-09
3.84354e-10
1.07633e-09
3.72745e-10
1.12843e-09
3.80725e-10
1.16847e-09
3.60002e-10
1.20951e-09
3.66016e-10
1.27563e-09
3.84352e-10
1.33745e-09
3.95023e-10
1.39492e-09
4.17037e-10
1.4886e-09
4.95725e-10
1.56357e-09
5.40728e-10
1.62399e-09
6.28358e-10
1.68275e-09
7.39702e-10
1.76995e-09
9.40442e-10
1.84019e-09
9.1302e-10
2.44911e-09
-2.55716e-10
-2.2308e-10
9.11525e-09
-1.3271e-08
-2.33858e-09
-1.03448e-09
-3.02886e-09
-2.08991e-09
-1.42995e-09
-7.59185e-10
-7.13877e-10
-1.29042e-10
-2.05353e-10
2.38316e-10
5.4715e-12
4.34253e-10
1.36526e-10
5.68421e-10
2.20463e-10
7.02382e-10
3.3737e-10
8.04403e-10
3.68162e-10
8.7259e-10
3.96685e-10
9.16277e-10
3.88474e-10
9.50607e-10
3.9053e-10
1.00001e-09
3.97841e-10
1.04077e-09
3.86682e-10
1.07257e-09
3.7542e-10
1.12376e-09
3.83941e-10
1.16362e-09
3.64381e-10
1.20403e-09
3.70969e-10
1.26879e-09
3.89809e-10
1.32974e-09
4.02078e-10
1.38611e-09
4.24759e-10
1.47728e-09
5.04506e-10
1.55078e-09
5.51107e-10
1.60922e-09
6.39986e-10
1.66657e-09
7.5053e-10
1.75393e-09
9.45333e-10
1.83562e-09
8.95193e-10
2.48029e-09
-3.26118e-10
-9.96142e-11
9.0855e-09
-1.35137e-08
-2.40182e-09
-8.14697e-10
-2.96165e-09
-2.06867e-09
-1.41142e-09
-7.49866e-10
-7.11093e-10
-1.30614e-10
-2.07193e-10
2.35634e-10
3.81048e-12
4.31291e-10
1.35217e-10
5.65632e-10
2.19444e-10
6.98915e-10
3.36451e-10
8.01242e-10
3.67526e-10
8.69017e-10
3.96515e-10
9.1306e-10
3.89252e-10
9.47414e-10
3.91709e-10
9.96233e-10
3.99225e-10
1.03694e-09
3.89152e-10
1.0686e-09
3.78276e-10
1.11887e-09
3.87365e-10
1.15853e-09
3.6899e-10
1.19827e-09
3.76184e-10
1.26165e-09
3.95561e-10
1.32171e-09
4.09434e-10
1.37694e-09
4.32815e-10
1.46556e-09
5.13616e-10
1.53757e-09
5.61791e-10
1.59404e-09
6.5186e-10
1.65001e-09
7.61482e-10
1.73755e-09
9.50271e-10
1.83035e-09
8.78693e-10
2.50631e-09
-3.86415e-10
1.44674e-11
9.04498e-09
-1.37273e-08
-2.47111e-09
-6.02487e-10
-2.89165e-09
-2.04733e-09
-1.39346e-09
-7.407e-10
-7.08322e-10
-1.32309e-10
-2.09115e-10
2.32793e-10
2.10182e-12
4.28187e-10
1.33896e-10
5.62701e-10
2.18429e-10
6.95305e-10
3.35534e-10
7.97935e-10
3.66926e-10
8.65296e-10
3.96402e-10
9.09686e-10
3.90104e-10
9.44058e-10
3.92991e-10
9.92296e-10
4.0074e-10
1.03292e-09
3.91763e-10
1.06443e-09
3.81309e-10
1.11376e-09
3.90992e-10
1.1532e-09
3.73825e-10
1.19225e-09
3.81654e-10
1.25424e-09
4.016e-10
1.31334e-09
4.17078e-10
1.3674e-09
4.41192e-10
1.45346e-09
5.23035e-10
1.52396e-09
5.72756e-10
1.57846e-09
6.63956e-10
1.63308e-09
7.72547e-10
1.72082e-09
9.55309e-10
1.82425e-09
8.63789e-10
2.52669e-09
-4.36067e-10
1.18816e-10
8.9928e-09
-1.391e-08
-2.54611e-09
-3.99035e-10
-2.819e-09
-2.02585e-09
-1.37612e-09
-7.31707e-10
-7.05551e-10
-1.34118e-10
-2.11108e-10
2.29798e-10
3.52577e-13
4.24945e-10
1.32567e-10
5.59632e-10
2.17421e-10
6.91555e-10
3.34619e-10
7.94485e-10
3.66363e-10
8.61428e-10
3.96346e-10
9.06156e-10
3.91032e-10
9.40541e-10
3.94376e-10
9.88197e-10
4.02385e-10
1.02871e-09
3.94513e-10
1.06006e-09
3.84518e-10
1.10844e-09
3.94819e-10
1.14764e-09
3.7888e-10
1.18597e-09
3.87371e-10
1.24655e-09
4.07919e-10
1.30466e-09
4.25001e-10
1.35752e-09
4.49874e-10
1.44099e-09
5.32746e-10
1.50998e-09
5.83982e-10
1.56252e-09
6.76251e-10
1.61582e-09
7.83716e-10
1.70372e-09
9.60503e-10
1.81719e-09
8.50729e-10
2.54104e-09
-4.7468e-10
2.13331e-10
8.9282e-09
-1.40606e-08
-2.62646e-09
-2.05387e-10
-2.74383e-09
-2.0042e-09
-1.35945e-09
-7.22906e-10
-7.02765e-10
-1.3603e-10
-2.13162e-10
2.26657e-10
-1.42962e-12
4.21572e-10
1.31235e-10
5.56429e-10
2.16424e-10
6.87667e-10
3.3371e-10
7.90891e-10
3.6584e-10
8.57417e-10
3.96349e-10
9.02473e-10
3.92035e-10
9.36862e-10
3.95861e-10
9.83938e-10
4.04159e-10
1.02432e-09
3.974e-10
1.0555e-09
3.87898e-10
1.10291e-09
3.9884e-10
1.14184e-09
3.84149e-10
1.17944e-09
3.93327e-10
1.23859e-09
4.14507e-10
1.29568e-09
4.33189e-10
1.34731e-09
4.58847e-10
1.42818e-09
5.42727e-10
1.49565e-09
5.95447e-10
1.54624e-09
6.88721e-10
1.59824e-09
7.94982e-10
1.68624e-09
9.65905e-10
1.80905e-09
8.39731e-10
2.54903e-09
-5.02005e-10
2.98085e-10
8.85057e-09
-1.41782e-08
-2.71166e-09
-2.24437e-11
-2.66628e-09
-1.98231e-09
-1.34351e-09
-7.14312e-10
-6.99949e-10
-1.38035e-10
-2.15266e-10
2.23375e-10
-3.23747e-12
4.18072e-10
1.29907e-10
5.53096e-10
2.15443e-10
6.83646e-10
3.32808e-10
7.87157e-10
3.65359e-10
8.53262e-10
3.9641e-10
8.98638e-10
3.93113e-10
9.33025e-10
3.97446e-10
9.7952e-10
4.06061e-10
1.01975e-09
4.00421e-10
1.05074e-09
3.91446e-10
1.09718e-09
4.03051e-10
1.13581e-09
3.89626e-10
1.17266e-09
3.99514e-10
1.23037e-09
4.21356e-10
1.28641e-09
4.4163e-10
1.33678e-09
4.68095e-10
1.41504e-09
5.52961e-10
1.48098e-09
6.07129e-10
1.52964e-09
7.01345e-10
1.58035e-09
8.06339e-10
1.66836e-09
9.71567e-10
1.79969e-09
8.30988e-10
2.55038e-09
-5.17887e-10
3.73265e-10
8.75929e-09
-1.42623e-08
-2.80119e-09
1.49023e-10
-2.58651e-09
-1.96015e-09
-1.32834e-09
-7.0594e-10
-6.9709e-10
-1.40123e-10
-2.17409e-10
2.19962e-10
-5.06355e-12
4.1445e-10
1.28587e-10
5.49639e-10
2.1448e-10
6.79493e-10
3.31915e-10
7.83284e-10
3.64921e-10
8.48968e-10
3.96532e-10
8.94654e-10
3.94265e-10
9.29031e-10
3.9913e-10
9.74947e-10
4.08089e-10
1.015e-09
4.03573e-10
1.04579e-09
3.95158e-10
1.09125e-09
4.07448e-10
1.12957e-09
3.95306e-10
1.16564e-09
4.05922e-10
1.22191e-09
4.28456e-10
1.27686e-09
4.50311e-10
1.32595e-09
4.77602e-10
1.40159e-09
5.63427e-10
1.466e-09
6.19006e-10
1.51275e-09
7.14101e-10
1.56218e-09
8.17779e-10
1.65006e-09
9.77536e-10
1.78902e-09
8.24664e-10
2.54492e-09
-5.223e-10
4.39138e-10
8.65388e-09
-1.43126e-08
-2.89455e-09
3.08393e-10
-2.50462e-09
-1.93766e-09
-1.31395e-09
-6.97798e-10
-6.94171e-10
-1.42282e-10
-2.1958e-10
2.16425e-10
-6.89978e-12
4.10712e-10
1.2728e-10
5.46062e-10
2.13539e-10
6.75212e-10
3.31033e-10
7.79276e-10
3.64529e-10
8.44535e-10
3.96713e-10
8.90523e-10
3.95493e-10
9.24883e-10
4.00911e-10
9.70221e-10
4.10242e-10
1.01008e-09
4.06853e-10
1.04065e-09
3.99031e-10
1.08512e-09
4.12024e-10
1.12311e-09
4.0118e-10
1.15839e-09
4.12543e-10
1.21321e-09
4.35795e-10
1.26705e-09
4.5922e-10
1.31483e-09
4.87351e-10
1.38785e-09
5.74106e-10
1.45073e-09
6.31057e-10
1.49558e-09
7.26968e-10
1.54374e-09
8.29299e-10
1.63133e-09
9.83857e-10
1.77694e-09
8.20889e-10
2.53251e-09
-5.15329e-10
4.96155e-10
8.534e-09
-1.43293e-08
-2.99131e-09
4.55183e-10
-2.42074e-09
-1.91476e-09
-1.30037e-09
-6.89892e-10
-6.91173e-10
-1.44497e-10
-2.21767e-10
2.12774e-10
-8.73765e-12
4.06866e-10
1.25992e-10
5.42372e-10
2.12626e-10
6.70807e-10
3.30163e-10
7.75134e-10
3.64185e-10
8.39968e-10
3.96955e-10
8.86248e-10
3.96795e-10
9.20585e-10
4.02786e-10
9.65346e-10
4.12517e-10
1.00499e-09
4.10258e-10
1.03534e-09
4.0306e-10
1.07881e-09
4.16773e-10
1.11645e-09
4.07244e-10
1.15092e-09
4.19368e-10
1.20427e-09
4.43364e-10
1.25698e-09
4.68343e-10
1.30343e-09
4.97327e-10
1.37384e-09
5.84978e-10
1.4352e-09
6.43262e-10
1.47817e-09
7.39927e-10
1.52505e-09
8.40893e-10
1.61216e-09
9.90566e-10
1.76336e-09
8.19761e-10
2.51308e-09
-4.97181e-10
5.44872e-10
8.39948e-09
-1.43128e-08
-3.09094e-09
5.8906e-10
-2.33497e-09
-1.89139e-09
-1.28761e-09
-6.82223e-10
-6.8808e-10
-1.46755e-10
-2.23955e-10
2.09019e-10
-1.05694e-11
4.02917e-10
1.24728e-10
5.38574e-10
2.11743e-10
6.66282e-10
3.29308e-10
7.70862e-10
3.63891e-10
8.35268e-10
3.97257e-10
8.81832e-10
3.98171e-10
9.16139e-10
4.04756e-10
9.60325e-10
4.14913e-10
9.99739e-10
4.13786e-10
1.02985e-09
4.07241e-10
1.07231e-09
4.21691e-10
1.10958e-09
4.13488e-10
1.14323e-09
4.26388e-10
1.19512e-09
4.51152e-10
1.24666e-09
4.77666e-10
1.29179e-09
5.07514e-10
1.35958e-09
5.96024e-10
1.41942e-09
6.55601e-10
1.46051e-09
7.52959e-10
1.50611e-09
8.52556e-10
1.59253e-09
9.97696e-10
1.74821e-09
8.21344e-10
2.48664e-09
-4.68137e-10
5.85902e-10
8.2502e-09
-1.42639e-08
-3.19294e-09
7.09806e-10
-2.24742e-09
-1.86749e-09
-1.27568e-09
-6.74794e-10
-6.84875e-10
-1.49043e-10
-2.26135e-10
2.0517e-10
-1.23873e-11
3.98874e-10
1.23494e-10
5.34675e-10
2.10895e-10
6.61639e-10
3.28469e-10
7.66465e-10
3.63648e-10
8.30439e-10
3.97621e-10
8.77279e-10
3.99621e-10
9.11549e-10
4.06817e-10
9.55161e-10
4.17428e-10
9.94326e-10
4.17431e-10
1.02418e-09
4.11569e-10
1.06564e-09
4.2677e-10
1.10253e-09
4.19907e-10
1.13534e-09
4.33591e-10
1.18576e-09
4.59147e-10
1.23612e-09
4.87177e-10
1.2799e-09
5.17895e-10
1.34507e-09
6.07224e-10
1.40341e-09
6.68053e-10
1.44265e-09
7.66043e-10
1.48695e-09
8.64283e-10
1.57242e-09
1.00527e-09
1.73143e-09
8.25671e-10
2.45325e-09
-4.2858e-10
6.19865e-10
8.08618e-09
-1.41836e-08
-3.29686e-09
8.17354e-10
-2.15819e-09
-1.84299e-09
-1.26457e-09
-6.67599e-10