/*--------------------------------*- C++ -*----------------------------------*\
| =========                 |                                                 |
| \\      /  F ield         | OpenFOAM: The Open Source CFD Toolbox           |
|  \\    /   O peration     | Version:  2312                                  |
|   \\  /    A nd           | Website:  www.openfoam.com                      |
|    \\/     M anipulation  |                                                 |
\*---------------------------------------------------------------------------*/
FoamFile
{
    version     2.0;
    format      ascii;
    arch        "LSB;label=32;scalar=64";
    class       volScalarField;
    location    "800";
    object      pPrime2Mean;
}
// * * * * * * * * * * * * * * * * * * * * * * * * * * * * * * * * * * * * * //

dimensions      [0 4 -4 0 0 0 0];

internalField   nonuniform List<scalar> 
330000
(
1.35179e-16
5.0285e-17
3.34615e-17
2.81554e-17
2.84225e-17
2.67369e-17
2.52483e-17
2.25925e-17
2.1589e-17
1.98616e-17
1.93396e-17
1.80437e-17
1.79707e-17
1.67889e-17
1.67614e-17
1.55496e-17
1.57435e-17
1.47966e-17
1.46784e-17
1.41159e-17
1.38463e-17
1.32827e-17
1.33381e-17
1.22443e-17
1.29958e-17
1.1444e-17
1.2589e-17
1.09679e-17
1.20232e-17
1.0645e-17
1.14509e-17
1.03812e-17
1.0965e-17
1.01439e-17
1.05225e-17
9.9643e-18
1.0189e-17
9.77133e-18
9.99519e-18
9.53735e-18
9.91329e-18
9.41603e-18
9.925e-18
9.38866e-18
1.00417e-17
9.3159e-18
1.04032e-17
9.55808e-18
1.09618e-17
1.03079e-17
1.17981e-17
1.11794e-17
1.48683e-17
9.48548e-18
2.32569e-17
8.32869e-18
3.31608e-17
2.50116e-17
9.37505e-18
1.13144e-16
1.33974e-16
5.00574e-17
3.34356e-17
2.81495e-17
2.84186e-17
2.67433e-17
2.52516e-17
2.2597e-17
2.15887e-17
1.98618e-17
1.93377e-17
1.80429e-17
1.79688e-17
1.67885e-17
1.676e-17
1.55496e-17
1.57426e-17
1.47969e-17
1.46779e-17
1.41161e-17
1.38462e-17
1.3283e-17
1.33377e-17
1.22453e-17
1.29947e-17
1.14453e-17
1.25876e-17
1.09691e-17
1.2022e-17
1.06457e-17
1.14501e-17
1.03812e-17
1.09645e-17
1.01435e-17
1.05222e-17
9.96321e-18
1.01888e-17
9.76967e-18
9.9951e-18
9.53531e-18
9.91302e-18
9.41362e-18
9.92436e-18
9.38613e-18
1.00408e-17
9.3131e-18
1.04019e-17
9.55527e-18
1.09597e-17
1.03055e-17
1.1797e-17
1.11742e-17
1.48738e-17
9.47545e-18
2.3263e-17
8.33732e-18
3.31114e-17
2.51485e-17
9.47824e-18
1.12501e-16
1.32776e-16
4.99034e-17
3.33682e-17
2.8125e-17
2.84196e-17
2.67585e-17
2.52614e-17
2.26054e-17
2.15909e-17
1.98633e-17
1.9338e-17
1.80432e-17
1.7969e-17
1.67888e-17
1.67606e-17
1.55499e-17
1.57432e-17
1.47978e-17
1.46783e-17
1.41173e-17
1.3847e-17
1.32841e-17
1.3339e-17
1.22462e-17
1.2996e-17
1.14462e-17
1.25887e-17
1.09701e-17
1.20233e-17
1.06465e-17
1.14517e-17
1.03818e-17
1.09661e-17
1.01438e-17
1.05241e-17
9.9633e-18
1.0191e-17
9.76946e-18
9.99773e-18
9.53495e-18
9.91599e-18
9.4132e-18
9.92754e-18
9.38617e-18
1.00447e-17
9.31318e-18
1.0407e-17
9.55636e-18
1.0965e-17
1.03092e-17
1.18047e-17
1.11765e-17
1.48952e-17
9.46825e-18
2.33e-17
8.34776e-18
3.30649e-17
2.53456e-17
9.68002e-18
1.12184e-16
1.31484e-16
4.98497e-17
3.32152e-17
2.80532e-17
2.84111e-17
2.67731e-17
2.52708e-17
2.26147e-17
2.15932e-17
1.98656e-17
1.93398e-17
1.80447e-17
1.79705e-17
1.67899e-17
1.67622e-17
1.55506e-17
1.57443e-17
1.47993e-17
1.46792e-17
1.41191e-17
1.38482e-17
1.32855e-17
1.33412e-17
1.2247e-17
1.29984e-17
1.14471e-17
1.25907e-17
1.09712e-17
1.20254e-17
1.06475e-17
1.14538e-17
1.03826e-17
1.09684e-17
1.01446e-17
1.05265e-17
9.96396e-18
1.01937e-17
9.76992e-18
1.00009e-17
9.53532e-18
9.91962e-18
9.41357e-18
9.93138e-18
9.38729e-18
1.00494e-17
9.31441e-18
1.0413e-17
9.55853e-18
1.09712e-17
1.03147e-17
1.18123e-17
1.11811e-17
1.49162e-17
9.46268e-18
2.33275e-17
8.36018e-18
3.29666e-17
2.5539e-17
9.94247e-18
1.1212e-16
1.3003e-16
4.98509e-17
3.29263e-17
2.78948e-17
2.83662e-17
2.67682e-17
2.52679e-17
2.2618e-17
2.15915e-17
1.9866e-17
1.93405e-17
1.80455e-17
1.79711e-17
1.67904e-17
1.67631e-17
1.55507e-17
1.57446e-17
1.48004e-17
1.46794e-17
1.41209e-17
1.38491e-17
1.32866e-17
1.33435e-17
1.22477e-17
1.30009e-17
1.14478e-17
1.25927e-17
1.09723e-17
1.20275e-17
1.06486e-17
1.1456e-17
1.03836e-17
1.09705e-17
1.01455e-17
1.05288e-17
9.9647e-18
1.01964e-17
9.77041e-18
1.00041e-17
9.53573e-18
9.92304e-18
9.41395e-18
9.93482e-18
9.38854e-18
1.00537e-17
9.31559e-18
1.04185e-17
9.56028e-18
1.09765e-17
1.03192e-17
1.18179e-17
1.11838e-17
1.49309e-17
9.45585e-18
2.3326e-17
8.37884e-18
3.27731e-17
2.56842e-17
1.0226e-17
1.12163e-16
1.28462e-16
4.98254e-17
3.24793e-17
2.76265e-17
2.82625e-17
2.67275e-17
2.52414e-17
2.2608e-17
2.15811e-17
1.98613e-17
1.93374e-17
1.80433e-17
1.79689e-17
1.67885e-17
1.67618e-17
1.55489e-17
1.57429e-17
1.48003e-17
1.46781e-17
1.41218e-17
1.38491e-17
1.32871e-17
1.33453e-17
1.22478e-17
1.30031e-17
1.14482e-17
1.25944e-17
1.09731e-17
1.20294e-17
1.06496e-17
1.1458e-17
1.03844e-17
1.09725e-17
1.01462e-17
1.0531e-17
9.96529e-18
1.01988e-17
9.77072e-18
1.0007e-17
9.53599e-18
9.92617e-18
9.41413e-18
9.93771e-18
9.38969e-18
1.00572e-17
9.31642e-18
1.0423e-17
9.56097e-18
1.09806e-17
1.03212e-17
1.18213e-17
1.11815e-17
1.49382e-17
9.44554e-18
2.32844e-17
8.40748e-18
3.24585e-17
2.57523e-17
1.04941e-17
1.12167e-16
1.26909e-16
4.9659e-17
3.18724e-17
2.72437e-17
2.80881e-17
2.66398e-17
2.51826e-17
2.25783e-17
2.15574e-17
1.9848e-17
1.93279e-17
1.80359e-17
1.7962e-17
1.67826e-17
1.67568e-17
1.5544e-17
1.57381e-17
1.4798e-17
1.46746e-17
1.4121e-17
1.38475e-17
1.32864e-17
1.33462e-17
1.2247e-17
1.30047e-17
1.14479e-17
1.25956e-17
1.09734e-17
1.20309e-17
1.06501e-17
1.14598e-17
1.03847e-17
1.09742e-17
1.01466e-17
1.0533e-17
9.96555e-18
1.02011e-17
9.7707e-18
1.00097e-17
9.53594e-18
9.92894e-18
9.41398e-18
9.93998e-18
9.39059e-18
1.00598e-17
9.31665e-18
1.04264e-17
9.56e-18
1.09833e-17
1.03193e-17
1.18227e-17
1.1172e-17
1.49366e-17
9.43018e-18
2.31941e-17
8.44923e-18
3.20063e-17
2.573e-17
1.07133e-17
1.1196e-16
1.25535e-16
4.92519e-17
3.11123e-17
2.67562e-17
2.78401e-17
2.65e-17
2.5086e-17
2.2524e-17
2.15169e-17
1.98232e-17
1.93094e-17
1.80213e-17
1.79488e-17
1.67715e-17
1.67469e-17
1.55351e-17
1.57291e-17
1.47927e-17
1.46681e-17
1.41179e-17
1.38436e-17
1.32838e-17
1.33455e-17
1.22448e-17
1.30052e-17
1.14465e-17
1.2596e-17
1.09728e-17
1.2032e-17
1.06497e-17
1.14613e-17
1.03844e-17
1.09757e-17
1.01464e-17
1.05347e-17
9.96527e-18
1.02032e-17
9.77014e-18
1.00121e-17
9.53541e-18
9.93124e-18
9.41331e-18
9.94141e-18
9.39103e-18
1.00612e-17
9.31596e-18
1.04283e-17
9.5568e-18
1.09843e-17
1.03125e-17
1.18211e-17
1.11536e-17
1.49242e-17
9.4094e-18
2.30495e-17
8.5063e-18
3.14105e-17
2.56198e-17
1.08565e-17
1.11376e-16
1.24511e-16
4.85345e-17
3.02092e-17
2.6183e-17
2.75229e-17
2.63086e-17
2.49498e-17
2.24422e-17
2.14567e-17
1.97847e-17
1.92802e-17
1.79981e-17
1.79278e-17
1.67541e-17
1.67311e-17
1.55213e-17
1.57153e-17
1.47836e-17
1.46579e-17
1.41119e-17
1.3837e-17
1.3279e-17
1.33429e-17
1.2241e-17
1.30043e-17
1.14436e-17
1.25954e-17
1.09709e-17
1.20324e-17
1.06483e-17
1.14623e-17
1.03831e-17
1.09768e-17
1.01454e-17
1.05361e-17
9.96425e-18
1.02049e-17
9.76887e-18
1.0014e-17
9.53422e-18
9.93288e-18
9.41198e-18
9.94178e-18
9.3908e-18
1.00611e-17
9.31403e-18
1.04284e-17
9.55094e-18
1.09829e-17
1.03003e-17
1.18157e-17
1.1126e-17
1.48988e-17
9.38423e-18
2.28484e-17
8.58005e-18
3.06763e-17
2.54391e-17
1.09064e-17
1.10289e-16
1.23991e-16
4.74857e-17
2.91758e-17
2.55448e-17
2.71456e-17
2.60701e-17
2.47755e-17
2.23326e-17
2.13759e-17
1.97314e-17
1.92391e-17
1.79652e-17
1.78982e-17
1.67296e-17
1.67088e-17
1.55023e-17
1.56961e-17
1.47704e-17
1.46435e-17
1.41023e-17
1.38272e-17
1.32716e-17
1.33378e-17
1.22351e-17
1.30016e-17
1.14391e-17
1.25935e-17
1.09675e-17
1.2032e-17
1.06455e-17
1.14627e-17
1.03806e-17
1.09772e-17
1.01434e-17
1.0537e-17
9.96232e-18
1.02061e-17
9.76672e-18
1.00154e-17
9.53221e-18
9.9337e-18
9.40986e-18
9.94087e-18
9.38974e-18
1.00593e-17
9.31067e-18
1.04262e-17
9.54233e-18
1.09784e-17
1.0283e-17
1.18053e-17
1.10899e-17
1.4859e-17
9.35684e-18
2.25931e-17
8.67093e-18
2.98199e-17
2.52144e-17
1.08548e-17
1.08646e-16
1.24099e-16
4.61295e-17
2.80295e-17
2.48628e-17
2.67193e-17
2.57916e-17
2.4567e-17
2.21963e-17
2.12745e-17
1.96627e-17
1.91856e-17
1.79224e-17
1.78597e-17
1.66978e-17
1.66795e-17
1.54776e-17
1.56711e-17
1.47527e-17
1.46247e-17
1.40891e-17
1.38138e-17
1.32612e-17
1.333e-17
1.22269e-17
1.29968e-17
1.14326e-17
1.25901e-17
1.09622e-17
1.20305e-17
1.06411e-17
1.14623e-17
1.03768e-17
1.0977e-17
1.01403e-17
1.05372e-17
9.95935e-18
1.02067e-17
9.76358e-18
1.0016e-17
9.52931e-18
9.93351e-18
9.40687e-18
9.93849e-18
9.38775e-18
1.00555e-17
9.3058e-18
1.04216e-17
9.53116e-18
1.09703e-17
1.02611e-17
1.17892e-17
1.1047e-17
1.48039e-17
9.32983e-18
2.22888e-17
8.77863e-18
2.88648e-17
2.49747e-17
1.0702e-17
1.06468e-16
1.24923e-16
4.45186e-17
2.67907e-17
2.41542e-17
2.62546e-17
2.54811e-17
2.43295e-17
2.20361e-17
2.11537e-17
1.95793e-17
1.91198e-17
1.78696e-17
1.7812e-17
1.66586e-17
1.66431e-17
1.54474e-17
1.56403e-17
1.47304e-17
1.46014e-17
1.40719e-17
1.37968e-17
1.32476e-17
1.33193e-17
1.22163e-17
1.29898e-17
1.1424e-17
1.25851e-17
1.0955e-17
1.20278e-17
1.06349e-17
1.14609e-17
1.03715e-17
1.09758e-17
1.01359e-17
1.05366e-17
9.95526e-18
1.02065e-17
9.75939e-18
1.00157e-17
9.52547e-18
9.93212e-18
9.40302e-18
9.93447e-18
9.38479e-18
1.00496e-17
9.2995e-18
1.04142e-17
9.51783e-18
1.0958e-17
1.02357e-17
1.17667e-17
1.09995e-17
1.47335e-17
9.3056e-18
2.19434e-17
8.90225e-18
2.78379e-17
2.47469e-17
1.04542e-17
1.0383e-16
1.26513e-16
4.27173e-17
2.54828e-17
2.34327e-17
2.57613e-17
2.51458e-17
2.40686e-17
2.18551e-17
2.10155e-17
1.94819e-17
1.90424e-17
1.78072e-17
1.77555e-17
1.66122e-17
1.65998e-17
1.54117e-17
1.56038e-17
1.47037e-17
1.45736e-17
1.40507e-17
1.37761e-17
1.32308e-17
1.33056e-17
1.22031e-17
1.29805e-17
1.14131e-17
1.25783e-17
1.09457e-17
1.20239e-17
1.0627e-17
1.14584e-17
1.03647e-17
1.09737e-17
1.01302e-17
1.05351e-17
9.95005e-18
1.02053e-17
9.75415e-18
1.00144e-17
9.52072e-18
9.92941e-18
9.39833e-18
9.9287e-18
9.38091e-18
1.00415e-17
9.29193e-18
1.04039e-17
9.50284e-18
1.09413e-17
1.02078e-17
1.17375e-17
1.09495e-17
1.46485e-17
9.28599e-18
2.15652e-17
9.04054e-18
2.67648e-17
2.45517e-17
1.01234e-17
1.00837e-16
1.28882e-16
4.07882e-17
2.41308e-17
2.27095e-17
2.52475e-17
2.47923e-17
2.37891e-17
2.16567e-17
2.08617e-17
1.93719e-17
1.89541e-17
1.7736e-17
1.76907e-17
1.65589e-17
1.65499e-17
1.53708e-17
1.55617e-17
1.46726e-17
1.45416e-17
1.40257e-17
1.37518e-17
1.32108e-17
1.3289e-17
1.21872e-17
1.29688e-17
1.13999e-17
1.25697e-17
1.09344e-17
1.20185e-17
1.06172e-17
1.14548e-17
1.03563e-17
1.09704e-17
1.01233e-17
1.05325e-17
9.94372e-18
1.02031e-17
9.7479e-18
1.00119e-17
9.51511e-18
9.92524e-18
9.39288e-18
9.92112e-18
9.37617e-18
1.00312e-17
9.28331e-18
1.03906e-17
9.48664e-18
1.09202e-17
1.01784e-17
1.17017e-17
1.08987e-17
1.45498e-17
9.27211e-18
2.11626e-17
9.19213e-18
2.5668e-17
2.44034e-17
9.72516e-18
9.76002e-17
1.32002e-16
3.87884e-17
2.27605e-17
2.19923e-17
2.47196e-17
2.44255e-17
2.34956e-17
2.14439e-17
2.06946e-17
1.92506e-17
1.88558e-17
1.76565e-17
1.76182e-17
1.64993e-17
1.64937e-17
1.53249e-17
1.55145e-17
1.46374e-17
1.45054e-17
1.39968e-17
1.37241e-17
1.31875e-17
1.32694e-17
1.21687e-17
1.29548e-17
1.13844e-17
1.25592e-17
1.0921e-17
1.20115e-17
1.06057e-17
1.14497e-17
1.03465e-17
1.09657e-17
1.01152e-17
1.05286e-17
9.93634e-18
1.01996e-17
9.7407e-18
1.00081e-17
9.5087e-18
9.91953e-18
9.38672e-18
9.91171e-18
9.37065e-18
1.00187e-17
9.27382e-18
1.03744e-17
9.46963e-18
1.08948e-17
1.01481e-17
1.16594e-17
1.08485e-17
1.4439e-17
9.26442e-18
2.07429e-17
9.35558e-18
2.4566e-17
2.43098e-17
9.27899e-18
9.4226e-17
1.35819e-16
3.67645e-17
2.13971e-17
2.12868e-17
2.41829e-17
2.40496e-17
2.31917e-17
2.12196e-17
2.05161e-17
1.91191e-17
1.87483e-17
1.75694e-17
1.75385e-17
1.64337e-17
1.64316e-17
1.52744e-17
1.54624e-17
1.45982e-17
1.44655e-17
1.39644e-17
1.36933e-17
1.31612e-17
1.32472e-17
1.21477e-17
1.29384e-17
1.13667e-17
1.25468e-17
1.09056e-17
1.20029e-17
1.05926e-17
1.14432e-17
1.03353e-17
1.09597e-17
1.01059e-17
1.05235e-17
9.92799e-18
1.01949e-17
9.73261e-18
1.00029e-17
9.50156e-18
9.91224e-18
9.37992e-18
9.90048e-18
9.36442e-18
1.00041e-17
9.26362e-18
1.03554e-17
9.45204e-18
1.08654e-17
1.01174e-17
1.16111e-17
1.07999e-17
1.43175e-17
9.26289e-18
2.03121e-17
9.52955e-18
2.34739e-17
2.42739e-17
8.80538e-18
9.08054e-17
1.40247e-16
3.4755e-17
2.00649e-17
2.05966e-17
2.36414e-17
2.36674e-17
2.28801e-17
2.09859e-17
2.03279e-17
1.89786e-17
1.86326e-17
1.74755e-17
1.74523e-17
1.63627e-17
1.63641e-17
1.52196e-17
1.54059e-17
1.45552e-17
1.4422e-17
1.39285e-17
1.36594e-17
1.31318e-17
1.32223e-17
1.21241e-17
1.29198e-17
1.13469e-17
1.25323e-17
1.08885e-17
1.19925e-17
1.0578e-17
1.14351e-17
1.03229e-17
1.09522e-17
1.00956e-17
1.05169e-17
9.91875e-18
1.01889e-17
9.72373e-18
9.99633e-18
9.49376e-18
9.90337e-18
9.37252e-18
9.88749e-18
9.35751e-18
9.98738e-18
9.25281e-18
1.03337e-17
9.43404e-18
1.08322e-17
1.00867e-17
1.15572e-17
1.07533e-17
1.41868e-17
9.26712e-18
1.98753e-17
9.71267e-18
2.24027e-17
2.42947e-17
8.32517e-18
8.74143e-17
1.45177e-16
3.27891e-17
1.87861e-17
1.9924e-17
2.30982e-17
2.32813e-17
2.25632e-17
2.07448e-17
2.01316e-17
1.88301e-17
1.85095e-17
1.73752e-17
1.73601e-17
1.62867e-17
1.62918e-17
1.51607e-17
1.53451e-17
1.45088e-17
1.43753e-17
1.38894e-17
1.36229e-17
1.30995e-17
1.31951e-17
1.20982e-17
1.28991e-17
1.13253e-17
1.25159e-17
1.08698e-17
1.19803e-17
1.05621e-17
1.14254e-17
1.03094e-17
1.09432e-17
1.00845e-17
1.0509e-17
9.90869e-18
1.01814e-17
9.71411e-18
9.98832e-18
9.48534e-18
9.89293e-18
9.36455e-18
9.87279e-18
9.34995e-18
9.96869e-18
9.24146e-18
1.03095e-17
9.41566e-18
1.07956e-17
1.00562e-17
1.14982e-17
1.07089e-17
1.40484e-17
9.27652e-18
1.94362e-17
9.90357e-18
2.13609e-17
2.43678e-17
7.85738e-18
8.4111e-17
1.50478e-16
3.08899e-17
1.7581e-17
1.92705e-17
2.2556e-17
2.28929e-17
2.22427e-17
2.04979e-17
1.99285e-17
1.86747e-17
1.83796e-17
1.72692e-17
1.72625e-17
1.62062e-17
1.62149e-17
1.50982e-17
1.52807e-17
1.4459e-17
1.43257e-17
1.38472e-17
1.3584e-17
1.30644e-17
1.31658e-17
1.207e-17
1.28763e-17
1.13018e-17
1.24975e-17
1.08497e-17
1.19662e-17
1.0545e-17
1.1414e-17
1.02949e-17
1.09325e-17
1.00725e-17
1.04995e-17
9.8979e-18
1.01726e-17
9.70381e-18
9.97889e-18
9.47633e-18
9.88097e-18
9.35599e-18
9.85646e-18
9.34173e-18
9.94814e-18
9.22955e-18
1.02829e-17
9.39693e-18
1.07559e-17
1.00259e-17
1.14345e-17
1.06667e-17
1.39035e-17
9.29037e-18
1.89979e-17
1.01008e-17
2.03547e-17
2.44862e-17
7.41883e-18
8.09373e-17
1.56e-16
2.90742e-17
1.64663e-17
1.86371e-17
2.20167e-17
2.25033e-17
2.19199e-17
2.02465e-17
1.97197e-17
1.85132e-17
1.82437e-17
1.71579e-17
1.716e-17
1.61214e-17
1.6134e-17
1.50323e-17
1.52128e-17
1.44062e-17
1.42734e-17
1.3802e-17
1.35429e-17
1.30267e-17
1.31344e-17
1.20398e-17
1.28515e-17
1.12768e-17
1.2477e-17
1.08284e-17
1.19502e-17
1.0527e-17
1.14008e-17
1.02796e-17
1.09203e-17
1.00597e-17
1.04886e-17
9.88643e-18
1.01623e-17
9.69285e-18
9.96806e-18
9.46672e-18
9.86753e-18
9.34683e-18
9.83858e-18
9.33282e-18
9.92582e-18
9.21708e-18
1.02541e-17
9.37779e-18
1.07133e-17
9.99575e-18
1.13666e-17
1.06266e-17
1.37533e-17
9.3079e-18
1.85626e-17
1.03029e-17
1.93885e-17
2.46403e-17
7.02271e-18
7.79189e-17
1.61582e-16
2.73544e-17
1.54548e-17
1.80238e-17
2.14819e-17
2.21135e-17
2.15959e-17
1.99917e-17
1.95065e-17
1.83464e-17
1.81024e-17
1.70418e-17
1.7053e-17
1.60329e-17
1.60494e-17
1.49632e-17
1.51418e-17
1.43504e-17
1.42186e-17
1.37541e-17
1.34998e-17
1.29865e-17
1.31013e-17
1.20075e-17
1.28248e-17
1.12505e-17
1.24546e-17
1.08062e-17
1.19322e-17
1.05081e-17
1.13859e-17
1.02636e-17
1.09065e-17
1.00464e-17
1.04761e-17
9.87433e-18
1.01507e-17
9.68128e-18
9.95586e-18
9.45652e-18
9.85268e-18
9.33704e-18
9.81923e-18
9.32318e-18
9.90182e-18
9.20399e-18
1.02234e-17
9.3582e-18
1.0668e-17
9.96581e-18
1.12949e-17
1.05883e-17
1.35989e-17
9.32836e-18
1.8132e-17
1.05082e-17
1.84651e-17
2.48193e-17
6.67873e-18
7.50698e-17
1.67061e-16
2.57392e-17
1.45551e-17
1.74311e-17
2.09532e-17
2.17241e-17
2.12717e-17
1.97346e-17
1.92896e-17
1.8175e-17
1.79564e-17
1.69214e-17
1.69421e-17
1.59409e-17
1.59616e-17
1.48913e-17
1.50681e-17
1.4292e-17
1.41617e-17
1.37037e-17
1.34551e-17
1.29439e-17
1.30666e-17
1.19734e-17
1.27962e-17
1.12229e-17
1.24301e-17
1.07831e-17
1.19123e-17
1.04886e-17
1.13692e-17
1.02469e-17
1.08911e-17
1.00324e-17
1.04623e-17
9.86163e-18
1.01377e-17
9.66909e-18
9.94234e-18
9.4457e-18
9.83648e-18
9.32658e-18
9.79848e-18
9.31277e-18
9.87626e-18
9.19024e-18
1.01907e-17
9.33812e-18
1.06202e-17
9.93601e-18
1.12197e-17
1.05514e-17
1.34411e-17
9.351e-18
1.77074e-17
1.07151e-17
1.75858e-17
2.50111e-17
6.39265e-18
7.23926e-17
1.72264e-16
2.42341e-17
1.37718e-17
1.6859e-17
2.04318e-17
2.13357e-17
2.09477e-17
1.94758e-17
1.90699e-17
1.79999e-17
1.78063e-17
1.67972e-17
1.68275e-17
1.58457e-17
1.58708e-17
1.48168e-17
1.49919e-17
1.42311e-17
1.41028e-17
1.36508e-17
1.34088e-17
1.28991e-17
1.30304e-17
1.19377e-17
1.2766e-17
1.11943e-17
1.24037e-17
1.07594e-17
1.18904e-17
1.04686e-17
1.13508e-17
1.02298e-17
1.08741e-17
1.00179e-17
1.0447e-17
9.84836e-18
1.01234e-17
9.6563e-18
9.92756e-18
9.43425e-18
9.81899e-18
9.31542e-18
9.7764e-18
9.30154e-18
9.84921e-18
9.17576e-18
1.01563e-17
9.31752e-18
1.057e-17
9.90628e-18
1.11415e-17
1.05157e-17
1.32809e-17
9.37516e-18
1.72897e-17
1.09217e-17
1.67513e-17
2.52027e-17
6.16722e-18
6.98798e-17
1.77031e-16
2.28421e-17
1.31051e-17
1.63077e-17
1.99187e-17
2.09487e-17
2.06247e-17
1.92162e-17
1.88483e-17
1.78216e-17
1.76527e-17
1.66695e-17
1.67098e-17
1.57476e-17
1.57775e-17
1.47401e-17
1.49135e-17
1.4168e-17
1.40422e-17
1.35956e-17
1.33613e-17
1.28522e-17
1.29929e-17
1.19005e-17
1.2734e-17
1.1165e-17
1.23753e-17
1.07352e-17
1.18665e-17
1.04482e-17
1.13306e-17
1.02121e-17
1.08556e-17
1.00029e-17
1.04304e-17
9.83454e-18
1.01078e-17
9.6429e-18
9.91156e-18
9.42215e-18
9.80029e-18
9.30354e-18
9.75306e-18
9.28946e-18
9.82077e-18
9.16053e-18
1.01201e-17
9.29638e-18
1.05176e-17
9.87658e-18
1.10606e-17
1.04807e-17
1.3119e-17
9.40026e-18
1.68797e-17
1.11263e-17
1.59613e-17
2.53806e-17
6.00231e-18
6.75156e-17
1.81211e-16
2.15644e-17
1.25513e-17
1.57773e-17
1.9415e-17
2.05636e-17
2.03031e-17
1.89565e-17
1.86255e-17
1.76409e-17
1.74962e-17
1.65389e-17
1.65893e-17
1.56471e-17
1.56819e-17
1.46612e-17
1.48333e-17
1.41028e-17
1.39801e-17
1.35384e-17
1.33127e-17
1.28035e-17
1.29542e-17
1.1862e-17
1.27004e-17
1.11349e-17
1.23449e-17
1.07107e-17
1.18408e-17
1.04275e-17
1.13088e-17
1.01942e-17
1.08356e-17
9.98748e-18
1.04124e-17
9.82019e-18
1.00911e-17
9.62889e-18
9.89441e-18
9.40938e-18
9.78042e-18
9.29091e-18
9.72853e-18
9.2765e-18
9.79102e-18
9.14451e-18
1.00823e-17
9.27472e-18
1.04631e-17
9.84685e-18
1.09773e-17
1.04461e-17
1.29561e-17
9.4258e-18
1.64779e-17
1.13269e-17
1.52148e-17
2.55325e-17
5.89591e-18
6.52792e-17
1.84671e-16
2.04009e-17
1.21031e-17
1.52678e-17
1.89216e-17
2.01809e-17
1.99834e-17
1.86971e-17
1.84021e-17
1.74584e-17
1.73373e-17
1.64058e-17
1.64664e-17
1.55443e-17
1.55844e-17
1.45806e-17
1.47515e-17
1.40358e-17
1.39167e-17
1.34793e-17
1.32631e-17
1.2753e-17
1.29144e-17
1.18224e-17
1.26653e-17
1.11044e-17
1.23128e-17
1.0686e-17
1.18131e-17
1.04066e-17
1.12853e-17
1.01759e-17
1.08142e-17
9.97164e-18
1.03932e-17
9.80533e-18
1.00732e-17
9.61429e-18
9.87617e-18
9.39593e-18
9.75946e-18
9.27753e-18
9.70288e-18
9.26263e-18
9.76006e-18
9.1277e-18
1.0043e-17
9.25259e-18
1.04066e-17
9.81707e-18
1.08921e-17
1.04118e-17
1.27929e-17
9.45136e-18
1.60848e-17
1.15219e-17
1.45103e-17
2.56471e-17
5.84444e-18
6.31469e-17
1.873e-16
1.93497e-17
1.17509e-17
1.47795e-17
1.84396e-17
1.98011e-17
1.96661e-17
1.84388e-17
1.81787e-17
1.72748e-17
1.71767e-17
1.62706e-17
1.63415e-17
1.54396e-17
1.54853e-17
1.44985e-17
1.46683e-17
1.39672e-17
1.38523e-17
1.34185e-17
1.32127e-17
1.27009e-17
1.28737e-17
1.17818e-17
1.26287e-17
1.10735e-17
1.22788e-17
1.06612e-17
1.17838e-17
1.03855e-17
1.12603e-17
1.01574e-17
1.07915e-17
9.95542e-18
1.03729e-17
9.78997e-18
1.00542e-17
9.5991e-18
9.8569e-18
9.38183e-18
9.73747e-18
9.26341e-18
9.67618e-18
9.24788e-18
9.72798e-18
9.11013e-18
1.00023e-17
9.23004e-18
1.03482e-17
9.78721e-18
1.08053e-17
1.03773e-17
1.26298e-17
9.47662e-18
1.57009e-17
1.17093e-17
1.38464e-17
2.57141e-17
5.84362e-18
6.10914e-17
1.89011e-16
1.84081e-17
1.14832e-17
1.43126e-17
1.79698e-17
1.94247e-17
1.93515e-17
1.81819e-17
1.79558e-17
1.70905e-17
1.70149e-17
1.61337e-17
1.62149e-17
1.53332e-17
1.53848e-17
1.44151e-17
1.45841e-17
1.38972e-17
1.37869e-17
1.33562e-17
1.31617e-17
1.26475e-17
1.2832e-17
1.17405e-17
1.25907e-17
1.10424e-17
1.22431e-17
1.06363e-17
1.17527e-17
1.03645e-17
1.12338e-17
1.01387e-17
1.07675e-17
9.93888e-18
1.03514e-17
9.77414e-18
1.00342e-17
9.58334e-18
9.83668e-18
9.36708e-18
9.71452e-18
9.24858e-18
9.64853e-18
9.23224e-18
9.69489e-18
9.09184e-18
9.96019e-18
9.20716e-18
1.02881e-17
9.75724e-18
1.07174e-17
1.03426e-17
1.24675e-17
9.50132e-18
1.53264e-17
1.18875e-17
1.32214e-17
2.5725e-17
5.88893e-18
5.90852e-17
1.89745e-16
1.75722e-17
1.12868e-17
1.38672e-17
1.75129e-17
1.90521e-17
1.90401e-17
1.7927e-17
1.7734e-17
1.69062e-17
1.68523e-17
1.59958e-17
1.60871e-17
1.52255e-17
1.52832e-17
1.43306e-17
1.4499e-17
1.3826e-17
1.37208e-17
1.32925e-17
1.31102e-17
1.25928e-17
1.27896e-17
1.16985e-17
1.25514e-17
1.10112e-17
1.22058e-17
1.06115e-17
1.172e-17
1.03434e-17
1.12059e-17
1.01198e-17
1.07424e-17
9.92204e-18
1.03289e-17
9.75787e-18
1.00133e-17
9.56704e-18
9.81557e-18
9.35171e-18
9.69068e-18
9.23305e-18
9.62e-18
9.21576e-18
9.66087e-18
9.0729e-18
9.91681e-18
9.18404e-18
1.02265e-17
9.72718e-18
1.06287e-17
1.03076e-17
1.23064e-17
9.52526e-18
1.49619e-17
1.2055e-17
1.26334e-17
2.56738e-17
5.97601e-18
5.71021e-17
1.8947e-16
1.68377e-17
1.11482e-17
1.34433e-17
1.70698e-17
1.86841e-17
1.87323e-17
1.76745e-17
1.75138e-17
1.67222e-17
1.66895e-17
1.5857e-17
1.59584e-17
1.51168e-17
1.51807e-17
1.42453e-17
1.44132e-17
1.37539e-17
1.36543e-17
1.32277e-17
1.30583e-17
1.25372e-17
1.27465e-17
1.16561e-17
1.25109e-17
1.098e-17
1.21671e-17
1.05868e-17
1.16859e-17
1.03223e-17
1.11767e-17
1.01009e-17
1.07161e-17
9.90494e-18
1.03054e-17
9.74119e-18
9.99153e-18
9.55022e-18
9.79365e-18
9.33578e-18
9.66603e-18
9.21689e-18
9.59069e-18
9.19849e-18
9.62605e-18
9.05341e-18
9.87227e-18
9.16079e-18
1.01637e-17
9.69703e-18
1.05397e-17
1.02723e-17
1.2147e-17
9.5483e-18
1.46076e-17
1.22102e-17
1.20811e-17
2.55568e-17
6.10078e-18
5.51193e-17
1.88186e-16
1.61989e-17
1.10545e-17
1.3041e-17
1.66409e-17
1.83212e-17
1.84286e-17
1.74249e-17
1.72954e-17
1.65391e-17
1.65269e-17
1.5718e-17
1.58291e-17
1.50073e-17
1.50777e-17
1.41594e-17
1.43271e-17
1.3681e-17
1.35873e-17
1.31619e-17
1.30061e-17
1.24807e-17
1.27028e-17
1.16135e-17
1.24692e-17
1.09489e-17
1.21269e-17
1.05624e-17
1.16504e-17
1.03014e-17
1.11463e-17
1.00819e-17
1.06889e-17
9.88763e-18
1.02811e-17
9.72415e-18
9.96901e-18
9.53295e-18
9.771e-18
9.31932e-18
9.64065e-18
9.20015e-18
9.56072e-18
9.18051e-18
9.59054e-18
9.03347e-18
9.8267e-18
9.13751e-18
1.00999e-17
9.66684e-18
1.04507e-17
1.02366e-17
1.19896e-17
9.57033e-18
1.42639e-17
1.2352e-17
1.15631e-17
2.53723e-17
6.25949e-18
5.31159e-17
1.85917e-16
1.56497e-17
1.0993e-17
1.26605e-17
1.6227e-17
1.7964e-17
1.81292e-17
1.71786e-17
1.70793e-17
1.63573e-17
1.63649e-17
1.5579e-17
1.56996e-17
1.48974e-17
1.49742e-17
1.40732e-17
1.42407e-17
1.36076e-17
1.35202e-17
1.30953e-17
1.29537e-17
1.24236e-17
1.26585e-17
1.15706e-17
1.24266e-17
1.0918e-17
1.20855e-17
1.05381e-17
1.16137e-17
1.02806e-17
1.11148e-17
1.00629e-17
1.06607e-17
9.87014e-18
1.0256e-17
9.70678e-18
9.9458e-18
9.51527e-18
9.7477e-18
9.30241e-18
9.61463e-18
9.1829e-18
9.53018e-18
9.16189e-18
9.55445e-18
9.01321e-18
9.78024e-18
9.11433e-18
1.00353e-17
9.63666e-18
1.03621e-17
1.02006e-17
1.18347e-17
9.59126e-18
1.39314e-17
1.24794e-17
1.10782e-17
2.51208e-17
6.44892e-18
5.10756e-17
1.82712e-16
1.5183e-17
1.09525e-17
1.23016e-17
1.58283e-17
1.7613e-17
1.78347e-17
1.69359e-17
1.68659e-17
1.61771e-17
1.62039e-17
1.54404e-17
1.55702e-17
1.47872e-17
1.48706e-17
1.39867e-17
1.41543e-17
1.35338e-17
1.34531e-17
1.30282e-17
1.29012e-17
1.2366e-17
1.26137e-17
1.15278e-17
1.2383e-17
1.08874e-17
1.20431e-17
1.05142e-17
1.15759e-17
1.026e-17
1.10824e-17
1.0044e-17
1.06318e-17
9.85253e-18
1.02302e-17
9.68913e-18
9.92199e-18
9.49723e-18
9.72383e-18
9.28511e-18
9.58807e-18
9.1652e-18
9.49918e-18
9.14274e-18
9.51789e-18
8.99276e-18
9.73303e-18
9.09135e-18
9.97017e-18
9.60654e-18
1.02742e-17
1.01644e-17
1.16826e-17
9.61101e-18
1.36103e-17
1.25914e-17
1.06258e-17
2.48046e-17
6.6661e-18
4.89861e-17
1.78638e-16
1.47918e-17
1.09229e-17
1.19642e-17
1.54453e-17
1.72688e-17
1.75453e-17
1.66973e-17
1.66553e-17
1.59988e-17
1.60443e-17
1.53026e-17
1.54412e-17
1.46771e-17
1.4767e-17
1.39002e-17
1.40679e-17
1.34597e-17
1.33861e-17
1.29606e-17
1.28487e-17
1.23081e-17
1.25684e-17
1.1485e-17
1.23386e-17
1.08572e-17
1.19996e-17
1.04905e-17
1.15371e-17
1.02396e-17
1.1049e-17
1.00251e-17
1.06021e-17
9.83484e-18
1.02039e-17
9.67127e-18
9.89768e-18
9.47892e-18
9.69946e-18
9.2675e-18
9.56105e-18
9.14716e-18
9.46784e-18
9.12317e-18
9.48099e-18
8.97226e-18
9.68524e-18
9.06868e-18
9.90487e-18
9.57657e-18
1.01874e-17
1.01281e-17
1.15337e-17
9.6295e-18
1.33011e-17
1.26875e-17
1.02052e-17
2.44283e-17
6.90825e-18
4.68412e-17
1.73787e-16
1.44681e-17
1.08963e-17
1.1648e-17
1.50782e-17
1.6932e-17
1.72616e-17
1.64629e-17
1.64479e-17
1.58228e-17
1.58862e-17
1.51658e-17
1.53128e-17
1.45672e-17
1.46636e-17
1.38138e-17
1.39819e-17
1.33856e-17
1.33192e-17
1.28928e-17
1.27962e-17
1.225e-17
1.25228e-17
1.14424e-17
1.22934e-17
1.08274e-17
1.19552e-17
1.04673e-17
1.14974e-17
1.02195e-17
1.10148e-17
1.00064e-17
1.05718e-17
9.81712e-18
1.01771e-17
9.65323e-18
9.87294e-18
9.46038e-18
9.67469e-18
9.24965e-18
9.53368e-18
9.12883e-18
9.43626e-18
9.10328e-18
9.44385e-18
8.95183e-18
9.63703e-18
9.04641e-18
9.83962e-18
9.54685e-18
1.01019e-17
1.0092e-17
1.13883e-17
9.64665e-18
1.30041e-17
1.27671e-17
9.81605e-18
2.39974e-17
7.1724e-18
4.46385e-17
1.68258e-16
1.42041e-17
1.08663e-17
1.13529e-17
1.47271e-17
1.6603e-17
1.69838e-17
1.62333e-17
1.62439e-17
1.56491e-17
1.573e-17
1.50303e-17
1.51853e-17
1.44579e-17
1.45606e-17
1.37278e-17
1.38962e-17
1.33115e-17
1.32527e-17
1.2825e-17
1.27439e-17
1.21919e-17
1.24769e-17
1.14002e-17
1.22477e-17
1.0798e-17
1.19102e-17
1.04444e-17
1.1457e-17
1.01997e-17
1.098e-17
9.98782e-18
1.0541e-17
9.7994e-18
1.01498e-17
9.63509e-18
9.84785e-18
9.4417e-18
9.6496e-18
9.23163e-18
9.50604e-18
9.11033e-18
9.40455e-18
9.08319e-18
9.4066e-18
8.93161e-18
9.58859e-18
9.02464e-18
9.77469e-18
9.51746e-18
1.0018e-17
1.0056e-17
1.12467e-17
9.66239e-18
1.27197e-17
1.283e-17
9.45833e-18
2.35182e-17
7.45555e-18
4.2381e-17
1.62159e-16
1.39912e-17
1.08281e-17
1.10785e-17
1.43921e-17
1.62822e-17
1.67122e-17
1.60085e-17
1.60436e-17
1.54782e-17
1.55758e-17
1.48964e-17
1.50589e-17
1.43494e-17
1.44582e-17
1.36422e-17
1.3811e-17
1.32376e-17
1.31866e-17
1.27572e-17
1.26917e-17
1.2134e-17
1.24307e-17
1.13583e-17
1.22014e-17
1.07692e-17
1.18645e-17
1.0422e-17
1.1416e-17
1.01802e-17
1.09446e-17
9.96944e-18
1.05097e-17
9.78174e-18
1.01222e-17
9.6169e-18
9.8225e-18
9.42295e-18
9.62426e-18
9.21353e-18
9.47824e-18
9.09172e-18
9.3728e-18
9.06303e-18
9.36935e-18
8.91171e-18
9.54009e-18
9.00345e-18
9.71034e-18
9.48852e-18
9.93595e-18
1.00205e-17
1.11092e-17
9.67662e-18
1.24483e-17
1.28763e-17
9.13201e-18
2.2998e-17
7.75431e-18
4.00747e-17
1.55606e-16
1.38213e-17
1.07784e-17
1.08242e-17
1.40731e-17
1.59702e-17
1.64471e-17
1.57889e-17
1.5847e-17
1.531e-17
1.54238e-17
1.47642e-17
1.49338e-17
1.42417e-17
1.43565e-17
1.35571e-17
1.37265e-17
1.31641e-17
1.3121e-17
1.26897e-17
1.26397e-17
1.20764e-17
1.23844e-17
1.13169e-17
1.21547e-17
1.07408e-17
1.18184e-17
1.04e-17
1.13745e-17
1.0161e-17
1.09088e-17
9.95129e-18
1.04781e-17
9.76417e-18
1.00944e-17
9.59871e-18
9.79695e-18
9.40419e-18
9.59875e-18
9.19542e-18
9.45036e-18
9.0731e-18
9.34112e-18
9.0429e-18
9.3322e-18
8.89224e-18
9.4917e-18
8.98291e-18
9.64679e-18
9.46012e-18
9.85591e-18
9.98546e-18
1.0976e-17
9.68924e-18
1.219e-17
1.29059e-17
8.83714e-18
2.24444e-17
8.06494e-18
3.77306e-17
1.48716e-16
1.36864e-17
1.07157e-17
1.05898e-17
1.377e-17
1.56671e-17
1.61888e-17
1.55747e-17
1.56545e-17
1.51449e-17
1.52743e-17
1.46339e-17
1.48101e-17
1.41352e-17
1.42557e-17
1.34728e-17
1.36426e-17
1.3091e-17
1.3056e-17
1.26225e-17
1.2588e-17
1.20191e-17
1.23379e-17
1.1276e-17
1.21077e-17
1.0713e-17
1.17719e-17
1.03785e-17
1.13326e-17
1.01422e-17
1.08726e-17
9.93339e-18
1.04463e-17
9.74674e-18
1.00664e-17
9.58059e-18
9.77127e-18
9.38549e-18
9.57316e-18
9.17736e-18
9.42249e-18
9.05456e-18
9.30958e-18
9.02292e-18
9.29526e-18
8.87331e-18
9.44359e-18
8.9631e-18
9.58425e-18
9.43237e-18
9.77805e-18
9.95106e-18
1.08473e-17
9.70016e-18
1.19451e-17
1.29191e-17
8.57378e-18
2.18647e-17
8.383e-18
3.53623e-17
1.41603e-16
1.35788e-17
1.06396e-17
1.03747e-17
1.34826e-17
1.53734e-17
1.59376e-17
1.53661e-17
1.5466e-17
1.49829e-17
1.51273e-17
1.45056e-17
1.46882e-17
1.40299e-17
1.4156e-17
1.33893e-17
1.35596e-17
1.30184e-17
1.29915e-17
1.25558e-17
1.25366e-17
1.19624e-17
1.22914e-17
1.12357e-17
1.20605e-17
1.06858e-17
1.17252e-17
1.03574e-17
1.12904e-17
1.01237e-17
1.08361e-17
9.91577e-18
1.04143e-17
9.72949e-18
1.00384e-17
9.56259e-18
9.74554e-18
9.36692e-18
9.54755e-18
9.15943e-18
9.39471e-18
9.03617e-18
9.27828e-18
9.00318e-18
9.25864e-18
8.855e-18
9.39592e-18
8.94405e-18
9.52293e-18
9.40536e-18
9.7025e-18
9.91738e-18
1.07234e-17
9.70927e-18
1.17137e-17
1.29163e-17
8.34194e-18
2.1266e-17
8.70376e-18
3.29866e-17
1.34376e-16
1.34905e-17
1.05507e-17
1.01783e-17
1.32107e-17
1.50892e-17
1.56935e-17
1.51631e-17
1.52817e-17
1.4824e-17
1.49829e-17
1.43795e-17
1.45679e-17
1.3926e-17
1.40573e-17
1.33067e-17
1.34774e-17
1.29464e-17
1.29277e-17
1.24897e-17
1.24855e-17
1.19062e-17
1.22448e-17
1.1196e-17
1.20131e-17
1.06592e-17
1.16782e-17
1.03368e-17
1.12481e-17
1.01057e-17
1.07995e-17
9.89845e-18
1.03821e-17
9.71245e-18
1.00102e-17
9.54475e-18
9.71981e-18
9.34853e-18
9.522e-18
9.14169e-18
9.3671e-18
9.01801e-18
9.24727e-18
8.98378e-18
9.22243e-18
8.83739e-18
9.34884e-18
8.92582e-18