/*--------------------------------*- C++ -*----------------------------------*\
| =========                 |                                                 |
| \\      /  F ield         | OpenFOAM: The Open Source CFD Toolbox           |
|  \\    /   O peration     | Version:  2312                                  |
|   \\  /    A nd           | Website:  www.openfoam.com                      |
|    \\/     M anipulation  |                                                 |
\*---------------------------------------------------------------------------*/
FoamFile
{
    version     2.0;
    format      ascii;
    arch        "LSB;label=32;scalar=64";
    class       volScalarField;
    location    "360";
    object      pPrime2Mean;
}
// * * * * * * * * * * * * * * * * * * * * * * * * * * * * * * * * * * * * * //

dimensions      [0 4 -4 0 0 0 0];

internalField   nonuniform List<scalar> 
144000
(
6.71118e-18
8.53833e-18
7.85777e-18
6.23464e-18
4.5053e-18
3.2709e-18
2.47243e-18
1.838e-18
1.3661e-18
1.12205e-18
1.04491e-18
9.44502e-19
8.0318e-19
6.43255e-19
5.35615e-19
4.50953e-19
4.12412e-19
3.54319e-19
3.28323e-19
2.92528e-19
2.62651e-19
2.17772e-19
2.19573e-19
1.65978e-19
1.7462e-19
1.37837e-19
1.38649e-19
1.13043e-19
1.11143e-19
8.7849e-20
9.18587e-20
6.75725e-20
7.66287e-20
5.58937e-20
5.88081e-20
5.86702e-20
3.16892e-20
6.55265e-20
2.25369e-20
4.23771e-20
5.37104e-20
6.17318e-21
8.28229e-20
2.0209e-20
6.04373e-20
9.13693e-20
3.59123e-20
1.25134e-19
9.77461e-20
1.0443e-19
1.8893e-19
1.65791e-19
2.42384e-19
3.497e-19
4.36286e-19
6.46476e-19
1.03917e-18
1.81714e-18
4.00568e-18
4.67543e-18
7.03518e-18
8.73194e-18
8.06569e-18
6.38869e-18
4.57783e-18
3.31345e-18
2.5003e-18
1.85585e-18
1.37602e-18
1.128e-18
1.0499e-18
9.48907e-19
8.06386e-19
6.4536e-19
5.37055e-19
4.52078e-19
4.13472e-19
3.55181e-19
3.28927e-19
2.93309e-19
2.63286e-19
2.18025e-19
2.20102e-19
1.66403e-19
1.74822e-19
1.38285e-19
1.38856e-19
1.13382e-19
1.11389e-19
8.80587e-20
9.21723e-20
6.77203e-20
7.69318e-20
5.61825e-20
5.8892e-20
5.94223e-20
3.14738e-20
6.64104e-20
2.29409e-20
4.237e-20
5.53641e-20
5.71436e-21
8.44793e-20
2.135e-20
6.0733e-20
9.46256e-20
3.65899e-20
1.28161e-19
1.01792e-19
1.07192e-19
1.95564e-19
1.728e-19
2.51184e-19
3.64376e-19
4.55015e-19
6.74225e-19
1.08524e-18
1.88232e-18
4.19173e-18
4.78683e-18
7.2494e-18
8.88895e-18
8.13484e-18
6.43557e-18
4.59361e-18
3.32629e-18
2.51388e-18
1.86682e-18
1.38272e-18
1.13224e-18
1.0544e-18
9.53189e-19
8.09612e-19
6.47323e-19
5.38466e-19
4.53148e-19
4.14789e-19
3.56086e-19
3.29636e-19
2.94244e-19
2.64112e-19
2.18184e-19
2.20969e-19
1.66744e-19
1.75301e-19
1.38747e-19
1.39274e-19
1.13772e-19
1.11856e-19
8.82852e-20
9.27697e-20
6.7872e-20
7.75181e-20
5.65947e-20
5.91277e-20
6.06137e-20
3.11952e-20
6.79327e-20
2.35342e-20
4.26216e-20
5.79283e-20
5.19086e-21
8.72801e-20
2.30973e-20
6.16752e-20
9.95953e-20
3.80451e-20
1.33119e-19
1.08133e-19
1.11912e-19
2.05834e-19
1.83602e-19
2.64418e-19
3.85214e-19
4.80385e-19
7.08082e-19
1.13564e-18
1.94926e-18
4.35763e-18
4.90185e-18
7.16162e-18
8.79463e-18
7.96486e-18
6.28034e-18
4.50962e-18
3.27964e-18
2.49178e-18
1.85657e-18
1.37665e-18
1.12852e-18
1.05334e-18
9.5343e-19
8.09879e-19
6.47291e-19
5.38434e-19
4.53166e-19
4.15368e-19
3.56368e-19
3.29765e-19
2.9482e-19
2.64678e-19
2.1804e-19
2.21666e-19
1.66957e-19
1.75661e-19
1.39177e-19
1.39665e-19
1.14165e-19
1.12317e-19
8.85217e-20
9.34224e-20
6.8021e-20
7.81983e-20
5.70636e-20
5.93884e-20
6.20295e-20
3.08626e-20
6.97622e-20
2.4264e-20
4.29496e-20
6.09822e-20
4.65739e-21
9.05509e-20
2.52888e-20
6.27796e-20
1.05416e-19
3.98967e-20
1.38768e-19
1.15581e-19
1.17288e-19
2.17213e-19
1.95683e-19
2.78135e-19
4.0659e-19
5.04418e-19
7.36317e-19
1.17039e-18
1.96114e-18
4.42815e-18
4.87466e-18
6.80066e-18
8.5571e-18
7.59283e-18
5.93701e-18
4.33406e-18
3.17185e-18
2.42973e-18
1.8204e-18
1.35374e-18
1.11298e-18
1.04292e-18
9.46235e-19
8.04799e-19
6.43658e-19
5.35812e-19
4.51225e-19
4.14336e-19
3.55362e-19
3.28748e-19
2.94438e-19
2.64517e-19
2.17344e-19
2.21783e-19
1.66838e-19
1.7571e-19
1.39372e-19
1.39876e-19
1.14422e-19
1.12638e-19
8.8671e-20
9.39991e-20
6.81088e-20
7.88347e-20
5.75018e-20
5.95806e-20
6.34583e-20
3.04915e-20
7.15654e-20
2.50473e-20
4.32305e-20
6.40582e-20
4.18331e-21
9.36591e-20
2.76452e-20
6.37365e-20
1.11122e-19
4.18369e-20
1.43921e-19
1.22882e-19
1.22247e-19
2.27485e-19
2.06834e-19
2.89393e-19
4.23901e-19
5.22356e-19
7.52838e-19
1.18711e-18
1.92028e-18
4.43908e-18
4.76723e-18
6.36574e-18
8.44587e-18
7.13851e-18
5.49724e-18
4.10593e-18
3.02499e-18
2.3358e-18
1.76163e-18
1.31542e-18
1.08584e-18
1.02252e-18
9.30748e-19
7.93513e-19
6.35693e-19
5.30077e-19
4.46888e-19
4.11278e-19
3.52718e-19
3.26281e-19
2.92742e-19
2.63311e-19
2.15909e-19
2.21075e-19
1.66185e-19
1.7531e-19
1.39183e-19
1.398e-19
1.14447e-19
1.12718e-19
8.8663e-20
9.43913e-20
6.80739e-20
7.93145e-20
5.78361e-20
5.96297e-20
6.47368e-20
3.00838e-20
7.316e-20
2.57909e-20
4.34201e-20
6.68221e-20
3.80109e-21
9.6259e-20
2.9879e-20
6.44386e-20
1.15976e-19
4.3637e-20
1.48037e-19
1.29086e-19
1.2637e-19
2.35447e-19
2.15931e-19
2.97446e-19
4.36147e-19
5.33528e-19
7.59734e-19
1.18953e-18
1.84729e-18
4.46651e-18
4.70552e-18
5.94121e-18
8.59627e-18
6.66927e-18
5.02521e-18
3.84438e-18
2.85004e-18
2.21684e-18
1.68466e-18
1.26435e-18
1.04891e-18
9.93281e-19
9.07544e-19
7.76279e-19
6.23529e-19
5.21301e-19
4.40217e-19
4.06184e-19
3.484e-19
3.22368e-19
2.89652e-19
2.60983e-19
2.13672e-19
2.19438e-19
1.64877e-19
1.74374e-19
1.38546e-19
1.39332e-19
1.14195e-19
1.12493e-19
8.84572e-20
9.45305e-20
6.78911e-20
7.95646e-20
5.80286e-20
5.94988e-20
6.5772e-20
2.96421e-20
7.44234e-20
2.64286e-20
4.3529e-20
6.9116e-20
3.50638e-21
9.82772e-20
3.17971e-20
6.49269e-20
1.19779e-19
4.51294e-20
1.51117e-19
1.33834e-19
1.29642e-19
2.41102e-19
2.22663e-19
3.0259e-19
4.43566e-19
5.38431e-19
7.59418e-19
1.17977e-18
1.75507e-18
4.53546e-18
4.76457e-18
5.55222e-18
9.011e-18
6.21145e-18
4.55907e-18
3.55648e-18
2.65319e-18
2.07796e-18
1.59301e-18
1.20317e-18
1.00423e-18
9.56851e-19
8.78016e-19
7.54053e-19
6.07703e-19
5.09833e-19
4.3145e-19
3.9926e-19
3.42607e-19
3.17195e-19
2.85318e-19
2.57639e-19
2.10679e-19
2.1693e-19
1.62929e-19
1.72868e-19
1.37474e-19
1.38441e-19
1.1367e-19
1.11948e-19
8.80535e-20
9.43966e-20
6.75676e-20
7.95582e-20
5.8083e-20
5.9179e-20
6.65448e-20
2.91766e-20
7.53631e-20
2.69583e-20
4.35592e-20
7.09928e-20
3.26433e-21
9.97924e-20
3.33892e-20
6.52521e-20
1.22679e-19
4.62473e-20
1.53504e-19
1.37241e-19
1.32174e-19
2.44988e-19
2.27284e-19
3.0533e-19
4.47085e-19
5.37644e-19
7.53746e-19
1.15856e-18
1.65206e-18
4.63958e-18
4.93495e-18
5.20314e-18
9.57017e-18
5.77679e-18
4.12487e-18
3.25036e-18
2.44154e-18
1.92493e-18
1.49094e-18
1.13512e-18
9.54067e-19
9.15308e-19
8.43791e-19
7.2806e-19
5.89042e-19
4.96202e-19
4.20957e-19
3.90814e-19
3.356e-19
3.11016e-19
2.79994e-19
2.5349e-19
2.07063e-19
2.13699e-19
1.60443e-19
1.70802e-19
1.36026e-19
1.37132e-19
1.12897e-19
1.11102e-19
8.74838e-20
9.40099e-20
6.71332e-20
7.93076e-20
5.80337e-20
5.86776e-20
6.7099e-20
2.86992e-20
7.60073e-20
2.74418e-20
4.34822e-20
7.26077e-20
3.01903e-21
1.00954e-19
3.47715e-20
6.534e-20
1.25028e-19
4.69009e-20
1.55321e-19
1.39594e-19
1.33817e-19
2.47444e-19
2.29775e-19
3.05545e-19
4.47045e-19
5.31134e-19
7.42408e-19
1.12523e-18
1.54397e-18
4.74733e-18
5.13327e-18
4.88626e-18
1.00931e-17
5.37456e-18
3.72987e-18
2.93851e-18
2.22275e-18
1.76448e-18
1.38305e-18
1.06331e-18
9.00837e-19
8.70561e-19
8.06496e-19
6.996e-19
5.6846e-19
4.81058e-19
4.0921e-19
3.81213e-19
3.27652e-19
3.0408e-19
2.73943e-19
2.48807e-19
2.02991e-19
2.09946e-19
1.57586e-19
1.68229e-19
1.34301e-19
1.35441e-19
1.11913e-19
1.09985e-19
8.67907e-20
9.34026e-20
6.66227e-20
7.88347e-20
5.79269e-20
5.79954e-20
6.74759e-20
2.8221e-20
7.63471e-20
2.7973e-20
4.32008e-20
7.41213e-20
2.71748e-21
1.01727e-19
3.61067e-20
6.49496e-20
1.27003e-19
4.6973e-20
1.56327e-19
1.41017e-19
1.34058e-19
2.48177e-19
2.2988e-19
3.02454e-19
4.42801e-19
5.17661e-19
7.23414e-19
1.07546e-18
1.43059e-18
4.81497e-18
5.2278e-18
4.57813e-18
1.03602e-17
5.00815e-18
3.364e-18
2.63443e-18
2.00519e-18
1.60338e-18
1.27377e-18
9.90838e-19
8.46763e-19
8.24443e-19
7.67691e-19
6.6985e-19
5.46838e-19
4.65064e-19
3.96719e-19
3.70844e-19
3.19086e-19
2.96584e-19
2.67383e-19
2.43832e-19
1.98636e-19
2.05845e-19
1.54552e-19
1.65238e-19
1.32382e-19
1.33429e-19
1.1074e-19
1.0864e-19
8.60116e-20
9.25999e-20
6.60683e-20
7.81548e-20
5.77944e-20
5.71318e-20
6.77011e-20
2.77513e-20
7.63305e-20
2.86312e-20
4.25947e-20
7.55918e-20
2.3281e-21
1.01944e-19
3.74841e-20
6.38156e-20
1.28486e-19
4.6342e-20
1.56039e-19
1.41373e-19
1.3237e-19
2.46657e-19
2.27066e-19
2.95032e-19
4.33449e-19
4.96476e-19
6.95009e-19
1.00888e-18
1.3109e-18
4.78853e-18
5.11938e-18
4.25647e-18
1.02468e-17
4.67329e-18
3.01648e-18
2.34861e-18
1.79589e-18
1.44731e-18
1.16672e-18
9.20083e-19
7.93658e-19
7.78476e-19
7.28634e-19
6.39773e-19
5.2491e-19
4.48766e-19
3.83915e-19
3.6007e-19
3.1017e-19
2.88731e-19
2.60494e-19
2.38721e-19
1.94151e-19
2.01527e-19
1.51512e-19
1.61936e-19
1.30354e-19
1.31169e-19
1.094e-19
1.07101e-19
8.51705e-20
9.16135e-20
6.5495e-20
7.72897e-20
5.76515e-20
5.60817e-20
6.7765e-20
2.73039e-20
7.58786e-20
2.9431e-20
4.15727e-20
7.69751e-20
1.85442e-21
1.01432e-19
3.88872e-20
6.17262e-20
1.2928e-19
4.49644e-20
1.54114e-19
1.40534e-19
1.28523e-19
2.42534e-19
2.2119e-19
2.8317e-19
4.18848e-19
4.6803e-19
6.57129e-19
9.28654e-19
1.18622e-18
4.64017e-18
4.77359e-18
3.90214e-18
9.72424e-18
4.35569e-18
2.67837e-18
2.08719e-18
1.59998e-18
1.3008e-18
1.06455e-18
8.52697e-19
7.42852e-19
7.33848e-19
6.90336e-19
6.1017e-19
5.03205e-19
4.32586e-19
3.71159e-19
3.49209e-19
3.01163e-19
2.80727e-19
2.53436e-19
2.3358e-19
1.89664e-19
1.97091e-19
1.48585e-19
1.58454e-19
1.28286e-19
1.28755e-19
1.07922e-19
1.05408e-19
8.42781e-20
9.04503e-20
6.49229e-20
7.62501e-20
5.74959e-20
5.4868e-20
6.76397e-20
2.68934e-20
7.49442e-20
3.03437e-20
4.01586e-20
7.8276e-20
1.33144e-21
1.00147e-19
4.02579e-20
5.873e-20
1.29244e-19
4.29181e-20
1.50487e-19
1.38507e-19
1.22598e-19
2.35921e-19
2.12611e-19
2.67409e-19
3.9979e-19
4.34103e-19
6.11815e-19
8.40363e-19
1.05941e-18
4.36735e-18
4.22447e-18
3.5116e-18
8.8578e-18
4.04127e-18
2.34834e-18
1.85247e-18
1.42066e-18
1.16643e-18
9.69032e-19
7.89665e-19
6.95211e-19
6.91377e-19
6.53553e-19
5.81579e-19
4.82178e-19
4.16848e-19
3.58741e-19
3.38509e-19
2.92298e-19
2.72761e-19
2.4635e-19
2.28467e-19
1.8527e-19
1.92606e-19
1.45842e-19
1.54896e-19
1.26237e-19
1.26267e-19
1.06345e-19
1.036e-19
8.33477e-20
8.91243e-20
6.4367e-20
7.5058e-20
5.73209e-20
5.35329e-20
6.73136e-20
2.65354e-20
7.35537e-20
3.13217e-20
3.842e-20
7.95947e-20
8.15934e-22
9.82676e-20
4.15661e-20
5.49952e-20
1.2837e-19
4.03928e-20
1.45371e-19
1.35532e-19
1.15057e-19
2.27318e-19
2.02074e-19
2.48909e-19
3.77639e-19
3.97173e-19
5.62128e-19
7.51023e-19
9.34795e-19
3.99719e-18
3.55818e-18
3.09384e-18
7.77426e-18
3.71913e-18
2.03221e-18
1.64378e-18
1.2595e-18
1.04539e-18
8.81174e-19
7.31452e-19
6.51165e-19
6.51592e-19
6.18741e-19
5.54353e-19
4.62105e-19
4.01726e-19
3.46835e-19
3.2815e-19
2.83728e-19
2.64977e-19
2.39368e-19
2.2343e-19
1.81041e-19
1.88126e-19
1.43305e-19
1.51344e-19
1.24246e-19
1.2377e-19
1.04716e-19
1.01724e-19
8.23985e-20
8.76628e-20
6.38401e-20
7.37476e-20
5.7123e-20
5.21349e-20
6.67991e-20
2.62509e-20
7.17756e-20
3.23396e-20
3.64167e-20
8.12588e-20
3.8386e-22
9.62698e-20
4.28319e-20
5.07472e-20
1.26781e-19
3.76345e-20
1.39071e-19
1.31941e-19
1.06475e-19
2.17363e-19
1.90459e-19
2.28944e-19
3.53913e-19
3.59736e-19
5.11173e-19
6.66115e-19
8.16339e-19
3.56819e-18
2.87018e-18
2.66993e-18
6.61507e-18
3.3862e-18
1.73958e-18
1.45885e-18
1.11677e-18
9.37819e-19
8.01371e-19
6.78102e-19
6.10813e-19
6.14691e-19
5.86149e-19
5.28702e-19
4.43108e-19
3.87319e-19
3.35543e-19
3.18241e-19
2.75545e-19
2.57478e-19
2.32598e-19
2.18502e-19
1.77026e-19
1.83697e-19
1.40973e-19
1.47858e-19
1.22338e-19
1.21317e-19
1.03086e-19
9.98231e-20
8.14517e-20
8.61042e-20
6.33476e-20
7.23638e-20
5.69025e-20
5.07345e-20
6.61242e-20
2.606e-20
6.97073e-20
3.33721e-20
3.42142e-20
8.37923e-20
1.05308e-22
9.49542e-20
4.41006e-20
4.62212e-20
1.24651e-19
3.48768e-20
1.31993e-19
1.28069e-19
9.74073e-20
2.06684e-19
1.78557e-19
2.08646e-19
3.29895e-19
3.23784e-19
4.61454e-19
5.89035e-19
7.06701e-19
3.12476e-18
2.24613e-18
2.26498e-18
5.49555e-18
3.04408e-18
1.47856e-18
1.29472e-18
9.91755e-19
8.43101e-19
7.29523e-19
6.29397e-19
5.7401e-19
5.80686e-19
5.55865e-19
5.04688e-19
4.25241e-19
3.73669e-19
3.24917e-19
3.0884e-19
2.67799e-19
2.50325e-19
2.26121e-19
2.13707e-19
1.73256e-19
1.79355e-19
1.3883e-19
1.44473e-19
1.20528e-19
1.18947e-19
1.01495e-19
9.79339e-20
8.05288e-20
8.44914e-20
6.28934e-20
7.09482e-20
5.66681e-20
4.93709e-20
6.53392e-20
2.59429e-20
6.74976e-20
3.42963e-20
3.20606e-20
8.50766e-20
1.2648e-27
9.28782e-20
4.51651e-20
4.16513e-20
1.22133e-19
3.23032e-20
1.24481e-19
1.24182e-19
8.83057e-20
1.95795e-19
1.66969e-19
1.88851e-19
3.0659e-19
2.90508e-19
4.14503e-19
5.21286e-19
6.07475e-19
2.70161e-18
1.7338e-18
1.90464e-18
4.49703e-18
2.70065e-18
1.25402e-18
1.14869e-18
8.83147e-19
7.60206e-19
6.65263e-19
5.85004e-19
5.40496e-19
5.49471e-19
5.27862e-19
4.82303e-19
4.08494e-19
3.60777e-19
3.1496e-19
2.99965e-19
2.60506e-19
2.43544e-19
2.1999e-19
2.09065e-19
1.69745e-19
1.75142e-19
1.36858e-19
1.41221e-19
1.1882e-19
1.16681e-19
9.99696e-20
9.60867e-20
7.9647e-20
8.28642e-20
6.24795e-20
6.95367e-20
5.64318e-20
4.80682e-20
6.44979e-20
2.58717e-20
6.52766e-20
3.50028e-20
3.01594e-20
8.21423e-20
9.42383e-23
8.74372e-20
4.58464e-20
3.72174e-20
1.19372e-19
3.00408e-20
1.16798e-19
1.2046e-19
7.95006e-20
1.85038e-19
1.56086e-19
1.70103e-19
2.84564e-19
2.60596e-19
3.71114e-19
4.62776e-19
5.19705e-19
2.32337e-18
1.35167e-18
1.6076e-18
3.65994e-18
2.36653e-18
1.06694e-18
1.01857e-18
7.89274e-19
6.8798e-19
6.08105e-19
5.44557e-19
5.09951e-19
5.20864e-19
5.02044e-19
4.61488e-19
3.92842e-19
3.48615e-19
3.05649e-19
2.91608e-19
2.53656e-19
2.37138e-19
2.14231e-19
2.04584e-19
1.66492e-19
1.71081e-19
1.35038e-19
1.38112e-19
1.17212e-19
1.14531e-19
9.8529e-20
9.43043e-20
7.88176e-20
8.12578e-20
6.21039e-20
6.81617e-20
5.61996e-20
4.68532e-20
6.36279e-20
2.5869e-20
6.30733e-20
3.55958e-20
2.84071e-20
7.83039e-20
3.83712e-22
8.14702e-20
4.64474e-20
3.30033e-20
1.16475e-19
2.81614e-20
1.09145e-19
1.17006e-19
7.1208e-20
1.74647e-19
1.46124e-19
1.52705e-19
2.6409e-19
2.34219e-19
3.31506e-19
4.12702e-19
4.43782e-19
2.00155e-18
1.09362e-18
1.38385e-18
2.9896e-18
2.05275e-18
9.1393e-19
9.02723e-19
7.08378e-19
6.25224e-19
5.57475e-19
5.07691e-19
4.82037e-19
4.94641e-19
4.78271e-19
4.42151e-19
3.7821e-19
3.37134e-19
2.96948e-19
2.83753e-19
2.47228e-19
2.31094e-19
2.08849e-19
2.00271e-19
1.63488e-19
1.67189e-19
1.33354e-19
1.3515e-19
1.15702e-19
1.12501e-19
9.71818e-20
9.26028e-20
7.80464e-20
7.96981e-20
6.17648e-20
6.68464e-20
5.59765e-20
4.57416e-20
6.27516e-20
2.59525e-20
6.09067e-20
3.61836e-20
2.67208e-20
7.55889e-20
9.42127e-22
7.67521e-20
4.71591e-20
2.90694e-20
1.13508e-19
2.67048e-20
1.01657e-19
1.13868e-19
6.35563e-20
1.64712e-19
1.37167e-19
1.3677e-19
2.45235e-19
2.11233e-19
2.95488e-19
3.69881e-19
3.79526e-19
1.73719e-18
9.37072e-19
1.23282e-18
2.46585e-18
1.76734e-18
7.89045e-19
7.99805e-19
6.38633e-19
5.70804e-19
5.12756e-19
4.74068e-19
4.56428e-19
4.70562e-19
4.56389e-19
4.24183e-19
3.64517e-19
3.26285e-19
2.88817e-19
2.76377e-19
2.41193e-19
2.2539e-19
2.03836e-19
1.96126e-19
1.60716e-19
1.63476e-19
1.31789e-19
1.32335e-19
1.14285e-19
1.10592e-19
9.5932e-20
9.09921e-20
7.73355e-20
7.82013e-20
6.14608e-20
6.56052e-20
5.57693e-20
4.47334e-20
6.1894e-20
2.6105e-20
5.88266e-20
3.67596e-20
2.51631e-20
7.35646e-20
1.69049e-21
7.26872e-20
4.79444e-20
2.54829e-20
1.10518e-19
2.56655e-20
9.44277e-20
1.11047e-19
5.66069e-20
1.55297e-19
1.29224e-19
1.22296e-19
2.27956e-19
1.91294e-19
2.62833e-19
3.33104e-19
3.26316e-19
1.52274e-18
8.52697e-19
1.14733e-18
2.0583e-18
1.5151e-18
6.85199e-19
7.08605e-19
5.78412e-19
5.23672e-19
4.73356e-19
4.4339e-19
4.32831e-19
4.48396e-19
4.3624e-19
4.07477e-19
3.51682e-19
3.16014e-19
2.81211e-19
2.69445e-19
2.3552e-19
2.20003e-19
1.99175e-19
1.92148e-19
1.58157e-19
1.59947e-19
1.3033e-19
1.29665e-19
1.12955e-19
1.088e-19
9.47782e-20
8.94779e-20
7.66842e-20
7.67771e-20
6.11896e-20
6.44472e-20
5.55801e-20
4.38291e-20
6.1067e-20
2.63181e-20
5.68558e-20
3.73095e-20
2.37889e-20
7.18863e-20
2.55733e-21
6.89819e-20
4.87684e-20
2.2269e-20
1.0754e-19
2.50204e-20
8.75167e-20
1.0852e-19
5.03815e-20
1.46413e-19
1.22234e-19
1.0922e-19
2.12153e-19
1.74049e-19
2.33198e-19
3.01401e-19
2.8311e-19
1.34736e-18
8.113e-19
1.11574e-18
1.73299e-18
1.29849e-18
5.95794e-19
6.27985e-19
5.26244e-19
4.82893e-19
4.38712e-19
4.15407e-19
4.10997e-19
4.27931e-19
4.17669e-19
3.91931e-19
3.39627e-19
3.06273e-19
2.74084e-19
2.62928e-19
2.3018e-19
2.14908e-19
1.94843e-19
1.88331e-19
1.55792e-19
1.56602e-19
1.28965e-19
1.27133e-19
1.11705e-19
1.0712e-19
9.37169e-20
8.80636e-20
7.60899e-20
7.54318e-20
6.09482e-20
6.33777e-20
5.54086e-20
4.30293e-20
6.0275e-20
2.65909e-20
5.49949e-20
3.78395e-20
2.26063e-20
7.03789e-20
3.51411e-21
6.55399e-20
4.9633e-20
1.94235e-20
1.04591e-19
2.4737e-20
8.09615e-20
1.06252e-19
4.48732e-20
1.38041e-19
1.16124e-19
9.74445e-20
1.97719e-19
1.59159e-19
2.06322e-19
2.73878e-19
2.48643e-19
1.1994e-18
7.88283e-19
1.12515e-18
1.46132e-18
1.11777e-18
5.15846e-19
5.56892e-19
4.80949e-19
4.47678e-19
4.0832e-19
3.89903e-19
3.90721e-19
4.08974e-19
4.00532e-19
3.77447e-19
3.28277e-19
2.97012e-19
2.67395e-19
2.56795e-19
2.25145e-19
2.10081e-19
1.90816e-19
1.8467e-19
1.536e-19
1.53439e-19
1.27682e-19
1.24734e-19
1.10528e-19
1.05548e-19
9.27438e-20
8.67503e-20
7.55493e-20
7.41667e-20
6.07336e-20
6.23983e-20
5.52538e-20
4.23324e-20
5.95216e-20
2.69193e-20
5.32465e-20
3.83573e-20
2.16047e-20
6.8945e-20
4.55146e-21
6.23225e-20
5.05308e-20
1.69381e-20
1.01686e-19
2.47753e-20
7.47913e-20
1.042e-19
4.00601e-20
1.30158e-19
1.1081e-19
8.68782e-20
1.84533e-19
1.4632e-19
1.81963e-19
2.49893e-19
2.21802e-19
1.0688e-18
7.64759e-19
1.16288e-18
1.22065e-18
9.71211e-19
4.42245e-19
4.94214e-19
4.41545e-19
4.17355e-19
3.81739e-19
3.66692e-19
3.71829e-19
3.91355e-19
3.84698e-19
3.63935e-19
3.17563e-19
2.88187e-19
2.61103e-19
2.51014e-19
2.20387e-19
2.05499e-19
1.87068e-19
1.81158e-19
1.51564e-19
1.5045e-19
1.26473e-19
1.2246e-19
1.09418e-19
1.04077e-19
9.18547e-20
8.55377e-20
7.50595e-20
7.29808e-20
6.05438e-20
6.15092e-20
5.51153e-20
4.17353e-20
5.88102e-20
2.72964e-20
5.1616e-20
3.88638e-20
2.07732e-20
6.75681e-20
5.66019e-21
5.93141e-20
5.14465e-20
1.48016e-20
9.88449e-20
2.50935e-20
6.90295e-20
1.02338e-19
3.59112e-20
1.2276e-19
1.06213e-19
7.74454e-20
1.72514e-19
1.35308e-19
1.59943e-19
2.28945e-19
2.01535e-19
9.4736e-19
7.28217e-19
6.72284e-18
8.56765e-18
7.88988e-18
6.25403e-18
4.51742e-18
3.27762e-18
2.47757e-18
1.8423e-18
1.36935e-18
1.12413e-18
1.04607e-18
9.45112e-19
8.03425e-19
6.433e-19
5.35521e-19
4.50842e-19
4.12299e-19
3.543e-19
3.2835e-19
2.92562e-19
2.62705e-19
2.1782e-19
2.19652e-19
1.66002e-19
1.74686e-19
1.37846e-19
1.38706e-19
1.13057e-19
1.11209e-19
8.7835e-20
9.19087e-20
6.7544e-20
7.66479e-20
5.58662e-20
5.88167e-20
5.86548e-20
3.1705e-20
6.55208e-20
2.25647e-20
4.23739e-20
5.37614e-20
6.16311e-21
8.28386e-20
2.01752e-20
6.04976e-20
9.14646e-20
3.59017e-20
1.25263e-19
9.77683e-20
1.04562e-19
1.89008e-19
1.65939e-19
2.42276e-19
3.49808e-19
4.35906e-19
6.461e-19
1.03827e-18
1.81483e-18
4.02624e-18
4.68887e-18
7.0463e-18
8.76288e-18
8.098e-18
6.40915e-18
4.58992e-18
3.32018e-18
2.50548e-18
1.86013e-18
1.37927e-18
1.13008e-18
1.05104e-18
9.49507e-19
8.06624e-19
6.45395e-19
5.36952e-19
4.51957e-19
4.13354e-19
3.55157e-19
3.28953e-19
2.9334e-19
2.6334e-19
2.18073e-19
2.20182e-19
1.66425e-19
1.74887e-19
1.38293e-19
1.38914e-19
1.13397e-19
1.11457e-19
8.80455e-20
9.22223e-20
6.76927e-20
7.695e-20
5.61567e-20
5.88994e-20
5.94086e-20
3.14882e-20
6.64057e-20
2.29678e-20
4.23671e-20
5.54176e-20
5.70413e-21
8.44979e-20
2.13148e-20
6.07949e-20
9.47259e-20
3.65803e-20
1.28293e-19
1.01818e-19
1.07324e-19
1.95647e-19
1.72947e-19
2.51061e-19
3.64466e-19
4.54609e-19
6.73818e-19
1.08412e-18
1.87994e-18
4.21259e-18
4.80019e-18
7.26408e-18
8.92089e-18
8.16677e-18
6.45608e-18
4.6053e-18
3.33254e-18
2.51879e-18
1.87106e-18
1.38592e-18
1.13431e-18
1.05553e-18
9.53766e-19
8.09836e-19
6.47343e-19
5.38349e-19
4.53014e-19
4.14663e-19
3.56057e-19
3.29661e-19
2.94272e-19
2.64165e-19
2.18231e-19
2.21049e-19
1.66765e-19
1.75364e-19
1.38753e-19
1.39333e-19
1.13789e-19
1.11926e-19
8.82733e-20
9.28209e-20
6.78457e-20
7.75356e-20
5.65713e-20
5.91346e-20
6.06025e-20
3.12087e-20
6.79313e-20
2.35611e-20
4.26183e-20
5.79861e-20
5.18029e-21
8.73063e-20
2.30575e-20
6.17425e-20
9.97053e-20
3.8039e-20
1.33256e-19
1.08167e-19
1.1205e-19
2.05931e-19
1.83764e-19
2.64315e-19
3.85359e-19
4.80007e-19
7.07711e-19
1.13448e-18
1.94797e-18
4.37788e-18
4.91664e-18
7.17704e-18
8.82816e-18
7.99422e-18
6.29941e-18
4.52043e-18
3.28493e-18
2.49642e-18
1.86061e-18
1.3798e-18
1.13053e-18
1.05444e-18
9.53977e-19
8.10073e-19
6.47292e-19
5.38299e-19
4.53013e-19
4.15228e-19
3.5633e-19
3.29785e-19
2.94843e-19
2.64727e-19
2.18086e-19
2.21745e-19
1.66976e-19
1.75723e-19
1.39182e-19
1.39723e-19
1.14184e-19
1.12388e-19
8.85123e-20
9.34739e-20
6.7997e-20
7.82141e-20
5.70432e-20
5.93926e-20
6.20219e-20
3.08741e-20
6.97606e-20
2.42912e-20
4.29459e-20
6.10536e-20
4.64726e-21
9.05852e-20
2.52373e-20
6.28569e-20
1.05538e-19
3.98957e-20
1.38919e-19
1.15629e-19
1.17438e-19
2.17342e-19
1.95881e-19
2.78069e-19
4.06802e-19
5.04174e-19
7.36157e-19
1.16958e-18
1.96157e-18
4.45019e-18
4.89063e-18
6.81156e-18
8.58792e-18
7.6178e-18
5.9533e-18
4.34331e-18
3.17691e-18
2.4338e-18
1.82418e-18
1.35674e-18
1.11493e-18
1.04395e-18
9.46753e-19
8.04954e-19
6.43625e-19
5.35657e-19
4.51047e-19
4.14176e-19
3.5531e-19
3.2876e-19
2.94456e-19
2.64561e-19
2.17389e-19
2.21861e-19
1.66856e-19
1.75768e-19
1.39377e-19
1.39929e-19
1.14446e-19
1.12709e-19
8.86664e-20
9.40489e-20
6.80889e-20
7.88465e-20
5.7486e-20
5.95821e-20
6.34547e-20
3.04985e-20
7.1568e-20
2.50742e-20
4.32247e-20
6.41395e-20
4.1749e-21
9.37047e-20
2.75714e-20
6.38267e-20
1.1126e-19
4.18441e-20
1.44085e-19
1.22946e-19
1.22422e-19
2.27659e-19
2.07081e-19
2.89414e-19
4.24229e-19
5.22292e-19
7.52986e-19
1.18687e-18
1.92076e-18
4.4633e-18
4.78273e-18
6.37835e-18
8.47063e-18
7.15939e-18
5.5106e-18
4.11336e-18
3.02934e-18
2.33944e-18
1.76514e-18
1.31839e-18
1.08777e-18
1.02351e-18
9.31208e-19
7.93632e-19
6.35632e-19
5.29899e-19
4.46686e-19
4.11094e-19
3.52653e-19
3.26283e-19
2.92752e-19
2.63345e-19
2.15954e-19
2.21149e-19
1.66204e-19
1.75363e-19
1.39188e-19
1.39846e-19
1.14476e-19
1.12789e-19
8.8665e-20
9.44389e-20
6.80593e-20
7.93192e-20
5.78268e-20
5.96244e-20
6.47402e-20
3.00861e-20
7.3166e-20
2.58162e-20
4.3412e-20
6.69182e-20
3.7962e-21
9.63184e-20
2.97702e-20
6.45429e-20
1.16129e-19
4.36547e-20
1.48212e-19
1.29167e-19
1.26571e-19
2.35654e-19
2.16228e-19
2.97536e-19
4.36585e-19
5.33609e-19
7.60171e-19
1.18971e-18
1.84842e-18
4.49164e-18
4.71863e-18
5.95354e-18
8.61383e-18
6.68635e-18
5.03599e-18
3.85064e-18
2.8537e-18
2.22015e-18
1.68807e-18
1.26726e-18
1.0508e-18
9.9421e-19
9.07943e-19
7.76364e-19
6.23444e-19
5.21102e-19
4.39993e-19
4.05976e-19
3.48319e-19
3.22358e-19
2.89654e-19
2.61005e-19
2.13715e-19
2.19509e-19
1.64899e-19
1.74419e-19
1.38552e-19
1.39368e-19
1.1423e-19
1.12559e-19
8.84676e-20
9.45721e-20
6.7884e-20
7.95608e-20
5.80277e-20
5.94841e-20
6.5785e-20
2.96363e-20
7.44321e-20
2.64495e-20
4.35135e-20
6.92268e-20
3.50695e-21
9.83512e-20
3.16386e-20
6.5046e-20
1.19946e-19
4.5158e-20
1.51299e-19
1.33933e-19
1.29866e-19
2.4134e-19
2.23005e-19
3.02736e-19
4.44109e-19
5.38605e-19
7.60092e-19
1.18022e-18
1.75652e-18
4.56033e-18
4.77482e-18
5.56392e-18
9.02224e-18
6.225e-18
4.56772e-18
3.56173e-18
2.65623e-18
2.08094e-18
1.59633e-18
1.20605e-18
1.00607e-18
9.57759e-19
8.78372e-19
7.54108e-19
6.07596e-19
5.09617e-19
4.3121e-19
3.9903e-19
3.42511e-19
3.17175e-19
2.85314e-19
2.57647e-19
2.10722e-19
2.16994e-19
1.62956e-19
1.72904e-19
1.37484e-19
1.38465e-19
1.13711e-19
1.12008e-19
8.80745e-20
9.44291e-20
6.75704e-20
7.95417e-20
5.80929e-20
5.91521e-20
6.65671e-20
2.91577e-20
7.53788e-20
2.69693e-20
4.35341e-20
7.11103e-20
3.27195e-21
9.99085e-20
3.31616e-20
6.53825e-20
1.22851e-19
4.62853e-20
1.53691e-19
1.37354e-19
1.32416e-19
2.45249e-19
2.27665e-19
3.05518e-19
4.47696e-19
5.37875e-19
7.54583e-19
1.15905e-18
1.65356e-18
4.66313e-18
4.94258e-18
5.2142e-18
9.57705e-18
5.78724e-18
4.13169e-18
3.2547e-18
2.44401e-18
1.92763e-18
1.49416e-18
1.13793e-18
9.55868e-19
9.16181e-19
8.4411e-19
7.2809e-19
5.88918e-19
4.95967e-19
4.20705e-19
3.90563e-19
3.35491e-19
3.10985e-19
2.79985e-19
2.53483e-19
2.07106e-19
2.13755e-19
1.60475e-19
1.70828e-19
1.36039e-19
1.37141e-19
1.12946e-19
1.11152e-19
8.75168e-20
9.40319e-20
6.71477e-20
7.92758e-20
5.80572e-20
5.86339e-20
6.71311e-20
2.86619e-20
7.60342e-20
2.74296e-20
4.34441e-20
7.27188e-20
3.03346e-21
1.01106e-19
3.44508e-20
6.54754e-20
1.25216e-19
4.69474e-20
1.55509e-19
1.39718e-19
1.34069e-19
2.47715e-19
2.3018e-19
3.0576e-19
4.47698e-19
5.31376e-19
7.43325e-19
1.12581e-18
1.54546e-18
4.7689e-18
5.13915e-18
4.89664e-18
1.00979e-17
5.38228e-18
3.73533e-18
2.94201e-18
2.22473e-18
1.7669e-18
1.38614e-18
1.06605e-18
9.02603e-19
8.71407e-19
8.06792e-19
6.9961e-19
5.68324e-19
4.80815e-19
4.08949e-19
3.80945e-19
3.27533e-19
3.04037e-19
2.73931e-19
2.48787e-19
2.03036e-19
2.09992e-19
1.57626e-19
1.68245e-19
1.34319e-19
1.35435e-19
1.1197e-19
1.10026e-19
8.68365e-20
9.34114e-20
6.66505e-20
7.87846e-20
5.79657e-20
5.79327e-20
6.75238e-20
2.81591e-20
7.63912e-20
2.79277e-20
4.31633e-20
7.4191e-20
2.73705e-21
1.01953e-19
3.56648e-20
6.50834e-20
1.27201e-19
4.70262e-20
1.5651e-19
1.41147e-19
1.34313e-19
2.48454e-19
2.30291e-19
3.02665e-19
4.43462e-19
5.17902e-19
7.24353e-19
1.076e-18
1.43202e-18
4.83429e-18
5.23314e-18
4.58788e-18
1.03645e-17
5.01388e-18
3.36838e-18
2.63719e-18
2.00676e-18
1.60553e-18
1.27672e-18
9.93512e-19
8.48496e-19
8.25268e-19
7.67969e-19
6.69843e-19
5.46692e-19
4.64813e-19
3.96452e-19
3.70563e-19
3.18958e-19
2.96529e-19
2.6737e-19
2.43799e-19
1.98684e-19
2.0588e-19
1.54599e-19
1.65242e-19
1.32405e-19
1.33409e-19
1.10805e-19
1.08668e-19
8.60717e-20
9.25939e-20
6.6111e-20
7.80862e-20
5.78502e-20
5.70441e-20
6.77705e-20
2.76592e-20
7.63935e-20
2.85258e-20
4.25465e-20
7.55613e-20
2.34954e-21
1.02229e-19
3.68942e-20
6.39383e-20
1.28693e-19
4.63995e-20
1.56212e-19
1.41504e-19
1.32619e-19
2.46929e-19
2.27468e-19
2.95243e-19
4.34082e-19
4.96695e-19
6.9586e-19
1.00939e-18
1.31217e-18
4.80524e-18
5.12504e-18
4.26581e-18
1.02516e-17
4.67752e-18
3.02e-18
2.35074e-18
1.79705e-18
1.44921e-18
1.16953e-18
9.22685e-19
7.95356e-19
7.79283e-19
7.28898e-19
6.39763e-19
5.24755e-19
4.4851e-19
3.83642e-19
3.59778e-19
3.10035e-19
2.88664e-19
2.60479e-19
2.38675e-19
1.94202e-19
2.01553e-19
1.51566e-19
1.61931e-19
1.30382e-19
1.31136e-19
1.09473e-19
1.07116e-19
8.52438e-20
9.15924e-20
6.55529e-20
7.72007e-20
5.77249e-20
5.59698e-20
6.78561e-20
2.71743e-20
7.59717e-20
2.9244e-20
4.15172e-20
7.67584e-20
1.87611e-21
1.01736e-19
3.8127e-20
6.18383e-20
1.29488e-19
4.50234e-20
1.54274e-19
1.40664e-19
1.28758e-19
2.42794e-19
2.21565e-19
2.83368e-19
4.19422e-19
4.68229e-19
6.57828e-19
9.29115e-19
1.18731e-18
4.65424e-18
4.77995e-18
3.91107e-18
9.72972e-18
4.35893e-18
2.68118e-18
2.08878e-18
1.60085e-18
1.30245e-18
1.0672e-18
8.5522e-19
7.44508e-19
7.34638e-19
6.90593e-19
6.10147e-19
5.03053e-19
4.32331e-19
3.70885e-19
3.48909e-19
3.01025e-19
2.80648e-19
2.53421e-19
2.33522e-19
1.89717e-19
1.97108e-19
1.48647e-19
1.58439e-19
1.28319e-19
1.28708e-19
1.08001e-19
1.05409e-19
8.43637e-20
9.04148e-20
6.49953e-20
7.61407e-20
5.75871e-20
5.47299e-20
6.77526e-20
2.67233e-20
7.50748e-20
3.00597e-20
4.00742e-20
7.76675e-20
1.35818e-21
1.00367e-19
3.93154e-20
5.88205e-20
1.29445e-19
4.29778e-20
1.50631e-19
1.38631e-19
1.22811e-19
2.36162e-19
2.1295e-19
2.67594e-19
4.00279e-19
4.34279e-19
6.12314e-19
8.40779e-19
1.0603e-18
4.37885e-18
4.23125e-18
3.52002e-18
8.86378e-18
4.04396e-18
2.35046e-18
1.85359e-18
1.4213e-18
1.16786e-18
9.71519e-19
7.92102e-19
6.96821e-19
6.92137e-19
6.538e-19
5.81546e-19
4.8203e-19
4.16587e-19
3.58463e-19
3.38204e-19
2.92158e-19
2.72671e-19
2.46336e-19
2.28399e-19
1.85326e-19
1.92614e-19
1.45911e-19
1.54872e-19
1.26274e-19
1.26207e-19
1.06429e-19
1.03588e-19
8.34443e-20
8.90757e-20
6.44533e-20
7.49312e-20
5.74281e-20
5.33724e-20
6.74469e-20
2.63288e-20
7.37193e-20
3.09318e-20
3.8293e-20
7.82131e-20
8.58882e-22
9.81787e-20
4.04282e-20
5.50546e-20
1.28563e-19
4.04523e-20
1.45495e-19
1.35647e-19
1.15244e-19
2.27539e-19
2.02369e-19
2.49076e-19
3.78028e-19
3.97326e-19
5.62402e-19
7.51384e-19
9.35486e-19
4.00622e-18
3.56496e-18
3.1016e-18
7.78015e-18
3.72159e-18
2.03369e-18
1.64451e-18
1.25995e-18
1.0466e-18
8.83496e-19
7.33795e-19
6.52727e-19
6.52333e-19
6.18977e-19
5.54315e-19
4.61955e-19
4.01464e-19
3.46557e-19
3.27839e-19
2.83586e-19
2.64879e-19
2.39355e-19
2.23353e-19
1.81099e-19
1.88127e-19
1.43379e-19
1.51312e-19
1.24286e-19
1.23699e-19
1.04804e-19
1.01702e-19
8.25038e-20
8.7603e-20
6.39379e-20
7.36068e-20
5.7243e-20
5.19566e-20
6.69473e-20
2.60099e-20
7.19809e-20
3.18194e-20
3.62867e-20
7.83738e-20
4.44209e-22
9.52975e-20
4.14686e-20
5.07853e-20
1.26961e-19
3.76906e-20
1.39176e-19
1.32045e-19
1.06635e-19
2.17562e-19
1.90706e-19
2.29096e-19
3.54197e-19
3.59875e-19
5.11223e-19
6.66419e-19
8.16832e-19
3.57491e-18
2.87671e-18
2.67689e-18
6.62038e-18
3.38856e-18
1.74044e-18
1.45923e-18
1.11708e-18
9.38858e-19
8.03527e-19
6.80345e-19
6.12325e-19
6.1541e-19
5.86373e-19
5.28654e-19
4.42955e-19
3.87057e-19
3.35268e-19
3.17929e-19
2.75403e-19
2.57372e-19
2.32586e-19
2.18417e-19
1.77085e-19
1.83692e-19
1.41051e-19
1.4782e-19
1.22382e-19
1.21238e-19
1.03177e-19
9.97913e-20
8.15638e-20
8.60355e-20
6.34547e-20
7.22125e-20
5.7033e-20
5.05403e-20
6.62889e-20
2.57796e-20
6.99658e-20
3.26931e-20
3.41786e-20
7.81636e-20
1.6921e-22
9.19287e-20
4.24591e-20
4.62603e-20
1.24805e-19
3.4927e-20
1.3208e-19