/*--------------------------------*- C++ -*----------------------------------*\
| =========                 |                                                 |
| \\      /  F ield         | OpenFOAM: The Open Source CFD Toolbox           |
|  \\    /   O peration     | Version:  2312                                  |
|   \\  /    A nd           | Website:  www.openfoam.com                      |
|    \\/     M anipulation  |                                                 |
\*---------------------------------------------------------------------------*/
FoamFile
{
    version     2.0;
    format      ascii;
    arch        "LSB;label=32;scalar=64";
    class       volScalarField;
    location    "240";
    object      p;
}
// * * * * * * * * * * * * * * * * * * * * * * * * * * * * * * * * * * * * * //

dimensions      [0 2 -2 0 0 0 0];

internalField   nonuniform List<scalar> 
144000
(
7.32344e-10
3.46815e-10
-4.50725e-10
-8.57471e-10
-7.03677e-10
-4.51405e-10
-2.14737e-10
-9.1422e-11
1.95002e-11
4.26356e-11
9.46252e-11
8.39166e-11
1.19102e-10
9.67341e-11
1.28053e-10
1.04919e-10
1.29066e-10
9.99951e-11
1.25726e-10
1.00419e-10
1.26256e-10
9.54756e-11
1.22028e-10
9.06534e-11
1.20315e-10
8.62716e-11
1.15768e-10
7.98215e-11
1.0865e-10
7.52145e-11
1.05763e-10
7.22198e-11
9.90761e-11
6.14127e-11
8.85667e-11
5.1989e-11
8.09179e-11
4.30815e-11
7.05151e-11
3.16119e-11
5.63979e-11
2.38226e-11
4.89056e-11
1.37456e-11
3.86026e-11
6.83891e-12
2.87634e-11
8.46235e-12
2.52321e-11
1.09406e-11
2.19539e-11
2.16579e-11
1.14105e-11
2.14674e-11
-3.37601e-11
1.54102e-11
-7.12445e-11
-1.40894e-10
-1.27315e-09
-2.65781e-10
7.72525e-10
3.67374e-10
-4.61281e-10
-8.65521e-10
-7.07016e-10
-4.51536e-10
-2.14865e-10
-9.14852e-11
1.91627e-11
4.23261e-11
9.41949e-11
8.36797e-11
1.18745e-10
9.65919e-11
1.27743e-10
1.04912e-10
1.28776e-10
9.99793e-11
1.25471e-10
1.00459e-10
1.26052e-10
9.54986e-11
1.21858e-10
9.06957e-11
1.20187e-10
8.63435e-11
1.15595e-10
7.99341e-11
1.0845e-10
7.53551e-11
1.05594e-10
7.23978e-11
9.88883e-11
6.15599e-11
8.84048e-11
5.21477e-11
8.07945e-11
4.3252e-11
7.03709e-11
3.17915e-11
5.61286e-11
2.38846e-11
4.86187e-11
1.39319e-11
3.84652e-11
7.10343e-12
2.8611e-11
8.78213e-12
2.51718e-11
1.12128e-11
2.20114e-11
2.19518e-11
1.16643e-11
2.16279e-11
-3.33833e-11
1.537e-11
-6.58755e-11
-1.29603e-10
-1.29972e-09
-2.92219e-10
8.22001e-10
3.80874e-10
-4.73866e-10
-8.72221e-10
-7.10365e-10
-4.51781e-10
-2.14791e-10
-9.15985e-11
1.90532e-11
4.18074e-11
9.38221e-11
8.31709e-11
1.18471e-10
9.61833e-11
1.27493e-10
1.04715e-10
1.28611e-10
9.97737e-11
1.25291e-10
1.00306e-10
1.25998e-10
9.53179e-11
1.21835e-10
9.05188e-11
1.2025e-10
8.61962e-11
1.15616e-10
7.98517e-11
1.08407e-10
7.53042e-11
1.05599e-10
7.23977e-11
9.89041e-11
6.15207e-11
8.84256e-11
5.21004e-11
8.08948e-11
4.32179e-11
7.04541e-11
3.18137e-11
5.59972e-11
2.3689e-11
4.84252e-11
1.38312e-11
3.85752e-11
7.24989e-12
2.86417e-11
8.98984e-12
2.53547e-11
1.13404e-11
2.22886e-11
2.20841e-11
1.21434e-11
2.17591e-11
-3.28195e-11
1.39526e-11
-6.05729e-11
-1.0648e-10
-1.33983e-09
-3.18424e-10
8.7503e-10
3.77104e-10
-4.86103e-10
-8.73883e-10
-7.13922e-10
-4.52184e-10
-2.1453e-10
-9.14748e-11
1.91808e-11
4.12571e-11
9.33752e-11
8.24995e-11
1.18127e-10
9.56496e-11
1.27152e-10
1.04459e-10
1.28433e-10
9.95131e-11
1.25031e-10
1.00093e-10
1.25955e-10
9.50768e-11
1.218e-10
9.02664e-11
1.20351e-10
8.59893e-11
1.15679e-10
7.97298e-11
1.0836e-10
7.52127e-11
1.05622e-10
7.23786e-11
9.89781e-11
6.14474e-11
8.84646e-11
5.19908e-11
8.10705e-11
4.31291e-11
7.06312e-11
3.1834e-11
5.58788e-11
2.33871e-11
4.81683e-11
1.35053e-11
3.88226e-11
7.36817e-12
2.87856e-11
9.10704e-12
2.57705e-11
1.12759e-11
2.28752e-11
2.18821e-11
1.32863e-11
2.12348e-11
-3.13652e-11
9.95659e-12
-5.16704e-11
-7.71031e-11
-1.38984e-09
-3.3446e-10
9.23969e-10
3.39416e-10
-4.96189e-10
-8.62523e-10
-7.15469e-10
-4.52749e-10
-2.1417e-10
-9.10307e-11
1.95451e-11
4.06872e-11
9.27398e-11
8.16211e-11
1.17596e-10
9.49572e-11
1.26623e-10
1.04134e-10
1.28167e-10
9.92011e-11
1.24621e-10
9.98255e-11
1.25861e-10
9.47992e-11
1.2169e-10
8.99668e-11
1.20426e-10
8.5765e-11
1.15724e-10
7.96092e-11
1.0825e-10
7.51153e-11
1.05607e-10
7.23791e-11
9.90632e-11
6.13805e-11
8.84656e-11
5.18537e-11
8.12722e-11
4.30288e-11
7.08636e-11
3.19112e-11
5.57484e-11
2.3077e-11
4.77622e-11
1.29264e-11
3.91636e-11
7.48115e-12
2.90236e-11
9.09909e-12
2.64297e-11
1.09407e-11
2.38429e-11
2.11728e-11
1.5255e-11
1.96739e-11
-2.84493e-11
2.63392e-12
-3.78081e-11
-4.70582e-11
-1.44739e-09
-3.24422e-10
9.67798e-10
2.50073e-10
-5.06196e-10
-8.31005e-10
-7.11878e-10
-4.53426e-10
-2.13841e-10
-9.02109e-11
2.01925e-11
4.01102e-11
9.18709e-11
8.04887e-11
1.16818e-10
9.40696e-11
1.25858e-10
1.03684e-10
1.27775e-10
9.88141e-11
1.24035e-10
9.94762e-11
1.25691e-10
9.44761e-11
1.2148e-10
8.96113e-11
1.20448e-10
8.55241e-11
1.15731e-10
7.94907e-11
1.08064e-10
7.50067e-11
1.05541e-10
7.2393e-11
9.91488e-11
6.13215e-11
8.84186e-11
5.16826e-11
8.14906e-11
4.29166e-11
7.11528e-11
3.20636e-11
5.56345e-11
2.2777e-11
4.71411e-11
1.20292e-11
3.95922e-11
7.5777e-12
2.93731e-11
8.89977e-12
2.73636e-11
1.02403e-11
2.52807e-11
1.97702e-11
1.82576e-11
1.66854e-11
-2.34901e-11
-8.64086e-12
-1.81049e-11
-2.02057e-11
-1.51367e-09
-2.72392e-10
1.01227e-09
9.63404e-11
-5.22044e-10
-7.7419e-10
-6.99813e-10
-4.54129e-10
-2.13758e-10
-8.89806e-11
2.11816e-11
3.95607e-11
9.07598e-11
7.90858e-11
1.15762e-10
9.29715e-11
1.24833e-10
1.0308e-10
1.27225e-10
9.83374e-11
1.23261e-10
9.90207e-11
1.25418e-10
9.40991e-11
1.21154e-10
8.91914e-11
1.20395e-10
8.52646e-11
1.15681e-10
7.93725e-11
1.07794e-10
7.48803e-11
1.05414e-10
7.24114e-11
9.92231e-11
6.12693e-11
8.83198e-11
5.14694e-11
8.17198e-11
4.27864e-11
7.15066e-11
3.22951e-11
5.56141e-11
2.24951e-11
4.61924e-11
1.07407e-11
4.01146e-11
7.63865e-12
2.98639e-11
8.43994e-12
2.86118e-11
9.07914e-12
2.72887e-11
1.74911e-11
2.24893e-11
1.19662e-11
-1.60269e-11
-2.4138e-11
7.6565e-12
1.9437e-12
-1.59261e-09
-1.6845e-10
1.06596e-09
-1.2723e-10
-5.51129e-10
-6.89455e-10
-6.76163e-10
-4.54721e-10
-2.14251e-10
-8.73618e-11
2.25496e-11
3.90737e-11
8.94079e-11
7.74129e-11
1.14409e-10
9.16617e-11
1.23537e-10
1.02303e-10
1.26489e-10
9.77647e-11
1.22292e-10
9.84465e-11
1.25018e-10
9.36647e-11
1.20698e-10
8.87053e-11
1.20246e-10
8.49889e-11
1.15555e-10
7.92543e-11
1.07432e-10
7.47343e-11
1.05216e-10
7.24302e-11
9.92706e-11
6.12246e-11
8.81665e-11
5.121e-11
8.19527e-11
4.26311e-11
7.19372e-11
3.25998e-11
5.58143e-11
2.21937e-11
4.47417e-11
8.99284e-12
4.07459e-11
7.64225e-12
3.05294e-11
7.6583e-12
3.02095e-11
7.37564e-12
2.99505e-11
1.42002e-11
2.80696e-11
5.378e-12
-5.8825e-12
-4.36002e-11
3.86032e-11
1.98547e-11
-1.6876e-09
-1.03012e-11
1.13828e-09
-4.19268e-10
-6.01324e-10
-5.76917e-10
-6.38157e-10
-4.5488e-10
-2.15694e-10
-8.54465e-11
2.43041e-11
3.86743e-11
8.78187e-11
7.54773e-11
1.1275e-10
9.01458e-11
1.21968e-10
1.01345e-10
1.25548e-10
9.70934e-11
1.2113e-10
9.77494e-11
1.24471e-10
9.31723e-11
1.20105e-10
8.81556e-11
1.19982e-10
8.46999e-11
1.15334e-10
7.91362e-11
1.06975e-10
7.45688e-11
1.04938e-10
7.24471e-11
9.92771e-11
6.11872e-11
8.79586e-11
5.09032e-11
8.21832e-11
4.24392e-11
7.24657e-11
3.29594e-11
5.64253e-11
2.18155e-11
4.25431e-11
6.72004e-12
4.15114e-11
7.56783e-12
3.13995e-11
6.51358e-12
3.21745e-11
5.0868e-12
3.32994e-11
9.85394e-12
3.49886e-11
-3.00605e-12
6.76658e-12
-6.61715e-11
7.30932e-11
3.523e-11
-1.80057e-09
1.98035e-10
1.23539e-09
-7.71277e-10
-6.78559e-10
-4.3958e-10
-5.84092e-10
-4.54087e-10
-2.18453e-10
-8.34019e-11
2.64199e-11
3.83773e-11
8.59978e-11
7.32885e-11
1.10781e-10
8.84313e-11
1.20131e-10
1.00203e-10
1.24387e-10
9.63219e-11
1.19781e-10
9.69304e-11
1.23761e-10
9.2622e-11
1.19371e-10
8.75475e-11
1.19591e-10
8.44002e-11
1.15009e-10
7.90164e-11
1.06424e-10
7.43852e-11
1.04576e-10
7.24602e-11
9.92307e-11
6.11555e-11
8.76991e-11
5.05495e-11
8.2407e-11
4.2196e-11
7.31177e-11
3.33538e-11
5.76961e-11
2.12551e-11
3.9284e-11
3.88001e-12
4.24403e-11
7.40086e-12
3.2491e-11
4.99754e-12
3.44923e-11
2.22242e-12
3.72981e-11
4.51218e-12
4.3071e-11
-1.28606e-11
2.1378e-11
-9.05047e-11
1.08752e-10
5.02114e-11
-1.92991e-09
4.4671e-10
1.36035e-09
-1.16755e-09
-7.86017e-10
-2.8321e-10
-5.13535e-10
-4.51677e-10
-2.22825e-10
-8.14728e-11
2.88305e-11
3.81867e-11
8.39533e-11
7.0857e-11
1.08501e-10
8.65249e-11
1.18034e-10
9.88758e-11
1.22998e-10
9.54485e-11
1.18256e-10
9.59933e-11
1.22878e-10
9.20138e-11
1.18498e-10
8.68876e-11
1.19062e-10
8.4091e-11
1.14571e-10
7.88927e-11
1.05782e-10
7.41851e-11
1.04126e-10
7.24679e-11
9.91232e-11
6.11282e-11
8.73912e-11
5.01542e-11
8.26177e-11
4.18897e-11
7.39196e-11
3.37634e-11
5.99451e-11
2.02717e-11
3.45763e-11
4.71737e-13
4.35539e-11
7.13415e-12
3.37946e-11
3.14219e-12
3.71112e-11
-1.14918e-12
4.183e-11
-1.59785e-12
5.19742e-11
-2.36305e-11
3.70852e-11
-1.14907e-10
1.42904e-10
6.71589e-11
-2.07164e-09
7.2379e-10
1.51193e-09
-1.58744e-09
-9.23284e-10
-1.15264e-10
-4.26972e-10
-4.46948e-10
-2.28996e-10
-7.99764e-11
3.14186e-11
3.80932e-11
8.16954e-11
6.81948e-11
1.05913e-10
8.44323e-11
1.15686e-10
9.73665e-11
1.21378e-10
9.44708e-11
1.16564e-10
9.49447e-11
1.21815e-10
9.13471e-11
1.17487e-10
8.61818e-11
1.18392e-10
8.37722e-11
1.14019e-10
7.87619e-11
1.05055e-10
7.39708e-11
1.03587e-10
7.24701e-11
9.8948e-11
6.11051e-11
8.70365e-11
4.97275e-11
8.28056e-11
4.15111e-11
7.48986e-11
3.41535e-11
6.37175e-11
1.8651e-11
2.7883e-11
-3.46241e-12
4.48464e-11
6.76341e-12
3.5268e-11
1.01168e-12
3.9962e-11
-4.89555e-12
4.66999e-11
-8.16887e-12
6.12229e-11
-3.45842e-11
5.28052e-11
-1.37508e-10
1.72751e-10
8.80588e-11
-2.21946e-09
1.00518e-09
1.68557e-09
-2.01043e-09
-1.08778e-09
5.52862e-11
-3.25306e-10
-4.39001e-10
-2.3693e-10
-7.92417e-11
3.40253e-11
3.808e-11
7.92416e-11
6.5318e-11
1.03026e-10
8.216e-11
1.131e-10
9.56797e-11
1.19529e-10
9.33873e-11
1.14718e-10
9.37929e-11
1.20571e-10
9.06214e-11
1.16345e-10
8.5437e-11
1.17577e-10
8.34428e-11
1.13353e-10
7.86207e-11
1.0425e-10
7.37456e-11
1.02957e-10
7.24675e-11
9.87002e-11
6.10883e-11
8.66328e-11
4.92862e-11
8.29553e-11
4.10609e-11
7.60513e-11
3.45146e-11
6.96429e-11
1.61166e-11
1.86745e-11
-7.73404e-12
4.63307e-11
6.31491e-12
3.68507e-11
-1.30103e-12
4.28521e-11
-8.82386e-12
5.16492e-11
-1.48127e-11
7.02672e-11
-4.49219e-11
6.74217e-11
-1.56631e-10
1.96358e-10
1.13645e-10
-2.36546e-09
1.27575e-09
1.87271e-09
-2.41219e-09
-1.27444e-09
2.18648e-10
-2.13146e-10
-4.26803e-10
-2.46312e-10
-7.95707e-11
3.64566e-11
3.81239e-11
7.66187e-11
6.22489e-11
9.9853e-11
7.97166e-11
1.10291e-10
9.38234e-11
1.17458e-10
9.21974e-11
1.1273e-10
9.25487e-11
1.19144e-10
8.98358e-11
1.15078e-10
8.46586e-11
1.16621e-10
8.31014e-11
1.12575e-10
7.84665e-11
1.03373e-10
7.35144e-11
1.02236e-10
7.2463e-11
9.8373e-11
6.10829e-11
8.61731e-11
4.88567e-11
8.3039e-11
4.05731e-11
7.72922e-11
3.48904e-11
7.81508e-11
1.16574e-11
6.50581e-12
-1.19972e-11
4.80502e-11
5.87192e-12
3.8491e-11
-3.6592e-12
4.56508e-11
-1.27001e-11
5.63795e-11
-2.10999e-11
7.8539e-11
-5.38645e-11
7.99218e-11
-1.70954e-10
2.12591e-10
1.4328e-10
-2.49978e-09
1.52003e-09
2.06164e-09
-2.77174e-09
-1.47517e-09
3.65798e-10
-9.40382e-11
-4.09528e-10
-2.56601e-10
-8.12252e-11
3.84807e-11
3.81873e-11
7.3858e-11
5.90132e-11
9.64106e-11
7.71111e-11
1.07277e-10
9.18076e-11
1.15175e-10
9.09029e-11
1.1061e-10
9.12235e-11
1.17541e-10
8.89894e-11
1.13695e-10
8.38516e-11
1.15527e-10
8.27465e-11
1.11688e-10
7.8298e-11
1.02429e-10
7.32829e-11
1.01422e-10
7.24606e-11
9.79607e-11
6.10976e-11
8.5645e-11
4.84731e-11
8.30154e-11
4.01243e-11
7.84442e-11
3.53168e-11
8.95819e-11
3.76838e-12
-1.01513e-11
-1.62727e-11
4.98468e-11
5.47126e-12
4.01193e-11
-5.91049e-12
4.81937e-11
-1.62746e-11
6.0576e-11
-2.66115e-11
8.55031e-11
-6.07299e-11
8.94945e-11
-1.79592e-10
2.21031e-10
1.75607e-10
-2.61254e-09
1.72449e-09
2.23829e-09
-3.07382e-09
-1.67897e-09
4.89631e-10
2.73127e-11
-3.86731e-10
-2.67132e-10
-8.44186e-11
3.98293e-11
3.82109e-11
7.099e-11
5.56371e-11
9.27165e-11
7.43516e-11
1.04073e-10
8.96433e-11
1.12692e-10
8.95068e-11
1.0837e-10
8.98288e-11
1.15768e-10
8.80809e-11
1.12204e-10
8.30202e-11
1.14301e-10
8.23775e-11
1.10697e-10
7.81152e-11
1.01424e-10
7.30572e-11
1.00514e-10
7.24649e-11
9.74587e-11
6.11399e-11
8.50408e-11
4.81626e-11
8.28571e-11
3.97805e-11
7.94052e-11
3.55942e-11
1.10463e-10
-9.97526e-13
-3.24052e-11
-2.07161e-11
5.11146e-11
5.06582e-12
4.15601e-11
-7.92443e-12
5.03013e-11
-1.93196e-11
6.39495e-11
-3.09974e-11
9.07148e-11
-6.50201e-11
9.564e-11
-1.82154e-10
2.21903e-10
2.08806e-10
-2.69509e-09
1.87947e-09
2.38918e-09
-3.30651e-09
-1.87399e-09
5.84973e-10
1.45854e-10
-3.58293e-10
-2.77125e-10
-8.92641e-11
4.02306e-11
3.81215e-11
6.80465e-11
5.21509e-11
8.8791e-11
7.14474e-11
1.00695e-10
8.73431e-11
1.10024e-10
8.80139e-11
1.0602e-10
8.83751e-11
1.13838e-10
8.71093e-11
1.10615e-10
8.21686e-11
1.12948e-10
8.19945e-11
1.09605e-10
7.79194e-11
1.00361e-10
7.28436e-11
9.95113e-11
7.24815e-11
9.68628e-11
6.12202e-11
8.43442e-11
4.79694e-11
8.25362e-11
3.97046e-11
7.98775e-11
3.58212e-11
1.25188e-10
-2.15321e-14
-4.84667e-11
-2.36578e-11
5.17317e-11
4.75927e-12
4.27735e-11
-9.54082e-12
5.18253e-11
-2.16321e-11
6.62716e-11
-3.38948e-11
9.38634e-11
-6.64665e-11
9.81768e-11
-1.78736e-10
2.16136e-10
2.41098e-10
-2.74159e-09
1.9792e-09
2.50317e-09
-3.46282e-09
-2.04956e-09
6.48861e-10
2.56923e-10
-3.2441e-10
-2.85735e-10
-9.57502e-11
3.94368e-11
3.78361e-11
6.50601e-11
4.85893e-11
8.46575e-11
6.841e-11
9.71595e-11
8.49207e-11
1.07186e-10
8.643e-11
1.0357e-10
8.68712e-11
1.11764e-10
8.60746e-11
1.08938e-10
8.13016e-11
1.11476e-10
8.15987e-11
1.08416e-10
7.77127e-11
9.92415e-11
7.26489e-11
9.84134e-11
7.25162e-11
9.61678e-11
6.13498e-11
8.35288e-11
4.79423e-11
8.18711e-11
4.00858e-11
7.90802e-11
3.65779e-11
1.09522e-10
1.84745e-12
-3.10624e-11
-2.28261e-11
5.19514e-11
4.71978e-12
4.3745e-11
-1.06007e-11
5.26553e-11
-2.30446e-11
6.73816e-11
-3.51388e-11
9.47998e-11
-6.4976e-11
9.71405e-11
-1.69871e-10
2.04852e-10
2.71078e-10
-2.74632e-09
2.02168e-09
2.56891e-09
-3.53983e-09
-2.19791e-09
6.80078e-10
3.56234e-10
-2.85676e-10
-2.92182e-10
-1.03758e-10
3.72321e-11
3.72586e-11
6.20569e-11
4.49885e-11
8.03414e-11
6.52517e-11
9.34838e-11
8.23904e-11
1.04198e-10
8.47619e-11
1.01033e-10
8.53255e-11
1.0955e-10
8.49778e-11
1.07182e-10
8.04234e-11
1.09892e-10
8.11919e-11
1.07138e-10
7.74978e-11
9.80702e-11
7.2478e-11
9.72233e-11
7.25702e-11
9.5378e-11
6.15253e-11
8.26055e-11
4.80674e-11
8.09612e-11
4.08074e-11
7.76143e-11
3.74315e-11
8.81695e-11
8.25848e-12
-6.78829e-12
-1.97673e-11
5.14372e-11
4.86898e-12
4.43202e-11
-1.10465e-11
5.26911e-11
-2.34644e-11
6.7187e-11
-3.46723e-11
9.35231e-11
-6.0647e-11
9.27518e-11
-1.56111e-10
1.8951e-10
2.95485e-10
-2.70792e-09
2.00806e-09
2.58125e-09
-3.53833e-09
-2.30697e-09
6.78747e-10
4.4017e-10
-2.43089e-10
-2.95847e-10
-1.13081e-10
3.34458e-11
3.62806e-11
5.90494e-11
4.13808e-11
7.58667e-11
6.19832e-11
8.96815e-11
7.97648e-11
1.01075e-10
8.30158e-11
9.84179e-11
8.37455e-11
1.0723e-10
8.38194e-11
1.05354e-10
7.95375e-11
1.08203e-10
8.07762e-11
1.05774e-10
7.72771e-11
9.68504e-11
7.23338e-11
9.59453e-11
7.26446e-11
9.44989e-11
6.17441e-11
8.15853e-11
4.83241e-11
7.98706e-11
4.16892e-11
7.59286e-11
3.80165e-11
7.49045e-11
1.72551e-11
1.1347e-11
-1.62523e-11
5.01843e-11
5.18117e-12
4.44049e-11
-1.08422e-11
5.18952e-11
-2.28574e-11
6.56859e-11
-3.25355e-11
9.0153e-11
-5.37412e-11
8.55543e-11
-1.38361e-10
1.71523e-10
3.13463e-10
-2.62699e-09
1.94245e-09
2.53681e-09
-3.46338e-09
-2.37382e-09
6.46796e-10
5.063e-10
-1.97901e-10
-2.96289e-10
-1.23425e-10
2.7975e-11
3.47943e-11
5.60385e-11
3.77949e-11
7.12577e-11
5.8615e-11
8.57646e-11
7.7055e-11
9.7838e-11
8.11988e-11
9.57351e-11
8.21359e-11
1.0481e-10
8.26015e-11
1.0346e-10
7.86474e-11
1.06416e-10
8.03539e-11
1.0433e-10
7.70533e-11
9.55849e-11
7.22177e-11
9.45841e-11
7.27415e-11
9.35358e-11
6.20089e-11
8.04658e-11
4.8715e-11
7.86001e-11
4.27034e-11
7.40285e-11
3.8634e-11
6.64725e-11
2.21178e-11
2.42717e-11
-1.20679e-11
4.8751e-11
5.80012e-12
4.40188e-11
-9.95081e-12
5.0295e-11
-2.12336e-11
6.29452e-11
-2.88413e-11
8.49042e-11
-4.46563e-11
7.63418e-11
-1.17731e-10
1.52165e-10
3.24468e-10
-2.50557e-09
1.83049e-09
2.43555e-09
-3.32381e-09
-2.39619e-09
5.89776e-10
5.53418e-10
-1.51519e-10
-2.93292e-10
-1.34457e-10
2.07864e-11
3.27009e-11
5.30148e-11
3.42555e-11
6.65399e-11
5.51592e-11
8.1747e-11
7.42708e-11
9.45054e-11
7.93185e-11
9.29955e-11
8.04992e-11
1.02303e-10
8.13285e-11
1.01504e-10
7.77557e-11
1.04539e-10
7.99265e-11
1.02813e-10
7.68281e-11
9.42783e-11
7.21292e-11
9.31476e-11
7.28582e-11
9.24995e-11
6.23134e-11
7.92605e-11
4.92173e-11
7.71899e-11
4.37742e-11
7.2056e-11
3.93133e-11
6.05403e-11
2.4579e-11
3.37921e-11
-7.11815e-12
4.73259e-11
6.76899e-12
4.31625e-11
-8.39577e-12
4.79446e-11
-1.86565e-11
5.90756e-11
-2.37659e-11
7.82151e-11
-3.38966e-11
6.57646e-11
-9.52586e-11
1.3245e-10
3.2825e-10
-2.34734e-09
1.67917e-09
2.27981e-09
-3.13044e-09
-2.37388e-09
5.13016e-10
5.81373e-10
-1.05323e-10
-2.86857e-10
-1.45833e-10
1.19163e-11
2.99228e-11
4.99644e-11
3.07817e-11
6.17396e-11
5.16286e-11
7.76441e-11
7.1419e-11
9.10959e-11
7.73835e-11
9.02102e-11
7.88363e-11
9.97203e-11
8.00056e-11
9.94922e-11
7.68633e-11
1.02579e-10
7.94939e-11
1.01231e-10
7.66023e-11
9.29375e-11
7.20655e-11
9.16455e-11
7.29896e-11
9.14011e-11
6.26497e-11
7.79885e-11
4.98002e-11
7.56913e-11
4.48169e-11
7.01717e-11
3.99239e-11
5.63501e-11
2.60472e-11
4.07105e-11
-1.72232e-12
4.58786e-11
8.05305e-12
4.18359e-11
-6.24978e-12
4.49296e-11
-1.52351e-11
5.43035e-11
-1.75699e-11
7.04599e-11
-2.20087e-11
5.45139e-11
-7.18148e-11
1.12916e-10
3.24871e-10
-2.15667e-09
1.49666e-09
2.07476e-09
-2.89506e-09
-2.30953e-09
4.21743e-10
5.91195e-10
-6.03705e-11
-2.77124e-10
-1.57234e-10
1.44983e-12
2.63985e-11
4.6865e-11
2.73815e-11
5.68748e-11
4.80295e-11
7.34674e-11
6.84998e-11
8.76228e-11
7.54018e-11
8.73897e-11
7.71468e-11
9.70696e-11
7.86381e-11
9.74297e-11
7.59686e-11
1.00545e-10
7.90536e-11
9.95898e-11
7.63763e-11
9.15701e-11
7.20226e-11
9.00883e-11
7.31294e-11
9.02507e-11
6.30099e-11
7.66662e-11
5.04419e-11
7.41309e-11
4.58106e-11
6.84044e-11
4.04364e-11
5.34955e-11
2.71231e-11
4.54878e-11
3.7893e-12
4.43864e-11
9.63551e-12
4.00875e-11
-3.59487e-12
4.1381e-11
-1.11158e-11
4.89016e-11
-1.05726e-11
6.20604e-11
-9.50806e-12
4.32543e-11
-4.80405e-11
9.38044e-11
3.14612e-10
-1.93903e-09
1.29213e-09
1.82746e-09
-2.63003e-09
-2.20744e-09
3.21343e-10
5.84594e-10
-1.76285e-11
-2.64383e-10
-1.68401e-10
-1.05311e-11
2.20651e-11
4.3683e-11
2.40579e-11
5.19552e-11
4.4365e-11
6.92203e-11
6.55109e-11
8.40931e-11
7.33829e-11
8.4541e-11
7.54321e-11
9.43545e-11
7.72333e-11
9.53181e-11
7.50696e-11
9.8439e-11
7.8604e-11
9.78945e-11
7.6152e-11
9.01803e-11
7.19973e-11
8.84827e-11
7.3273e-11
8.90555e-11
6.3392e-11
7.53066e-11
5.11253e-11
7.25212e-11
4.6761e-11
6.67227e-11
4.09105e-11
5.15752e-11
2.80575e-11
4.84951e-11
9.23522e-12
4.28595e-11
1.15084e-11
3.79967e-11
-5.15913e-13
3.74311e-11
-6.48104e-12
4.30961e-11
-3.08909e-12
5.34195e-11
3.16725e-12
3.25032e-11
-2.431e-11
7.49524e-11
2.97995e-10
-1.7002e-09
1.07431e-09
7.37601e-10
3.4702e-10
-4.51994e-10
-8.57841e-10
-7.03748e-10
-4.50231e-10
-2.13008e-10
-8.97911e-11
2.05724e-11
4.29695e-11
9.44333e-11
8.34053e-11
1.18406e-10
9.59125e-11
1.27199e-10
1.04047e-10
1.28375e-10
9.95005e-11
1.25388e-10
1.0014e-10
1.26111e-10
9.53968e-11
1.22009e-10
9.05939e-11
1.20297e-10
8.61646e-11
1.15779e-10
7.98125e-11
1.08715e-10
7.51517e-11
1.05791e-10
7.20504e-11
9.90447e-11
6.11314e-11
8.85403e-11
5.16835e-11
8.10311e-11
4.28049e-11
7.08804e-11
3.16521e-11
5.74177e-11
2.49589e-11
4.93071e-11
1.42135e-11
3.87812e-11
6.65011e-12
2.84539e-11
8.12354e-12
2.49407e-11
1.06619e-11
2.17459e-11
2.1453e-11
1.15183e-11
2.17915e-11
-3.30465e-11
1.66654e-11
-6.95853e-11
-1.41032e-10
-1.27823e-09
-2.65548e-10
7.77869e-10
3.67662e-10
-4.62584e-10
-8.65871e-10
-7.07015e-10
-4.50351e-10
-2.13114e-10
-8.98444e-11
2.02385e-11
4.26558e-11
9.39969e-11
8.31594e-11
1.18041e-10
9.576e-11
1.26879e-10
1.04027e-10
1.28078e-10
9.94789e-11
1.25129e-10
1.00175e-10
1.25907e-10
9.54193e-11
1.21838e-10
9.06337e-11
1.20167e-10
8.62342e-11
1.15609e-10
7.99305e-11
1.08518e-10
7.52965e-11
1.05623e-10
7.22313e-11
9.88563e-11
6.12847e-11
8.83747e-11
5.18494e-11
8.0901e-11
4.29868e-11
7.07307e-11
3.1856e-11
5.71954e-11
2.51007e-11
4.90982e-11
1.44288e-11
3.86461e-11
6.91302e-12
2.83002e-11
8.4402e-12
2.4879e-11
1.09321e-11
2.18009e-11
2.17425e-11
1.17742e-11
2.19544e-11
-3.26632e-11
1.66378e-11
-6.41871e-11
-1.29698e-10
-1.30486e-09
-2.92064e-10
8.27355e-10
3.81291e-10
-4.75199e-10
-8.72531e-10
-7.10331e-10
-4.50593e-10
-2.13017e-10
-8.99466e-11
2.01363e-11
4.21333e-11
9.36146e-11
8.2637e-11
1.17755e-10
9.53367e-11
1.26616e-10
1.03811e-10
1.27901e-10
9.92641e-11
1.24944e-10
1.00013e-10
1.25852e-10
9.5239e-11
1.21815e-10
9.04537e-11
1.20229e-10
8.60834e-11
1.15634e-10
7.98553e-11
1.08482e-10
7.52505e-11
1.05632e-10
7.2234e-11
9.88731e-11
6.1252e-11
8.83935e-11
5.18083e-11
8.09965e-11
4.2961e-11
7.08121e-11
3.1886e-11
5.71349e-11
2.4998e-11
4.90363e-11
1.44198e-11
3.87713e-11
7.05395e-12
2.83294e-11
8.64441e-12
2.506e-11
1.1057e-11
2.20763e-11
2.18681e-11
1.22555e-11
2.20868e-11
-3.21003e-11
1.52221e-11
-5.88486e-11
-1.06449e-10
-1.34499e-09
-3.18483e-10
8.803e-10
3.77673e-10
-4.87461e-10
-8.74142e-10
-7.13829e-10
-4.5099e-10
-2.12728e-10
-8.98034e-11
2.02774e-11
4.15825e-11
9.31578e-11
8.1951e-11
1.17397e-10
9.47868e-11
1.26259e-10
1.03533e-10
1.27704e-10
9.89905e-11
1.24677e-10
9.97888e-11
1.25804e-10
9.49986e-11
1.21783e-10
9.01984e-11
1.20329e-10
8.58717e-11
1.15698e-10
7.97426e-11
1.08443e-10
7.51668e-11
1.05658e-10
7.22202e-11
9.89462e-11
6.11887e-11
8.84282e-11
5.17088e-11
8.11636e-11
4.28814e-11
7.09839e-11
3.18884e-11
5.71145e-11
2.47822e-11
4.89656e-11
1.42828e-11
3.90577e-11
7.16233e-12
2.84724e-11
8.75961e-12
2.54742e-11
1.09899e-11
2.26619e-11
2.16579e-11
1.33967e-11
2.1564e-11
-3.06543e-11
1.12215e-11
-4.99043e-11
-7.68868e-11
-1.39495e-09
-3.34803e-10
9.29043e-10
3.40127e-10
-4.97572e-10
-8.62739e-10
-7.15285e-10
-4.51542e-10
-2.12334e-10
-8.9329e-11
2.06643e-11
4.10183e-11
9.25145e-11
8.10587e-11
1.16853e-10
9.40781e-11
1.25713e-10
1.03182e-10
1.27413e-10
9.86615e-11
1.24258e-10
9.95088e-11
1.25703e-10
9.4722e-11
1.21676e-10
8.98969e-11
1.20401e-10
8.56421e-11
1.1574e-10
7.96332e-11
1.08342e-10
7.50819e-11
1.05645e-10
7.22314e-11
9.90253e-11
6.11388e-11
8.84184e-11
5.15912e-11
8.13466e-11
4.2797e-11
7.11999e-11
3.1916e-11
5.71092e-11
2.45022e-11
4.88051e-11
1.40307e-11
3.94742e-11
7.26197e-12
2.8712e-11
8.75395e-12
2.61335e-11
1.06532e-11
2.36298e-11
2.09399e-11
1.536e-11
2.00057e-11
-2.77508e-11
3.88774e-12
-3.6001e-11
-4.66255e-11
-1.45235e-09
-3.25062e-10
9.72576e-10
2.50891e-10
-5.07599e-10
-8.312e-10
-7.11594e-10
-4.52195e-10
-2.11964e-10
-8.84684e-11
2.13445e-11
4.04554e-11
9.16421e-11
7.99151e-11
1.16064e-10
9.31761e-11
1.24933e-10
1.02707e-10
1.26992e-10
9.82544e-11
1.2366e-10
9.91456e-11
1.25521e-10
9.43997e-11
1.21469e-10
8.95417e-11
1.20419e-10
8.53963e-11
1.15737e-10
7.95273e-11
1.08163e-10
7.49915e-11
1.05578e-10
7.22634e-11
9.90972e-11
6.11062e-11
8.83499e-11
5.14541e-11
8.15307e-11
4.27135e-11
7.14532e-11
3.1982e-11
5.7139e-11
2.41549e-11
4.8512e-11
1.36406e-11
4.00237e-11
7.34285e-12
2.90682e-11
8.56434e-12
2.70713e-11
9.95373e-12
2.507e-11
1.9529e-11
1.83535e-11
1.70203e-11
-2.28036e-11
-7.40606e-12
-1.62699e-11
-1.95474e-11
-1.5184e-09
-2.73291e-10
1.01668e-09
9.724e-11
-5.23452e-10
-7.74403e-10
-6.99438e-10
-4.52863e-10
-2.11838e-10
-8.71897e-11
2.23752e-11
3.99291e-11
9.05333e-11
7.85053e-11
1.15e-10
9.20674e-11
1.23896e-10
1.02081e-10
1.2641e-10
9.77559e-11
1.22872e-10
9.86759e-11
1.25232e-10
9.40229e-11
1.21146e-10
8.91251e-11
1.2036e-10
8.51337e-11
1.15672e-10
7.9423e-11
1.07896e-10
7.48901e-11
1.05444e-10
7.23088e-11
9.91479e-11
6.10926e-11
8.82149e-11
5.1294e-11
8.1704e-11
4.2633e-11
7.17399e-11
3.2093e-11
5.7237e-11
2.37257e-11
4.80471e-11
1.30932e-11
4.07137e-11
7.38495e-12
2.9573e-11
8.12433e-12
2.8329e-11
8.79673e-12
2.70829e-11
1.72434e-11
2.25736e-11
1.23042e-11
-1.53485e-11
-2.29275e-11
9.49988e-12
2.82399e-12
-1.59703e-09
-1.6956e-10
1.06991e-09
-1.26273e-10
-5.52502e-10
-6.89726e-10
-6.7573e-10
-4.53415e-10
-2.12286e-10
-8.55182e-11
2.37916e-11
3.94739e-11
8.919e-11
7.68309e-11
1.13643e-10
9.0752e-11
1.22591e-10
1.01287e-10
1.25643e-10
9.71606e-11
1.21887e-10
9.80882e-11
1.24813e-10
9.35882e-11
1.20691e-10
8.86456e-11
1.20203e-10
8.48575e-11
1.15523e-10
7.93199e-11
1.07532e-10
7.47762e-11
1.05233e-10
7.23648e-11
9.91603e-11
6.11006e-11
8.80074e-11
5.11114e-11
8.1853e-11
4.25592e-11
7.20545e-11
3.22532e-11
5.74426e-11
2.31902e-11
4.737e-11
1.23797e-11
4.15535e-11
7.36279e-12
3.02612e-11
7.37434e-12
2.99434e-11
7.10175e-12
2.97526e-11
1.39483e-11
2.81414e-11
5.71835e-12
-5.20512e-12
-4.24159e-11
4.04283e-11
2.09377e-11
-1.69165e-09
-1.15614e-11
1.14181e-09
-4.18307e-10
-6.02662e-10
-5.77282e-10
-6.37699e-10
-4.53533e-10
-2.13686e-10
-8.35482e-11
2.55982e-11
3.91136e-11
8.76159e-11
7.48996e-11
1.11985e-10
8.9236e-11
1.21017e-10
1.00318e-10
1.24673e-10
9.64678e-11
1.20707e-10
9.73788e-11
1.24244e-10
9.30946e-11
1.20097e-10
8.81059e-11
1.19929e-10
8.45716e-11
1.15275e-10
7.9218e-11
1.07066e-10
7.46496e-11
1.04935e-10
7.2429e-11
9.91192e-11
6.11313e-11
8.77249e-11
5.09085e-11
8.19654e-11
4.24946e-11
7.23938e-11
3.24624e-11
5.7803e-11
2.25201e-11
4.64401e-11
1.14976e-11
4.25512e-11
7.24959e-12
3.11628e-11
6.27325e-12
3.1933e-11
4.82652e-12
3.31131e-11
9.60084e-12
3.50482e-11
-2.6647e-12
7.45065e-12
-6.50129e-11
7.48935e-11
3.64733e-11
-1.80424e-09
1.96729e-10
1.23855e-09
-7.70395e-10
-6.79872e-10
-4.4006e-10
-5.83647e-10
-4.52708e-10
-2.16402e-10
-8.14491e-11
2.77669e-11
3.88604e-11
8.58156e-11
7.27207e-11
1.10022e-10
8.75273e-11
1.19179e-10
9.91706e-11
1.23487e-10
9.56773e-11
1.1934e-10
9.65492e-11
1.2351e-10
9.25426e-11
1.1936e-10
8.75111e-11
1.19524e-10
8.42787e-11
1.14917e-10
7.91159e-11
1.06498e-10
7.45109e-11
1.04544e-10
7.24989e-11
9.90129e-11
6.11832e-11
8.73695e-11
5.06886e-11
8.20313e-11
4.244e-11
7.27537e-11
3.27185e-11
5.83691e-11
2.16879e-11
4.52329e-11
1.04547e-11
4.3707e-11
7.02392e-12
3.22931e-11
4.81169e-12
3.42808e-11
1.98041e-12
3.71274e-11
4.26065e-12
4.31206e-11
-1.25205e-11
2.20766e-11
-8.93716e-11
1.1053e-10
5.15637e-11
-1.93324e-09
4.45481e-10
1.36323e-09
-1.16677e-09
-7.87282e-10
-2.83813e-10
-5.1316e-10
-4.5029e-10
-2.20739e-10
-7.94687e-11
3.02287e-11
3.87158e-11
8.37955e-11
7.03039e-11
1.07752e-10
8.56323e-11
1.17084e-10
9.78444e-11
1.22077e-10
9.47884e-11
1.17797e-10
9.56041e-11
1.22601e-10
9.19326e-11
1.18479e-10
8.6867e-11
1.18981e-10
8.39799e-11
1.14445e-10
7.9011e-11
1.05833e-10
7.43602e-11
1.04059e-10
7.25715e-11
9.8835e-11
6.12533e-11
8.69457e-11
5.04561e-11
8.20424e-11
4.23952e-11
7.31268e-11
3.30159e-11
5.91847e-11
2.06682e-11
4.37386e-11
9.27234e-12
4.50073e-11
6.67732e-12
3.36425e-11
3.02223e-12
3.69341e-11
-1.37222e-12
4.16777e-11
-1.8455e-12
5.20161e-11
-2.32937e-11
3.78037e-11
-1.13795e-10
1.44659e-10
6.85907e-11
-2.07468e-09
7.22855e-10
1.51454e-09
-1.58673e-09
-9.24439e-10
-1.15951e-10
-4.26747e-10
-4.45604e-10
-2.26893e-10
-7.79298e-11
3.28619e-11
3.86668e-11
8.15636e-11
6.76594e-11
1.05177e-10
8.35555e-11
1.14742e-10
9.63412e-11
1.20441e-10
9.37993e-11
1.16088e-10
9.45501e-11
1.21513e-10
9.12641e-11
1.17459e-10
8.6179e-11
1.18294e-10
8.36745e-11
1.13855e-10
7.88996e-11
1.05078e-10
7.41979e-11
1.0348e-10
7.26442e-11
9.8582e-11
6.13377e-11
8.64588e-11
5.02169e-11
8.19915e-11
4.236e-11
7.3502e-11
3.3342e-11
6.02797e-11
1.94744e-11
4.19607e-11
7.98578e-12
4.64183e-11
6.21797e-12
3.51739e-11
9.6862e-13
3.98614e-11
-5.09938e-12
4.65679e-11
-8.41044e-12
6.12594e-11
-3.42516e-11
5.35456e-11
-1.36409e-10
1.74467e-10
8.9567e-11
-2.22225e-09
1.00431e-09
1.68805e-09
-2.0098e-09
-1.08882e-09
5.45513e-11
-3.25098e-10
-4.37735e-10
-2.34826e-10
-7.71616e-11
3.55065e-11
3.86949e-11
7.91357e-11
6.48021e-11
1.02304e-10
8.13024e-11
1.12165e-10
9.46649e-11
1.18581e-10
9.27087e-11
1.14226e-10
9.33958e-11
1.20243e-10
9.05369e-11
1.16305e-10
8.54526e-11
1.17462e-10
8.33605e-11
1.13151e-10
7.87777e-11
1.04241e-10
7.40249e-11
1.02807e-10
7.27146e-11
9.82532e-11
6.14332e-11
8.59134e-11
4.99794e-11
8.18712e-11
4.2336e-11
7.38612e-11
3.36812e-11
6.16515e-11
1.81482e-11
3.99373e-11
6.64992e-12
4.78881e-11
5.67451e-12
3.68277e-11
-1.26439e-12
4.27946e-11
-9.00281e-12
5.15392e-11
-1.50464e-11
7.03004e-11
-4.45949e-11
6.81841e-11
-1.55538e-10
1.98041e-10
1.1522e-10
-2.36811e-09
1.27501e-09
1.87517e-09
-2.41163e-09
-1.27537e-09
2.1786e-10
-2.13179e-10
-4.25604e-10
-2.4421e-10
-7.74642e-11
3.79684e-11
3.87754e-11
7.6537e-11
6.17527e-11
9.91456e-11
7.88802e-11
1.09367e-10
9.28226e-11
1.16502e-10
9.15156e-11
1.12223e-10
9.21516e-11
1.18793e-10
8.97502e-11
1.15024e-10
8.46925e-11
1.16488e-10
8.30354e-11
1.12337e-10
7.86416e-11
1.03331e-10
7.38434e-11
1.02044e-10
7.27812e-11
9.78477e-11
6.15374e-11
8.53135e-11
4.97542e-11
8.16745e-11
4.23287e-11
7.41759e-11
3.40162e-11
6.32425e-11
1.67886e-11
3.77776e-11
5.33572e-12
4.93435e-11
5.09498e-12
3.85265e-11
-3.55444e-12
4.56368e-11
-1.28515e-11
5.62911e-11
-2.13246e-11
7.85707e-11
-5.35443e-11
8.0705e-11
-1.69865e-10
2.14258e-10
1.44901e-10
-2.50238e-09
1.51947e-09
2.06411e-09
-2.77124e-09
-1.47598e-09
3.64979e-10
-9.42004e-11
-4.08392e-10
-2.54513e-10
-7.91039e-11
4.00136e-11
3.88688e-11
7.37976e-11
5.85356e-11
9.57169e-11
7.62965e-11
1.06366e-10
9.08232e-11
1.14215e-10
9.02213e-11
1.10091e-10
9.08288e-11
1.17168e-10
8.89032e-11
1.13626e-10
8.39025e-11
1.15377e-10
8.26964e-11
1.11416e-10
7.84886e-11
1.02355e-10
7.36564e-11
1.01192e-10
7.28436e-11
9.73661e-11
6.16492e-11
8.46612e-11
4.95526e-11
8.13935e-11
4.23468e-11
7.44105e-11
3.43295e-11
6.48967e-11
1.55739e-11
3.56952e-11
4.12677e-12
5.06906e-11
4.53723e-12
4.0192e-11
-5.75273e-12
4.82187e-11
-1.64036e-11
6.0506e-11
-2.6828e-11
8.55335e-11
-6.0417e-11
9.02942e-11
-1.78502e-10
2.2269e-10
1.77262e-10
-2.61513e-09
1.72408e-09
2.24073e-09
-3.07336e-09
-1.6796e-09
4.88842e-10
2.70332e-11
-3.8568e-10
-2.6508e-10