/*--------------------------------*- C++ -*----------------------------------*\
| =========                 |                                                 |
| \\      /  F ield         | OpenFOAM: The Open Source CFD Toolbox           |
|  \\    /   O peration     | Version:  2312                                  |
|   \\  /    A nd           | Website:  www.openfoam.com                      |
|    \\/     M anipulation  |                                                 |
\*---------------------------------------------------------------------------*/
FoamFile
{
    version     2.0;
    format      ascii;
    arch        "LSB;label=32;scalar=64";
    class       volScalarField;
    location    "240";
    object      pMean;
}
// * * * * * * * * * * * * * * * * * * * * * * * * * * * * * * * * * * * * * //

dimensions      [0 2 -2 0 0 0 0];

internalField   nonuniform List<scalar> 
144000
(
1.6004e-09
6.64857e-10
-8.89435e-10
-1.43258e-09
-1.13807e-09
-7.28775e-10
-3.8133e-10
-1.90172e-10
-3.38264e-11
1.31515e-11
7.86942e-11
7.30856e-11
1.13472e-10
9.05505e-11
1.24483e-10
9.5865e-11
1.24476e-10
8.51921e-11
1.15249e-10
7.85025e-11
1.11003e-10
6.86069e-11
1.02956e-10
6.09199e-11
9.89356e-11
5.54958e-11
9.50441e-11
4.67718e-11
8.89544e-11
4.05941e-11
8.70581e-11
3.76765e-11
8.47055e-11
2.79555e-11
7.74718e-11
2.16945e-11
7.51089e-11
1.74393e-11
7.21118e-11
9.87915e-12
6.60106e-11
5.53422e-12
6.54435e-11
-6.00615e-13
5.81797e-11
-9.84697e-12
4.94814e-11
-1.08219e-11
4.73709e-11
-5.34592e-12
4.73567e-11
1.55284e-11
4.84217e-11
4.60179e-11
2.88193e-11
1.02133e-10
7.58055e-11
3.62552e-10
-1.94541e-09
-4.8241e-10
1.65556e-09
7.01509e-10
-9.03896e-10
-1.44352e-09
-1.1407e-09
-7.28655e-10
-3.81628e-10
-1.90739e-10
-3.46979e-11
1.23296e-11
7.78501e-11
7.24705e-11
1.12842e-10
9.01194e-11
1.24001e-10
9.56077e-11
1.24097e-10
8.49606e-11
1.14902e-10
7.83929e-11
1.10726e-10
6.85162e-11
1.02688e-10
6.0904e-11
9.87033e-11
5.55226e-11
9.4826e-11
4.68074e-11
8.87298e-11
4.06715e-11
8.68493e-11
3.78008e-11
8.4495e-11
2.80664e-11
7.72308e-11
2.18693e-11
7.48779e-11
1.76478e-11
7.18668e-11
1.00884e-11
6.5646e-11
5.69862e-12
6.50634e-11
-2.6165e-13
5.78704e-11
-9.44391e-12
4.91167e-11
-1.02851e-11
4.70079e-11
-4.74244e-12
4.69674e-11
1.6253e-11
4.80481e-11
4.66808e-11
2.82665e-11
1.01267e-10
8.08703e-11
3.87706e-10
-1.97713e-09
-5.35879e-10
1.73382e-09
7.01822e-10
-9.30036e-10
-1.4426e-09
-1.13832e-09
-7.26613e-10
-3.80746e-10
-1.90884e-10
-3.52177e-11
1.12103e-11
7.68747e-11
7.14018e-11
1.12137e-10
8.92514e-11
1.23475e-10
9.49821e-11
1.23816e-10
8.43785e-11
1.14614e-10
7.79469e-11
1.1061e-10
6.81086e-11
1.02576e-10
6.05738e-11
9.86822e-11
5.52431e-11
9.48498e-11
4.6523e-11
8.87375e-11
4.04266e-11
8.69038e-11
3.76166e-11
8.46101e-11
2.78377e-11
7.7277e-11
2.17001e-11
7.49851e-11
1.75099e-11
7.19878e-11
9.95332e-12
6.55923e-11
5.40306e-12
6.49914e-11
-3.52015e-13
5.80055e-11
-9.39741e-12
4.91556e-11
-1.01189e-11
4.7113e-11
-4.53536e-12
4.70218e-11
1.65076e-11
4.82643e-11
4.66932e-11
2.88292e-11
9.66877e-11
8.54828e-11
4.25974e-10
-2.03695e-09
-5.65697e-10
1.81346e-09
6.27544e-10
-9.59464e-10
-1.41798e-09
-1.12913e-09
-7.22724e-10
-3.78354e-10
-1.89804e-10
-3.49911e-11
1.02617e-11
7.57369e-11
7.00531e-11
1.11186e-10
8.81422e-11
1.22709e-10
9.417e-11
1.23415e-10
8.36237e-11
1.14127e-10
7.73583e-11
1.10408e-10
6.75895e-11
1.0234e-10
6.01511e-11
9.85796e-11
5.49122e-11
9.48412e-11
4.61841e-11
8.8675e-11
4.01328e-11
8.69092e-11
3.74151e-11
8.47388e-11
2.75885e-11
7.72623e-11
2.15057e-11
7.5073e-11
1.7378e-11
7.21166e-11
9.85705e-12
6.54661e-11
5.05375e-12
6.47927e-11
-5.63333e-13
5.81785e-11
-9.32607e-12
4.91796e-11
-9.97799e-12
4.73293e-11
-4.45755e-12
4.72924e-11
1.63433e-11
4.93354e-11
4.53187e-11
3.18321e-11
8.54256e-11
9.93807e-11
4.5552e-10
-2.1151e-09
-5.31705e-10
1.88056e-09
4.47879e-10
-9.8759e-10
-1.35235e-09
-1.10986e-09
-7.18166e-10
-3.75237e-10
-1.87458e-10
-3.38987e-11
9.59461e-12
7.44344e-11
6.84864e-11
1.0995e-10
8.68135e-11
1.21647e-10
9.31929e-11
1.22828e-10
8.27282e-11
1.13379e-10
7.66429e-11
1.10049e-10
6.69994e-11
1.01902e-10
5.96679e-11
9.83254e-11
5.45667e-11
9.47173e-11
4.58445e-11
8.84535e-11
3.98348e-11
8.67772e-11
3.72638e-11
8.47918e-11
2.73939e-11
7.70855e-11
2.13555e-11
7.50459e-11
1.73295e-11
7.21565e-11
9.91967e-12
6.51615e-11
4.83521e-12
6.42876e-11
-8.6257e-13
5.82317e-11
-9.08336e-12
4.90567e-11
-9.81225e-12
4.75447e-11
-4.51298e-12
4.78026e-11
1.55762e-11
5.15191e-11
4.19702e-11
3.82416e-11
6.67244e-11
1.25621e-10
4.66856e-10
-2.20694e-09
-4.06501e-10
1.9399e-09
1.51369e-10
-1.01865e-09
-1.23936e-09
-1.07714e-09
-7.14381e-10
-3.72482e-10
-1.8425e-10
-3.21573e-11
9.12148e-12
7.29005e-11
6.66709e-11
1.08411e-10
8.5263e-11
1.20295e-10
9.20505e-11
1.22055e-10
8.17286e-11
1.12385e-10
7.58157e-11
1.09528e-10
6.63611e-11
1.01268e-10
5.9131e-11
9.79162e-11
5.42204e-11
9.44687e-11
4.55221e-11
8.80625e-11
3.95478e-11
8.64991e-11
3.71703e-11
8.47399e-11
2.72756e-11
7.67289e-11
2.12559e-11
7.48758e-11
1.73862e-11
7.20777e-11
1.01993e-11
6.4653e-11
4.79571e-12
6.3379e-11
-1.30266e-12
5.80873e-11
-8.64741e-12
4.87825e-11
-9.63659e-12
4.77766e-11
-4.78247e-12
4.86536e-11
1.39525e-11
5.51473e-11
3.61397e-11
4.88885e-11
4.03798e-11
1.64566e-10
4.58827e-10
-2.31719e-09
-1.818e-10
2.00353e-09
-2.56441e-10
-1.06244e-09
-1.07905e-09
-1.02781e-09
-7.11848e-10
-3.711e-10
-1.80617e-10
-2.99685e-11
8.67582e-12
7.10139e-11
6.45172e-11
1.06508e-10
8.34701e-11
1.18641e-10
9.07312e-11
1.21089e-10
8.06462e-11
1.11167e-10
7.48943e-11
1.08853e-10
6.57077e-11
1.00457e-10
5.85627e-11
9.73619e-11
5.3897e-11
9.40912e-11
4.52447e-11
8.75103e-11
3.9294e-11
8.60727e-11
3.71514e-11
8.45724e-11
2.72607e-11
7.61967e-11
2.12263e-11
7.45548e-11
1.7568e-11
7.18755e-11
1.07245e-11
6.40055e-11
4.97689e-12
6.19369e-11
-1.95425e-12
5.77504e-11
-8.00767e-12
4.83751e-11
-9.51263e-12
4.80548e-11
-5.37173e-12
4.99694e-11
1.13046e-11
6.03919e-11
2.76019e-11
6.37656e-11
7.78553e-12
2.13136e-10
4.35593e-10
-2.44714e-09
1.33964e-10
2.08038e-09
-7.50204e-10
-1.12676e-09
-8.78721e-10
-9.59941e-10
-7.10386e-10
-3.71854e-10
-1.76967e-10
-2.75023e-11
8.13944e-12
6.86878e-11
6.19316e-11
1.04155e-10
8.13897e-11
1.16642e-10
8.92048e-11
1.19884e-10
7.94786e-11
1.09733e-10
7.38833e-11
1.08011e-10
6.50543e-11
9.94804e-11
5.79825e-11
9.66664e-11
5.36136e-11
9.35871e-11
4.50362e-11
8.68087e-11
3.90954e-11
8.55029e-11
3.72259e-11
8.42786e-11
2.73693e-11
7.54977e-11
2.12766e-11
7.4088e-11
1.78776e-11
7.15707e-11
1.15057e-11
6.33486e-11
5.36126e-12
5.97845e-11
-2.90588e-12
5.7233e-11
-7.18355e-12
4.78804e-11
-9.49037e-12
4.84224e-11
-6.34855e-12
5.17964e-11
7.59263e-12
6.71347e-11
1.68088e-11
8.18907e-11
-2.80313e-11
2.64931e-10
4.04918e-10
-2.59143e-09
5.11527e-10
2.17567e-09
-1.29124e-09
-1.21656e-09
-6.51821e-10
-8.73284e-10
-7.09055e-10
-3.75315e-10
-1.7375e-10
-2.49374e-11
7.43935e-12
6.58302e-11
5.88717e-11
1.0131e-10
7.89803e-11
1.14268e-10
8.7436e-11
1.18391e-10
7.82084e-11
1.08072e-10
7.27781e-11
1.06975e-10
6.43973e-11
9.83372e-11
5.7398e-11
9.58246e-11
5.33734e-11
9.29496e-11
4.49096e-11
8.59639e-11
3.89676e-11
8.47973e-11
3.7402e-11
8.38537e-11
2.76113e-11
7.46547e-11
2.14121e-11
7.34894e-11
1.82977e-11
7.12072e-11
1.25246e-11
6.2902e-11
5.90993e-12
5.66776e-11
-4.22123e-12
5.6585e-11
-6.19889e-12
4.73436e-11
-9.59644e-12
4.88877e-11
-7.68308e-12
5.40836e-11
3.01964e-12
7.49354e-11
4.66322e-12
1.01453e-10
-6.32563e-11
3.1283e-10
3.75139e-10
-2.74029e-09
9.10002e-10
2.28715e-09
-1.83709e-09
-1.33241e-09
-4.15117e-10
-7.69595e-10
-7.0655e-10
-3.81703e-10
-1.71407e-10
-2.24129e-11
6.55271e-12
6.24612e-11
5.53432e-11
9.79641e-11
7.62375e-11
1.11511e-10
8.54241e-11
1.16582e-10
7.68168e-11
1.06186e-10
7.15725e-11
1.05725e-10
6.37262e-11
9.70273e-11
5.68059e-11
9.48288e-11
5.31801e-11
9.21677e-11
4.48556e-11
8.49816e-11
3.89106e-11
8.39601e-11
3.76804e-11
8.32909e-11
2.79863e-11
7.36829e-11
2.16294e-11
7.27743e-11
1.88141e-11
7.08195e-11
1.37527e-11
6.29327e-11
6.51782e-12
5.23201e-11
-5.95142e-12
5.58656e-11
-5.08504e-12
4.68038e-11
-9.82163e-12
4.9425e-11
-9.28354e-12
5.66648e-11
-2.01672e-12
8.309e-11
-7.51541e-12
1.2028e-10
-9.40257e-11
3.50842e-10
3.52064e-10
-2.87964e-09
1.29188e-09
2.40578e-09
-2.34366e-09
-1.47057e-09
-1.86236e-10
-6.52375e-10
-7.0137e-10
-3.90883e-10
-1.70359e-10
-2.01427e-11
5.48689e-12
5.86196e-11
5.13785e-11
9.41345e-11
7.31776e-11
1.08386e-10
8.31696e-11
1.1445e-10
7.53015e-11
1.04076e-10
7.02686e-11
1.04254e-10
6.30296e-11
9.55503e-11
5.62044e-11
9.36734e-11
5.30206e-11
9.12353e-11
4.48696e-11
8.38709e-11
3.89281e-11
8.29922e-11
3.80542e-11
8.2588e-11
2.84795e-11
7.26031e-11
2.19295e-11
7.19501e-11
1.93931e-11
7.04684e-11
1.51574e-11
6.37625e-11
6.93391e-12
4.63709e-11
-8.11607e-12
5.51283e-11
-3.85528e-12
4.62509e-11
-1.01147e-11
4.99393e-11
-1.09871e-11
5.92512e-11
-7.01454e-12
9.07749e-11
-1.83902e-11
1.36292e-10
-1.17265e-10
3.75073e-10
3.38472e-10
-2.99365e-09
1.62375e-09
2.5186e-09
-2.77851e-09
-1.62268e-09
1.99036e-11
-5.26466e-10
-6.92087e-10
-4.02368e-10
-1.70981e-10
-1.83233e-11
4.25158e-12
5.43695e-11
4.70285e-11
8.9853e-11
6.98283e-11
1.04909e-10
8.06916e-11
1.11998e-10
7.3664e-11
1.01753e-10
6.88755e-11
1.02555e-10
6.22975e-11
9.39103e-11
5.55902e-11
9.2355e-11
5.28893e-11
9.01495e-11
4.49415e-11
8.26381e-11
3.90141e-11
8.18965e-11
3.85108e-11
8.17533e-11
2.90772e-11
7.14229e-11
2.23057e-11
7.10287e-11
1.9999e-11
7.02015e-11
1.66725e-11
6.59312e-11
6.92307e-12
3.83384e-11
-1.06504e-11
5.44209e-11
-2.53611e-12
4.56426e-11
-1.03833e-11
5.03454e-11
-1.25876e-11
6.15091e-11
-1.14258e-11
9.72056e-11
-2.67379e-11
1.47877e-10
-1.31007e-10
3.84026e-10
3.34546e-10
-3.06918e-09
1.8816e-09
2.61134e-09
-3.11794e-09
-1.77763e-09
1.91586e-10
-3.97505e-10
-6.77539e-10
-4.15329e-10
-1.73543e-10
-1.7207e-11
2.85177e-12
4.979e-11
4.23575e-11
8.51669e-11
6.62181e-11
1.01113e-10
7.80058e-11
1.09242e-10
7.19121e-11
9.92368e-11
6.74052e-11
1.00636e-10
6.15259e-11
9.21169e-11
5.49668e-11
9.08807e-11
5.27761e-11
8.89183e-11
4.50601e-11
8.12906e-11
3.91606e-11
8.06765e-11
3.90373e-11
8.07855e-11
2.97655e-11
7.0155e-11
2.27532e-11
7.00122e-11
2.06165e-11
7.00165e-11
1.82868e-11
7.00624e-11
6.16532e-12
2.77046e-11
-1.33841e-11
5.3783e-11
-1.1273e-12
4.49365e-11
-1.05372e-11
5.04682e-11
-1.38413e-11
6.31229e-11
-1.47538e-11
1.01714e-10
-3.17295e-11
1.54079e-10
-1.3456e-10
3.78162e-10
3.37953e-10
-3.0964e-09
2.05305e-09
2.67154e-09
-3.34964e-09
-1.92414e-09
3.21647e-10
-2.71207e-10
-6.56977e-10
-4.28751e-10
-1.78171e-10
-1.70205e-11
1.27789e-12
4.49622e-11
3.74389e-11
8.01258e-11
6.23946e-11
9.70388e-11
7.51473e-11
1.06204e-10
7.00606e-11
9.65507e-11
6.58696e-11
9.85067e-11
6.07142e-11
9.01837e-11
5.43383e-11
8.92579e-11
5.26737e-11
8.75487e-11
4.52152e-11
7.98376e-11
3.93616e-11
7.9342e-11
3.96213e-11
7.96854e-11
3.05315e-11
6.88025e-11
2.32838e-11
6.88798e-11
2.12761e-11
6.98051e-11
2.0057e-11
7.66073e-11
3.64633e-12
1.4043e-11
-1.60505e-11
5.32806e-11
4.17573e-13
4.41131e-11
-1.04662e-11
5.01966e-11
-1.4537e-11
6.38345e-11
-1.66024e-11
1.03865e-10
-3.2946e-11
1.54636e-10
-1.28357e-10
3.59697e-10
3.45142e-10
-3.07065e-09
2.13571e-09
2.68882e-09
-3.47283e-09
-2.05108e-09
4.07324e-10
-1.52919e-10
-6.30198e-10
-4.41565e-10
-1.84845e-10
-1.79876e-11
-5.02206e-13
3.99641e-11
3.23429e-11
7.47808e-11
5.83927e-11
9.27205e-11
7.21433e-11
1.02912e-10
6.81207e-11
9.37154e-11
6.42823e-11
9.6186e-11
5.98613e-11
8.81252e-11
5.37069e-11
8.74985e-11
5.2576e-11
8.605e-11
4.53983e-11
7.82924e-11
3.96114e-11
7.79028e-11
4.02523e-11
7.846e-11
3.13671e-11
6.73685e-11
2.39057e-11
6.76236e-11
2.19981e-11
6.94958e-11
2.17844e-11
8.71321e-11
-1.44072e-12
-3.81435e-12
-1.87242e-11
5.27521e-11
2.07168e-12
4.31288e-11
-1.00621e-11
4.94315e-11
-1.452e-11
6.34681e-11
-1.67626e-11
1.03487e-10
-3.03684e-11
1.49891e-10
-1.13693e-10
3.3154e-10
3.52489e-10
-2.99154e-09
2.13482e-09
2.65694e-09
-3.49394e-09
-2.1493e-09
4.49573e-10
-4.71934e-11
-5.97557e-10
-4.52741e-10
-1.93407e-10
-2.0309e-11
-2.54233e-12
3.48612e-11
2.7136e-11
6.91827e-11
5.42411e-11
8.81932e-11
6.90203e-11
9.9398e-11
6.61038e-11
9.07515e-11
6.26557e-11
9.36945e-11
5.89689e-11
8.59565e-11
5.30747e-11
8.56165e-11
5.2477e-11
8.4435e-11
4.56038e-11
7.66676e-11
3.99036e-11
7.63716e-11
4.09169e-11
7.71222e-11
3.22558e-11
6.58708e-11
2.45994e-11
6.6277e-11
2.27462e-11
6.91417e-11
2.28205e-11
1.04222e-10
-2.95938e-12
-2.68229e-11
-2.15717e-11
5.15353e-11
3.68617e-12
4.18645e-11
-9.28932e-12
4.80815e-11
-1.37072e-11
6.1942e-11
-1.518e-11
1.00642e-10
-2.43075e-11
1.40652e-10
-9.23616e-11
2.97164e-10
3.56809e-10
-2.86268e-09
2.06135e-09
2.57244e-09
-3.42426e-09
-2.21177e-09
4.52193e-10
4.25214e-11
-5.59948e-10
-4.61418e-10
-2.03591e-10
-2.41424e-11
-4.91456e-12
2.97062e-11
2.18798e-11
6.33765e-11
4.99663e-11
8.3489e-11
6.58045e-11
9.56927e-11
6.40217e-11
8.76798e-11
6.10002e-11
9.10557e-11
5.80384e-11
8.36907e-11
5.24423e-11
8.36263e-11
5.23717e-11
8.27198e-11
4.58252e-11
7.49775e-11
4.02316e-11
7.476e-11
4.16071e-11
7.56833e-11
3.3196e-11
6.42986e-11
2.54015e-11
6.47582e-11
2.37436e-11
6.81998e-11
2.38637e-11
1.13795e-10
-4.06572e-14
-4.07011e-11
-2.26453e-11
4.97563e-11
5.35532e-12
4.03624e-11
-8.08015e-12
4.61353e-11
-1.20682e-11
5.92722e-11
-1.19448e-11
9.55932e-11
-1.52976e-11
1.28042e-10
-6.6333e-11
2.59824e-10
3.55668e-10
-2.68956e-09
1.92845e-09
2.43646e-09
-3.279e-09
-2.23496e-09
4.20978e-10
1.13977e-10
-5.18598e-10
-4.66914e-10
-2.1502e-10
-2.95765e-11
-7.69573e-12
2.45415e-11
1.66308e-11
5.74082e-11
4.55911e-11
7.86393e-11
6.25159e-11
9.18257e-11
6.18858e-11
8.45202e-11
5.93249e-11
8.82907e-11
5.70724e-11
8.13465e-11
5.18105e-11
8.15472e-11
5.22554e-11
8.09185e-11
4.60562e-11
7.32345e-11
4.059e-11
7.30791e-11
4.23173e-11
7.4147e-11
3.41942e-11
6.26316e-11
2.63684e-11
6.29435e-11
2.52503e-11
6.60193e-11
2.61161e-11
9.97114e-11
1.65873e-12
-2.85914e-11
-1.96979e-11
4.7914e-11
7.28095e-12
3.87307e-11
-6.37041e-12
4.36451e-11
-9.62549e-12
5.55811e-11
-7.26154e-12
8.87587e-11
-4.04906e-12
1.13318e-10
-3.76039e-11
2.22145e-10
3.47514e-10
-2.48031e-09
1.75091e-09
2.25304e-09
-3.0755e-09
-2.21771e-09
3.63003e-10
1.6614e-10
-4.75015e-10
-4.68782e-10
-2.27237e-10
-3.66334e-11
-1.09655e-11
1.93936e-11
1.14374e-11
5.13213e-11
4.11401e-11
7.36705e-11
5.91714e-11
8.78238e-11
5.97045e-11
8.12908e-11
5.76364e-11
8.54207e-11
5.60723e-11
7.89364e-11
5.11785e-11
7.93937e-11
5.21236e-11
7.90463e-11
4.62909e-11
7.14523e-11
4.09714e-11
7.13447e-11
4.30353e-11
7.25341e-11
3.52234e-11
6.09076e-11
2.74365e-11
6.09628e-11
2.70137e-11
6.32262e-11
2.83818e-11
7.82667e-11
7.01176e-12
-7.40453e-12
-1.46983e-11
4.55399e-11
9.23966e-12
3.6858e-11
-4.23588e-12
4.06453e-11
-6.49266e-12
5.10351e-11
-1.43716e-12
8.06574e-11
8.63931e-12
9.76821e-11
-8.04457e-12
1.86317e-10
3.31836e-10
-2.24367e-09
1.54356e-09
2.02878e-09
-2.83091e-09
-2.16168e-09
2.85803e-10
1.99185e-10
-4.30759e-10
-4.66855e-10
-2.39789e-10
-4.52756e-11
-1.4805e-11
1.42681e-11
6.33569e-12
4.51532e-11
3.66269e-11
6.86035e-11
5.57843e-11
8.37135e-11
5.74854e-11
7.80065e-11
5.59389e-11
8.24652e-11
5.50391e-11
7.64731e-11
5.05447e-11
7.71802e-11
5.19729e-11
7.71176e-11
4.65243e-11
6.96432e-11
4.13683e-11
6.95711e-11
4.37506e-11
7.08643e-11
3.62649e-11
5.91607e-11
2.85478e-11
5.89382e-11
2.87651e-11
6.04287e-11
2.98466e-11
6.38435e-11
1.54359e-11
8.20431e-12
-9.7826e-12
4.25068e-11
1.11018e-11
3.47071e-11
-1.76002e-12
3.72162e-11
-2.81175e-12
4.58728e-11
5.18779e-12
7.18401e-11
2.197e-11
8.22974e-11
2.07422e-11
1.53918e-10
3.09014e-10
-1.98895e-09
1.32005e-09
1.77034e-09
-2.5612e-09
-2.0695e-09
1.97134e-10
2.14118e-10
-3.87429e-10
-4.61248e-10
-2.52249e-10
-5.54107e-11
-1.92884e-11
9.15217e-12
1.35077e-12
3.89359e-11
3.20636e-11
6.34556e-11
5.23639e-11
7.95189e-11
5.52349e-11
7.468e-11
5.42344e-11
7.94423e-11
5.39722e-11
7.39671e-11
4.9906e-11
7.49196e-11
5.18003e-11
7.51465e-11
4.67509e-11
6.78173e-11
4.17738e-11
6.7769e-11
4.44576e-11
6.91507e-11
3.7317e-11
5.73912e-11
2.97054e-11
5.68567e-11
3.05077e-11
5.76033e-11
3.10273e-11
5.4378e-11
2.08668e-11
1.88335e-11
-4.70226e-12
3.94858e-11
1.3016e-11
3.23888e-11
1.02191e-12
3.35027e-11
1.2631e-12
4.03477e-11
1.22578e-11
6.28498e-11
3.52224e-11
6.80724e-11
4.75023e-11
1.257e-10
2.80127e-10
-1.72405e-09
1.09141e-09
1.48521e-09
-2.28116e-09
-1.94534e-09
1.04137e-10
2.12812e-10
-3.46399e-10
-4.52276e-10
-2.64232e-10
-6.68887e-11
-2.44665e-11
4.0273e-12
-3.5008e-12
3.26996e-11
2.74623e-11
5.82429e-11
4.89163e-11
7.52593e-11
5.29579e-11
7.13233e-11
5.25227e-11
7.63678e-11
5.28731e-11
7.14289e-11
4.92587e-11
7.26242e-11
5.16021e-11
7.31459e-11
4.69661e-11
6.59851e-11
4.21804e-11
6.59509e-11
4.51468e-11
6.74109e-11
3.83652e-11
5.56178e-11
3.08823e-11
5.47509e-11
3.2196e-11
5.48262e-11
3.21515e-11
4.77202e-11
2.40848e-11
2.62162e-11
7.40104e-13
3.67631e-11
1.50136e-11
2.99621e-11
4.02355e-12
2.96403e-11
5.55905e-12
3.47118e-11
1.94181e-11
5.41903e-11
4.77852e-11
5.56958e-11
7.13927e-11
1.01934e-10
2.46463e-10
-1.45616e-09
8.67083e-10
1.18096e-09
-2.00391e-09
-1.79452e-09
1.29476e-11
1.9783e-10
-3.08725e-10
-4.40403e-10
-2.75419e-10
-7.95084e-11
-3.03628e-11
-1.12963e-12
-8.21156e-12
2.64709e-11
2.28335e-11
5.29808e-11
4.5444e-11
7.09526e-11
5.06601e-11
6.79477e-11
5.08009e-11
7.32549e-11
5.17426e-11
6.88679e-11
4.85982e-11
7.03052e-11
5.13744e-11
7.11273e-11
4.71656e-11
6.41571e-11
4.25802e-11
6.41308e-11
4.58064e-11
6.56623e-11
3.93932e-11
5.38667e-11
3.20389e-11
5.26764e-11
3.3758e-11
5.22263e-11
3.31842e-11
4.28813e-11
2.61588e-11
3.13127e-11
6.3255e-12
3.43387e-11
1.70344e-11
2.7458e-11
7.13232e-12
2.57559e-11
9.90424e-12
2.92299e-11
2.63531e-11
4.62562e-11
5.91889e-11
4.56468e-11
9.18755e-11
8.24612e-11
2.0911e-10
-1.19126e-09
6.5546e-10
8.655e-10
-1.74169e-09
-1.6235e-09
-7.13071e-11
1.7232e-10
-2.75067e-10
-4.26162e-10
-2.85587e-10
-9.30761e-11
-3.69914e-11
-6.35385e-12
-1.27906e-11
2.02638e-11
1.81797e-11
4.76787e-11
4.19411e-11
6.66087e-11
4.83448e-11
6.45623e-11
4.90628e-11
7.0112e-11
5.05811e-11
6.62916e-11
4.79178e-11
6.79713e-11
5.11117e-11
6.90993e-11
4.73456e-11
6.23427e-11
4.29655e-11
6.23202e-11
4.64259e-11
6.39191e-11
4.03901e-11
5.21578e-11
3.31465e-11
5.06671e-11
3.51616e-11
4.98547e-11
3.40865e-11
3.93426e-11
2.76797e-11
3.46532e-11
1.17726e-11
3.21823e-11
1.90382e-11
2.49361e-11
1.02493e-11
2.19848e-11
1.41472e-11
2.41237e-11
3.28078e-11
3.93693e-11
6.91262e-11
3.82146e-11
1.08707e-10
6.70834e-11
1.68628e-10
-9.34636e-10
4.64477e-10
5.47118e-10
-1.50367e-09
-1.43905e-09
-1.44879e-10
1.3946e-10
-2.4579e-10
-4.10092e-10
-2.94586e-10
-1.07412e-10
-4.43606e-11
-1.16872e-11
-1.72517e-11
1.40831e-11
1.35004e-11
4.23375e-11
3.83997e-11
6.2231e-11
4.60163e-11
6.11728e-11
4.73038e-11
6.69427e-11
4.9391e-11
6.3704e-11
4.72122e-11
6.56263e-11
5.08103e-11
6.70671e-11
4.75046e-11
6.05474e-11
4.33304e-11
6.05267e-11
4.69968e-11
6.21908e-11
4.13509e-11
5.05037e-11
3.41882e-11
4.87343e-11
3.64065e-11
4.77062e-11
3.4865e-11
3.67546e-11
2.89331e-11
3.66222e-11
1.69064e-11
3.02895e-11
2.10106e-11
2.24715e-11
1.32842e-11
1.84392e-11
1.81531e-11
1.95656e-11
3.85848e-11
3.37512e-11
7.74192e-11
3.35506e-11
1.21782e-10
5.5598e-11
1.25488e-10
-6.91087e-10
3.00168e-10
1.6027e-09
6.69039e-10
-8.86114e-10
-1.43049e-09
-1.13617e-09
-7.25436e-10
-3.77263e-10
-1.86432e-10
-3.10774e-11
1.46188e-11
7.91252e-11
7.27853e-11
1.12733e-10
8.95017e-11
1.23298e-10
9.45873e-11
1.23359e-10
8.43054e-11
1.14589e-10
7.79563e-11
1.10639e-10
6.83628e-11
1.02822e-10
6.07788e-11
9.88522e-11
5.53442e-11
9.50113e-11
4.67556e-11
8.90318e-11
4.05731e-11
8.71236e-11
3.75676e-11
8.47043e-11
2.7737e-11
7.74549e-11
2.14451e-11
7.5197e-11
1.72083e-11
7.23864e-11
9.95982e-12
6.68697e-11
6.68206e-12
6.5834e-11
-1.41061e-13
5.80817e-11
-1.03647e-11
4.85405e-11
-1.17843e-11
4.60639e-11
-6.61287e-12
4.56409e-11
1.38637e-11
4.63181e-11
4.43439e-11
2.65714e-11
1.00936e-10
7.48302e-11
3.60284e-10
-1.94743e-09
-4.84571e-10
1.65795e-09
7.06054e-10
-9.00664e-10
-1.4415e-09
-1.13877e-09
-7.2529e-10
-3.77529e-10
-1.86982e-10
-3.19429e-11
1.37947e-11
7.8275e-11
7.21614e-11
1.12093e-10
8.90593e-11
1.22805e-10
9.43163e-11
1.22972e-10
8.40685e-11
1.14239e-10
7.78407e-11
1.10362e-10
6.8272e-11
1.02554e-10
6.07606e-11
9.86181e-11
5.53683e-11
9.47954e-11
4.67963e-11
8.88099e-11
4.06542e-11
8.69153e-11
3.76938e-11
8.44932e-11
2.78525e-11
7.72106e-11
2.16247e-11
7.49616e-11
1.74246e-11
7.21373e-11
1.01889e-11
6.65534e-11
6.91358e-12
6.55175e-11
2.1428e-13
5.77689e-11
-9.96426e-12
4.81735e-11
-1.1253e-11
4.56964e-11
-6.01447e-12
4.52428e-11
1.45785e-11
4.59418e-11
4.49994e-11
2.6024e-11
1.00089e-10
7.99253e-11
3.85537e-10
-1.97917e-09
-5.38337e-10
1.73655e-09
7.07231e-10
-9.26932e-10
-1.44081e-09
-1.13637e-09
-7.23218e-10
-3.76596e-10
-1.871e-10
-3.24396e-11
1.268e-11
7.72933e-11
7.10809e-11
1.11377e-10
8.8178e-11
1.22266e-10
9.36712e-11
1.22677e-10
8.34765e-11
1.13946e-10
7.73861e-11
1.10243e-10
6.78647e-11
1.02442e-10
6.04272e-11
9.85957e-11
5.50841e-11
9.48217e-11
4.65187e-11
8.88251e-11
4.04135e-11
8.69733e-11
3.75108e-11
8.46093e-11
2.76287e-11
7.72565e-11
2.14591e-11
7.50643e-11
1.72919e-11
7.22566e-11
1.00587e-11
6.6566e-11
6.70764e-12
6.55593e-11
1.88762e-13
5.7905e-11
-9.92193e-12
4.82062e-11
-1.10904e-11
4.57933e-11
-5.80932e-12
4.52918e-11
1.48241e-11
4.61561e-11
4.50052e-11
2.65841e-11
9.54884e-11
8.46029e-11
4.24251e-10
-2.03918e-09
-5.69182e-10
1.81648e-09
6.34229e-10
-9.56435e-10
-1.41653e-09
-1.12723e-09
-7.19291e-10
-3.7415e-10
-1.85967e-10
-3.21779e-11
1.17442e-11
7.61527e-11
6.97206e-11
1.10414e-10
8.70541e-11
1.21485e-10
9.28355e-11
1.22254e-10
8.27077e-11
1.13452e-10
7.67863e-11
1.10035e-10
6.73461e-11
1.02208e-10
6.00017e-11
9.8492e-11
5.47464e-11
9.48125e-11
4.61876e-11
8.87722e-11
4.01266e-11
8.69847e-11
3.73114e-11
8.47383e-11
2.7386e-11
7.72397e-11
2.12705e-11
7.51454e-11
1.71649e-11
7.23787e-11
9.94205e-12
6.65287e-11
6.44792e-12
6.55318e-11
1.3876e-13
5.80994e-11
-9.86203e-12
4.82323e-11
-1.09521e-11
4.60063e-11
-5.73854e-12
4.55617e-11
1.46321e-11
4.72418e-11
4.36112e-11
2.95992e-11
8.41906e-11
9.85256e-11
4.54438e-10
-2.11747e-09
-5.36577e-10
1.88336e-09
4.55773e-10
-9.84519e-10
-1.35122e-09
-1.10798e-09
-7.14746e-10
-3.70946e-10
-1.83542e-10
-3.10214e-11
1.11034e-11
7.48561e-11
6.81475e-11
1.09167e-10
8.57112e-11
1.20409e-10
9.18328e-11
1.2164e-10
8.17936e-11
1.12695e-10
7.60575e-11
1.09667e-10
6.67569e-11
1.01773e-10
5.95171e-11
9.82355e-11
5.43931e-11
9.46829e-11
4.58568e-11
8.85619e-11
3.98405e-11
8.68582e-11
3.71672e-11
8.47867e-11
2.72041e-11
7.70554e-11
2.11338e-11
7.51009e-11
1.71266e-11
7.23988e-11
9.94699e-12
6.63492e-11
6.26049e-12
6.52482e-11
1.46171e-13
5.82108e-11
-9.63755e-12
4.81129e-11
-1.07888e-11
4.62297e-11
-5.80004e-12
4.60797e-11
1.38492e-11
4.94376e-11
4.02295e-11
3.6008e-11
6.54551e-11
1.24774e-10
4.66326e-10
-2.20929e-09
-4.12754e-10
1.94243e-09
1.60167e-10
-1.01544e-09
-1.23851e-09
-1.07528e-09
-7.10943e-10
-3.68106e-10
-1.80238e-10
-2.92138e-11
1.06638e-11
7.33325e-11
6.6329e-11
1.07622e-10
8.4152e-11
1.19045e-10
9.06675e-11
1.20837e-10
8.07735e-11
1.1169e-10
7.52172e-11
1.09133e-10
6.6119e-11
1.01144e-10
5.89812e-11
9.78233e-11
5.40393e-11
9.44227e-11
4.5544e-11
8.81807e-11
3.95706e-11
8.65822e-11
3.70878e-11
8.47226e-11
2.71075e-11
7.66801e-11
2.10619e-11
7.49008e-11
1.72016e-11
7.2283e-11
1.01221e-11
6.6003e-11
6.16987e-12
6.46197e-11
2.02008e-13
5.8183e-11
-9.22935e-12
4.78477e-11
-1.06092e-11
4.64773e-11
-6.07575e-12
4.69519e-11
1.22013e-11
5.30742e-11
3.43661e-11
4.66499e-11
3.90533e-11
1.63687e-10
4.58832e-10
-2.31935e-09
-1.89006e-10
2.00543e-09
-2.47157e-10
-1.059e-09
-1.07842e-09
-1.02601e-09
-7.08383e-10
-3.66643e-10
-1.76515e-10
-2.69464e-11
1.02727e-11
7.14688e-11
6.41816e-11
1.0572e-10
8.23552e-11
1.17384e-10
8.93299e-11
1.1984e-10
7.96699e-11
1.10459e-10
7.42833e-11
1.08442e-10
6.54656e-11
1.00338e-10
5.84173e-11
9.72645e-11
5.37107e-11
9.40276e-11
4.5277e-11
8.76339e-11
3.93405e-11
8.6152e-11
3.70927e-11
8.45347e-11
2.71259e-11
7.61152e-11
2.10799e-11
7.45292e-11
1.74186e-11
7.20159e-11
1.04977e-11
6.5506e-11
6.18995e-12
6.3576e-11
2.94336e-13
5.80197e-11
-8.62887e-12
4.7458e-11
-1.04695e-11
4.67803e-11
-6.6643e-12
4.82989e-11
9.53299e-12
5.83312e-11
2.58061e-11
6.15251e-11
6.38657e-12
2.12225e-10
4.36027e-10
-2.44894e-09
1.26216e-10
2.08153e-09
-7.40857e-10
-1.123e-09
-8.7821e-10
-9.58225e-10
-7.06899e-10
-3.67323e-10
-1.72779e-10
-2.44021e-11
9.80132e-12
6.91693e-11
6.16058e-11
1.03372e-10
8.0277e-11
1.15382e-10
8.77914e-11
1.18607e-10
7.84819e-11
1.09011e-10
7.32607e-11
1.07581e-10
6.48116e-11
9.9365e-11
5.78448e-11
9.65617e-11
5.34252e-11
9.35003e-11
4.50796e-11
8.69312e-11
3.9173e-11
8.55711e-11
3.72014e-11
8.42066e-11
2.72825e-11
7.53652e-11
2.11985e-11
7.39856e-11
1.77883e-11
7.16015e-11
1.10898e-11
6.49114e-11
6.31104e-12
6.20925e-11
3.92109e-13
5.7724e-11
-7.8591e-12
4.69854e-11
-1.04182e-11
4.71833e-11
-7.63617e-12
5.01614e-11
5.80876e-12
6.50881e-11
1.49874e-11
7.96674e-11
-2.95146e-11
2.64002e-10
4.05674e-10
-2.59286e-09
5.03627e-10
2.17614e-09
-1.28228e-09
-1.2125e-09
-6.51321e-10
-8.71646e-10
-7.05552e-10
-3.70719e-10
-1.69475e-10
-2.17503e-11
9.17039e-12
6.63459e-11
5.85621e-11
1.00537e-10
7.7876e-11
1.13009e-10
8.60179e-11
1.17091e-10
7.71936e-11
1.07336e-10
7.21462e-11
1.06524e-10
6.41536e-11
9.82232e-11
5.72719e-11
9.57114e-11
5.31866e-11
9.28343e-11
4.49657e-11
8.60787e-11
3.90834e-11
8.48464e-11
3.7422e-11
8.37345e-11
2.75878e-11
7.44508e-11
2.14284e-11
7.3276e-11
1.83131e-11
7.10637e-11
1.18907e-11
6.42795e-11
6.51776e-12
6.01424e-11
5.07194e-13
5.73229e-11
-6.95812e-12
4.64766e-11
-1.04827e-11
4.76945e-11
-8.95874e-12
5.24905e-11
1.23054e-12
7.29072e-11
2.81478e-12
9.92559e-11
-6.48386e-11
3.11892e-10
3.76059e-10
-2.74144e-09
9.02433e-10
2.28713e-09
-1.82897e-09
-1.32819e-09
-4.14556e-10
-7.68026e-10
-7.03041e-10
-3.77054e-10
-1.67047e-10
-1.91431e-11
8.35134e-12
6.30147e-11
5.50546e-11
9.72054e-11
7.51475e-11
1.10258e-10
8.40085e-11
1.15264e-10
7.5788e-11
1.05436e-10
7.0934e-11
1.05253e-10
6.34816e-11
9.69118e-11
5.66946e-11
9.47051e-11
5.29994e-11
9.20202e-11
4.49263e-11
8.50829e-11
3.90703e-11
8.3982e-11
3.77539e-11
8.31149e-11
2.80403e-11
7.33888e-11
2.17712e-11
7.24109e-11
1.89869e-11
7.04005e-11
1.28959e-11
6.36778e-11
6.76864e-12
5.77081e-11
6.28384e-13
5.684e-11
-5.95867e-12
4.5969e-11
-1.06551e-11
4.82872e-11
-1.05397e-11
5.5123e-11
-3.8028e-12
8.10867e-11
-9.38992e-12
1.18126e-10
-9.57089e-11
3.49912e-10
3.53011e-10
-2.8807e-09
1.28513e-09
2.4056e-09
-2.3366e-09
-1.46636e-09
-1.85558e-10
-6.50862e-10
-6.9787e-10
-3.86195e-10
-1.65924e-10
-1.67987e-11
7.34932e-12
5.92117e-11
5.11143e-11
9.33931e-11
7.21074e-11
1.07145e-10
8.17623e-11
1.1312e-10
7.4264e-11
1.03313e-10
6.96264e-11
1.0376e-10
6.27847e-11
9.54301e-11
5.61098e-11
9.35369e-11
5.28497e-11
9.10534e-11
4.49563e-11
8.39507e-11
3.91349e-11
8.29802e-11
3.8189e-11
8.23455e-11
2.86237e-11
7.21998e-11
2.22253e-11
7.14017e-11
1.97949e-11
6.96326e-11
1.40842e-11
6.31677e-11
7.01927e-12
5.48161e-11
7.46121e-13
5.62886e-11
-4.8738e-12
4.54529e-11
-1.0887e-11
4.88646e-11
-1.22165e-11
5.77647e-11
-8.79194e-12
8.88047e-11
-2.02873e-11
1.34199e-10
-1.19039e-10
3.74169e-10
3.39348e-10
-2.99478e-09
1.61809e-09
2.51851e-09
-2.77263e-09
-1.61863e-09
2.07405e-11
-5.24998e-10
-6.88611e-10
-3.97656e-10
-1.66488e-10
-1.49201e-11
6.17144e-12
5.49995e-11
4.67903e-11
8.91326e-11
6.87822e-11
1.03684e-10
7.92983e-11
1.10661e-10
7.26225e-11
1.00979e-10
6.82328e-11
1.02042e-10
6.20531e-11
9.37829e-11
5.55147e-11
9.22048e-11
5.2731e-11
8.99332e-11
4.50447e-11
8.26912e-11
3.92694e-11
8.18462e-11
3.87113e-11
8.1437e-11
2.93203e-11
7.08959e-11
2.27756e-11
7.02537e-11
2.07125e-11
6.87716e-11
1.54117e-11
6.28104e-11
7.25745e-12
5.14955e-11
8.89962e-13
5.56741e-11
-3.71352e-12
4.48953e-11
-1.10851e-11
4.93412e-11
-1.37846e-11
6.00807e-11
-1.3191e-11
9.52734e-11
-2.86523e-11
1.45855e-10
-1.32853e-10
3.83148e-10
3.35291e-10
-3.0705e-09
1.87715e-09
2.61159e-09
-3.11325e-09
-1.77387e-09
1.92602e-10
-3.96059e-10
-6.74108e-10
-4.10615e-10
-1.69009e-10
-1.3758e-11
4.82127e-12
5.04559e-11
4.21467e-11
8.44673e-11
6.52002e-11
9.99071e-11
7.66316e-11
1.07904e-10
7.08725e-11
9.84531e-11
6.67651e-11
1.00104e-10
6.12831e-11
9.19805e-11
5.49105e-11
9.07162e-11
5.26323e-11
8.86674e-11
4.51798e-11
8.13143e-11
3.94634e-11
8.05867e-11
3.93047e-11
8.03934e-11
3.01108e-11
6.94959e-11
2.34105e-11
6.8982e-11
2.17192e-11
6.78157e-11
1.68377e-11
6.26275e-11
7.48823e-12
4.78116e-11
1.09031e-12
5.49709e-11
-2.47403e-12
4.42538e-11
-1.11612e-11
4.95388e-11
-1.50017e-11
6.17552e-11
-1.65005e-11
9.98218e-11
-3.36541e-11
1.52131e-10
-1.36456e-10
3.77309e-10
3.38535e-10
-3.09804e-09
2.04983e-09
2.67235e-09
-3.34611e-09
-1.92083e-09
3.22836e-10
-2.69758e-10
-6.53603e-10
-4.24052e-10
-1.73614e-10
-1.35405e-11
3.28776e-12
4.56595e-11
3.72543e-11
7.94465e-11
6.14064e-11
9.58519e-11
7.37952e-11
1.0487e-10
6.90266e-11
9.57603e-11
6.52352e-11
9.7959e-11
6.04737e-11
9.00372e-11
5.43005e-11
8.90793e-11
5.25449e-11
8.72659e-11
4.53498e-11
7.98313e-11
3.97084e-11
7.92143e-11
3.99524e-11
7.92236e-11
3.0973e-11
6.8019e-11
2.41211e-11
6.75987e-11
2.27961e-11
6.676e-11
1.83203e-11
6.25938e-11
7.76585e-12
4.38916e-11
1.38728e-12
5.41429e-11
-1.13735e-12
4.34801e-11
-1.10203e-11
4.93368e-11
-1.56609e-11
6.25279e-11
-1.83254e-11
1.02018e-10
-3.48743e-11
1.52762e-10
-1.30278e-10
3.58873e-10
3.45532e-10
-3.07271e-09
2.13368e-09
2.69033e-09
-3.47037e-09
-2.04827e-09
4.08675e-10
-1.51441e-10
-6.26886e-10
-4.36904e-10
-1.80285e-10
-1.44926e-11
1.53809e-12
4.06888e-11
3.21832e-11
7.41213e-11
5.74325e-11
9.15552e-11
7.08163e-11
1.01585e-10
6.7096e-11
9.29213e-11
6.3656e-11
9.56252e-11
5.96239e-11
8.79681e-11
5.36861e-11
8.73069e-11
5.24615e-11
8.5739e-11
4.55451e-11
7.82573e-11
3.99965e-11
7.7743e-11
4.0639e-11
7.79397e-11
3.189e-11
6.64805e-11
2.48974e-11
6.61166e-11
2.3927e-11
6.5589e-11
1.98115e-11
6.25765e-11
8.20893e-12
4.00007e-11
1.83166e-12
5.31416e-11
3.12105e-13
4.25214e-11
-1.05604e-11
4.86329e-11
-1.56089e-11
6.22186e-11
-1.8459e-11
1.01684e-10
-3.2293e-11
1.48086e-10
-1.15613e-10
3.30745e-10
3.52675e-10
-2.99408e-09
2.13391e-09