/*--------------------------------*- C++ -*----------------------------------*\
| =========                 |                                                 |
| \\      /  F ield         | OpenFOAM: The Open Source CFD Toolbox           |
|  \\    /   O peration     | Version:  2312                                  |
|   \\  /    A nd           | Website:  www.openfoam.com                      |
|    \\/     M anipulation  |                                                 |
\*---------------------------------------------------------------------------*/
FoamFile
{
    version     2.0;
    format      ascii;
    arch        "LSB;label=32;scalar=64";
    class       volScalarField;
    location    "240";
    object      pPrime2Mean;
}
// * * * * * * * * * * * * * * * * * * * * * * * * * * * * * * * * * * * * * //

dimensions      [0 4 -4 0 0 0 0];

internalField   nonuniform List<scalar> 
144000
(
9.6909e-18
1.27638e-17
1.16776e-17
9.16091e-18
6.6557e-18
4.87095e-18
3.69984e-18
2.75545e-18
2.04895e-18
1.68255e-18
1.56609e-18
1.41551e-18
1.203e-18
9.63513e-19
8.0168e-19
6.75237e-19
6.17116e-19
5.30623e-19
4.91396e-19
4.38242e-19
3.9316e-19
3.26306e-19
3.28769e-19
2.48744e-19
2.61479e-19
2.06602e-19
2.07618e-19
1.69457e-19
1.66449e-19
1.31684e-19
1.37574e-19
1.01275e-19
1.14761e-19
8.37539e-20
8.80767e-20
8.79024e-20
4.74154e-20
9.81807e-20
3.36889e-20
6.34486e-20
8.04453e-20
9.14653e-21
1.2406e-19
3.02104e-20
9.04556e-20
1.36926e-19
5.36626e-20
1.87565e-19
1.4635e-19
1.56558e-19
2.83012e-19
2.48665e-19
3.62834e-19
5.24073e-19
6.52788e-19
9.65658e-19
1.54977e-18
2.62987e-18
5.70882e-18
6.99079e-18
1.01596e-17
1.3049e-17
1.19869e-17
9.38968e-18
6.76451e-18
4.93486e-18
3.74164e-18
2.7822e-18
2.06384e-18
1.69149e-18
1.5736e-18
1.42213e-18
1.20782e-18
9.66683e-19
8.03851e-19
6.76932e-19
6.18712e-19
5.31922e-19
4.92307e-19
4.39415e-19
3.94115e-19
3.26688e-19
3.29566e-19
2.49383e-19
2.61784e-19
2.07275e-19
2.0793e-19
1.69965e-19
1.6682e-19
1.31998e-19
1.38046e-19
1.01496e-19
1.15216e-19
8.41871e-20
8.82037e-20
8.90307e-20
4.70936e-20
9.95072e-20
3.42963e-20
6.34389e-20
8.29278e-20
8.46016e-21
1.26547e-19
3.1924e-20
9.09027e-20
1.41813e-19
5.46837e-20
1.92109e-19
1.52425e-19
1.60705e-19
2.92973e-19
2.59178e-19
3.76053e-19
5.46076e-19
6.80928e-19
1.00736e-18
1.61881e-18
2.72127e-18
5.9809e-18
7.15153e-18
1.04516e-17
1.32875e-17
1.20842e-17
9.4635e-18
6.79013e-18
4.95466e-18
3.7621e-18
2.79866e-18
2.07388e-18
1.69787e-18
1.58037e-18
1.42858e-18
1.21268e-18
9.69647e-19
8.05982e-19
6.78552e-19
6.20696e-19
5.3329e-19
4.93377e-19
4.40825e-19
3.95356e-19
3.2693e-19
3.30868e-19
2.49897e-19
2.62501e-19
2.07968e-19
2.08557e-19
1.7055e-19
1.6752e-19
1.32338e-19
1.38941e-19
1.01723e-19
1.16095e-19
8.48041e-20
8.85567e-20
9.08163e-20
4.66749e-20
1.01789e-19
3.51854e-20
6.38147e-20
8.67739e-20
7.67377e-21
1.30747e-19
3.45445e-20
9.23155e-20
1.49267e-19
5.68674e-20
1.99547e-19
1.61939e-19
1.67785e-19
3.08382e-19
2.75382e-19
3.95911e-19
5.77336e-19
7.18983e-19
1.05842e-18
1.69442e-18
2.8135e-18
6.21139e-18
7.32201e-18
1.02912e-17
1.31629e-17
1.18211e-17
9.24449e-18
6.66873e-18
4.88566e-18
3.7292e-18
2.78333e-18
2.06478e-18
1.69229e-18
1.5788e-18
1.42897e-18
1.21311e-18
9.69628e-19
8.05957e-19
6.78598e-19
6.21577e-19
5.33727e-19
4.9358e-19
4.41696e-19
3.96209e-19
3.26719e-19
3.31916e-19
2.50219e-19
2.63044e-19
2.08614e-19
2.09144e-19
1.71139e-19
1.68212e-19
1.32692e-19
1.3992e-19
1.01946e-19
1.17114e-19
8.55063e-20
8.8948e-20
9.29385e-20
4.61759e-20
1.04532e-19
3.62801e-20
6.43054e-20
9.13557e-20
6.87303e-21
1.35653e-19
3.78318e-20
9.39731e-20
1.57998e-19
5.96477e-20
2.08021e-19
1.73113e-19
1.75849e-19
3.25453e-19
2.93503e-19
4.16482e-19
6.09426e-19
7.54953e-19
1.10136e-18
1.74584e-18
2.82836e-18
6.29129e-18
7.29014e-18
9.72817e-18
1.28296e-17
1.12545e-17
8.7578e-18
6.41302e-18
4.72511e-18
3.63642e-18
2.72916e-18
2.03041e-18
1.66899e-18
1.5632e-18
1.41821e-18
1.20552e-18
9.64209e-19
8.02054e-19
6.75711e-19
6.20048e-19
5.32234e-19
4.9207e-19
4.41134e-19
3.95976e-19
3.2568e-19
3.32098e-19
2.50042e-19
2.6312e-19
2.08909e-19
2.09463e-19
1.71526e-19
1.68695e-19
1.32915e-19
1.40787e-19
1.02077e-19
1.18069e-19
8.61628e-20
8.9238e-20
9.50809e-20
4.56205e-20
1.07237e-19
3.74564e-20
6.47272e-20
9.59728e-20
6.16331e-21
1.40317e-19
4.13677e-20
9.54127e-20
1.6656e-19
6.25645e-20
2.15752e-19
1.84072e-19
1.83288e-19
3.40867e-19
3.10229e-19
4.33351e-19
6.35447e-19
7.81664e-19
1.12698e-18
1.76914e-18
2.7718e-18
6.27519e-18
7.14479e-18
9.0564e-18
1.26648e-17
1.05626e-17
8.13739e-18
6.08155e-18
4.5058e-18
3.49577e-18
2.6411e-18
1.97293e-18
1.62828e-18
1.53263e-18
1.39502e-18
1.18863e-18
9.52294e-19
7.93487e-19
6.6923e-19
6.15484e-19
5.28285e-19
4.8839e-19
4.386e-19
3.94178e-19
3.23534e-19
3.31045e-19
2.49066e-19
2.62527e-19
2.08626e-19
2.09352e-19
1.71563e-19
1.6882e-19
1.32903e-19
1.41378e-19
1.02024e-19
1.18791e-19
8.66642e-20
8.93147e-20
9.69985e-20
4.50117e-20
1.0963e-19
3.85752e-20
6.50141e-20
1.00124e-19
5.59372e-21
1.44223e-19
4.47211e-20
9.64746e-20
1.73846e-19
6.52754e-20
2.2193e-19
1.93387e-19
1.89474e-19
3.52815e-19
3.23873e-19
4.45389e-19
6.53896e-19
7.98067e-19
1.13823e-18
1.76969e-18
2.67371e-18
6.27303e-18
7.05633e-18
8.39511e-18
1.28353e-17
9.84337e-18
7.47181e-18
5.70256e-18
4.24407e-18
3.31745e-18
2.52576e-18
1.89631e-18
1.5729e-18
1.48881e-18
1.36025e-18
1.16283e-18
9.34085e-19
7.80362e-19
6.59251e-19
6.0787e-19
5.21826e-19
4.82543e-19
4.33977e-19
3.90699e-19
3.20183e-19
3.28602e-19
2.47108e-19
2.6113e-19
2.07671e-19
2.08656e-19
1.71186e-19
1.68487e-19
1.32594e-19
1.41591e-19
1.0175e-19
1.19169e-19
8.69537e-20
8.91227e-20
9.85525e-20
4.43536e-20
1.11528e-19
3.9537e-20
6.51823e-20
1.03574e-19
5.15809e-21
1.47259e-19
4.76021e-20
9.72199e-20
1.79557e-19
6.75281e-20
2.26556e-19
2.00524e-19
1.94384e-19
3.61303e-19
3.33969e-19
4.53041e-19
6.65117e-19
8.04892e-19
1.13852e-18
1.75079e-18
2.55048e-18
6.32164e-18
7.11228e-18
7.77885e-18
1.33194e-17
9.13433e-18
6.80872e-18
5.2856e-18
3.94927e-18
3.10905e-18
2.38837e-18
1.80455e-18
1.50587e-18
1.43421e-18
1.31601e-18
1.12955e-18
9.10388e-19
7.63209e-19
6.4613e-19
5.97517e-19
5.13154e-19
4.7481e-19
4.27487e-19
3.85699e-19
3.15699e-19
3.24852e-19
2.44189e-19
2.5888e-19
2.06065e-19
2.07326e-19
1.70397e-19
1.67677e-19
1.31988e-19
1.41396e-19
1.01266e-19
1.19164e-19
8.7037e-20
8.86487e-20
9.9714e-20
4.3661e-20
1.12942e-19
4.03383e-20
6.5235e-20
1.06399e-19
4.80412e-21
1.49545e-19
4.99952e-20
9.77242e-20
1.83918e-19
6.92217e-20
2.30144e-19
2.05651e-19
1.98182e-19
3.67138e-19
3.40895e-19
4.5707e-19
6.7048e-19
8.03036e-19
1.13044e-18
1.71428e-18
2.41132e-18
6.41648e-18
7.28348e-18
7.21519e-18
1.39421e-17
8.45241e-18
6.17991e-18
4.8413e-18
3.63216e-18
2.87919e-18
2.23532e-18
1.70246e-18
1.43065e-18
1.37195e-18
1.26473e-18
1.09063e-18
8.82443e-19
7.42816e-19
6.30423e-19
5.84885e-19
5.02662e-19
4.65571e-19
4.19513e-19
3.79493e-19
3.10279e-19
3.2002e-19
2.40462e-19
2.55792e-19
2.03892e-19
2.05369e-19
1.69238e-19
1.66414e-19
1.31134e-19
1.40822e-19
1.00615e-19
1.18794e-19
8.69655e-20
8.79029e-20
1.00549e-19
4.29516e-20
1.13914e-19
4.10714e-20
6.5129e-20
1.08831e-19
4.44771e-21
1.51304e-19
5.20741e-20
9.78751e-20
1.87453e-19
7.02208e-20
2.32878e-19
2.09201e-19
2.00648e-19
3.70829e-19
3.44623e-19
4.57307e-19
6.70477e-19
7.92556e-19
1.11351e-18
1.66044e-18
2.26233e-18
6.52033e-18
7.45541e-18
6.69913e-18
1.44724e-17
7.81269e-18
5.59442e-18
4.38666e-18
3.30443e-18
2.63797e-18
2.0735e-18
1.59474e-18
1.35082e-18
1.3049e-18
1.20885e-18
1.04802e-18
8.51623e-19
7.2016e-19
6.12839e-19
5.70527e-19
4.90761e-19
4.55197e-19
4.10449e-19
3.7249e-19
3.04176e-19
3.14406e-19
2.36179e-19
2.51944e-19
2.01306e-19
2.02842e-19
1.67763e-19
1.64747e-19
1.30095e-19
1.39918e-19
9.98511e-20
1.18091e-19
8.68088e-20
8.68864e-20
1.01119e-19
4.22417e-20
1.14432e-19
4.18768e-20
6.4718e-20
1.11112e-19
4.00868e-21
1.52484e-19
5.40828e-20
9.731e-20
1.90429e-19
7.03488e-20
2.34397e-19
2.11357e-19
2.01012e-19
3.71943e-19
3.44773e-19
4.52603e-19
6.64134e-19
7.71751e-19
1.0849e-18
1.58393e-18
2.10232e-18
6.58169e-18
7.46284e-18
6.20742e-18
1.4646e-17
7.22382e-18
5.04105e-18
3.94067e-18
2.97884e-18
2.39554e-18
1.90954e-18
1.48602e-18
1.26972e-18
1.23579e-18
1.15072e-18
1.00348e-18
8.19247e-19
6.96237e-19
5.94142e-19
5.55024e-19
4.77934e-19
4.43986e-19
4.0062e-19
3.6505e-19
2.97647e-19
3.08271e-19
2.31631e-19
2.4747e-19
1.98427e-19
1.99834e-19
1.66003e-19
1.62738e-19
1.28928e-19
1.38722e-19
9.90216e-20
1.17079e-19
8.6614e-20
8.55982e-20
1.01463e-19
4.15449e-20
1.14415e-19
4.28727e-20
6.38209e-20
1.13326e-19
3.43867e-21
1.52831e-19
5.61551e-20
9.56298e-20
1.92669e-19
6.94225e-20
2.33976e-19
2.11916e-19
1.98485e-19
3.69685e-19
3.40546e-19
4.41449e-19
6.50105e-19
7.39665e-19
1.04219e-18
1.48485e-18
1.93001e-18
6.53452e-18
7.19806e-18
5.72015e-18
1.4335e-17
6.68567e-18
4.51074e-18
3.5185e-18
2.66609e-18
2.1605e-18
1.74888e-18
1.37989e-18
1.19009e-18
1.16692e-18
1.0922e-18
9.58456e-19
7.86414e-19
6.71863e-19
5.74977e-19
5.38917e-19
4.64582e-19
4.32243e-19
3.90299e-19
3.5741e-19
2.90925e-19
3.01812e-19
2.27071e-19
2.42531e-19
1.95384e-19
1.96456e-19
1.63993e-19
1.60439e-19
1.27667e-19
1.3725e-19
9.81639e-20
1.15789e-19
8.64041e-20
8.40302e-20
1.01565e-19
4.08815e-20
1.13746e-19
4.40808e-20
6.23002e-20
1.15408e-19
2.74192e-21
1.52087e-19
5.82664e-20
9.25156e-20
1.93873e-19
6.73763e-20
2.31102e-19
2.10684e-19
1.92722e-19
3.63534e-19
3.31729e-19
4.23699e-19
6.28191e-19
6.97082e-19
9.85359e-19
1.36776e-18
1.74813e-18
6.34588e-18
6.6408e-18
5.2207e-18
1.35316e-17
6.18502e-18
3.9969e-18
3.12965e-18
2.37393e-18
1.9397e-18
1.59546e-18
1.27881e-18
1.1139e-18
1.10006e-18
1.03483e-18
9.14146e-19
7.5392e-19
6.47668e-19
5.55886e-19
5.22683e-19
4.51094e-19
4.20275e-19
3.79724e-19
3.49724e-19
2.84198e-19
2.95177e-19
2.22683e-19
2.37323e-19
1.92282e-19
1.92846e-19
1.61776e-19
1.57909e-19
1.2633e-19
1.35514e-19
9.73081e-20
1.14238e-19
8.61752e-20
8.22166e-20
1.01385e-19
4.02732e-20
1.12354e-19
4.54576e-20
6.01911e-20
1.17364e-19
1.96973e-21
1.50183e-19
6.03296e-20
8.80396e-20
1.93832e-19
6.43259e-20
2.25675e-19
2.07673e-19
1.83844e-19
3.53661e-19
3.18862e-19
4.00173e-19
5.99578e-19
6.46674e-19
9.17417e-19
1.24027e-18
1.5619e-18
6.01299e-18
5.84999e-18
4.70801e-18
1.23355e-17
5.70809e-18
3.50116e-18
2.77853e-18
2.10712e-18
1.73717e-18
1.45194e-18
1.18427e-18
1.04247e-18
1.03643e-18
9.79726e-19
8.71357e-19
7.22442e-19
6.24139e-19
5.37302e-19
5.06693e-19
4.37822e-19
4.08364e-19
3.69107e-19
3.42084e-19
2.77612e-19
2.88469e-19
2.18569e-19
2.32001e-19
1.89207e-19
1.89126e-19
1.5941e-19
1.55207e-19
1.24936e-19
1.33534e-19
9.64766e-20
1.12458e-19
8.59172e-20
8.02205e-20
1.00903e-19
3.97431e-20
1.10277e-19
4.69319e-20
5.75944e-20
1.19341e-19
1.20636e-21
1.47384e-19
6.22991e-20
8.24535e-20
1.92533e-19
6.05553e-20
2.18014e-19
2.03237e-19
1.72541e-19
3.40812e-19
3.03057e-19
3.72598e-19
5.66291e-19
5.92068e-19
8.42767e-19
1.1118e-18
1.37858e-18
5.56651e-18
4.94072e-18
4.19027e-18
1.08996e-17
5.24343e-18
3.03191e-18
2.46529e-18
1.86786e-18
1.55476e-18
1.31984e-18
1.09696e-18
9.76426e-19
9.76819e-19
9.27576e-19
8.30613e-19
6.92394e-19
6.01534e-19
5.19486e-19
4.91215e-19
4.24991e-19
3.96727e-19
3.58645e-19
3.34558e-19
2.71273e-19
2.81769e-19
2.14765e-19
2.26689e-19
1.8622e-19
1.85393e-19
1.56966e-19
1.52403e-19
1.23513e-19
1.3135e-19
9.56884e-20
1.10501e-19
8.56246e-20
7.81296e-20
1.00139e-19
3.93226e-20
1.07618e-19
4.8465e-20
5.45983e-20
1.21832e-19
5.6852e-22
1.444e-19
6.42047e-20
7.60954e-20
1.90157e-19
5.64321e-20
2.08575e-19
1.97874e-19
1.59674e-19
3.25936e-19
2.85625e-19
3.42857e-19
5.30578e-19
5.36846e-19
7.65859e-19
9.89612e-19
1.20461e-18
5.04621e-18
4.02822e-18
3.68295e-18
9.3864e-18
4.78583e-18
2.60021e-18
2.1874e-18
1.65638e-18
1.39283e-18
1.19975e-18
1.01693e-18
9.15924e-19
9.21533e-19
8.7875e-19
7.92229e-19
6.63958e-19
5.79999e-19
5.02591e-19
4.76413e-19
4.12741e-19
3.85518e-19
3.48502e-19
3.27195e-19
2.65255e-19
2.75146e-19
2.11268e-19
2.21475e-19
1.83359e-19
1.81726e-19
1.54521e-19
1.49561e-19
1.22094e-19
1.2902e-19
9.49514e-20
1.08433e-19
8.52976e-20
7.60343e-20
9.91331e-20
3.90415e-20
1.04523e-19
5.0019e-20
5.12998e-20
1.2562e-19
1.56924e-22
1.42425e-19
6.61153e-20
6.9318e-20
1.86967e-19
5.23059e-20
1.97966e-19
1.92085e-19
1.46072e-19
3.09967e-19
2.67742e-19
3.12613e-19
4.94334e-19
4.83831e-19
6.90321e-19
8.7812e-19
1.04419e-18
4.49767e-18
3.2089e-18
3.20222e-18
7.91951e-18
4.33202e-18
2.21389e-18
1.94081e-18
1.47136e-18
1.25049e-18
1.09153e-18
9.43865e-19
8.60747e-19
8.70586e-19
8.3338e-19
7.56295e-19
6.37215e-19
5.59599e-19
4.86694e-19
4.62372e-19
4.01145e-19
3.74825e-19
3.38798e-19
3.20033e-19
2.59604e-19
2.68651e-19
2.08055e-19
2.16413e-19
1.80643e-19
1.78184e-19
1.52133e-19
1.46736e-19
1.2071e-19
1.26609e-19
9.42716e-20
1.06317e-19
8.49491e-20
7.39936e-20
9.79617e-20
3.887e-20
1.01215e-19
5.14101e-20
4.80741e-20
1.27545e-19
1.75105e-27
1.39303e-19
6.77225e-20
6.2471e-20
1.83192e-19
4.84509e-20
1.86699e-19
1.86265e-19
1.3241e-19
2.93668e-19
2.50301e-19
2.83089e-19
4.59053e-19
4.34681e-19
6.18446e-19
7.79342e-19
8.9961e-19
3.95508e-18
2.5292e-18
2.76349e-18
6.58207e-18
3.88369e-18
1.87672e-18
1.72125e-18
1.31063e-18
1.12624e-18
9.94648e-19
8.77243e-19
8.10499e-19
8.23818e-19
7.91426e-19
7.22801e-19
6.1215e-19
5.40334e-19
4.71798e-19
4.49118e-19
3.90229e-19
3.64691e-19
3.29611e-19
3.13098e-19
2.54341e-19
2.62352e-19
2.05098e-19
2.11551e-19
1.78079e-19
1.74797e-19
1.49845e-19
1.43974e-19
1.19388e-19
1.24175e-19
9.36517e-20
1.04206e-19
8.45971e-20
7.20435e-20
9.67052e-20
3.87665e-20
9.78887e-20
5.24743e-20
4.52272e-20
1.23168e-19
1.40995e-22
1.31146e-19
6.8755e-20
5.58235e-20
1.79048e-19
4.50575e-20
1.75172e-19
1.80682e-19
1.1918e-19
2.77545e-19
2.33888e-19
2.55081e-19
4.25597e-19
3.90358e-19
5.5155e-19
6.93237e-19
7.72084e-19
3.44308e-18
2.00286e-18
2.37617e-18
5.41447e-18
3.44535e-18
1.58865e-18
1.52482e-18
1.17157e-18
1.01832e-18
9.08418e-19
8.16511e-19
7.64701e-19
7.80954e-19
7.52741e-19
6.91654e-19
5.88723e-19
5.22159e-19
4.57868e-19
4.3664e-19
3.79976e-19
3.55119e-19
3.20982e-19
3.06405e-19
2.49466e-19
2.56279e-19
2.02369e-19
2.06902e-19
1.75667e-19
1.71584e-19
1.47683e-19
1.41308e-19
1.18144e-19
1.21772e-19
9.30889e-20
1.0215e-19
8.42507e-20
7.0224e-20
9.54045e-20
3.87647e-20
9.45879e-20
5.33667e-20
4.2602e-20
1.17432e-19
5.7506e-22
1.22197e-19
6.96636e-20
4.95023e-20
1.74697e-19
4.22334e-20
1.63683e-19
1.75491e-19
1.06709e-19
2.61952e-19
2.18828e-19
2.29037e-19
3.94412e-19
3.5112e-19
4.90189e-19
6.18869e-19
6.61725e-19
2.97454e-18
1.61902e-18
2.04517e-18
4.42451e-18
3.02317e-18
1.34544e-18
1.34832e-18
1.05145e-18
9.24859e-19
8.32013e-19
7.61118e-19
7.22844e-19
7.4166e-19
7.1712e-19
6.62716e-19
5.66823e-19
5.05004e-19
4.44854e-19
4.24912e-19
3.70354e-19
3.46088e-19
3.12919e-19
2.99962e-19
2.44965e-19
2.50459e-19
1.99842e-19
2.02473e-19
1.73401e-19
1.6855e-19
1.45661e-19
1.38764e-19
1.16987e-19
1.19439e-19
9.25803e-20
1.00182e-19
8.39171e-20
6.8559e-20
9.40934e-20
3.88912e-20
9.13404e-20
5.42499e-20
4.00731e-20
1.13366e-19
1.41236e-21
1.15123e-19
7.07322e-20
4.3598e-20
1.7024e-19
4.0039e-20
1.52436e-19
1.70766e-19
9.5191e-20
2.47025e-19
2.05263e-19
2.05135e-19
3.65656e-19
3.16788e-19
4.34334e-19
5.54797e-19
5.67823e-19
2.5543e-18
1.35242e-18
1.76946e-18
3.59764e-18
2.6224e-18
1.14104e-18
1.1892e-18
9.47495e-19
8.44081e-19
7.6454e-19
7.10554e-19
6.84435e-19
7.05576e-19
6.84328e-19
6.35826e-19
5.46327e-19
4.88792e-19
4.32691e-19
4.13899e-19
3.61322e-19
3.37566e-19
3.05408e-19
2.93771e-19
2.40811e-19
2.44907e-19
1.97495e-19
1.98264e-19
1.71275e-19
1.65697e-19
1.43785e-19
1.36354e-19
1.15921e-19
1.17199e-19
9.2124e-20
9.8325e-20
8.36068e-20
6.70482e-20
9.28092e-20
3.91203e-20
8.82215e-20
5.51143e-20
3.77361e-20
1.10329e-19
2.53293e-21
1.09024e-19
7.19072e-20
3.82119e-20
1.65746e-19
3.84676e-20
1.41575e-19
1.66511e-19
8.47232e-20
2.32867e-19
1.93219e-19
1.83392e-19
3.39324e-19
2.86918e-19
3.83887e-19
4.99499e-19
4.89167e-19
2.18027e-18
1.17373e-18
1.54648e-18
2.9129e-18
2.24744e-18
9.68683e-19
1.04548e-18
8.57272e-19
7.74316e-19
7.05135e-19
6.64377e-19
6.49034e-19
6.72355e-19
6.5413e-19
6.10822e-19
5.27115e-19
4.73443e-19
4.21313e-19
4.0355e-19
3.52833e-19
3.29517e-19
2.98426e-19
2.87827e-19
2.36977e-19
2.39629e-19
1.95308e-19
1.9427e-19
1.69279e-19
1.63018e-19
1.42053e-19
1.3409e-19
1.14943e-19
1.15067e-19
9.17166e-20
9.65919e-20
8.3323e-20
6.56928e-20
9.157e-20
3.94395e-20
8.52656e-20
5.59383e-20
3.5674e-20
1.0781e-19
3.83061e-21
1.03463e-19
7.31385e-20
3.33833e-20
1.61268e-19
3.74861e-20
1.3119e-19
1.62697e-19
7.53436e-20
2.19502e-19
1.82623e-19
1.63735e-19
3.15322e-19
2.61041e-19
3.38487e-19
4.5173e-19
4.24118e-19
1.8485e-18
1.05537e-18
1.37276e-18
2.3459e-18
1.90331e-18
8.21961e-19
9.15778e-19
7.78585e-19
7.14081e-19
6.52976e-19
6.22217e-19
6.16267e-19
6.41679e-19
6.26296e-19
5.87552e-19
5.09071e-19
4.58885e-19
4.10655e-19
3.93821e-19
3.44842e-19
3.21904e-19
2.91937e-19
2.82124e-19
2.33433e-19
2.34627e-19
1.9326e-19
1.90484e-19
1.67404e-19
1.60507e-19
1.4046e-19
1.31974e-19
1.14051e-19
1.13053e-19
9.13536e-20
9.49909e-20
8.30652e-20
6.44937e-20
9.03826e-20
3.9848e-20
8.24739e-20
5.67316e-20
3.38991e-20
1.05546e-19
5.26297e-21
9.82955e-20
7.44293e-20
2.91071e-20
1.56836e-19
3.70478e-20
1.21341e-19
1.59273e-19
6.70474e-20
2.06912e-19
1.73381e-19
1.46039e-19
2.9352e-19
2.38687e-19
2.97826e-19
4.10283e-19
3.70873e-19
1.55439e-18
9.74968e-19
1.24568e-18
1.877e-18
1.59488e-18
6.95881e-19
7.99256e-19
7.09681e-19
6.62129e-19
6.07314e-19
5.83761e-19
5.85822e-19
6.1326e-19
6.00608e-19
5.65868e-19
4.9208e-19
4.45043e-19
4.0065e-19
3.84664e-19
3.37307e-19
3.14692e-19
2.85904e-19
2.76654e-19
2.30149e-19
2.29896e-19
1.91336e-19
1.86897e-19
1.65638e-19
1.58157e-19
1.38999e-19
1.30009e-19
1.13239e-19
1.11159e-19
9.10306e-20
9.35245e-20
8.28321e-20
6.34486e-20
8.92525e-20
4.03394e-20
7.98504e-20
5.75065e-20
3.23953e-20
1.03391e-19
6.8161e-21
9.34653e-20
7.57694e-20
2.53721e-20
1.52471e-19
3.70941e-20
1.12072e-19
1.5618e-19
5.9806e-20
1.95068e-19
1.65374e-19
1.30175e-19
2.73747e-19
2.19424e-19
2.61557e-19
3.74258e-19
3.27914e-19
1.29453e-18
9.1525e-19
1.16338e-18
1.48832e-18
1.32599e-18
5.86862e-19
6.95232e-19
6.49093e-19
6.17411e-19
5.67487e-19
5.48742e-19
5.57441e-19
5.8684e-19
5.76871e-19
5.45637e-19
4.7604e-19
4.31851e-19
3.91239e-19
3.76032e-19
3.30188e-19
3.07846e-19
2.80291e-19
2.71406e-19
2.27098e-19
2.25427e-19
1.89523e-19
1.83495e-19
1.63973e-19
1.55958e-19
1.37664e-19
1.28194e-19
1.12503e-19
1.09383e-19
9.07448e-20
9.21931e-20
8.26234e-20
6.2553e-20
8.8185e-20
4.09041e-20
7.74035e-20
5.82644e-20
3.11468e-20
1.01323e-19
8.47643e-21
8.89493e-20
7.71369e-20
2.21622e-20
1.48204e-19
3.75636e-20
1.03422e-19
1.53378e-19
5.35756e-20
1.83967e-19
1.58488e-19
1.16035e-19
2.55872e-19
2.02906e-19
2.29393e-19
3.42924e-19
2.93808e-19
1.06614e-18
8.6327e-19
9.70921e-18
1.28066e-17
1.17275e-17
9.19134e-18
6.67473e-18
4.88165e-18
3.7079e-18
2.76202e-18
2.05381e-18
1.68565e-18
1.5678e-18
1.41641e-18
1.20337e-18
9.63593e-19
8.01559e-19
6.75091e-19
6.16969e-19
5.30608e-19
4.91449e-19
4.383e-19
3.93248e-19
3.26381e-19
3.28891e-19
2.48781e-19
2.61578e-19
2.06616e-19
2.07705e-19
1.69478e-19
1.66548e-19
1.31663e-19
1.37648e-19
1.01232e-19
1.14789e-19
8.3713e-20
8.80895e-20
8.78795e-20
4.74393e-20
9.81723e-20
3.37314e-20
6.34441e-20
8.05227e-20
9.13319e-21
1.24085e-19
3.01592e-20
9.05517e-20
1.37062e-19
5.36606e-20
1.87747e-19
1.46408e-19
1.56741e-19
2.83169e-19
2.48884e-19
3.62752e-19
5.24294e-19
6.5237e-19
9.65298e-19
1.54871e-18
2.62722e-18
5.74089e-18
7.01062e-18
1.01771e-17
1.30942e-17
1.20371e-17
9.42169e-18
6.78348e-18
4.94556e-18
3.74974e-18
2.78874e-18
2.06871e-18
1.69458e-18
1.57528e-18
1.42302e-18
1.20818e-18
9.66747e-19
8.03717e-19
6.7677e-19
6.18558e-19
5.319e-19
4.92359e-19
4.39469e-19
3.94203e-19
3.26762e-19
3.29688e-19
2.49417e-19
2.61882e-19
2.07288e-19
2.08018e-19
1.69987e-19
1.6692e-19
1.31979e-19
1.3812e-19
1.01455e-19
1.15243e-19
8.41488e-20
8.82148e-20
8.90105e-20
4.71153e-20
9.95002e-20
3.43375e-20
6.34348e-20
8.30091e-20
8.44647e-21
1.26576e-19
3.18705e-20
9.10014e-20
1.41957e-19
5.46831e-20
1.92295e-19
1.52488e-19
1.60888e-19
2.93136e-19
2.59397e-19
3.75947e-19
5.4627e-19
6.80468e-19
1.00695e-18
1.61741e-18
2.71854e-18
6.01344e-18
7.17115e-18
1.04742e-17
1.3334e-17
1.21338e-17
9.49544e-18
6.80849e-18
4.96464e-18
3.7698e-18
2.80513e-18
2.07868e-18
1.70094e-18
1.58204e-18
1.42944e-18
1.21302e-18
9.69691e-19
8.05827e-19
6.78371e-19
6.20529e-19
5.3326e-19
4.93426e-19
4.40873e-19
3.95442e-19
3.27003e-19
3.3099e-19
2.49928e-19
2.62598e-19
2.07978e-19
2.08645e-19
1.70575e-19
1.67624e-19
1.3232e-19
1.39017e-19
1.01684e-19
1.16121e-19
8.47694e-20
8.85669e-20
9.07997e-20
4.66954e-20
1.01787e-19
3.52268e-20
6.38099e-20
8.68615e-20
7.65958e-21
1.30787e-19
3.4484e-20
9.24225e-20
1.49425e-19
5.68721e-20
1.9974e-19
1.62013e-19
1.67978e-19
3.08566e-19
2.75622e-19
3.95834e-19
5.77612e-19
7.18567e-19
1.05806e-18
1.69296e-18
2.8123e-18
6.24294e-18
7.34359e-18
1.03147e-17
1.32119e-17
1.18669e-17
9.27404e-18
6.68572e-18
4.8942e-18
3.73649e-18
2.78951e-18
2.0695e-18
1.69529e-18
1.58042e-18
1.42978e-18
1.2134e-18
9.69641e-19
8.05774e-19
6.78389e-19
6.21389e-19
5.33684e-19
4.93624e-19
4.41738e-19
3.9629e-19
3.26791e-19
3.32037e-19
2.50248e-19
2.63138e-19
2.08623e-19
2.09231e-19
1.71169e-19
1.68317e-19
1.32678e-19
1.39997e-19
1.0191e-19
1.17138e-19
8.5476e-20
8.89542e-20
9.29273e-20
4.61933e-20
1.0453e-19
3.63217e-20
6.42999e-20
9.14635e-20
6.85954e-21
1.35705e-19
3.77538e-20
9.40951e-20
1.58174e-19
5.96597e-20
2.08235e-19
1.73209e-19
1.76061e-19
3.25687e-19
2.93798e-19
4.16461e-19
6.09802e-19
7.5474e-19
1.1013e-18
1.74491e-18
2.82955e-18
6.32543e-18
7.31337e-18
9.74488e-18
1.28751e-17
1.12939e-17
8.78294e-18
6.42761e-18
4.73329e-18
3.64285e-18
2.73494e-18
2.0349e-18
1.67189e-18
1.56473e-18
1.41898e-18
1.20576e-18
9.64171e-19
8.01841e-19
6.75463e-19
6.1983e-19
5.32171e-19
4.92101e-19
4.41168e-19
3.96048e-19
3.25751e-19
3.32217e-19
2.50071e-19
2.63209e-19
2.08916e-19
2.09543e-19
1.71561e-19
1.68802e-19
1.32909e-19
1.40861e-19
1.02047e-19
1.18087e-19
8.61395e-20
8.92402e-20
9.50755e-20
4.56312e-20
1.07241e-19
3.74977e-20
6.47183e-20
9.60952e-20
6.15223e-21
1.40387e-19
4.12568e-20
9.5554e-20
1.66759e-19
6.25888e-20
2.15985e-19
1.84191e-19
1.83537e-19
3.41167e-19
3.10597e-19
4.3346e-19
6.35994e-19
7.8173e-19
1.12736e-18
1.7691e-18
2.77291e-18
6.31255e-18
7.16758e-18
9.07571e-18
1.27025e-17
1.05959e-17
8.15793e-18
6.09332e-18
4.5129e-18
3.50157e-18
2.64649e-18
1.97737e-18
1.63116e-18
1.53409e-18
1.3957e-18
1.18882e-18
9.52216e-19
7.9324e-19
6.68947e-19
6.15231e-19
5.28202e-19
4.88406e-19
4.38622e-19
3.94236e-19
3.23603e-19
3.3116e-19
2.49096e-19
2.62608e-19
2.08634e-19
2.09422e-19
1.71607e-19
1.68925e-19
1.32906e-19
1.41449e-19
1.02003e-19
1.18798e-19
8.66507e-20
8.93067e-20
9.70038e-20
4.50154e-20
1.09639e-19
3.86141e-20
6.50012e-20
1.00268e-19
5.58749e-21
1.44313e-19
4.45589e-20
9.66364e-20
1.74068e-19
6.53149e-20
2.2218e-19
1.93532e-19
1.89762e-19
3.53165e-19
3.24314e-19
4.45605e-19
6.54602e-19
7.98367e-19
1.13901e-18
1.77033e-18
2.67563e-18
6.31183e-18
7.07627e-18
8.41432e-18
1.28642e-17
9.87125e-18
7.4883e-18
5.71248e-18
4.25014e-18
3.32275e-18
2.53098e-18
1.90067e-18
1.5757e-18
1.49018e-18
1.36084e-18
1.16296e-18
9.33969e-19
7.80084e-19
6.58935e-19
6.07582e-19
5.21719e-19
4.82542e-19
4.33987e-19
3.90739e-19
3.20251e-19
3.2871e-19
2.47142e-19
2.61199e-19
2.07681e-19
2.08711e-19
1.71238e-19
1.68586e-19
1.3261e-19
1.41653e-19
1.0174e-19
1.19163e-19
8.69526e-20
8.91008e-20
9.85721e-20
4.43452e-20
1.11541e-19
3.95693e-20
6.51576e-20
1.03739e-19
5.15925e-21
1.47372e-19
4.73671e-20
9.7403e-20
1.79801e-19
6.75833e-20
2.26817e-19
2.00694e-19
1.94705e-19
3.61698e-19
3.34475e-19
4.53344e-19
6.65972e-19
8.0535e-19
1.13961e-18
1.7519e-18
2.55278e-18
6.36022e-18
7.12907e-18
7.79755e-18
1.33409e-17
9.15724e-18
6.8219e-18
5.29391e-18
3.95439e-18
3.11387e-18
2.39347e-18
1.80885e-18
1.50861e-18
1.43554e-18
1.31654e-18
1.12964e-18
9.10239e-19
7.62903e-19
6.45789e-19
5.97195e-19
5.13024e-19
4.74792e-19
4.27488e-19
3.85718e-19
3.15766e-19
3.24951e-19
2.44229e-19
2.58935e-19
2.06079e-19
2.07362e-19
1.70459e-19
1.67765e-19
1.3202e-19
1.41444e-19
1.0127e-19
1.19139e-19
8.7052e-20
8.86085e-20
9.97476e-20
4.3633e-20
1.12965e-19
4.03558e-20
6.5195e-20
1.06573e-19
4.8147e-21
1.49721e-19
4.96587e-20
9.79232e-20
1.84169e-19
6.92906e-20
2.30412e-19
2.0584e-19
1.98531e-19
3.67566e-19
3.41458e-19
4.57439e-19
6.71427e-19
8.03605e-19
1.13172e-18
1.71553e-18
2.41364e-18
6.45324e-18
7.29759e-18
7.23335e-18
1.3959e-17
8.47106e-18
6.19025e-18
4.84813e-18
3.63641e-18
2.88359e-18
2.24026e-18
1.70666e-18
1.43332e-18
1.37323e-18
1.2652e-18
1.09068e-18
8.82268e-19
7.42481e-19
6.30063e-19
5.84531e-19
5.02513e-19
4.65536e-19
4.19506e-19
3.79491e-19
3.10347e-19
3.20107e-19
2.40511e-19
2.55832e-19
2.03912e-19
2.05385e-19
1.69312e-19
1.66489e-19
1.31184e-19
1.40854e-19
1.00637e-19
1.18746e-19
8.70011e-20
8.78377e-20
1.00597e-19
4.28962e-20
1.13954e-19
4.10543e-20
6.50682e-20
1.08996e-19
4.46702e-21
1.51532e-19
5.16011e-20
9.80805e-20
1.87727e-19
7.03016e-20
2.33149e-19
2.09405e-19
2.01013e-19
3.71271e-19
3.45222e-19
4.57719e-19
6.71474e-19
7.93162e-19
1.11488e-18
1.66185e-18
2.26461e-18
6.55423e-18
7.46789e-18
6.71661e-18
1.44872e-17
7.82761e-18
5.6026e-18
4.39216e-18
3.30794e-18
2.64196e-18
2.07824e-18
1.59883e-18
1.35343e-18
1.30614e-18
1.20929e-18
1.04803e-18
8.51429e-19
7.19813e-19
6.12466e-19
5.70148e-19
4.90596e-19
4.55145e-19
4.10437e-19
3.72467e-19
3.04246e-19
3.14477e-19
2.36239e-19
2.51969e-19
2.01332e-19
2.02835e-19
1.67848e-19
1.64808e-19
1.30164e-19
1.39931e-19
9.98929e-20
1.18016e-19
8.68671e-20
8.67928e-20
1.01191e-19
4.21495e-20
1.14497e-19
4.18103e-20
6.4657e-20
1.11215e-19
4.03396e-21
1.52821e-19
5.34318e-20
9.75121e-20
1.90719e-19
7.04388e-20
2.34662e-19
2.1157e-19
2.01382e-19
3.72391e-19
3.45379e-19
4.53012e-19
6.65134e-19
7.72371e-19
1.08628e-18
1.5853e-18
2.10451e-18
6.61216e-18
7.47489e-18
6.22405e-18
1.46601e-17
7.236e-18
5.0475e-18
3.94499e-18
2.98173e-18
2.39915e-18
1.91408e-18
1.49001e-18
1.27229e-18
1.23701e-18
1.15112e-18
1.00347e-18
8.19036e-19
6.95878e-19
5.93759e-19
5.54624e-19
4.77754e-19
4.43915e-19
4.00606e-19
3.65007e-19
2.97721e-19
3.08326e-19
2.31701e-19
2.47478e-19
1.98461e-19
1.99805e-19
1.66101e-19
1.6278e-19
1.29018e-19
1.38712e-19
9.90857e-20
1.16976e-19
8.66979e-20
8.54673e-20
1.01567e-19
4.14076e-20
1.14509e-19
4.27164e-20
6.37428e-20
1.13281e-19
3.46514e-21
1.53254e-19
5.52862e-20
9.58146e-20
1.92971e-19
6.95179e-20
2.34228e-19
2.12128e-19
1.98847e-19
3.70126e-19
3.41138e-19
4.41857e-19
6.51059e-19
7.40258e-19
1.04342e-18
1.48615e-18
1.93199e-18
6.56087e-18
7.21033e-18
5.736e-18
1.4349e-17
6.6957e-18
4.51579e-18
3.52181e-18
2.66835e-18
2.16375e-18
1.7532e-18
1.38377e-18
1.1926e-18
1.16811e-18
1.09259e-18
9.58441e-19
7.86191e-19
6.71494e-19
5.74584e-19
5.385e-19
4.64392e-19
4.32154e-19
3.90283e-19
3.57347e-19
2.91003e-19
3.01853e-19
2.27153e-19
2.42524e-19
1.95426e-19
1.96407e-19
1.64102e-19
1.60461e-19
1.27777e-19
1.37218e-19
9.82508e-20
1.15656e-19
8.65144e-20
8.38631e-20
1.01702e-19
4.06882e-20
1.13886e-19
4.38029e-20
6.22102e-20
1.15087e-19
2.76763e-21
1.52534e-19
5.71458e-20
9.26844e-20
1.94178e-19
6.74728e-20
2.31333e-19
2.10892e-19
1.93064e-19
3.63954e-19
3.32282e-19
4.24085e-19
6.29056e-19
6.97637e-19
9.86367e-19
1.36895e-18
1.74988e-18
6.36795e-18
6.65336e-18
5.23557e-18
1.35454e-17
6.19346e-18
4.00077e-18
3.13209e-18
2.37574e-18
1.9426e-18
1.59956e-18
1.28258e-18
1.11636e-18
1.10122e-18
1.03521e-18
9.14113e-19
7.537e-19
6.473e-19
5.5549e-19
5.22252e-19
4.509e-19
4.20167e-19
3.79708e-19
3.49644e-19
2.8428e-19
2.95204e-19
2.22777e-19
2.37301e-19
1.92332e-19
1.92776e-19
1.61894e-19
1.5791e-19
1.26458e-19
1.35461e-19
9.74167e-20
1.14074e-19
8.63121e-20
8.20104e-20
1.01554e-19
4.00194e-20
1.12549e-19
4.5035e-20
6.00569e-20
1.1646e-19
2.00284e-21
1.50497e-19
5.89386e-20
8.81764e-20
1.94127e-19
6.44224e-20
2.25884e-19
2.07869e-19
1.84154e-19
3.5405e-19
3.19363e-19
4.00532e-19
6.00321e-19
6.47178e-19
9.18153e-19
1.24134e-18
1.56339e-18
6.03081e-18
5.86216e-18
4.72159e-18
1.23485e-17
5.71541e-18
3.50398e-18
2.78023e-18
2.10856e-18
1.73973e-18
1.45581e-18
1.18791e-18
1.04486e-18
1.03754e-18
9.80088e-19
8.71309e-19
7.22227e-19
6.23761e-19
5.369e-19
5.06253e-19
4.37623e-19
4.08239e-19
3.69092e-19
3.41989e-19
2.77698e-19
2.88483e-19
2.18673e-19
2.31965e-19
1.89263e-19
1.89038e-19
1.59536e-19
1.55189e-19
1.2508e-19
1.33461e-19
9.6606e-20
1.12268e-19
8.6078e-20
7.99808e-20
1.01103e-19
3.94347e-20
1.10525e-19
4.63509e-20
5.73956e-20
1.17286e-19
1.26479e-21
1.47232e-19
6.06174e-20
8.25445e-20
1.92816e-19
6.06501e-20
2.18194e-19
2.03418e-19
1.72815e-19
3.41165e-19
3.03496e-19
3.72921e-19
5.66896e-19
5.9251e-19
8.43209e-19
1.11272e-18
1.3798e-18
5.58026e-18
4.95194e-18
4.20226e-18
1.0911e-17
5.24989e-18
3.03378e-18
2.46636e-18
1.86899e-18
1.55703e-18
1.32348e-18
1.10046e-18
9.78746e-19
9.7791e-19
9.27922e-19
8.30556e-19
6.92175e-19
6.01153e-19
5.19084e-19
4.90767e-19
4.24789e-19
3.96589e-19
3.58631e-19
3.34448e-19
2.71361e-19
2.81772e-19
2.14877e-19
2.26642e-19
1.86282e-19
1.85288e-19
1.57098e-19
1.52369e-19
1.23671e-19
1.3126e-19
9.58349e-20
1.1029e-19
8.58044e-20
7.78633e-20
1.00361e-19
3.89627e-20
1.07926e-19
4.76893e-20
5.43957e-20
1.17533e-19
6.51871e-22
1.42923e-19
6.21864e-20
7.61546e-20
1.90422e-19
5.65203e-20
2.08728e-19
1.98038e-19
1.59911e-19
3.26251e-19
2.85998e-19
3.43144e-19
5.31043e-19
5.37234e-19
7.6602e-19
9.90365e-19
1.20556e-18
5.05618e-18
4.03829e-18
3.69318e-18
9.39573e-18
4.79155e-18
2.60126e-18
2.18795e-18
1.65728e-18
1.39483e-18
1.20315e-18
1.0203e-18
9.18172e-19
9.22594e-19
8.79079e-19
7.92157e-19
6.63735e-19
5.79619e-19
5.02191e-19
4.75961e-19
4.12538e-19
3.85368e-19
3.4849e-19
3.27074e-19
2.65345e-19
2.75139e-19
2.11386e-19
2.2142e-19
1.83424e-19
1.81609e-19
1.54657e-19
1.49513e-19
1.22262e-19
1.28917e-19
9.51119e-20
1.08207e-19
8.54931e-20
7.57442e-20
9.93801e-20
3.86225e-20
1.0491e-19
4.90056e-20
5.12417e-20
1.17223e-19
2.46224e-22
1.3788e-19
6.36789e-20
6.93779e-20
1.87195e-19
5.23835e-20