/*--------------------------------*- C++ -*----------------------------------*\
| =========                 |                                                 |
| \\      /  F ield         | OpenFOAM: The Open Source CFD Toolbox           |
|  \\    /   O peration     | Version:  2312                                  |
|   \\  /    A nd           | Website:  www.openfoam.com                      |
|    \\/     M anipulation  |                                                 |
\*---------------------------------------------------------------------------*/
FoamFile
{
    version     2.0;
    format      ascii;
    arch        "LSB;label=32;scalar=64";
    class       volScalarField;
    location    "80";
    object      nut;
}
// * * * * * * * * * * * * * * * * * * * * * * * * * * * * * * * * * * * * * //

dimensions      [0 2 -1 0 0 0 0];

internalField   nonuniform List<scalar> 
144000
(
6.91013e-24
1.45846e-23
9.31015e-26
8.88504e-26
3.66983e-26
2.38766e-29
2.07454e-27
5.94757e-27
7.42705e-28
7.58608e-28
1.21353e-27
1.23382e-26
4.13865e-26
9.46121e-27
8.09135e-28
2.04014e-26
2.25992e-27
5.95724e-27
8.68258e-27
1.6688e-25
5.26894e-25
5.72622e-25
1.105e-24
9.4107e-25
3.52508e-25
9.43452e-26
3.85181e-29
7.65712e-27
2.13258e-26
4.0005e-27
1.6032e-27
8.03745e-26
2.79052e-25
3.15823e-25
1.36758e-25
1.276e-26
4.29198e-30
1.43183e-28
1.05763e-27
4.07263e-26
1.29271e-25
1.22065e-25
3.46628e-26
5.07147e-28
1.37606e-28
6.95496e-29
1.87528e-26
9.01448e-26
7.41226e-26
5.23816e-27
1.82827e-27
4.63346e-27
9.80359e-30
4.21771e-27
3.41982e-28
3.50893e-26
5.31187e-24
6.53797e-23
9.41933e-23
6.60536e-24
1.61775e-22
2.14127e-23
6.65906e-24
6.19336e-25
3.17728e-26
6.38858e-28
6.58011e-27
5.20444e-27
3.14841e-27
9.15697e-28
3.11467e-27
2.04914e-26
8.46198e-26
1.20936e-26
4.04221e-27
4.75869e-26
5.40299e-27
2.99467e-27
1.13969e-26
2.92598e-25
6.95685e-25
1.2292e-24
1.99566e-24
1.84035e-24
9.16311e-25
2.41585e-25
1.58726e-26
8.04894e-28
9.54886e-27
3.53506e-27
5.70775e-27
1.27647e-25
4.82535e-25
6.00659e-25
2.99584e-25
4.7406e-26
1.30512e-27
1.80998e-29
5.77549e-27
8.15418e-26
2.41091e-25
2.40135e-25
7.8708e-26
3.60146e-27
2.92287e-30
6.92944e-28
3.56427e-26
1.49875e-25
1.28607e-25
1.14348e-26
9.11789e-28
7.40541e-27
2.6121e-28
1.87404e-27
8.27651e-29
1.00964e-25
1.18977e-23
2.63951e-22
4.62835e-22
1.71475e-23
3.05726e-22
1.75817e-22
2.14575e-23
9.00356e-24
5.3532e-26
5.95834e-27
9.146e-27
7.22062e-27
4.90402e-27
2.0755e-27
4.22609e-27
2.7889e-26
1.24757e-25
2.56126e-26
3.76388e-27
9.09547e-26
1.95287e-26
7.747e-27
1.40356e-26
4.61052e-25
1.06544e-24
1.68012e-24
3.12178e-24
2.77629e-24
1.39445e-24
4.28807e-25
2.95528e-26
5.73737e-28
1.54159e-26
6.44444e-27
7.3173e-27
1.83641e-25
6.79599e-25
8.74371e-25
4.61863e-25
8.13488e-26
2.83554e-27
8.25627e-29
1.03014e-26
1.1784e-25
3.49689e-25
3.52044e-25
1.23131e-25
7.30647e-27
1.00359e-29
1.39009e-27
5.26069e-26
2.1647e-25
1.93495e-25
2.14555e-26
1.29452e-27
9.6351e-27
1.30192e-27
3.28982e-27
5.57372e-28
1.82169e-25
2.57515e-23
4.82728e-22
5.72197e-22
2.31705e-22
4.28929e-22
7.60021e-22
2.87053e-23
4.12036e-23
3.70017e-26
1.73618e-26
7.75542e-27
1.19109e-26
6.11919e-27
3.23726e-27
5.21261e-27
3.37939e-26
1.59336e-25
4.07561e-26
3.09522e-27
1.43568e-25
4.67883e-26
2.25904e-26
2.76565e-26
7.52509e-25
1.51515e-24
1.98037e-24
4.04803e-24
3.35596e-24
1.49393e-24
4.66549e-25
1.82402e-26
4.6943e-27
4.18171e-26
1.57305e-26
9.18464e-27
2.68949e-25
8.95297e-25
1.10455e-24
5.53853e-25
8.56873e-26
1.46337e-27
5.66553e-29
1.21521e-26
1.47656e-25
4.30977e-25
4.24778e-25
1.36721e-25
6.82076e-27
1.02492e-29
2.08882e-27
6.76917e-26
2.70606e-25
2.37855e-25
2.71533e-26
3.39277e-27
1.24869e-26
3.39975e-27
8.67214e-27
5.19338e-27
2.11476e-25
3.95692e-23
7.92387e-22
6.49705e-22
1.06522e-21
4.00058e-22
1.96262e-21
1.85929e-23
1.04633e-22
9.85298e-26
3.7299e-26
7.18444e-27
1.67666e-26
9.67909e-27
4.24631e-27
7.72301e-27
4.63815e-26
2.02354e-25
5.20463e-26
4.93516e-27
2.05509e-25
8.66275e-26
3.56155e-26
5.56422e-26
1.23933e-24
2.07195e-24
2.57393e-24
5.24839e-24
4.23393e-24
1.66216e-24
5.16886e-25
1.69879e-26
1.49961e-26
8.00087e-26
3.51828e-26
1.69207e-26
4.22657e-25
1.25199e-24
1.47038e-24
6.85108e-25
9.41916e-26
1.2567e-27
3.62992e-28
1.59574e-26
2.01102e-25
5.56137e-25
5.22397e-25
1.55851e-25
7.06985e-27
1.28245e-28
4.03267e-27
9.41486e-26
3.49478e-25
2.98488e-25
3.53277e-26
6.72377e-27
1.69117e-26
6.71962e-27
2.47656e-26
3.66611e-26
2.11485e-25
5.57134e-23
1.09977e-21
8.90677e-22
2.49213e-21
3.54108e-22
3.61768e-21
8.73035e-24
1.88236e-22
5.57953e-25
7.2262e-26
5.48252e-27
2.46681e-26
1.54282e-26
6.37505e-27
1.21704e-26
6.74598e-26
2.55877e-25
6.21504e-26
9.50907e-27
2.77375e-25
1.29772e-25
4.48217e-26
9.81885e-26
1.91357e-24
2.82559e-24
3.4787e-24
6.85742e-24
5.54914e-24
1.92843e-24
6.14273e-25
1.56919e-26
3.27449e-26
1.21154e-25
7.53603e-26
3.96423e-26
7.01889e-25
1.78089e-24
1.98655e-24
8.44615e-25
1.0156e-25
1.56682e-27
2.01973e-27
2.61449e-26
2.92304e-25
7.46238e-25
6.65688e-25
1.86315e-25
7.82627e-27
6.38476e-28
8.78847e-27
1.38561e-25
4.71632e-25
3.89469e-25
5.05382e-26
1.27568e-26
2.16406e-26
1.49388e-26
8.91037e-26
2.04044e-25
2.70647e-25
6.22045e-23
1.35918e-21
1.58644e-21
3.93845e-21
4.08238e-22
5.25351e-21
5.46692e-24
2.64221e-22
2.26689e-24
1.2315e-25
2.78311e-27
4.07419e-26
2.25446e-26
1.09611e-26
1.85541e-26
9.85615e-26
3.30551e-25
7.92434e-26
1.83577e-26
3.62461e-25
1.64002e-25
5.48417e-26
1.69576e-25
2.69812e-24
3.91671e-24
4.82595e-24
8.94698e-24
7.4886e-24
2.37098e-24
7.5023e-25
9.41546e-27
5.72027e-26
1.57861e-25
1.53242e-25
8.41464e-26
1.09428e-24
2.45327e-24
2.59977e-24
1.01004e-24
1.03944e-25
2.33511e-27
9.02411e-27
5.36544e-26
4.29261e-25
9.97781e-25
8.29216e-25
2.24582e-25
8.81669e-27
2.35201e-27
2.22988e-26
2.05162e-25
6.5013e-25
5.18167e-25
7.86293e-26
2.01382e-26
2.35925e-26
4.25881e-26
2.96397e-25
8.9031e-25
7.96194e-25
5.4653e-23
1.59326e-21
3.2288e-21
4.29098e-21
7.45957e-22
6.80256e-21
9.41171e-24
3.15724e-22
7.10966e-24
1.73145e-25
2.23873e-27
7.02004e-26
3.29825e-26
1.80041e-26
2.7554e-26
1.44171e-25
4.4034e-25
1.06054e-25
2.9942e-26
4.95742e-25
1.8284e-25
6.94598e-26
2.96682e-25
3.62279e-24
5.59312e-24
6.90043e-24
1.20168e-23
1.03092e-23
3.15485e-24
9.01424e-25
1.76029e-27
9.36678e-26
2.07203e-25
2.66332e-25
1.28143e-25
1.50334e-24
3.28911e-24
3.25929e-24
1.20115e-24
9.73189e-26
2.97363e-27
3.08079e-26
1.07306e-25
6.22274e-25
1.25423e-24
1.01977e-24
2.73143e-25
7.60148e-27
7.53706e-27
5.58717e-26
2.90257e-25
8.81541e-25
7.02809e-25
1.19669e-25
2.33394e-26
2.74235e-26
1.17838e-25
8.39494e-25
2.83991e-24
2.79614e-24
4.03984e-23
1.95463e-21
6.63226e-21
3.68394e-21
1.73767e-21
8.03745e-21
3.03186e-23
3.48964e-22
1.72726e-23
2.35815e-25
4.80476e-27
1.27546e-25
4.79015e-26
2.69154e-26
4.13919e-26
2.14437e-25
6.02529e-25
1.44345e-25
4.12967e-26
7.51118e-25
1.88683e-25
9.66543e-26
5.26504e-25
4.94585e-24
8.27733e-24
1.02412e-23
1.72338e-23
1.42719e-23
4.57028e-24
1.04851e-24
8.30556e-30
1.60611e-25
3.10725e-25
3.50954e-25
1.33838e-25
1.8686e-24
4.35328e-24
4.10913e-24
1.46119e-24
8.02357e-26
7.10418e-27
7.70817e-26
1.79149e-25
8.0589e-25
1.53078e-24
1.28244e-24
3.30282e-25
3.20768e-27
2.27067e-26
1.19126e-25
3.68175e-25
1.17424e-24
9.76352e-25
1.59342e-25
2.08164e-26
3.67823e-26
2.74414e-25
2.19545e-24
7.2259e-24
8.01154e-24
2.51958e-23
2.72412e-21
1.29911e-20
2.94941e-21
3.66696e-21
1.03637e-20
8.026e-23
4.33115e-22
3.39272e-23
3.66887e-25
1.42584e-26
2.40164e-25
7.05961e-26
3.61149e-26
6.36756e-26
3.35342e-25
8.56058e-25
2.06857e-25
5.35267e-26
1.19142e-24
1.90093e-25
1.51862e-25
9.22363e-25
7.27314e-24
1.27454e-23
1.57479e-23
2.64854e-23
2.00901e-23
7.09663e-24
1.21785e-24
1.63338e-27
2.90421e-25
5.24294e-25
3.50357e-25
1.12892e-25
2.33945e-24
6.04987e-24
5.42303e-24
1.8687e-24
6.02613e-26
2.80875e-26
1.49686e-25
2.60125e-25
9.24925e-25
2.00885e-24
1.62615e-24
3.66104e-25
2.11564e-28
6.01108e-26
2.06724e-25
4.13473e-25
1.5779e-24
1.35449e-24
1.81513e-25
1.85236e-26
4.86515e-26
5.84285e-25
4.93693e-24
1.58696e-23
1.85263e-23
1.6075e-23
4.41926e-21
2.3534e-20
3.33767e-21
7.10327e-21
1.87613e-20
1.34598e-22
6.32984e-22
6.08257e-23
7.75887e-25
2.88706e-26
4.68577e-25
1.15539e-25
4.43289e-26
1.04087e-25
5.63534e-25
1.23036e-24
2.95044e-25
6.82818e-26
1.84378e-24
1.78967e-25
2.63272e-25
1.53804e-24
1.17086e-23
2.04237e-23
2.51198e-23
4.31603e-23
2.93692e-23
1.13624e-23
1.47502e-24
4.25058e-27
5.74397e-25
9.73217e-25
3.35767e-25
1.01943e-25
3.22069e-24
9.01078e-24
7.59656e-24
2.52153e-24
4.07573e-26
9.05621e-26
2.7418e-25
3.6475e-25
1.09186e-24
2.79404e-24
2.21522e-24
3.43533e-25
2.07183e-27
1.31776e-25
2.81948e-25
4.36537e-25
2.15543e-24
1.82864e-24
1.94815e-25
1.97421e-26
5.74626e-26
1.18456e-24
9.27369e-24
2.94342e-23
3.47644e-23
1.65575e-23
7.7561e-21
3.91451e-20
6.64566e-21
1.43419e-20
4.06681e-20
1.64462e-22
1.19926e-21
8.99168e-23
1.85031e-24
2.92513e-26
9.88307e-25
2.21365e-25
5.78953e-26
2.05178e-25
9.59469e-25
1.74871e-24
4.25316e-25
9.78139e-26
2.63366e-24
1.31962e-25
5.24856e-25
2.39177e-24
2.0179e-23
3.36962e-23
4.2095e-23
7.30431e-23
4.40604e-23
1.8173e-23
1.85382e-24
1.56481e-26
1.28172e-24
2.0056e-24
4.44368e-25
1.18454e-25
4.75686e-24
1.3469e-23
1.1365e-23
3.51488e-24
2.98496e-26
2.41343e-25
5.40073e-25
4.81368e-25
1.48615e-24
4.12802e-24
2.98889e-24
2.36673e-25
3.36294e-26
2.5636e-25
2.90432e-25
4.65843e-25
2.96573e-24
2.45565e-24
2.29899e-25
3.27976e-26
7.91735e-26
2.3181e-24
1.54288e-23
4.61157e-23
5.26287e-23
2.633e-23
1.36621e-20
6.22974e-20
1.73825e-20
2.48184e-20
8.32024e-20
1.71294e-22
2.6413e-21
1.11904e-22
4.70233e-24
7.72155e-27
2.03928e-24
5.12351e-25
9.78184e-26
5.15006e-25
1.52568e-24
2.49835e-24
7.58836e-25
1.81004e-25
3.40334e-24
5.5335e-26
1.12404e-24
3.71178e-24
3.60707e-23
5.66172e-23
7.45074e-23
1.23515e-22
6.63552e-23
2.84379e-23
2.48822e-24
1.53212e-25
3.05125e-24
4.4461e-24
8.20508e-25
1.97567e-25
7.42932e-24
2.07269e-23
1.76797e-23
4.99254e-24
6.86428e-26
5.86372e-25
1.1203e-24
5.04442e-25
2.51098e-24
6.72569e-24
3.06552e-24
1.14659e-25
1.61455e-25
4.39705e-25
2.26114e-25
5.01005e-25
4.23793e-24
3.37908e-24
3.2836e-25
1.00884e-25
1.81648e-25
4.32342e-24
2.27814e-23
6.21462e-23
6.19447e-23
6.90782e-23
2.43622e-20
8.91861e-20
4.66428e-20
4.20144e-20
1.63734e-19
8.78869e-23
5.49376e-21
1.2928e-22
1.18465e-23
5.33484e-28
3.78203e-24
1.28236e-24
2.5527e-25
1.35906e-24
2.20888e-24
3.6284e-24
1.79601e-24
3.0247e-25
4.18037e-24
7.09743e-27
2.35078e-24
6.58246e-24
6.53513e-23
9.72887e-23
1.37519e-22
2.0338e-22
9.97299e-23
4.26534e-23
4.1108e-24
9.07964e-25
7.27226e-24
9.97127e-24
1.749e-24
4.02988e-25
1.23543e-23
3.39738e-23
2.82011e-23
6.98787e-24
3.88673e-25
1.42764e-24
2.414e-24
2.958e-25
4.6205e-24
1.07943e-23
2.51373e-24
4.09292e-25
5.40684e-25
7.03878e-25
1.70218e-25
5.47787e-25
6.52413e-24
4.85215e-24
5.82916e-25
3.46462e-25
6.75771e-25
7.7922e-24
2.92114e-23
7.36767e-23
5.82837e-23
1.91674e-22
4.27191e-20
1.22868e-19
1.13744e-19
6.37177e-20
3.09399e-19
2.25465e-23
1.07139e-20
1.43502e-22
2.71962e-23
1.11267e-25
6.34161e-24
2.96224e-24
9.42538e-25
3.16364e-24
3.02991e-24
5.41538e-24
4.68431e-24
3.69096e-25
5.29426e-24
2.28512e-26
4.98583e-24
1.39896e-23
1.19131e-22
1.72723e-22
2.57832e-22
3.24855e-22
1.49824e-22
6.00307e-23
9.0639e-24
3.44664e-24
1.71316e-23
2.18441e-23
3.96356e-24
7.55929e-25
2.19181e-23
5.8177e-23
4.63433e-23
9.21973e-24
1.97809e-24
3.56601e-24
5.23062e-24
3.19568e-26
8.84944e-24
1.27346e-23
2.18378e-23
3.42186e-24
2.04875e-24
1.07257e-24
3.20183e-25
6.86022e-25
1.04273e-23
7.516e-24
1.23683e-24
9.96571e-25
2.93195e-24
1.35405e-23
3.18106e-23
7.76054e-23
4.37585e-23
4.82443e-22
7.02267e-20
1.56475e-19
2.46878e-19
9.79009e-20
5.55966e-19
1.92097e-25
1.92473e-20
1.642e-22
5.58853e-23
1.03428e-24
1.01222e-23
5.88252e-24
3.60329e-24
6.23811e-24
4.17327e-24
8.67561e-24
1.13935e-23
3.868e-25
7.39863e-24
3.21176e-25
1.17083e-23
3.29476e-23
2.19583e-22
3.18232e-22
4.83199e-22
5.15172e-22
2.24597e-22
8.06121e-23
2.29965e-23
1.0483e-23
4.01739e-23
4.65772e-23
8.99696e-24
1.23374e-24
4.20604e-23
1.04828e-22
8.0037e-23
1.23647e-23
7.5869e-24
7.63177e-24
9.02129e-24
1.76115e-26
2.92036e-23
5.51998e-23
2.95177e-23
1.73783e-24
1.83689e-24
3.50244e-24
7.01554e-25
6.99748e-25
1.81278e-23
1.20992e-23
2.8874e-24
2.55858e-24
1.17639e-23
2.23226e-23
2.88789e-23
7.26071e-23
2.3908e-23
1.02815e-21
1.09263e-19
1.95029e-19
4.88619e-19
1.37217e-19
9.4387e-19
6.73836e-23
3.22563e-20
2.3095e-22
1.09998e-22
4.54141e-24
1.58476e-23
1.00788e-23
1.19878e-23
1.07384e-23
5.9504e-24
1.54834e-23
2.44729e-23
5.47871e-25
1.19082e-23
1.72212e-24
3.07651e-23
7.87139e-23
4.13367e-22
6.07155e-22
9.00968e-22
8.28334e-22
3.34586e-22
1.04398e-22
5.80608e-23
2.9699e-23
9.44242e-23
9.8157e-23
1.93251e-23
2.01822e-24
8.61478e-23
1.986e-22
1.43742e-22
1.80218e-23
2.28734e-23
1.61523e-23
1.47948e-23
8.98233e-25
7.81408e-23
2.55669e-22
1.54169e-24
5.19849e-23
7.27776e-25
1.46562e-23
1.51701e-24
7.90227e-25
3.21607e-23
2.09767e-23
6.43678e-24
6.58007e-24
4.06053e-23
3.47895e-23
2.10766e-23
6.07228e-23
8.1113e-24
1.97621e-21
1.61815e-19
2.24665e-19
8.91971e-19
1.8447e-19
1.54105e-18
7.63182e-22
5.07128e-20
4.22611e-22
2.05842e-22
1.41461e-23
2.52938e-23
1.52035e-23
3.38725e-23
1.6898e-23
8.79199e-24
3.04352e-23
4.67712e-23
1.34347e-24
2.21644e-23
6.15749e-24
8.50918e-23
1.8402e-22
7.98716e-22
1.18957e-21
1.66373e-21
1.33981e-21
4.95275e-22
1.24177e-22
1.39324e-22
8.37336e-23
2.23773e-22
2.07135e-22
3.82179e-23
4.13319e-24
1.82676e-22
3.89278e-22
2.59981e-22
2.84762e-23
5.8444e-23
4.33727e-23
3.72441e-23
6.55566e-24
7.82392e-23
1.49522e-22
9.95576e-23
2.09153e-23
9.57369e-24
2.87702e-23
7.95737e-24
2.04428e-24
4.97352e-23
4.24003e-23
1.28124e-23
1.75316e-23
1.22777e-22
5.40159e-23
1.21422e-23
4.75732e-23
3.80726e-24
3.43487e-21
2.30585e-19
2.44099e-19
1.55529e-18
2.26011e-19
2.42474e-18
3.85691e-21
7.38872e-20
9.6365e-22
3.8e-22
3.64661e-23
4.06941e-23
2.06033e-23
8.23513e-23
2.51833e-23
1.32713e-23
6.19697e-23
8.07588e-23
3.994e-24
4.56234e-23
1.8464e-23
2.29808e-22
4.16113e-22
1.56676e-21
2.35055e-21
3.03429e-21
2.17111e-21
7.17897e-22
1.32708e-22
3.14238e-22
2.33346e-22
5.30175e-22
4.34486e-22
6.80558e-23
1.13218e-23
3.9554e-22
7.90348e-22
4.8118e-22
5.42708e-23
1.30391e-22
1.12687e-22
9.66749e-23
3.48619e-23
8.97328e-23
7.87152e-23
2.37504e-22
5.46193e-23
4.68699e-23
6.3737e-23
2.92377e-23
4.89556e-24
7.46755e-23
8.78784e-23
2.28679e-23
5.11889e-23
3.36608e-22
9.02059e-23
7.7435e-24
4.29129e-23
2.2176e-23
5.51233e-21
3.13062e-19
2.33678e-19
2.56757e-18
1.93688e-19
2.65687e-18
1.07863e-20
7.02416e-20
1.6796e-21
4.79058e-22
5.85076e-23
4.68826e-23
1.82795e-23
1.25723e-22
2.62331e-23
1.45862e-23
8.86104e-23
9.16668e-23
7.75098e-24
7.04705e-23
3.6807e-23
4.18174e-22
6.51575e-22
2.208e-21
3.29801e-21
3.91556e-21
2.53036e-21
7.16076e-22
9.01176e-23
4.86365e-22
4.54322e-22
8.89647e-22
6.43185e-22
7.76465e-23
2.49777e-23
6.20091e-22
1.17736e-21
6.51888e-22
8.30248e-23
1.8836e-22
1.98e-22
1.5631e-22
7.20276e-23
1.11959e-22
1.95278e-22
4.50034e-23
3.6005e-23
3.31392e-23
1.53841e-22
5.24607e-23
6.64538e-24
8.15831e-23
1.28194e-22
2.60146e-23
1.08518e-22
6.07317e-22
1.23204e-22
1.16398e-23
4.60194e-23
9.50987e-23
5.58528e-21
2.89578e-19
1.40832e-19
2.92712e-18
3.98047e-20
7.80648e-19
6.27149e-21
1.76277e-20
8.11779e-22
1.66597e-22
2.39352e-23
1.4747e-23
4.38306e-24
4.89024e-23
7.80183e-24
4.70596e-24
3.42729e-23
2.76223e-23
3.68407e-24
3.12711e-23
2.0319e-23
2.02499e-22
2.81939e-22
8.81702e-22
1.29358e-21
1.41734e-21
8.34186e-22
1.92448e-22
1.42506e-23
2.09983e-22
2.4364e-22
4.19236e-22
2.66549e-22
2.26146e-23
1.51882e-23
2.77215e-22
5.02838e-22
2.51177e-22
3.44657e-23
7.48452e-23
1.07926e-22
8.29264e-23
3.65654e-23
3.51448e-23
8.05283e-23
3.8346e-23
8.26258e-24
1.07587e-23
8.38702e-23
3.09266e-23
2.24306e-24
2.35931e-23
5.28107e-23
7.70896e-24
6.16003e-23
2.89259e-22
5.4993e-23
1.03945e-23
2.22692e-23
7.17079e-23
1.48122e-21
7.2324e-20
1.94648e-20
9.00687e-19
4.59165e-21
1.57682e-19
2.11407e-21
2.89681e-21
2.63e-22
4.13283e-23
6.39666e-24
3.03221e-24
7.29664e-25
1.21741e-23
1.66587e-24
1.14005e-24
8.7568e-24
5.53662e-24
1.07611e-24
9.6657e-24
7.7727e-24
6.51438e-23
8.38013e-23
2.45716e-22
3.49669e-22
3.56265e-22
1.91483e-22
3.38542e-23
1.13615e-24
6.3815e-23
8.88515e-23
1.37174e-22
7.63912e-23
4.15935e-24
6.16039e-24
8.79461e-23
1.5226e-22
6.87461e-23
9.38008e-24
2.09542e-23
4.16428e-23
3.23843e-23
1.17668e-23
7.43107e-24
2.20388e-23
1.57514e-23
1.52398e-24
4.53199e-24
2.91342e-23
1.26691e-23
4.29827e-25
4.84533e-24
1.4728e-23
1.51538e-24
2.30532e-23
9.19074e-23
1.86673e-23
5.72933e-24
8.40866e-24
2.94175e-23
2.58584e-22
1.23139e-20
1.29566e-21
1.90328e-19
4.00069e-22
2.91316e-20
6.15271e-22
4.006e-22
7.26921e-23
1.00851e-23
1.51665e-24
5.42186e-25
1.15661e-25
2.63188e-24
3.38297e-25
2.88299e-25
1.95604e-24
9.9633e-25
2.65621e-25
2.75415e-24
2.74729e-24
1.87572e-23
2.2879e-23
6.34779e-23
8.67092e-23
8.27793e-23
4.06688e-23
5.03186e-24
5.37816e-26
1.8463e-23
2.94798e-23
4.13888e-23
2.00792e-23
6.34938e-25
2.27875e-24
2.65419e-23
4.34617e-23
1.77993e-23
2.19493e-24
5.70705e-24
1.46794e-23
1.13128e-23
3.15795e-24
1.54833e-24
5.90611e-24
5.02983e-24
2.57717e-25
1.84193e-24
9.61919e-24
4.44285e-24
6.42381e-26
1.03455e-24
3.70899e-24
2.6968e-25
7.59989e-24
2.61683e-23
5.98566e-24
2.28692e-24
2.64528e-24
8.77705e-24
3.77229e-23
1.93692e-21
3.63315e-23
3.61994e-20
2.51465e-23
5.11115e-21
1.57866e-22
4.86256e-23
1.74432e-23
2.39094e-24
3.23556e-25
8.51593e-26
1.78898e-26
5.05728e-25
6.56566e-26
7.70836e-26
3.8592e-25
1.64356e-25
5.79897e-26
7.28794e-25
8.94356e-25
4.92192e-24
5.80836e-24
1.5288e-23
1.98954e-23
1.79248e-23
8.09599e-24
6.13502e-25
9.04954e-27
5.12502e-24
8.9498e-24
1.15385e-23
4.85392e-24
8.08942e-26
7.85769e-25
7.62276e-24
1.16675e-23
4.34825e-24
4.42404e-25
1.56939e-24
4.76528e-24
3.55661e-24
7.21902e-25
3.47518e-25
1.59063e-24
1.39167e-24
3.76099e-26
6.53644e-25
3.03421e-24
1.37295e-24
8.6733e-27
2.39421e-25
8.61025e-25
4.57656e-26
2.22702e-24
6.76823e-24
1.73921e-24
7.09209e-25
6.87767e-25
2.18554e-24
4.54922e-24
2.97036e-22
1.06765e-25
6.40707e-21
7.11014e-25
8.35745e-22
3.55201e-23
5.37244e-24
3.74979e-24
5.34761e-25
6.18254e-26
1.11317e-26
2.86565e-27
8.77696e-26
1.26186e-26
2.09439e-26
6.83148e-26
2.50447e-26
1.15401e-26
1.79886e-25
2.6744e-25
1.20553e-24
1.39219e-24
3.48153e-24
4.30613e-24
3.70309e-24
1.56417e-24
6.3065e-26
9.57997e-27
1.3459e-24
2.49706e-24
3.00934e-24
1.10775e-24
1.04282e-26
2.45498e-25
2.06274e-24
2.96365e-24
1.01875e-24
7.90844e-26
4.282e-25
1.42349e-24
1.03443e-24
1.49588e-25
8.02996e-26
4.29602e-25
3.55084e-25
4.89433e-27
2.09028e-25
8.89728e-25
3.9527e-25
1.79758e-27
5.75261e-26
1.87074e-25
8.01027e-27
5.85434e-25
1.62684e-24
4.68142e-25
1.87433e-25
1.54157e-25
4.58752e-25
4.64356e-25
4.48899e-23
1.1305e-24
1.02472e-21
7.15139e-24
1.44906e-23
9.86351e-26
8.65667e-26
3.43341e-26
1.76021e-29
2.18472e-27
5.83927e-27
7.62542e-28
7.47016e-28
1.23741e-27
1.22964e-26
4.16609e-26
9.42955e-27
8.23387e-28
2.05786e-26
2.27077e-27
5.9261e-27
8.67719e-27
1.67135e-25
5.27805e-25
5.74694e-25
1.11106e-24
9.44646e-25
3.56429e-25
9.48567e-26
4.4852e-29
7.60028e-27
2.09161e-26
3.91863e-27
1.68974e-27
8.13438e-26
2.82044e-25
3.20508e-25
1.39411e-25
1.33025e-26
2.93975e-30
1.15912e-28
1.19468e-27
4.22932e-26
1.29868e-25
1.21736e-25
3.27022e-26
5.62684e-28
1.35139e-28
7.43523e-29
1.87658e-26
9.05874e-26
7.4655e-26
5.30552e-27
1.801e-27
4.59665e-27
1.04377e-29
4.21446e-27
3.40287e-28
3.42114e-26
5.2888e-24
6.58764e-23
9.57954e-23
6.46989e-24
1.64566e-22
2.13766e-23
6.78981e-24
6.16661e-25
2.9409e-26
6.07963e-28
6.84598e-27
5.04987e-27
3.26963e-27
8.90892e-28
3.2363e-27
2.0315e-26
8.57545e-26
1.202e-26
4.12532e-27
4.79294e-26
5.42424e-27
3.00908e-27
1.12647e-26
2.95072e-25
6.95235e-25
1.23802e-24
2.0051e-24
1.85015e-24
9.28457e-25
2.4292e-25
1.67799e-26
7.8673e-28
8.9682e-27
3.41657e-27
6.15291e-27
1.3103e-25
4.91496e-25
6.12367e-25
3.06852e-25
4.92518e-26
1.4398e-27
2.82988e-29
6.31275e-27
8.54798e-26
2.43057e-25
2.38975e-25
7.39378e-26
3.87451e-27
2.80144e-30
7.19193e-28
3.5728e-26
1.50808e-25
1.29596e-25
1.1576e-26
8.85175e-28
7.39252e-27
2.57471e-28
1.85479e-27
8.02269e-29
1.00636e-25
1.1867e-23
2.66047e-22
4.69264e-22
1.71514e-23
3.10487e-22
1.76417e-22
2.17924e-23
9.0016e-24
5.02821e-26
5.78945e-27
9.54328e-27
7.01181e-27
5.11316e-27
2.03271e-27
4.402e-27
2.76297e-26
1.26875e-25
2.52521e-26
3.85436e-27
9.05472e-26
1.94755e-26
7.73938e-27
1.39782e-26
4.6563e-25
1.06342e-24
1.69817e-24
3.12934e-24
2.80067e-24
1.41198e-24
4.32993e-25
3.1373e-26
5.47294e-28
1.41641e-26
6.22252e-27
8.14793e-27
1.88386e-25
6.9746e-25
8.90519e-25
4.72603e-25
8.41083e-26
3.1942e-27
1.09073e-28
1.11708e-26
1.21087e-25
3.54301e-25
3.50687e-25
1.14799e-25
7.82816e-27
8.5617e-30
1.45152e-27
5.25355e-26
2.1818e-25
1.94581e-25
2.16656e-26
1.26982e-27
9.69137e-27
1.2902e-27
3.23268e-27
5.447e-28
1.82181e-25
2.57583e-23
4.86431e-22
5.8036e-22
2.32758e-22
4.34992e-22
7.63054e-22
2.90961e-23
4.12554e-23
3.50661e-26
1.70602e-26
8.00839e-27
1.17877e-26
6.31158e-27
3.20479e-27
5.34122e-27
3.36978e-26
1.61461e-25
3.98702e-26
3.20506e-27
1.42263e-25
4.65359e-26
2.24173e-26
2.79407e-26
7.56596e-25
1.51495e-24
2.00566e-24
4.05369e-24
3.40213e-24
1.50955e-24
4.76599e-25
1.93678e-26
4.40378e-27
3.8765e-26
1.52923e-26
1.03191e-26
2.73436e-25
9.20945e-25
1.11774e-24
5.65868e-25
8.75958e-26
1.65193e-27
6.02953e-29
1.31899e-26
1.52166e-25
4.39646e-25
4.17598e-25
1.27426e-25
7.09898e-27
1.07888e-29
2.13684e-27
6.74471e-26
2.73702e-25
2.38021e-25
2.7381e-26
3.38891e-27
1.24966e-26
3.39295e-27
8.56162e-27
5.1158e-27
2.11209e-25
3.96498e-23
7.98251e-22
6.57744e-22
1.07053e-21
4.07459e-22
1.97057e-21
1.87977e-23
1.04821e-22
9.71632e-26
3.70192e-26
7.2906e-27
1.68572e-26
9.83616e-27
4.18794e-27
7.77271e-27
4.65137e-26
2.02701e-25
5.09998e-26
5.08802e-27
2.04708e-25
8.63882e-26
3.51998e-26
5.65246e-26
1.24103e-24
2.08121e-24
2.60584e-24
5.26906e-24
4.31023e-24
1.68125e-24
5.35401e-25
1.76324e-26
1.37454e-26
7.56766e-26
3.44651e-26
1.83116e-26
4.26257e-25
1.28711e-24
1.47248e-24
7.00012e-25
9.45306e-26
1.34547e-27
3.13748e-28
1.74857e-26
2.06633e-25
5.6644e-25
5.1265e-25
1.45968e-25
6.90467e-27
1.36099e-28
4.03163e-27
9.4062e-26
3.53147e-25
2.96811e-25
3.56809e-26
6.76707e-27
1.68362e-26
6.71377e-27
2.45637e-26
3.62812e-26
2.11127e-25
5.58786e-23
1.10917e-21
9.02153e-22
2.50484e-21
3.6116e-22
3.63363e-21
8.69312e-24
1.88643e-22
5.58323e-25
7.19892e-26
5.42959e-27
2.50487e-26
1.54008e-26
6.20926e-27
1.21296e-26
6.72888e-26
2.53384e-25
6.14102e-26
9.58498e-27
2.75911e-25
1.30011e-25
4.43327e-26
9.96242e-26
1.91447e-24
2.8529e-24
3.52321e-24
6.92337e-24
5.66303e-24
1.96532e-24
6.39853e-25
1.59732e-26
2.9971e-26
1.18415e-25
7.45108e-26
4.05127e-26
7.03567e-25
1.81419e-24
1.97703e-24
8.65487e-25
1.01142e-25
1.53752e-27
1.86802e-27
2.85693e-26
2.99985e-25
7.59824e-25
6.53441e-25
1.75535e-25
6.94973e-27
7.70648e-28
8.70692e-27
1.38559e-25
4.73976e-25
3.86541e-25
5.12832e-26
1.2918e-26
2.13811e-26
1.48479e-26
8.87516e-26
2.02531e-25
2.70997e-25
6.25249e-23
1.37095e-21
1.60273e-21
3.96026e-21
4.17019e-22
5.27656e-21
5.25919e-24
2.6468e-22
2.26884e-24
1.22612e-25
2.6614e-27
4.12662e-26
2.20756e-26
1.05973e-26
1.83552e-26
9.70459e-26
3.26527e-25
7.896e-26
1.82301e-26
3.60582e-25
1.64725e-25
5.45958e-26
1.72039e-25
2.70328e-24
3.97838e-24
4.9009e-24
9.08447e-24
7.65806e-24
2.43301e-24
7.77581e-25
9.45744e-27
5.46371e-26
1.60174e-25
1.53157e-25
8.24146e-26
1.0985e-24
2.45605e-24
2.60973e-24
1.03971e-24
1.04012e-25
1.8846e-27
8.95075e-27
5.81445e-26
4.49805e-25
1.027e-24
8.33653e-25
2.12397e-25
6.83981e-27
2.73967e-27
2.20233e-26
2.05845e-25
6.50784e-25
5.16708e-25
7.96205e-26
2.05583e-26
2.30734e-26
4.20995e-26
2.9621e-25
8.84177e-25
7.95403e-25
5.4971e-23
1.60668e-21
3.25699e-21
4.30866e-21
7.55363e-22
6.82206e-21
9.12134e-24
3.16138e-22
7.12284e-24
1.72091e-25
2.08136e-27
7.01352e-26
3.18793e-26
1.74016e-26
2.69487e-26
1.40821e-25
4.38695e-25
1.05972e-25
2.97313e-26
4.9641e-25
1.83608e-25
7.02181e-26
3.01538e-25
3.64484e-24
5.72204e-24
7.01954e-24
1.22511e-23
1.05586e-23
3.22723e-24
9.25718e-25
1.74611e-27
9.5946e-26
2.15277e-25
2.68486e-25
1.2382e-25
1.53331e-24
3.28595e-24
3.32533e-24
1.23279e-24
9.73523e-26
2.23372e-27
3.19661e-26
1.1602e-25
6.45015e-25
1.35115e-24
1.04995e-24
2.55872e-25
5.04885e-27
8.22874e-27
5.52687e-26
2.91637e-25
8.82387e-25
7.01914e-25
1.20382e-25
2.39037e-26
2.68748e-26
1.1752e-25
8.40484e-25
2.82255e-24
2.78874e-24
4.07149e-23
1.97114e-21
6.67396e-21
3.69722e-21
1.75133e-21
8.03837e-21
2.9961e-23
3.48541e-22
1.73125e-23
2.34529e-25
4.55508e-27
1.26327e-25
4.61754e-26
2.59903e-26
3.99886e-26
2.10998e-25
6.07234e-25
1.4331e-25
4.14719e-26
7.54509e-25
1.88639e-25
9.95317e-26
5.35234e-25
5.0141e-24
8.50377e-24
1.04041e-23
1.76187e-23
1.45775e-23
4.61946e-24
1.06634e-24
1.47228e-29
1.72274e-25
3.21771e-25
3.56164e-25
1.32315e-25
1.94332e-24
4.38097e-24
4.23246e-24
1.46688e-24
7.83856e-26
6.84643e-27
8.09829e-26
1.95178e-25
8.42624e-25
1.73998e-24
1.33441e-24
3.05483e-25
1.66326e-27
2.35025e-26
1.17791e-25
3.68508e-25
1.17251e-24
9.72106e-25
1.60072e-25
2.10102e-26
3.65667e-26
2.73942e-25
2.20023e-24
7.19849e-24
8.03861e-24
2.54912e-23
2.74785e-21
1.3066e-20
2.95708e-21
3.69115e-21
1.03907e-20
7.96796e-23
4.32075e-22
3.39995e-23
3.66475e-25
1.40739e-26
2.39202e-25
6.81324e-26
3.45754e-26
6.17958e-26
3.36087e-25
8.65143e-25
2.03322e-25
5.4718e-26
1.19172e-24
1.88412e-25
1.5734e-25
9.39685e-25
7.4331e-24
1.30629e-23
1.59648e-23
2.70951e-23
2.03393e-23
7.08886e-24
1.22223e-24
1.87563e-27
3.12532e-25
5.33646e-25
3.57261e-25
1.18936e-25
2.44194e-24
6.07151e-24
5.55267e-24
1.80707e-24
5.58188e-26
2.9907e-26
1.56021e-25
2.88909e-25
1.01848e-24
2.28121e-24
1.74849e-24
3.49767e-25
2.78347e-28
6.11003e-26
2.03734e-25
4.10807e-25
1.56234e-24
1.3537e-24
1.83544e-25
1.84245e-26
4.8978e-26
5.68641e-25
4.95663e-24
1.58576e-23
1.85477e-23
1.63819e-23
4.44815e-21
2.36504e-20
3.34348e-21
7.1399e-21
1.88173e-20
1.34604e-22
6.31795e-22
6.09242e-23
7.8394e-25
2.89433e-26
4.72356e-25
1.11005e-25
4.20887e-26
1.03767e-25
5.71692e-25
1.23279e-24
2.89636e-25
7.12518e-26
1.82619e-24
1.76091e-25
2.7079e-25
1.57951e-24
1.1997e-23
2.079e-23
2.54457e-23
4.39823e-23
2.93865e-23
1.12791e-23
1.45275e-24
5.72076e-27
6.01394e-25
9.76545e-25
3.39939e-25
1.1581e-25
3.30642e-24
8.96227e-24
7.62145e-24
2.36735e-24
3.68073e-26
9.70621e-26
2.80791e-25
4.08237e-25
1.20331e-24
3.10776e-24
2.40493e-24
3.57973e-25
7.06273e-27
1.38046e-25
2.77009e-25
4.24497e-25
2.13433e-24
1.84748e-24
1.98792e-25
2.02012e-26
5.80387e-26
1.14969e-24
9.31366e-24
2.94551e-23
3.46487e-23
1.6921e-23
7.7927e-21
3.92846e-20
6.65817e-21
1.44369e-20
4.08125e-20
1.64738e-22
1.19946e-21
8.9847e-23
1.87967e-24
2.9536e-26
1.00315e-24
2.11623e-25
5.55557e-26
2.1016e-25
9.70477e-25
1.73208e-24
4.22465e-25
1.02792e-25
2.57884e-24
1.29873e-25
5.36051e-25
2.4848e-24
2.06055e-23
3.40821e-23
4.26407e-23
7.38353e-23
4.36576e-23
1.80113e-23
1.7938e-24
2.16904e-26
1.29456e-24
2.00177e-24
4.38812e-25
1.38066e-25
4.75376e-24
1.33138e-23
1.11398e-23
3.26857e-24
2.80364e-26
2.5985e-25
5.54931e-25
5.30749e-25
1.50385e-24
4.43649e-24
3.38877e-24
3.04794e-25
6.74396e-26
2.6801e-25
2.8539e-25
4.48348e-25
2.97262e-24
2.50125e-24
2.33922e-25
3.49994e-26
7.97412e-26
2.29872e-24
1.55424e-23
4.60203e-23
5.24584e-23
2.6622e-23
1.37288e-20
6.25641e-20
1.74498e-20
2.49664e-20
8.36588e-20
1.71759e-22
2.64781e-21
1.11389e-22
4.76438e-24
7.82586e-27
2.06854e-24
4.9229e-25
9.69532e-26
5.30202e-25
1.52465e-24
2.46027e-24
7.63697e-25
1.84454e-25
3.30572e-24
5.48739e-26
1.14938e-24
3.8913e-24
3.65948e-23
5.70624e-23
7.53731e-23
1.23844e-22
6.54185e-23
2.81855e-23
2.39102e-24
1.74258e-25
3.01143e-24
4.43925e-24
7.96035e-25
2.1929e-25
7.23485e-24
2.03695e-23
1.70104e-23
4.64414e-24
6.64202e-26
6.51886e-25
1.20345e-24
5.36522e-25
2.20842e-24
6.57654e-24
4.8221e-24
2.44951e-25
2.78233e-25
4.61312e-25
2.27819e-25
5.14408e-25
4.25437e-24
3.46305e-24
3.26168e-25
1.07216e-25
1.8249e-25
4.34349e-24
2.30287e-23
6.17063e-23
6.18473e-23
6.91448e-23
2.44732e-20
8.95925e-20
4.68927e-20
4.22959e-20
1.647e-19
8.80556e-23
5.5097e-21
1.28274e-22
1.19119e-23
6.23273e-28
3.81732e-24
1.24538e-24
2.59676e-25
1.38758e-24
2.17731e-24
3.58114e-24
1.81348e-24
2.9649e-25
4.0515e-24
7.15136e-27
2.42085e-24
6.9023e-24
6.58592e-23
9.7946e-23
1.3863e-22
2.02684e-22
9.82951e-23
4.22724e-23
3.98741e-24
9.50154e-25
7.1349e-24
9.97644e-24
1.69719e-24
4.16937e-25
1.18364e-23
3.32037e-23
2.68755e-23
6.54964e-24
3.88206e-25
1.5908e-24
2.63633e-24
3.14015e-25
4.02174e-24
1.00596e-23
6.80799e-24
3.65878e-25
6.98497e-25
8.08668e-25
1.82776e-25
5.95738e-25
6.53783e-24
4.96889e-24
5.67824e-25
3.60177e-25
6.76204e-25
7.85353e-24
2.94696e-23
7.29309e-23
5.83356e-23
1.91243e-22
4.28886e-20
1.23496e-19
1.14373e-19
6.40427e-20
3.11289e-19
2.27049e-23
1.07511e-20
1.42308e-22
2.71615e-23
1.13737e-25
6.36312e-24
2.90346e-24
9.63062e-25
3.19869e-24
2.95468e-24
5.38517e-24
4.71823e-24
3.49416e-25
5.14712e-24
2.23597e-26
5.1706e-24
1.45421e-23
1.19476e-22
1.73899e-22
2.58788e-22
3.22438e-22
1.48008e-22
5.94694e-23
8.94498e-24
3.49006e-24
1.68671e-23
2.18919e-23
3.88156e-24
7.42386e-25
2.09517e-23
5.68972e-23
4.43451e-23
8.85864e-24
2.01073e-24
3.77638e-24
5.48444e-24
4.62132e-26
8.32737e-24
1.56946e-23
9.90895e-24
1.11979e-24
1.26305e-24
1.70342e-24
2.6429e-25
6.51228e-25
1.0828e-23
7.46762e-24
1.21937e-24
1.026e-24
2.91783e-24
1.36214e-23
3.19404e-23
7.66811e-23
4.40755e-23
4.81962e-22
7.05337e-20
1.57147e-19
2.48288e-19
9.8741e-20
5.59602e-19
1.29918e-25
1.93157e-20
1.63137e-22
5.54599e-23
1.04452e-24
1.01279e-23
5.79968e-24
3.66759e-24
6.25431e-24
4.0507e-24
8.69997e-24
1.14409e-23
3.53931e-25
7.2395e-24
3.1615e-25
1.21686e-23
3.38755e-23
2.19602e-22
3.20429e-22
4.83153e-22
5.10333e-22
2.22436e-22
7.97756e-23
2.29702e-23
1.04744e-23
3.9805e-23
4.67498e-23
8.92368e-24
1.15152e-24
4.02657e-23
1.02207e-22
7.63675e-23
1.17356e-23
7.73875e-24
8.71653e-24
1.07372e-23
1.86133e-26
1.73718e-23
2.57564e-23
1.53237e-23
3.43061e-24
1.92354e-24
4.43765e-24
7.13847e-25
7.33771e-25