/*--------------------------------*- C++ -*----------------------------------*\
| =========                 |                                                 |
| \\      /  F ield         | OpenFOAM: The Open Source CFD Toolbox           |
|  \\    /   O peration     | Version:  2312                                  |
|   \\  /    A nd           | Website:  www.openfoam.com                      |
|    \\/     M anipulation  |                                                 |
\*---------------------------------------------------------------------------*/
FoamFile
{
    version     2.0;
    format      ascii;
    arch        "LSB;label=32;scalar=64";
    class       volScalarField;
    location    "80";
    object      pPrime2Mean;
}
// * * * * * * * * * * * * * * * * * * * * * * * * * * * * * * * * * * * * * //

dimensions      [0 4 -4 0 0 0 0];

internalField   nonuniform List<scalar> 
144000
(
2.80222e-17
3.62656e-17
3.369e-17
2.69189e-17
1.9762e-17
1.44581e-17
1.08936e-17
8.04269e-18
5.86651e-18
4.7845e-18
4.39574e-18
3.99794e-18
3.3256e-18
2.68337e-18
2.14705e-18
1.80525e-18
1.52568e-18
1.35753e-18
1.20331e-18
1.11391e-18
9.85238e-19
8.31377e-19
7.74839e-19
4.8718e-19
4.62391e-19
2.88335e-19
2.58295e-19
2.21501e-19
1.99017e-19
1.65083e-19
1.88997e-19
1.25962e-19
1.7337e-19
1.20564e-19
1.37524e-19
1.71272e-19
6.78812e-20
2.35304e-19
7.24373e-20
1.6792e-19
2.29735e-19
2.44263e-20
3.56321e-19
7.20517e-20
2.46263e-19
3.63949e-19
1.139e-19
5.07516e-19
3.69248e-19
4.03026e-19
7.73656e-19
6.65771e-19
9.91089e-19
1.48646e-18
1.80341e-18
2.77345e-18
4.41983e-18
6.87186e-18
1.52623e-17
2.085e-17
2.94255e-17
3.71444e-17
3.45915e-17
2.75948e-17
2.00886e-17
1.46503e-17
1.10187e-17
8.12246e-18
5.91073e-18
4.81111e-18
4.41794e-18
4.01775e-18
3.33971e-18
2.69281e-18
2.15364e-18
1.81044e-18
1.52974e-18
1.36062e-18
1.20594e-18
1.11633e-18
9.87912e-19
8.32187e-19
7.77858e-19
4.8765e-19
4.63256e-19
2.89486e-19
2.58039e-19
2.22469e-19
1.99472e-19
1.65199e-19
1.9006e-19
1.26061e-19
1.74333e-19
1.21492e-19
1.37497e-19
1.7419e-19
6.67934e-20
2.38733e-19
7.4142e-20
1.67723e-19
2.36902e-19
2.2418e-20
3.63603e-19
7.69936e-20
2.47724e-19
3.78365e-19
1.16792e-19
5.21279e-19
3.87141e-19
4.15439e-19
8.03615e-19
6.97131e-19
1.03086e-18
1.55242e-18
1.88846e-18
2.89802e-18
4.63075e-18
7.14468e-18
1.60133e-17
2.13314e-17
3.0257e-17
3.79155e-17
3.49014e-17
2.7822e-17
2.01692e-17
1.47131e-17
1.10815e-17
8.17238e-18
5.94053e-18
4.83031e-18
4.43765e-18
4.03733e-18
3.35344e-18
2.70193e-18
2.15963e-18
1.81575e-18
1.53403e-18
1.36416e-18
1.20859e-18
1.11934e-18
9.91083e-19
8.3272e-19
7.82229e-19
4.87372e-19
4.64761e-19
2.90721e-19
2.57871e-19
2.23794e-19
2.0034e-19
1.6528e-19
1.92027e-19
1.26102e-19
1.76232e-19
1.22952e-19
1.37857e-19
1.78949e-19
6.53375e-20
2.44745e-19
7.66577e-20
1.68571e-19
2.48004e-19
2.01195e-20
3.75873e-19
8.44943e-20
2.52095e-19
4.00266e-19
1.23061e-19
5.43707e-19
4.15173e-19
4.36549e-19
8.49916e-19
7.45386e-19
1.09049e-18
1.64619e-18
2.00256e-18
3.05067e-18
4.85837e-18
7.4471e-18
1.6647e-17
2.1854e-17
2.97319e-17
3.76371e-17
3.41676e-17
2.71979e-17
1.9813e-17
1.45128e-17
1.09871e-17
8.12865e-18
5.91403e-18
4.8144e-18
4.43278e-18
4.0391e-18
3.35391e-18
2.70216e-18
2.15902e-18
1.81642e-18
1.53493e-18
1.36501e-18
1.20885e-18
1.1207e-18
9.93064e-19
8.31815e-19
7.86029e-19
4.86326e-19
4.65971e-19
2.91986e-19
2.57548e-19
2.25275e-19
2.01331e-19
1.65335e-19
1.94389e-19
1.26122e-19
1.7856e-19
1.24693e-19
1.38318e-19
1.84686e-19
6.36858e-20
2.52022e-19
7.97843e-20
1.69734e-19
2.61209e-19
1.77981e-20
3.90172e-19
9.3882e-20
2.57237e-19
4.25882e-19
1.31123e-19
5.69206e-19
4.48205e-19
4.60457e-19
9.01436e-19
7.99084e-19
1.15264e-18
1.74208e-18
2.11055e-18
3.1786e-18
5.01134e-18
7.56422e-18
1.68209e-17
2.17885e-17
2.80168e-17
3.66508e-17
3.25375e-17
2.58156e-17
1.90586e-17
1.40397e-17
1.07155e-17
7.97016e-18
5.8133e-18
4.74648e-18
4.3869e-18
4.00817e-18
3.33095e-18
2.68641e-18
2.14693e-18
1.80857e-18
1.52928e-18
1.36052e-18
1.20448e-18
1.11819e-18
9.91905e-19
8.2839e-19
7.87579e-19
4.84375e-19
4.66469e-19
2.93135e-19
2.57158e-19
2.26675e-19
2.02332e-19
1.65267e-19
1.96813e-19
1.26066e-19
1.80939e-19
1.26484e-19
1.38676e-19
1.90601e-19
6.20119e-20
2.59233e-19
8.3186e-20
1.70727e-19
2.74489e-19
1.57729e-20
4.03747e-19
1.03971e-19
2.61792e-19
4.51024e-19
1.39676e-19
5.92503e-19
4.80755e-19
4.82388e-19
9.48288e-19
8.4832e-19
1.20428e-18
1.81925e-18
2.19167e-18
3.25282e-18
5.08037e-18
7.4965e-18
1.66622e-17
2.13671e-17
2.59848e-17
3.59146e-17
3.05118e-17
2.40662e-17
1.80817e-17
1.33901e-17
1.03018e-17
7.71104e-18
5.64433e-18
4.62745e-18
4.29743e-18
3.94086e-18
3.28093e-18
2.65153e-18
2.12121e-18
1.79042e-18
1.51576e-18
1.34947e-18
1.19431e-18
1.11051e-18
9.86336e-19
8.21694e-19
7.85843e-19
4.81276e-19
4.66081e-19
2.93961e-19
2.56862e-19
2.2783e-19
2.03312e-19
1.65065e-19
1.99091e-19
1.25901e-19
1.83108e-19
1.28142e-19
1.38816e-19
1.96113e-19
6.04246e-20
2.65696e-19
8.64846e-20
1.71408e-19
2.86409e-19
1.41965e-20
4.15119e-19
1.1354e-19
2.65307e-19
4.72512e-19
1.4776e-19
6.11212e-19
5.0865e-19
5.00501e-19
9.85119e-19
8.88063e-19
1.24216e-18
1.87298e-18
2.24344e-18
3.28103e-18
5.08293e-18
7.31262e-18
1.64739e-17
2.10424e-17
2.39877e-17
3.57893e-17
2.83563e-17
2.21909e-17
1.69673e-17
1.26121e-17
9.77581e-18
7.37044e-18
5.41839e-18
4.46518e-18
4.1693e-18
3.83964e-18
3.20501e-18
2.59817e-18
2.08226e-18
1.76232e-18
1.49447e-18
1.33183e-18
1.17841e-18
1.09746e-18
9.76185e-19
8.11459e-19
7.80365e-19
4.76801e-19
4.64716e-19
2.94337e-19
2.56785e-19
2.2871e-19
2.04294e-19
1.64783e-19
2.01116e-19
1.25658e-19
1.84924e-19
1.29602e-19
1.38719e-19
2.00915e-19
5.90041e-20
2.70985e-19
8.94214e-20
1.71868e-19
2.96315e-19
1.30568e-20
4.24003e-19
1.21774e-19
2.67977e-19
4.89534e-19
1.54688e-19
6.25356e-19
5.3039e-19
5.14761e-19
1.012e-18
9.16923e-19
1.26772e-18
1.90414e-18
2.26848e-18
3.27204e-18
5.03096e-18
7.04724e-18
1.63432e-17
2.1016e-17
2.21299e-17
3.61499e-17
2.61684e-17
2.03014e-17
1.57419e-17
1.17334e-17
9.16015e-18
6.96386e-18
5.14712e-18
4.26844e-18
4.00968e-18
3.7106e-18
3.10735e-18
2.52869e-18
2.03162e-18
1.72532e-18
1.4663e-18
1.30845e-18
1.15758e-18
1.0796e-18
9.61989e-19
7.97882e-19
7.71369e-19
4.70854e-19
4.62421e-19
2.94169e-19
2.56955e-19
2.29373e-19
2.05301e-19
1.64535e-19
2.02874e-19
1.25429e-19
1.86354e-19
1.3093e-19
1.3842e-19
2.04985e-19
5.78263e-20
2.75219e-19
9.20116e-20
1.72139e-19
3.04481e-19
1.2201e-20
4.30774e-19
1.28653e-19
2.70036e-19
5.02805e-19
1.6021e-19
6.36469e-19
5.46534e-19
5.25695e-19
1.03135e-18
9.36088e-19
1.28325e-18
1.91663e-18
2.26967e-18
3.23309e-18
4.93164e-18
6.71938e-18
1.62517e-17
2.11798e-17
2.04317e-17
3.65466e-17
2.39934e-17
1.84689e-17
1.44337e-17
1.07863e-17
8.48046e-18
6.51041e-18
4.84474e-18
4.04732e-18
3.82764e-18
3.56089e-18
2.99332e-18
2.44674e-18
1.97164e-18
1.68097e-18
1.43244e-18
1.2803e-18
1.13292e-18
1.05782e-18
9.44665e-19
7.81493e-19
7.59502e-19
4.63534e-19
4.59233e-19
2.93453e-19
2.57266e-19
2.29909e-19
2.06313e-19
1.64444e-19
2.04433e-19
1.2532e-19
1.87462e-19
1.32273e-19
1.37951e-19
2.08532e-19
5.69293e-20
2.7855e-19
9.45388e-20
1.72087e-19
3.11624e-19
1.13771e-20
4.36093e-19
1.34704e-19
2.71142e-19
5.13896e-19
1.63946e-19
6.4509e-19
5.58377e-19
5.32663e-19
1.04463e-18
9.45512e-19
1.28812e-18
1.91201e-18
2.24691e-18
3.16356e-18
4.78679e-18
6.34581e-18
1.60967e-17
2.125e-17
1.8869e-17
3.64342e-17
2.18757e-17
1.67128e-17
1.30885e-17
9.8064e-18
7.76672e-18
6.03081e-18
4.52531e-18
3.8125e-18
3.63161e-18
3.39774e-18
2.86869e-18
2.35635e-18
1.9052e-18
1.63129e-18
1.39439e-18
1.24837e-18
1.10548e-18
1.03304e-18
9.25355e-19
7.62968e-19
7.45658e-19
4.55168e-19
4.55175e-19
2.92282e-19
2.57514e-19
2.30361e-19
2.07248e-19
1.64569e-19
2.05801e-19
1.25403e-19
1.88271e-19
1.33776e-19
1.37235e-19
2.11714e-19
5.63072e-20
2.80917e-19
9.74003e-20
1.71246e-19
3.18441e-19
1.03396e-20
4.39749e-19
1.40643e-19
2.702e-19
5.23559e-19
1.65352e-19
6.50116e-19
5.66394e-19
5.33399e-19
1.05044e-18
9.44122e-19
1.27858e-18
1.88768e-18
2.19446e-18
3.05684e-18
4.57951e-18
5.92667e-18
1.57557e-17
2.08234e-17
1.73596e-17
3.52907e-17
1.98426e-17
1.50084e-17
1.1758e-17
8.83234e-18
7.0492e-18
5.54514e-18
4.20277e-18
3.57392e-18
3.42974e-18
3.22806e-18
2.73868e-18
2.26144e-18
1.83532e-18
1.57842e-18
1.35364e-18
1.21383e-18
1.07611e-18
1.00603e-18
9.05024e-19
7.42996e-19
7.30606e-19
4.46296e-19
4.50279e-19
2.90827e-19
2.57492e-19
2.30675e-19
2.07995e-19
1.64921e-19
2.06923e-19
1.25705e-19
1.88732e-19
1.35492e-19
1.3616e-19
2.14588e-19
5.59226e-20
2.82021e-19
1.00921e-19
1.69031e-19
3.2513e-19
8.93593e-21
4.40882e-19
1.46843e-19
2.66002e-19
5.31188e-19
1.63838e-19
6.49368e-19
5.69872e-19
5.25574e-19
1.04621e-18
9.29667e-19
1.24981e-18
1.84014e-18
2.10851e-18
2.90805e-18
4.3076e-18
5.46301e-18
1.50777e-17
1.9667e-17
1.58311e-17
3.29535e-17
1.78992e-17
1.33462e-17
1.04837e-17
7.89682e-18
6.35343e-18
5.06979e-18
3.88805e-18
3.33972e-18
3.22879e-18
3.05741e-18
2.60761e-18
2.16527e-18
1.76443e-18
1.52418e-18
1.31173e-18
1.17767e-18
1.04564e-18
9.77469e-19
8.84274e-19
7.2221e-19
7.14883e-19
4.37463e-19
4.44622e-19
2.8931e-19
2.57072e-19
2.3076e-19
2.08441e-19
1.65398e-19
2.07676e-19
1.262e-19
1.88777e-19
1.37395e-19
1.34566e-19
2.17028e-19
5.57568e-20
2.81423e-19
1.05127e-19
1.64974e-19
3.31377e-19
7.16645e-21
4.38577e-19
1.53185e-19
2.57573e-19
5.35826e-19
1.5914e-19
6.41302e-19
5.68088e-19
5.08199e-19
1.03021e-18
9.01696e-19
1.20098e-18
1.76938e-18
1.99046e-18
2.71965e-18
3.98094e-18
4.96659e-18
1.40275e-17
1.77734e-17
1.42357e-17
2.95343e-17
1.60345e-17
1.17261e-17
9.29227e-18
7.02351e-18
5.69978e-18
4.61669e-18
3.58874e-18
3.11588e-18
3.03403e-18
2.89026e-18
2.47905e-18
2.07017e-18
1.69444e-18
1.47009e-18
1.26997e-18
1.14088e-18
1.0149e-18
9.47997e-19
8.63487e-19
7.01152e-19
6.98814e-19
4.29106e-19
4.3833e-19
2.87934e-19
2.56236e-19
2.30554e-19
2.08515e-19
1.65894e-19
2.07921e-19
1.26853e-19
1.88301e-19
1.39377e-19
1.32432e-19
2.18809e-19
5.58148e-20
2.7882e-19
1.09856e-19
1.59128e-19
3.37014e-19
5.17315e-21
4.32371e-19
1.59365e-19
2.45118e-19
5.36803e-19
1.51535e-19
6.25639e-19
5.60974e-19
4.81674e-19
1.0028e-18
8.62014e-19
1.13423e-18
1.67951e-18
1.84747e-18
2.50233e-18
3.61902e-18
4.4553e-18
1.26417e-17
1.53313e-17
1.25667e-17
2.53819e-17
1.42413e-17
1.01665e-17
8.198e-18
6.22668e-18
5.10021e-18
4.19375e-18
3.30949e-18
2.90628e-18
2.8491e-18
2.72994e-18
2.35539e-18
1.97817e-18
1.62685e-18
1.41739e-18
1.22938e-18
1.10443e-18
9.84633e-19
9.1823e-19
8.42894e-19
6.80272e-19
6.82564e-19
4.21489e-19
4.31545e-19
2.86823e-19
2.55047e-19
2.30053e-19
2.08204e-19
1.66333e-19
2.07572e-19
1.27628e-19
1.87266e-19
1.41314e-19
1.29837e-19
2.19777e-19
5.61262e-20
2.74242e-19
1.14881e-19
1.51763e-19
3.42221e-19
3.20427e-21
4.22679e-19
1.65213e-19
2.29358e-19
5.34063e-19
1.41812e-19
6.03358e-19
5.49505e-19
4.48122e-19
9.66107e-19
8.14116e-19
1.05452e-18
1.57699e-18
1.68976e-18
2.2702e-18
3.2476e-18
3.94959e-18
1.10312e-17
1.26572e-17
1.08518e-17
2.09476e-17
1.25128e-17
8.69978e-18
7.20432e-18
5.51249e-18
4.56018e-18
3.80545e-18
3.05256e-18
2.71289e-18
2.67633e-18
2.57842e-18
2.23819e-18
1.89048e-18
1.56241e-18
1.3668e-18
1.19062e-18
1.06896e-18
9.55357e-19
8.8875e-19
8.22666e-19
6.59928e-19
6.6625e-19
4.14713e-19
4.24412e-19
2.8602e-19
2.53603e-19
2.29313e-19
2.07548e-19
1.66688e-19
2.06627e-19
1.28489e-19
1.85713e-19
1.43117e-19
1.26942e-19
2.19902e-19
5.67403e-20
2.67943e-19
1.20047e-19
1.4322e-19
3.47816e-19
1.56256e-21
4.10935e-19
1.7077e-19
2.11223e-19
5.28105e-19
1.31009e-19
5.75832e-19
5.35105e-19
4.10165e-19
9.22905e-19
7.62016e-19
9.67367e-19
1.46879e-18
1.52769e-18
2.03702e-18
2.88747e-18
3.46732e-18
9.32517e-18
1.00489e-17
9.14526e-18
1.66613e-17
1.08534e-17
7.36139e-18
6.3084e-18
4.88098e-18
4.08067e-18
3.45345e-18
2.81825e-18
2.53617e-18
2.51658e-18
2.43676e-18
2.12833e-18
1.80764e-18
1.50153e-18
1.31878e-18
1.15409e-18
1.03492e-18
9.2742e-19
8.6006e-19
8.02934e-19
6.404e-19
6.4998e-19
4.08765e-19
4.17062e-19
2.85511e-19
2.51995e-19
2.28423e-19
2.06615e-19
1.66967e-19
2.05163e-19
1.29405e-19
1.83756e-19
1.44736e-19
1.23936e-19
2.19252e-19
5.77008e-20
2.60328e-19
1.25206e-19
1.33928e-19
3.55058e-19
4.31468e-22
3.99646e-19
1.76193e-19
1.91679e-19
5.19659e-19
1.20112e-19
5.44869e-19
5.19224e-19
3.70296e-19
8.75958e-19
7.09272e-19
8.77754e-19
1.3607e-18
1.3698e-18
1.81353e-18
2.55268e-18
3.01939e-18
7.65801e-18
7.75298e-18
7.51373e-18
1.28132e-17
9.27353e-18
6.1745e-18
5.5035e-18
4.32743e-18
3.65912e-18
3.13715e-18
2.6056e-18
2.3755e-18
2.36987e-18
2.30533e-18
2.02605e-18
1.72987e-18
1.44437e-18
1.27356e-18
1.11994e-18
1.00257e-18
9.00999e-19
8.32536e-19
7.83791e-19
6.21881e-19
6.33852e-19
4.03579e-19
4.09585e-19
2.85247e-19
2.503e-19
2.27477e-19
2.0549e-19
1.67195e-19
2.033e-19
1.30354e-19
1.81522e-19
1.46161e-19
1.20955e-19
2.17981e-19
5.89425e-20
2.51934e-19
1.29977e-19
1.24733e-19
3.57667e-19
3.18296e-27
3.86711e-19
1.81019e-19
1.71824e-19
5.0944e-19
1.09939e-19
5.1202e-19
5.03037e-19
3.30535e-19
8.2757e-19
6.58527e-19
7.89447e-19
1.25708e-18
1.22133e-18
1.60604e-18
2.2508e-18
2.61114e-18
6.1285e-18
5.87818e-18
6.02379e-18
9.57387e-18
7.79224e-18
5.14883e-18
4.78237e-18
3.8447e-18
3.291e-18
2.85475e-18
2.41309e-18
2.22972e-18
2.2357e-18
2.18399e-18
1.93125e-18
1.65711e-18
1.39087e-18
1.23115e-18
1.08813e-18
9.7202e-19
8.76141e-19
8.0642e-19
7.65299e-19
6.04489e-19
6.1804e-19
3.99072e-19
4.02112e-19
2.85167e-19
2.48564e-19
2.26545e-19
2.04249e-19
1.67406e-19
2.01172e-19
1.31316e-19
1.79137e-19
1.47408e-19
1.18094e-19
2.16269e-19
6.03793e-20
2.43233e-19
1.34053e-19
1.16202e-19
3.4834e-19
3.80318e-22
3.66918e-19
1.8515e-19
1.52527e-19
4.98131e-19
1.01075e-19
4.78494e-19
4.87357e-19
2.92347e-19
7.79321e-19
6.11469e-19
7.04992e-19
1.1603e-18
1.08571e-18
1.41755e-18
1.98366e-18
2.24549e-18
4.8011e-18
4.44952e-18
4.72575e-18
6.99746e-18
6.43173e-18
4.28298e-18
4.13821e-18
3.42445e-18
2.97108e-18
2.60401e-18
2.23898e-18
2.09743e-18
2.11322e-18
2.07226e-18
1.84361e-18
1.58924e-18
1.34082e-18
1.19149e-18
1.05856e-18
9.43273e-19
8.52803e-19
7.81844e-19
7.4749e-19
5.88269e-19
6.02625e-19
3.95163e-19
3.94696e-19
2.85217e-19
2.46814e-19
2.25674e-19
2.02959e-19
1.67623e-19
1.98903e-19
1.32275e-19
1.76711e-19
1.485e-19
1.15436e-19
2.14256e-19
6.20434e-20
2.3443e-19
1.37702e-19
1.08238e-19
3.35966e-19
1.54406e-21
3.46254e-19
1.89304e-19
1.34094e-19
4.86144e-19
9.38017e-20
4.45142e-19
4.72653e-19
2.56658e-19
7.32345e-19
5.68965e-19
6.25946e-19
1.0714e-18
9.64299e-19
1.24857e-18
1.75032e-18
1.92302e-18
3.70285e-18
3.42983e-18
3.65094e-18
5.04882e-18
5.21318e-18
3.56334e-18
3.56522e-18
3.05843e-18
2.69382e-18
2.3823e-18
2.0815e-18
1.97713e-18
2.00141e-18
1.96953e-18
1.76266e-18
1.52594e-18
1.29397e-18
1.15443e-18
1.03108e-18
9.1626e-19
8.30892e-19
7.58847e-19
7.30373e-19
5.73212e-19
5.87689e-19
3.91778e-19
3.87396e-19
2.85353e-19
2.45072e-19
2.24887e-19
2.01672e-19
1.67864e-19
1.96593e-19
1.33219e-19
1.74329e-19
1.49462e-19
1.13033e-19
2.12059e-19
6.39514e-20
2.25685e-19
1.41222e-19
1.00682e-19
3.26272e-19
3.72314e-21
3.28508e-19
1.93718e-19
1.16741e-19
4.7373e-19
8.82708e-20
4.1255e-19
4.59162e-19
2.23993e-19
6.87129e-19
5.31309e-19
5.53034e-19
9.90508e-19
8.57193e-19
1.09785e-18
1.54803e-18
1.64264e-18
2.83163e-18
2.74583e-18
2.80913e-18
3.64164e-18
4.15264e-18
2.97072e-18
3.05856e-18
2.73853e-18
2.45383e-18
2.18683e-18
1.93899e-18
1.86736e-18
1.89918e-18
1.87508e-18
1.68788e-18
1.46682e-18
1.25003e-18
1.1198e-18
1.00554e-18
8.90886e-19
8.10293e-19
7.3741e-19
7.13939e-19
5.59276e-19
5.7329e-19
3.88853e-19
3.80256e-19
2.85541e-19
2.43349e-19
2.24195e-19
2.00431e-19
1.68138e-19
1.94313e-19
1.34143e-19
1.72052e-19
1.50322e-19
1.1089e-19
2.09784e-19
6.60395e-20
2.17207e-19
1.44599e-19
9.3703e-20
3.18469e-19
6.7064e-21
3.11993e-19
1.98321e-19
1.00828e-19
4.61131e-19
8.44891e-20
3.81137e-19
4.46937e-19
1.94593e-19
6.44072e-19
4.98436e-19
4.86508e-19
9.17266e-19
7.63562e-19
9.6408e-19
1.37324e-18
1.40223e-18
2.16531e-18
2.31441e-18
2.1933e-18
2.66682e-18
3.25718e-18
2.48371e-18
2.61366e-18
2.45791e-18
2.24611e-18
2.01493e-18
1.80995e-18
1.7668e-18
1.80549e-18
1.78823e-18
1.61873e-18
1.41153e-18
1.20872e-18
1.08743e-18
9.81732e-19
8.67038e-19
7.90884e-19
7.17472e-19
6.9817e-19
5.46394e-19
5.59463e-19
3.86332e-19
3.73307e-19
2.85753e-19
2.41655e-19
2.23595e-19
1.99264e-19
1.68448e-19
1.9211e-19
1.35044e-19
1.69916e-19
1.51098e-19
1.0901e-19
2.07494e-19
6.82657e-20
2.091e-19
1.47763e-19
8.74699e-20
3.11644e-19
1.02435e-20
2.96169e-19
2.03042e-19
8.65317e-20
4.48522e-19
8.23728e-20
3.51157e-19
4.35921e-19
1.68509e-19
6.03327e-19
4.7e-19
4.26306e-19
8.51062e-19
6.82384e-19
8.45306e-19
1.22282e-18
1.19857e-18
1.67212e-18
2.0562e-18
1.78429e-18
2.0151e-18
2.52814e-18
2.08171e-18
2.22599e-18
2.21059e-18
2.06619e-18
1.8641e-18
1.6931e-18
1.67433e-18
1.71939e-18
1.70827e-18
1.55473e-18
1.35972e-18
1.16979e-18
1.05713e-18
9.59513e-19
8.44602e-19
7.72552e-19
6.98953e-19
6.83038e-19
5.34489e-19
5.46225e-19
3.84161e-19
3.66577e-19
2.85962e-19
2.40002e-19
2.2308e-19
1.98195e-19
1.6879e-19
1.90014e-19
1.35918e-19
1.67948e-19
1.51801e-19
1.07392e-19
2.05229e-19
7.06121e-20
2.01392e-19
1.50716e-19
8.20245e-20
3.05265e-19
1.41892e-20
2.81017e-19
2.07852e-19
7.38516e-20
4.35979e-19
8.17829e-20
3.22754e-19
4.25986e-19
1.45665e-19
5.64899e-19
4.45579e-19
3.72168e-19
7.91241e-19
6.12527e-19
7.39945e-19
1.0934e-18
1.02775e-18
1.31796e-18
1.90514e-18
1.55563e-18
1.5893e-18
1.959e-18
1.7473e-18
1.89102e-18
1.99192e-18
1.91031e-18
1.73206e-18
1.58731e-18
1.58897e-18
1.64e-18
1.63458e-18
1.49542e-18
1.31105e-18
1.133e-18
1.02873e-18
9.38721e-19
8.23462e-19
7.55189e-19
6.81758e-19
6.68513e-19
5.23478e-19
5.33585e-19
3.82294e-19
3.60084e-19
2.86148e-19
2.38398e-19
2.22642e-19
1.9724e-19
1.69162e-19
1.8804e-19
1.36767e-19
1.66158e-19
1.5244e-19
1.06033e-19
2.03019e-19
7.30553e-20
1.94106e-19
1.53485e-19
7.7335e-20
2.99004e-19
1.8479e-20
2.66569e-19
2.12683e-19
6.27472e-20
4.23552e-19
8.2547e-20
2.96038e-19
4.16976e-19
1.2592e-19
5.28751e-19
4.24708e-19
3.2379e-19
7.3708e-19
5.52847e-19
6.46483e-19
9.82343e-19
8.86194e-19
1.07087e-18
1.80919e-18
1.4778e-18
1.31019e-18
1.53743e-18
1.46729e-18
1.60384e-18
1.79815e-18
1.77532e-18
1.61685e-18
1.49163e-18
1.50991e-18
1.56655e-18
1.56657e-18
1.44036e-18
1.2652e-18
1.09811e-18
1.00206e-18
9.19221e-19
8.03507e-19
7.38701e-19
6.65791e-19
6.54564e-19
5.1328e-19
5.21535e-19
3.80691e-19
3.53834e-19
2.86299e-19
2.36846e-19
2.22277e-19
1.96408e-19
1.69561e-19
1.86192e-19
1.37593e-19
1.64556e-19
1.53024e-19
1.04925e-19
2.00889e-19
7.55677e-20
1.87271e-19
1.56083e-19
7.33588e-20
2.92851e-19
2.30637e-20
2.52866e-19
2.17454e-19
5.31651e-20
4.11335e-19
8.44903e-20
2.71098e-19
4.0879e-19
1.09096e-19
4.949e-19
4.06959e-19
2.80878e-19
6.88041e-19
5.0237e-19
5.63798e-19
8.87364e-19
7.70133e-19
9.0364e-19
1.73016e-18
2.80976e-17
3.63855e-17
3.38231e-17
2.70094e-17
1.98205e-17
1.44909e-17
1.09173e-17
8.06135e-18
5.87999e-18
4.79322e-18
4.40063e-18
4.00065e-18
3.32679e-18
2.68375e-18
2.14688e-18
1.80502e-18
1.52538e-18
1.35754e-18
1.20343e-18
1.11406e-18
9.85426e-19
8.31557e-19
7.75119e-19
4.87278e-19
4.62627e-19
2.8839e-19
2.58468e-19
2.21557e-19
1.99212e-19
1.65071e-19
1.89165e-19
1.25943e-19
1.73434e-19
1.20585e-19
1.37542e-19
1.71332e-19
6.79097e-20
2.35366e-19
7.25173e-20
1.6794e-19
2.29917e-19
2.43701e-20
3.56411e-19
7.19289e-20
2.46616e-19
3.64292e-19
1.1385e-19
5.07876e-19
3.69399e-19
4.03327e-19
7.74203e-19
6.66119e-19
9.91266e-19
1.48704e-18
1.80361e-18
2.77335e-18
4.42079e-18
6.87079e-18
1.53264e-17
2.09054e-17
2.94972e-17
3.72705e-17
3.47252e-17
2.769e-17
2.0147e-17
1.46831e-17
1.10425e-17
8.14104e-18
5.92422e-18
4.81982e-18
4.42279e-18
4.02042e-18
3.34088e-18
2.69316e-18
2.15343e-18
1.81018e-18
1.52943e-18
1.36062e-18
1.20606e-18
1.11647e-18
9.88101e-19
8.32365e-19
7.78139e-19
4.87742e-19
4.6349e-19
2.89538e-19
2.58213e-19
2.22525e-19
1.99671e-19
1.65188e-19
1.9023e-19
1.26044e-19
1.74396e-19
1.21518e-19
1.37513e-19
1.74255e-19
6.68202e-20
2.38797e-19
7.42208e-20
1.67743e-19
2.37094e-19
2.23578e-20
3.63711e-19
7.68697e-20
2.48084e-19
3.78728e-19
1.16745e-19
5.21654e-19
3.87306e-19
4.15741e-19
8.04177e-19
6.97473e-19
1.03096e-18
1.55293e-18
1.88852e-18
2.89776e-18
4.63074e-18
7.14343e-18
1.6077e-17
2.13863e-17
3.0343e-17
3.80436e-17
3.5034e-17
2.7917e-17
2.02257e-17
1.47438e-17
1.11041e-17
8.19076e-18
5.95382e-18
4.83896e-18
4.44246e-18
4.03992e-18
3.35455e-18
2.70223e-18
2.15937e-18
1.81544e-18
1.53368e-18
1.36415e-18
1.2087e-18
1.11947e-18
9.91269e-19
8.32895e-19
7.82512e-19
4.87455e-19
4.64994e-19
2.90769e-19
2.58047e-19
2.23853e-19
2.00546e-19
1.65269e-19
1.92202e-19
1.26087e-19
1.76295e-19
1.22982e-19
1.37875e-19
1.7902e-19
6.53624e-20
2.44819e-19
7.67367e-20
1.6859e-19
2.48211e-19
2.00554e-20
3.7602e-19
8.43641e-20
2.52488e-19
4.00668e-19
1.23027e-19
5.44102e-19
4.15372e-19
4.36877e-19
8.5054e-19
7.45786e-19
1.09067e-18
1.64695e-18
2.00274e-18
3.05058e-18
4.85815e-18
7.44955e-18
1.67073e-17
2.19147e-17
2.98196e-17
3.777e-17
3.42904e-17
2.72857e-17
1.98652e-17
1.45392e-17
1.10085e-17
8.14615e-18
5.92706e-18
4.82281e-18
4.43744e-18
4.04156e-18
3.35491e-18
2.70238e-18
2.15869e-18
1.81604e-18
1.53453e-18
1.36496e-18
1.20894e-18
1.12081e-18
9.93239e-19
8.31984e-19
7.86311e-19
4.86402e-19
4.66201e-19
2.92028e-19
2.57724e-19
2.25338e-19
2.01544e-19
1.65326e-19
1.94571e-19
1.26107e-19
1.78622e-19
1.24729e-19
1.38332e-19
1.84765e-19
6.37073e-20
2.52094e-19
7.9864e-20
1.6976e-19
2.61469e-19
1.7735e-20
3.9036e-19
9.37288e-20
2.57693e-19
4.2633e-19
1.31105e-19
5.69664e-19
4.48468e-19
4.60839e-19
9.02204e-19
7.99652e-19
1.15296e-18
1.74315e-18
2.11129e-18
3.17942e-18
5.01281e-18
7.57244e-18
1.68894e-17
2.1855e-17
2.80845e-17
3.67729e-17
3.26428e-17
2.58902e-17
1.91033e-17
1.4065e-17
1.07344e-17
7.9865e-18
5.82565e-18
4.75461e-18
4.39131e-18
4.01053e-18
3.33178e-18
2.68649e-18
2.14653e-18
1.80809e-18
1.52882e-18
1.36042e-18
1.20455e-18
1.11828e-18
9.92059e-19
8.28557e-19
7.87856e-19
4.84443e-19
4.66691e-19
2.9317e-19
2.57328e-19
2.26742e-19
2.02551e-19
1.65261e-19
1.96999e-19
1.26054e-19
1.80998e-19
1.26526e-19
1.38685e-19
1.90689e-19
6.20264e-20
2.59322e-19
8.32648e-20
1.70759e-19
2.74782e-19
1.57176e-20
4.03993e-19
1.03772e-19
2.62335e-19
4.51535e-19
1.39686e-19
5.93023e-19
4.81084e-19
4.82884e-19
9.49242e-19
8.49102e-19
1.20496e-18
1.82084e-18
2.19322e-18
3.25492e-18
5.08456e-18
7.50364e-18
1.67411e-17
2.14343e-17
2.60593e-17
3.6015e-17
3.06013e-17
2.41272e-17
1.81179e-17
1.34122e-17
1.03188e-17
7.72622e-18
5.65648e-18
4.6355e-18
4.30163e-18
3.94297e-18
3.28161e-18
2.6515e-18
2.12072e-18
1.78985e-18
1.51522e-18
1.34933e-18
1.19434e-18
1.11057e-18
9.8646e-19
8.21853e-19
7.86109e-19
4.81339e-19
4.6629e-19
2.93994e-19
2.57019e-19
2.27903e-19
2.03533e-19
1.65066e-19
1.99277e-19
1.25892e-19
1.83158e-19
1.2819e-19
1.38815e-19
1.96215e-19
6.04287e-20
2.65795e-19
8.65591e-20
1.71453e-19
2.86754e-19
1.41595e-20
4.15435e-19
1.1327e-19
2.65949e-19
4.73079e-19
1.47807e-19
6.11789e-19
5.09053e-19
5.0112e-19
9.86211e-19
8.89069e-19
1.24312e-18
1.87507e-18
2.24567e-18
3.28429e-18
5.08925e-18
7.32145e-18
1.65583e-17
2.11037e-17
2.40605e-17
3.5866e-17
2.84315e-17
2.22399e-17
1.69977e-17
1.26312e-17
9.7914e-18
7.38512e-18
5.43028e-18
4.47299e-18
4.17324e-18
3.8415e-18
3.20556e-18
2.59804e-18
2.08168e-18
1.76167e-18
1.49386e-18
1.33164e-18
1.17841e-18
1.09749e-18
9.7627e-19
8.11611e-19
7.80616e-19
4.76864e-19
4.64906e-19
2.94367e-19
2.56925e-19
2.28789e-19
2.04511e-19
1.64791e-19
2.01299e-19
1.25654e-19
1.84965e-19
1.29659e-19
1.38705e-19
2.01032e-19
5.89911e-20
2.71092e-19
8.94831e-20
1.71911e-19
2.96712e-19
1.30502e-20
4.24403e-19
1.21405e-19
2.68727e-19
4.90152e-19
1.54771e-19
6.25974e-19
5.30866e-19
5.15486e-19
1.01321e-18
9.18132e-19
1.26891e-18
1.90667e-18
2.27117e-18
3.27619e-18
5.03863e-18
7.05682e-18
1.64282e-17
2.10699e-17
2.21987e-17
3.62076e-17
2.62306e-17
2.03407e-17
1.57674e-17
1.17496e-17
9.17438e-18
6.97816e-18
5.15881e-18
4.27603e-18
4.01352e-18
3.71226e-18
3.10777e-18
2.52847e-18
2.03098e-18
1.72461e-18
1.46561e-18
1.3082e-18
1.15756e-18
1.07961e-18
9.62031e-19
7.9803e-19
7.71601e-19
4.70921e-19
4.62584e-19
2.94198e-19
2.57073e-19
2.29459e-19
2.05512e-19
1.64552e-19
2.03046e-19
1.25434e-19
1.86375e-19
1.30999e-19
1.38384e-19
2.05108e-19
5.77871e-20
2.75341e-19
9.20487e-20
1.72176e-19
3.04903e-19
1.22354e-20
4.31397e-19
1.28149e-19
2.70878e-19
5.03425e-19
1.60323e-19
6.37125e-19
5.47067e-19
5.26513e-19
1.03264e-18
9.37475e-19
1.28461e-18
1.91944e-18
2.27266e-18
3.23782e-18
4.93943e-18
6.72882e-18
1.63329e-17
2.12266e-17
2.04952e-17
3.6592e-17
2.40443e-17
1.84998e-17
1.44545e-17
1.08e-17
8.4935e-18
6.52421e-18
4.85609e-18
4.05471e-18
3.83131e-18
3.56239e-18
2.99364e-18
2.44644e-18
1.97092e-18
1.68021e-18
1.43169e-18
1.28001e-18
1.13286e-18
1.05781e-18
9.44664e-19
7.8164e-19
7.59709e-19
4.63611e-19
4.59371e-19
2.93482e-19
2.57358e-19
2.30003e-19
2.06513e-19
1.64474e-19
2.04591e-19
1.25336e-19
1.87457e-19
1.32355e-19
1.37884e-19
2.08655e-19
5.68534e-20
2.78694e-19
9.45119e-20
1.72103e-19
3.12033e-19
1.14544e-20
4.3694e-19
1.34024e-19
2.72048e-19
5.14559e-19
1.64085e-19
6.45768e-19
5.58957e-19
5.33543e-19
1.04596e-18
9.47016e-19
1.28957e-18
1.915e-18
2.24997e-18
3.16857e-18
4.79466e-18
6.35519e-18
1.61712e-17
2.12909e-17
1.89264e-17
3.64729e-17
2.19165e-17
1.67373e-17
1.31053e-17
9.81779e-18
7.77863e-18
6.04404e-18
4.53631e-18
3.81971e-18
3.63515e-18
3.39913e-18
2.86892e-18
2.35599e-18
1.90445e-18
1.63049e-18
1.39358e-18
1.24803e-18
1.1054e-18
1.03302e-18
9.25312e-19
7.63118e-19
7.45833e-19
4.55258e-19
4.55286e-19
2.92313e-19
2.57579e-19
2.30463e-19
2.07436e-19
1.64617e-19
2.05941e-19
1.25433e-19
1.88237e-19
1.33874e-19
1.37139e-19
2.11855e-19
5.61842e-20
2.81091e-19
9.72958e-20
1.71305e-19
3.18722e-19
1.04523e-20
4.41051e-19
1.39741e-19
2.7113e-19
5.24232e-19
1.6551e-19
6.50793e-19
5.67001e-19
5.34311e-19
1.05177e-18
9.45661e-19
1.27999e-18
1.89071e-18
2.19748e-18
3.06195e-18
4.58682e-18
5.93586e-18
1.58222e-17
2.08605e-17
1.74098e-17
3.5326e-17
1.98757e-17
1.50278e-17
1.17712e-17
8.84185e-18
7.06004e-18
5.55778e-18
4.21346e-18
3.58096e-18
3.43317e-18
3.22936e-18
2.73884e-18
2.26103e-18
1.83454e-18
1.57759e-18
1.35279e-18
1.21346e-18
1.07598e-18
1.00601e-18
9.04942e-19
7.43153e-19
7.30748e-19
4.46396e-19
4.50364e-19
2.9086e-19
2.57529e-19
2.30785e-19
2.08164e-19
1.64984e-19
2.07042e-19
1.2575e-19
1.88666e-19
1.35609e-19
1.36016e-19
2.1476e-19
5.57448e-20
2.8221e-19
1.00656e-19
1.69082e-19
3.25088e-19
9.06296e-21
4.42692e-19
1.45682e-19
2.66897e-19
5.3186e-19
1.64007e-19
6.50026e-19
5.70483e-19
5.26478e-19
1.04749e-18
9.31186e-19
1.25118e-18
1.84307e-18
2.11134e-18
2.91287e-18
4.31419e-18
5.47162e-18
1.51346e-17
1.97015e-17
1.58749e-17
3.29874e-17
1.79259e-17
1.33615e-17
1.04939e-17
7.90445e-18
6.36326e-18
5.08184e-18
3.89842e-18
3.34659e-18
3.23214e-18
3.05865e-18
2.60775e-18
2.16481e-18
1.76363e-18
1.52331e-18
1.31085e-18
1.17727e-18
1.04548e-18
9.7744e-19
8.84156e-19
7.22373e-19
7.14997e-19
4.3758e-19
4.44681e-19
2.89347e-19
2.57081e-19
2.30878e-19
2.08588e-19
1.65479e-19
2.0777e-19
1.26263e-19
1.88677e-19
1.37532e-19
1.34383e-19
2.17218e-19
5.55074e-20
2.81653e-19
1.04654e-19
1.65036e-19
3.30758e-19
7.28732e-21
4.40922e-19
1.51743e-19
2.58409e-19
5.36464e-19
1.59313e-19
6.41925e-19
5.68688e-19
5.0906e-19
1.03142e-18
9.03127e-19
1.20224e-18
1.77211e-18
1.99305e-18
2.724e-18
3.98671e-18
4.97446e-18
1.40751e-17
1.78057e-17
1.42735e-17
2.9567e-17
1.60563e-17
1.17383e-17
9.29999e-18
7.02978e-18
5.70865e-18
4.62812e-18
3.59876e-18
3.12256e-18
3.0373e-18
2.89147e-18
2.47913e-18
2.06971e-18
1.69364e-18
1.46921e-18
1.26907e-18
1.14047e-18
1.01471e-18
9.47967e-19
8.63335e-19
7.01322e-19
6.98901e-19
4.2924e-19
4.38362e-19
2.87975e-19
2.56218e-19
2.30679e-19
2.08637e-19
1.65993e-19
2.07988e-19
1.26935e-19
1.88166e-19
1.39531e-19
1.32207e-19
2.19014e-19
5.54888e-20
2.79107e-19
1.09153e-19
1.5912e-19
3.35157e-19
5.28745e-21
4.35208e-19
1.57662e-19
2.45807e-19
5.37365e-19
1.51711e-19
6.2622e-19
5.61543e-19
4.82461e-19
1.00391e-18
8.63322e-19
1.13537e-18
1.68195e-18
1.84976e-18
2.50609e-18
3.62398e-18
4.46228e-18
1.26807e-17
1.53605e-17
1.25989e-17
2.54128e-17
1.42594e-17
1.0176e-17
8.20371e-18
6.23181e-18
5.10817e-18
4.20455e-18
3.31916e-18
2.91276e-18
2.85223e-18
2.73109e-18
2.35544e-18
1.97772e-18
1.62602e-18
1.41648e-18
1.22845e-18
1.104e-18
9.84404e-19
9.182e-19
8.42712e-19
6.80446e-19
6.82628e-19
4.21638e-19
4.31553e-19
2.86868e-19
2.55004e-19
2.30184e-19
2.08302e-19
1.66449e-19
2.07613e-19
1.27728e-19
1.87099e-19
1.41484e-19
1.29575e-19
2.19995e-19
5.57333e-20
2.74572e-19
1.13928e-19
1.51642e-19
3.37901e-19
3.32494e-21
4.25784e-19
1.63256e-19
2.29823e-19
5.34528e-19
1.41979e-19
6.03873e-19
5.50028e-19
4.48821e-19
9.67095e-19
8.15274e-19
1.0555e-18
1.57909e-18
1.69172e-18
2.2733e-18
3.25173e-18
3.95554e-18
1.10623e-17
1.26831e-17
1.08788e-17
2.09752e-17
1.25281e-17
8.70717e-18
7.20846e-18
5.51667e-18
4.56731e-18
3.81563e-18
3.06185e-18
2.71916e-18
2.67938e-18
2.57951e-18
2.23821e-18
1.89001e-18
1.56157e-18
1.36588e-18
1.18967e-18
1.06852e-18
9.551e-19
8.88723e-19
8.22459e-19
6.60106e-19
6.66291e-19
4.14874e-19
4.244e-19
2.86069e-19
2.53536e-19
2.29448e-19
2.07623e-19
1.66819e-19
2.06644e-19
1.28606e-19
1.8552e-19
1.433e-19
1.26653e-19
2.20122e-19
5.62834e-20
2.68328e-19
1.18766e-19
1.43094e-19
3.38878e-19
1.67765e-21
4.13197e-19
1.68515e-19
2.11524e-19
5.28468e-19
1.31153e-19
5.76285e-19
5.3557e-19
4.1077e-19
9.23762e-19
7.63013e-19
9.68197e-19
1.47055e-18
1.52936e-18
2.03947e-18
2.89082e-18
3.47218e-18
9.3491e-18
1.00722e-17
9.16773e-18
1.66854e-17
1.08667e-17
7.36695e-18
6.31137e-18
4.88445e-18
4.08708e-18
3.463e-18
2.82715e-18
2.54223e-18
2.51955e-18
2.4378e-18
2.12831e-18
1.80715e-18
1.5007e-18
1.31785e-18
1.15313e-18
1.03448e-18
9.27138e-19
8.60034e-19
8.02706e-19
6.40579e-19
6.50003e-19
4.08936e-19
4.17033e-19
2.85564e-19
2.51907e-19
2.28562e-19
2.06668e-19
1.67111e-19
2.05156e-19
1.29538e-19
1.8354e-19
1.44928e-19
1.2362e-19
2.19484e-19
5.7162e-20
2.60807e-19
1.23512e-19
1.3402e-19
3.38165e-19
5.78733e-22
3.98389e-19
1.73531e-19
1.92001e-19
5.19922e-19
1.2024e-19
5.4527e-19