/*--------------------------------*- C++ -*----------------------------------*\
| =========                 |                                                 |
| \\      /  F ield         | OpenFOAM: The Open Source CFD Toolbox           |
|  \\    /   O peration     | Version:  2312                                  |
|   \\  /    A nd           | Website:  www.openfoam.com                      |
|    \\/     M anipulation  |                                                 |
\*---------------------------------------------------------------------------*/
FoamFile
{
    version     2.0;
    format      ascii;
    arch        "LSB;label=32;scalar=64";
    class       volScalarField;
    location    "300";
    object      nut;
}
// * * * * * * * * * * * * * * * * * * * * * * * * * * * * * * * * * * * * * //

dimensions      [0 2 -1 0 0 0 0];

internalField   nonuniform List<scalar> 
330000
(
2.91142e-22
3.36415e-23
1.34409e-24
3.1186e-26
7.03804e-27
3.4191e-27
1.48623e-26
9.76011e-27
1.46665e-26
1.06344e-26
1.40528e-26
1.51586e-26
1.88538e-26
1.95632e-26
2.29888e-26
2.76593e-26
2.9088e-26
2.97989e-26
3.40545e-26
3.88649e-26
4.23225e-26
4.50287e-26
5.08934e-26
5.64362e-26
6.25912e-26
6.93325e-26
7.54297e-26
7.94102e-26
8.96659e-26
9.67757e-26
1.09886e-25
1.19106e-25
1.33636e-25
1.39512e-25
1.59137e-25
1.70538e-25
1.89556e-25
1.98953e-25
2.20053e-25
2.21147e-25
2.49155e-25
2.53562e-25
2.81633e-25
2.87128e-25
3.08879e-25
2.94938e-25
3.19934e-25
3.09508e-25
3.19393e-25
2.82749e-25
2.74115e-25
2.20728e-25
1.60434e-25
8.27515e-26
2.01937e-26
1.72233e-28
4.08246e-26
3.17198e-24
4.11458e-23
2.54903e-22
3.11151e-22
9.53833e-23
6.71673e-24
2.36127e-26
3.2803e-27
1.35417e-26
1.9744e-26
2.64874e-26
2.53545e-26
2.48184e-26
2.52123e-26
3.44139e-26
3.63832e-26
4.22904e-26
4.44379e-26
5.92008e-26
5.74268e-26
6.27722e-26
6.67664e-26
8.10952e-26
8.39008e-26
9.31676e-26
1.00745e-25
1.16037e-25
1.24398e-25
1.411e-25
1.50522e-25
1.60772e-25
1.77472e-25
1.95796e-25
2.17075e-25
2.38999e-25
2.63541e-25
2.78483e-25
3.1048e-25
3.39991e-25
3.66421e-25
3.96433e-25
4.26882e-25
4.36403e-25
4.78351e-25
4.9666e-25
5.38075e-25
5.55199e-25
5.89552e-25
5.59674e-25
5.97351e-25
5.78632e-25
5.86782e-25
5.07968e-25
4.82039e-25
3.7462e-25
2.66911e-25
1.08484e-25
1.81316e-26
1.33706e-28
1.54363e-25
7.74936e-24
1.22539e-22
3.94821e-22
5.57497e-22
1.49054e-22
7.38939e-24
5.83577e-26
5.27032e-27
2.20982e-26
2.74372e-26
3.77001e-26
3.62348e-26
3.23358e-26
3.68772e-26
4.68976e-26
5.34782e-26
5.70275e-26
6.52334e-26
7.98912e-26
8.24163e-26
8.74134e-26
9.59105e-26
1.12092e-25
1.19343e-25
1.30462e-25
1.42925e-25
1.62609e-25
1.76425e-25
1.97879e-25
2.12771e-25
2.26671e-25
2.499e-25
2.77165e-25
3.06837e-25
3.36011e-25
3.71604e-25
3.9304e-25
4.38412e-25
4.7859e-25
5.16282e-25
5.62068e-25
6.01396e-25
6.19883e-25
6.71615e-25
7.09114e-25
7.58524e-25
7.88658e-25
8.28888e-25
8.00358e-25
8.42663e-25
8.27953e-25
8.30145e-25
7.28381e-25
6.86514e-25
5.36872e-25
3.80896e-25
1.57556e-25
2.56923e-26
4.92752e-29
2.49385e-25
1.08525e-23
1.58675e-22
5.50294e-22
6.54955e-22
1.48709e-22
9.09962e-24
6.05282e-26
6.99495e-27
1.92603e-26
3.02782e-26
3.48693e-26
3.83276e-26
3.00082e-26
3.96122e-26
4.45807e-26
5.6218e-26
5.44947e-26
6.84858e-26
7.65576e-26
8.54362e-26
8.56685e-26
9.83696e-26
1.10239e-25
1.21641e-25
1.29837e-25
1.4543e-25
1.62033e-25
1.78677e-25
1.97875e-25
2.15077e-25
2.27534e-25
2.52485e-25
2.79082e-25
3.09521e-25
3.37378e-25
3.7493e-25
3.95758e-25
4.43924e-25
4.80017e-25
5.21788e-25
5.67561e-25
6.07038e-25
6.2715e-25
6.77568e-25
7.20249e-25
7.63711e-25
8.01387e-25
8.34587e-25
8.18014e-25
8.53292e-25
8.46966e-25
8.41709e-25
7.49243e-25
7.03499e-25
5.5589e-25
3.96977e-25
1.65074e-25
3.01351e-26
1.90267e-29
2.21047e-25
1.07155e-23
1.99227e-22
6.51352e-22
8.14518e-22
1.73912e-22
1.40622e-23
5.98982e-26
7.2599e-27
1.92841e-26
2.99833e-26
3.48742e-26
3.82888e-26
3.0407e-26
4.01271e-26
4.34802e-26
5.67415e-26
5.26448e-26
6.94115e-26
7.37111e-26
8.69491e-26
8.32837e-26
9.86376e-26
1.0753e-25
1.22054e-25
1.27403e-25
1.45109e-25
1.59364e-25
1.77881e-25
1.94801e-25
2.13968e-25
2.24428e-25
2.50787e-25
2.75982e-25
3.06339e-25
3.33175e-25
3.71807e-25
3.91178e-25
4.39727e-25
4.73397e-25
5.17735e-25
5.61373e-25
6.00808e-25
6.20546e-25
6.69905e-25
7.14291e-25
7.52547e-25
7.94686e-25
8.23669e-25
8.13076e-25
8.41619e-25
8.42005e-25
8.29724e-25
7.45129e-25
6.94762e-25
5.53373e-25
3.92391e-25
1.62989e-25
3.12381e-26
2.49206e-29
2.16733e-25
1.19186e-23
2.61559e-22
6.88715e-22
1.09367e-21
2.09431e-22
2.45556e-23
5.65316e-26
7.5067e-27
1.98798e-26
2.97896e-26
3.63618e-26
3.8608e-26
3.14613e-26
4.10626e-26
4.40341e-26
5.79351e-26
5.29137e-26
7.14861e-26
7.35753e-26
9.04761e-26
8.31494e-26
1.01324e-25
1.07967e-25
1.25678e-25
1.28326e-25
1.48683e-25
1.60861e-25
1.81756e-25
1.96832e-25
2.18618e-25
2.26966e-25
2.56023e-25
2.79578e-25
3.11199e-25
3.37599e-25
3.78345e-25
3.96694e-25
4.46968e-25
4.79305e-25
5.27519e-25
5.68761e-25
6.10528e-25
6.28779e-25
6.80712e-25
7.24597e-25
7.61408e-25
8.06641e-25
8.34445e-25
8.26615e-25
8.51688e-25
8.5536e-25
8.37597e-25
7.57391e-25
7.01343e-25
5.61705e-25
3.94529e-25
1.64469e-25
3.26071e-26
6.6236e-29
2.26487e-25
1.42448e-23
3.65139e-22
7.27204e-22
1.52411e-21
2.44638e-22
4.22345e-23
5.5056e-26
8.40898e-27
2.00178e-26
2.99655e-26
3.81881e-26
3.93823e-26
3.27742e-26
4.22053e-26
4.5279e-26
5.94959e-26
5.4104e-26
7.40471e-26
7.48345e-26
9.48172e-26
8.39747e-26
1.05228e-25
1.09766e-25
1.30814e-25
1.30532e-25
1.54083e-25
1.64043e-25
1.87922e-25
2.01005e-25
2.2589e-25
2.3195e-25
2.64479e-25
2.85769e-25
3.19957e-25
3.45847e-25
3.89516e-25
4.06501e-25
4.59557e-25
4.90899e-25
5.44017e-25
5.82022e-25
6.27925e-25
6.43825e-25
7.00521e-25
7.41777e-25
7.80563e-25
8.27629e-25
8.56208e-25
8.48956e-25
8.72348e-25
8.78155e-25
8.56315e-25
7.78161e-25
7.16715e-25
5.77226e-25
4.02438e-25
1.70014e-25
3.4784e-26
2.55658e-28
2.49722e-25
1.79267e-23
5.07151e-22
7.6424e-22
2.11112e-21
2.73861e-22
6.81375e-23
6.25115e-26
1.05183e-26
1.96197e-26
3.02283e-26
3.98401e-26
4.02683e-26
3.42352e-26
4.32631e-26
4.672e-26
6.08756e-26
5.57532e-26
7.64429e-26
7.66578e-26
9.89315e-26
8.50049e-26
1.09368e-25
1.11843e-25
1.36157e-25
1.329e-25
1.59957e-25
1.67389e-25
1.94526e-25
2.05469e-25
2.3373e-25
2.37106e-25
2.73662e-25
2.92128e-25
3.29703e-25
3.54539e-25
4.01603e-25
4.16925e-25
4.73606e-25
5.0351e-25
5.61727e-25
5.95871e-25
6.47286e-25
6.5934e-25
7.22681e-25
7.59343e-25
8.02535e-25
8.4932e-25
8.80492e-25
8.71839e-25
8.96227e-25
9.01298e-25
8.77615e-25
8.0025e-25
7.34515e-25
5.93899e-25
4.12516e-25
1.77066e-25
3.71244e-26
1.01425e-27
2.95766e-25
2.33676e-23
6.79479e-22
7.923e-22
2.83959e-21
2.94321e-22
1.02416e-22
8.49351e-26
1.43959e-26
1.88213e-26
3.05344e-26
4.11502e-26
4.13284e-26
3.57583e-26
4.42729e-26
4.83742e-26
6.22824e-26
5.77221e-26
7.87642e-26
7.90304e-26
1.0278e-25
8.64135e-26
1.1365e-25
1.1424e-25
1.41613e-25
1.35477e-25
1.66118e-25
1.7092e-25
2.01608e-25
2.10169e-25
2.41923e-25
2.42591e-25
2.83368e-25
2.98574e-25
3.40351e-25
3.6363e-25
4.14564e-25
4.27842e-25
4.88663e-25
5.16848e-25
5.80481e-25
6.10262e-25
6.67921e-25
6.75604e-25
7.46425e-25
7.76939e-25
8.26876e-25
8.71527e-25
9.06706e-25
8.95086e-25
9.21629e-25
9.24823e-25
9.01e-25
8.22437e-25
7.53831e-25
6.11295e-25
4.24442e-25
1.85031e-25
3.97259e-26
3.44975e-27
3.78627e-25
3.07339e-23
8.73341e-22
8.14518e-22
3.69056e-21
3.07365e-22
1.44203e-22
1.29088e-25
2.05123e-26
1.80931e-26
3.08345e-26
4.2113e-26
4.25303e-26
3.72609e-26
4.53462e-26
5.0175e-26
6.36978e-26
6.00423e-26
8.10637e-26
8.18352e-26
1.06359e-25
8.82578e-26
1.18038e-25
1.16995e-25
1.47158e-25
1.38428e-25
1.72643e-25
1.74775e-25
2.0908e-25
2.15232e-25
2.50638e-25
2.4843e-25
2.93664e-25
3.05493e-25
3.51964e-25
3.73187e-25
4.28474e-25
4.3952e-25
5.05124e-25
5.31052e-25
6.00175e-25
6.25547e-25
6.90184e-25
6.92586e-25
7.71891e-25
7.95309e-25
8.53463e-25
8.94079e-25
9.34817e-25
9.18714e-25
9.49416e-25
9.48351e-25
9.26136e-25
8.44956e-25
7.74771e-25
6.28737e-25
4.37731e-25
1.93093e-25
4.27087e-26
9.74691e-27
5.14584e-25
4.00578e-23
1.07373e-21
8.32353e-22
4.62309e-21
3.13397e-22
1.93012e-22
1.99541e-25
2.89983e-26
1.75511e-26
3.12719e-26
4.27529e-26
4.39884e-26
3.86856e-26
4.657e-26
5.21472e-26
6.53677e-26
6.26049e-26
8.3504e-26
8.51023e-26
1.09888e-25
9.06826e-26
1.22581e-25
1.20246e-25
1.52921e-25
1.41885e-25
1.79535e-25
1.79142e-25
2.17191e-25
2.20824e-25
2.59942e-25
2.54996e-25
3.04728e-25
3.13096e-25
3.64759e-25
3.83582e-25
4.43762e-25
4.52235e-25
5.23042e-25
5.46425e-25
6.21499e-25
6.42245e-25
7.14203e-25
7.11205e-25
7.99381e-25
8.14921e-25
8.82768e-25
9.17862e-25
9.65507e-25
9.43502e-25
9.79187e-25
9.73038e-25
9.53803e-25
8.67748e-25
7.9751e-25
6.46698e-25
4.52468e-25
2.01629e-25
4.69809e-26
2.31285e-26
7.14552e-25
5.09926e-23
1.27126e-21
8.53996e-22
5.60897e-21
3.15231e-22
2.47446e-22
3.01646e-25
3.95039e-26
1.74211e-26
3.17693e-26
4.32396e-26
4.56114e-26
4.00231e-26
4.80048e-26
5.41865e-26
6.72104e-26
6.54036e-26
8.61089e-26
8.86737e-26
1.13365e-25
9.35811e-26
1.27217e-25
1.23947e-25
1.58819e-25
1.45869e-25
1.86776e-25
1.84026e-25
2.25736e-25
2.2697e-25
2.69835e-25
2.62115e-25
3.16458e-25
3.21506e-25
3.78558e-25
3.94705e-25
4.60192e-25
4.65928e-25
5.42432e-25
5.62826e-25
6.4408e-25
6.60268e-25
7.39853e-25
7.30922e-25
8.28542e-25
8.35929e-25
9.14121e-25
9.42423e-25
9.98039e-25
9.68953e-25
1.01111e-24
9.97986e-25
9.82956e-25
8.90796e-25
8.21679e-25
6.64597e-25
4.68174e-25
2.10527e-25
5.31772e-26
4.75913e-26
9.87075e-25
6.3182e-23
1.45292e-21
8.79343e-22
6.6035e-21
3.13367e-22
3.06311e-22
4.41143e-25
5.1704e-26
1.75641e-26
3.24253e-26
4.36743e-26
4.74844e-26
4.1298e-26
4.96761e-26
5.63152e-26
6.93966e-26
6.83386e-26
8.89719e-26
9.25573e-26
1.16991e-25
9.69737e-26
1.32011e-25
1.28158e-25
1.64965e-25
1.50421e-25
1.94342e-25
1.89518e-25
2.34873e-25
2.33742e-25
2.80294e-25
2.70035e-25
3.28967e-25
3.30759e-25
3.93413e-25
4.06779e-25
4.77971e-25
4.80705e-25
5.63181e-25
5.80388e-25
6.68348e-25
6.79739e-25
7.6703e-25
7.52282e-25
8.59489e-25
8.58321e-25
9.4758e-25
9.68207e-25
1.03266e-24
9.95425e-25
1.04448e-24
1.02377e-24
1.01396e-24
9.13775e-25
8.47063e-25
6.82648e-25
4.85006e-25
2.2063e-25
6.24513e-26
8.71146e-26
1.33571e-24
7.59884e-23
1.61248e-21
9.15531e-22
7.58585e-21
3.10069e-22
3.67888e-22
6.2465e-25
6.51074e-26
1.79982e-26
3.31273e-26
4.41697e-26
4.95761e-26
4.25338e-26
5.16328e-26
5.84699e-26
7.18379e-26
7.14194e-26
9.21164e-26
9.66293e-26
1.20805e-25
1.00746e-25
1.36982e-25
1.32824e-25
1.71323e-25
1.55536e-25
2.0227e-25
1.95608e-25
2.44404e-25
2.41158e-25
2.91393e-25
2.78624e-25
3.42169e-25
3.40924e-25
4.09173e-25
4.19743e-25
4.96888e-25
4.96541e-25
5.85342e-25
5.99032e-25
6.93878e-25
7.00539e-25
7.95769e-25
7.74849e-25
8.91897e-25
8.82134e-25
9.82508e-25
9.94879e-25
1.06878e-24
1.02256e-24
1.07947e-24
1.04968e-24
1.04576e-24
9.3676e-25
8.73268e-25
7.00465e-25
5.0309e-25
2.32292e-25
7.55825e-26
1.46006e-25
1.76368e-24
8.88709e-23
1.74052e-21
9.61927e-22
8.50781e-21
3.05752e-22
4.3092e-22
8.60737e-25
7.95258e-26
1.85525e-26
3.39691e-26
4.48101e-26
5.19621e-26
4.37996e-26
5.38578e-26
6.07233e-26
7.46784e-26
7.45856e-26
9.56128e-26
1.00943e-25
1.24967e-25
1.04903e-25
1.42236e-25
1.37989e-25
1.78035e-25
1.61221e-25
2.10575e-25
2.02372e-25
2.54545e-25
2.49268e-25
3.03097e-25
2.88115e-25
3.56195e-25
3.52013e-25
4.25939e-25
4.33803e-25
5.17136e-25
5.13524e-25
6.08824e-25
6.18952e-25
7.21127e-25
7.22732e-25
8.25957e-25
7.99106e-25
9.25945e-25
9.07314e-25
1.01912e-24
1.02283e-24
1.10661e-24
1.05058e-24
1.11541e-24
1.07633e-24
1.07885e-24
9.59479e-25
9.00289e-25
7.18521e-25
5.22805e-25
2.4643e-25
9.38869e-26
2.28187e-25
2.27459e-24
1.01164e-22
1.83577e-21
1.02522e-21
9.35584e-21
3.0297e-22
4.93131e-22
1.15929e-24
9.4582e-26
1.92879e-26
3.47995e-26
4.5716e-26
5.45425e-26
4.51495e-26
5.63691e-26
6.30559e-26
7.78017e-26
7.78985e-26
9.94936e-26
1.05446e-25
1.29444e-25
1.09349e-25
1.47818e-25
1.43593e-25
1.85077e-25
1.67456e-25
2.19328e-25
2.09786e-25
2.65163e-25
2.58127e-25
3.1548e-25
2.98344e-25
3.70949e-25
3.64099e-25
4.43666e-25
4.48906e-25
5.38497e-25
5.31625e-25
6.33698e-25
6.40119e-25
7.49709e-25
7.46309e-25
8.57641e-25
8.24561e-25
9.61267e-25
9.33956e-25
1.05705e-24
1.05187e-24
1.1455e-24
1.07912e-24
1.15251e-24
1.10309e-24
1.11224e-24
9.82221e-25
9.2806e-25
7.36992e-25
5.44418e-25
2.63396e-25
1.18352e-25
3.39056e-25
2.87382e-24
1.12457e-22
1.89334e-21
1.10163e-21
1.00879e-20
3.01606e-22
5.52667e-22
1.53179e-24
1.107e-25
1.99955e-26
3.57213e-26
4.68909e-26
5.73813e-26
4.66408e-26
5.91318e-26
6.55452e-26
8.13334e-26
8.13343e-26
1.0378e-25
1.10193e-25
1.34356e-25
1.14119e-25
1.53824e-25
1.49658e-25
1.92593e-25
1.74243e-25
2.28561e-25
2.17885e-25
2.76477e-25
2.67746e-25
3.28503e-25
3.09513e-25
3.86587e-25
3.77163e-25
4.62428e-25
4.65187e-25
5.61157e-25
5.50945e-25
6.59884e-25
6.62643e-25
7.79999e-25
7.71276e-25
8.9067e-25
8.51634e-25
9.98102e-25
9.61922e-25
1.09643e-24
1.08218e-24
1.18561e-24
1.10847e-24
1.19012e-24
1.13041e-24
1.14651e-24
1.0048e-24
9.56546e-25
7.56252e-25
5.68287e-25
2.83994e-25
1.50726e-25
4.83855e-25
3.57747e-24
1.2206e-22
1.91384e-21
1.19936e-21
1.07085e-20
3.02997e-22
6.07078e-22
1.98868e-24
1.28062e-25
2.06614e-26
3.66415e-26
4.83052e-26
6.04743e-26
4.82712e-26
6.21951e-26
6.81704e-26
8.51724e-26
8.49633e-26
1.08482e-25
1.15135e-25
1.39708e-25
1.19174e-25
1.60297e-25
1.56134e-25
2.00591e-25
1.81577e-25
2.38375e-25
2.26635e-25
2.88339e-25
2.78149e-25
3.42335e-25
3.21494e-25
4.03039e-25
3.91256e-25
4.82178e-25
4.82594e-25
5.84991e-25
5.71511e-25
6.87502e-25
6.86452e-25
8.11546e-25
7.97641e-25
9.25262e-25
8.79949e-25
1.03616e-24
9.91243e-25
1.13684e-24
1.11352e-24
1.22662e-24
1.13842e-24
1.22855e-24
1.15777e-24
1.18079e-24
1.02753e-24
9.85598e-25
7.76257e-25
5.94899e-25
3.08655e-25
1.92569e-25
6.71073e-25
4.39505e-24
1.29555e-22
1.89545e-21
1.31787e-21
1.11782e-20
3.07533e-22
6.54683e-22
2.53962e-24
1.46654e-25
2.11519e-26
3.76824e-26
4.9964e-26
6.38822e-26
5.00822e-26
6.55161e-26
7.10243e-26
8.94317e-26
8.877e-26
1.13611e-25
1.20359e-25
1.45576e-25
1.2456e-25
1.67301e-25
1.63069e-25
2.09195e-25
1.89452e-25
2.48799e-25
2.36083e-25
3.0101e-25
2.89314e-25
3.56909e-25
3.34474e-25
4.20468e-25
4.06366e-25
5.03023e-25
5.01238e-25
6.10182e-25
5.93356e-25
7.16477e-25
7.11686e-25
8.44799e-25
8.25346e-25
9.6119e-25
9.09871e-25
1.0757e-24
1.0218e-24
1.1785e-24
1.146e-24
1.26865e-24
1.16904e-24
1.26719e-24
1.18567e-24
1.21572e-24
1.05014e-24
1.01535e-24
7.97369e-25
6.24504e-25
3.38191e-25
2.46321e-25
9.08515e-25
5.35587e-24
1.3447e-22
1.84347e-21
1.46399e-21
1.15136e-20
3.17931e-22
6.93327e-22
3.19786e-24
1.65721e-25
2.15842e-26
3.87167e-26
5.19246e-26
6.75193e-26
5.20835e-26
6.91446e-26
7.40995e-26
9.39942e-26
9.28394e-26
1.19222e-25
1.25885e-25
1.51892e-25
1.30255e-25
1.74871e-25
1.70451e-25
2.1838e-25
1.97875e-25
2.59938e-25
2.46223e-25
3.14389e-25
3.01315e-25
3.72393e-25
3.48299e-25
4.38784e-25
4.22578e-25
5.25025e-25
5.21101e-25
6.36596e-25
6.16471e-25
7.4696e-25
7.38351e-25
8.79408e-25
8.54516e-25
9.9868e-25
9.40985e-25
1.11635e-24
1.05373e-24
1.22132e-24
1.17957e-24
1.31122e-24
1.20003e-24
1.30644e-24
1.21371e-24
1.25037e-24
1.07299e-24
1.04595e-24
8.19972e-25
6.5739e-25
3.73188e-25
3.14201e-25
1.20885e-24
6.47599e-24
1.36784e-22
1.76106e-21
1.63081e-21
1.16897e-20
3.33435e-22
7.21506e-22
3.97077e-24
1.85952e-25
2.17319e-26
3.98675e-26
5.41802e-26
7.14492e-26
5.43118e-26
7.30408e-26
7.74589e-26
9.89912e-26
9.71652e-26
1.25291e-25
1.31777e-25
1.5874e-25
1.36332e-25
1.83046e-25
1.7833e-25
2.28271e-25
2.06871e-25
2.71802e-25
2.57088e-25
3.28717e-25
3.14128e-25
3.8871e-25
3.6315e-25
4.58194e-25
4.39869e-25
5.48237e-25
5.42254e-25
6.64436e-25
6.40927e-25
7.78871e-25
7.66499e-25
9.15796e-25
8.85069e-25
1.03747e-24
9.7364e-25
1.15845e-24
1.08685e-24
1.26534e-24
1.21419e-24
1.35454e-24
1.23158e-24
1.34567e-24
1.24213e-24
1.28547e-24
1.09583e-24
1.07731e-24
8.44176e-25
6.93809e-25
4.14538e-25
3.9957e-25
1.58289e-24
7.80736e-24
1.36178e-22
1.65381e-21
1.8282e-21
1.17483e-20
3.54271e-22
7.38005e-22
4.86878e-24
2.08001e-25
2.15498e-26
4.10855e-26
5.66632e-26
7.57288e-26
5.67303e-26
7.73078e-26
8.1057e-26
1.04354e-25
1.01819e-25
1.31851e-25
1.38004e-25
1.66156e-25
1.42814e-25
1.91863e-25
1.86706e-25
2.38874e-25
2.16484e-25
2.84503e-25
2.68671e-25
3.43846e-25
3.27834e-25
4.06111e-25
3.78927e-25
4.78647e-25
4.58309e-25
5.72672e-25
5.64685e-25
6.93673e-25
6.66806e-25
8.12393e-25
7.96055e-25
9.5354e-25
9.17135e-25
1.07796e-24
1.00754e-24
1.20175e-24
1.12122e-24
1.31026e-24
1.24971e-24
1.39846e-24
1.2636e-24
1.38527e-24
1.27049e-24
1.32022e-24
1.11898e-24
1.10927e-24
8.69898e-25
7.34396e-25
4.6302e-25
5.05631e-25
2.04855e-24
9.36389e-24
1.32804e-22
1.52597e-21
2.05713e-21
1.16697e-20
3.80626e-22
7.42213e-22
5.89768e-24
2.3139e-25
2.09662e-26
4.24624e-26
5.94287e-26
8.03962e-26
5.93831e-26
8.18866e-26
8.49822e-26
1.10188e-25
1.06783e-25
1.38889e-25
1.44655e-25
1.7418e-25
1.49745e-25
2.0134e-25
1.95654e-25
2.50273e-25
2.2673e-25
2.98035e-25
2.81045e-25
3.60028e-25
3.42382e-25
4.24469e-25
3.95808e-25
5.00322e-25
4.7789e-25
5.98396e-25
5.88479e-25
7.24457e-25
6.94085e-25
8.47445e-25
8.27139e-25
9.93111e-25
9.50515e-25
1.11978e-24
1.04294e-24
1.24654e-24
1.15664e-24
1.35619e-24
1.28602e-24
1.44305e-24
1.2959e-24
1.42464e-24
1.29905e-24
1.35527e-24
1.14194e-24
1.14193e-24
8.97202e-25
7.79353e-25
5.1951e-25
6.36569e-25
2.62017e-24
1.12199e-23
1.2674e-22
1.38538e-21
2.32287e-21
1.14999e-20
4.15687e-22
7.33875e-22
7.08519e-24
2.5445e-25
2.01816e-26
4.38813e-26
6.25541e-26
8.5381e-26
6.22755e-26
8.68814e-26
8.92258e-26
1.16408e-25
1.1213e-25
1.46536e-25
1.51787e-25
1.82755e-25
1.57134e-25
2.1155e-25
2.05214e-25
2.62441e-25
2.3766e-25
3.12523e-25
2.94257e-25
3.77164e-25
3.57922e-25
4.44032e-25
4.13697e-25
5.23122e-25
4.98738e-25
6.25568e-25
6.13703e-25
7.56697e-25
7.22814e-25
8.84252e-25
8.59833e-25
1.03418e-24
9.85472e-25
1.16333e-24
1.07955e-24
1.2924e-24
1.19331e-24
1.40324e-24
1.32325e-24
1.48784e-24
1.32826e-24
1.4643e-24
1.32759e-24
1.3896e-24
1.16509e-24
1.17552e-24
9.26649e-25
8.28909e-25
5.85007e-25
7.96255e-25
3.32084e-24
1.34015e-23
1.18534e-22
1.23896e-21
2.61414e-21
1.12323e-20
4.5744e-22
7.12926e-22
8.42456e-24
2.78212e-25
1.90246e-26
4.54524e-26
6.60837e-26
9.07287e-26
6.54702e-26
9.22279e-26
9.38515e-26
1.23154e-25
1.17859e-25
1.54739e-25
1.59448e-25
1.9197e-25
1.65056e-25
2.22507e-25
2.15446e-25
2.75493e-25
2.49322e-25
3.27946e-25
3.08362e-25
3.95502e-25
3.74425e-25
4.64649e-25
4.32781e-25
5.47278e-25
5.20848e-25
6.54181e-25
6.404e-25
7.90581e-25
7.53053e-25
9.22694e-25
8.94154e-25
1.07719e-24
1.02182e-24
1.20821e-24
1.11761e-24
1.33971e-24
1.23099e-24
1.45128e-24
1.36117e-24
1.53297e-24
1.36072e-24
1.50351e-24
1.35608e-24
1.42401e-24
1.18797e-24
1.20984e-24
9.58033e-25
8.83331e-25
6.60384e-25
9.89903e-25
4.16749e-24
1.60106e-23
1.08408e-22
1.09213e-21
2.94187e-21
1.09326e-20
5.04398e-22
6.80529e-22
9.92382e-24
3.04278e-25
1.74778e-26
4.72091e-26
6.99027e-26
9.65861e-26
6.8921e-26
9.80975e-26
9.87963e-26
1.30418e-25
1.2404e-25
1.63587e-25
1.67591e-25
2.01943e-25
1.73563e-25
2.34288e-25
2.26368e-25
2.89477e-25
2.61804e-25
3.44445e-25
3.23385e-25
4.14892e-25
3.92063e-25
4.86652e-25
4.53018e-25
5.72754e-25
5.44341e-25
6.84298e-25
6.6864e-25
8.26147e-25
7.84982e-25
9.62979e-25
9.30064e-25
1.12171e-24
1.05986e-24
1.25492e-24
1.15694e-24
1.3882e-24
1.26978e-24
1.50006e-24
1.39971e-24
1.57843e-24
1.39333e-24
1.54264e-24
1.38414e-24
1.45772e-24
1.21102e-24
1.24462e-24
9.91231e-25
9.43371e-25
7.46733e-25
1.22243e-24
5.18774e-24
1.90501e-23
9.70399e-23
9.49643e-22
3.31131e-21
1.05964e-20
5.56137e-22
6.37636e-22
1.1579e-23
3.31311e-25
1.56205e-26
4.91942e-26
7.41349e-26
1.02943e-25
7.26996e-26
1.04384e-25
1.04173e-25
1.38274e-25
1.30662e-25
1.73037e-25
1.76316e-25
2.12691e-25
1.82678e-25
2.46894e-25
2.3806e-25
3.04461e-25
2.75117e-25
3.61991e-25
3.3942e-25
4.35585e-25
4.10745e-25
5.09835e-25
4.74582e-25
5.99717e-25
5.69212e-25
7.15909e-25
6.98463e-25
8.63476e-25
8.18523e-25
1.00498e-24
9.67662e-25
1.16817e-24
1.09922e-24
1.30293e-24
1.19766e-24
1.4381e-24
1.30939e-24
1.54947e-24
1.43854e-24
1.62409e-24
1.42562e-24
1.58105e-24
1.41177e-24
1.49126e-24
1.23341e-24
1.27992e-24
1.02594e-24
1.00913e-24
8.44587e-25
1.49927e-24
6.39955e-24
2.26373e-23
8.48332e-23
8.16577e-22
3.72374e-21
1.02766e-20
6.16305e-22
5.863e-22
1.34471e-23
3.56212e-25
1.37418e-26
5.13293e-26
7.88681e-26
1.09742e-25
7.68174e-26
1.11265e-25
1.09992e-25
1.46681e-25
1.37794e-25
1.83333e-25
1.85718e-25
2.24172e-25
1.92427e-25
2.6049e-25
2.506e-25
3.20445e-25
2.89347e-25
3.80779e-25
3.56556e-25
4.57501e-25
4.30713e-25
5.34552e-25
4.9745e-25
6.28066e-25
5.95638e-25
7.4929e-25
7.30055e-25
9.02497e-25
8.53809e-25
1.04897e-24
1.00713e-24
1.21621e-24
1.14034e-24
1.35277e-24
1.23964e-24
1.48889e-24
1.35009e-24
1.59978e-24
1.47806e-24
1.66939e-24
1.45754e-24
1.61925e-24
1.43901e-24
1.52347e-24
1.25562e-24
1.31598e-24
1.06297e-24
1.08047e-24
9.55185e-25
1.82533e-24
7.83059e-24
2.67853e-23
7.24859e-23
6.98327e-22
4.16417e-21
9.97912e-21
6.80814e-22
5.27847e-22
1.54902e-23
3.80247e-25
1.17914e-26
5.37129e-26
8.4201e-26
1.17002e-25
8.13725e-26
1.18628e-25
1.16332e-25
1.55773e-25
1.45458e-25
1.94375e-25
1.95842e-25
2.36493e-25
2.02885e-25
2.75067e-25
2.64036e-25
3.37566e-25
3.04539e-25
4.0077e-25
3.7485e-25
4.80924e-25
4.51905e-25
5.60573e-25
5.21797e-25
6.58055e-25
6.23624e-25
7.84345e-25
7.63415e-25
9.43362e-25
8.90868e-25
1.09476e-24
1.04843e-24
1.26626e-24
1.1829e-24
1.4038e-24
1.283e-24
1.54094e-24
1.39156e-24
1.6506e-24
1.51776e-24
1.71434e-24
1.48893e-24
1.65638e-24
1.46553e-24
1.55515e-24
1.27699e-24
1.35244e-24
1.10167e-24
1.15756e-24
1.0788e-24
2.20622e-24
9.49473e-24
3.16201e-23
6.0396e-23
5.96607e-22
4.64383e-21
9.76481e-21
7.45635e-22
4.65285e-22
1.77041e-23
4.06232e-25
9.78967e-27
5.65178e-26
8.99243e-26
1.25017e-25
8.62959e-26
1.26747e-25
1.23108e-25
1.65631e-25
1.53729e-25
2.0632e-25
2.06603e-25
2.49895e-25
2.14138e-25
2.90767e-25
2.78394e-25
3.55953e-25
3.20818e-25
4.22174e-25
3.94346e-25
5.05738e-25
4.74579e-25
5.88342e-25
5.47631e-25
6.89681e-25
6.53346e-25
8.21199e-25
7.98684e-25
9.86194e-25
9.29987e-25
1.14256e-24
1.09157e-24
1.31789e-24
1.22739e-24
1.45664e-24
1.32767e-24
1.5939e-24
1.43401e-24
1.70164e-24
1.55774e-24
1.75906e-24
1.52008e-24
1.69265e-24
1.49113e-24
1.58549e-24
1.29813e-24
1.38876e-24
1.14183e-24
1.24109e-24
1.21648e-24
2.64677e-24
1.14147e-23
3.70709e-23
4.92387e-23
5.1301e-22
5.17677e-21
9.63466e-21
8.10031e-22
4.00442e-22
2.00675e-23
4.31769e-25
7.92086e-27
5.97539e-26
9.62369e-26
1.33714e-25
9.16916e-26
1.35446e-25
1.3047e-25
1.76274e-25
1.62617e-25
2.1908e-25
2.18146e-25
2.64365e-25
2.26191e-25
3.07571e-25
2.93761e-25
3.75671e-25
3.38173e-25
4.44962e-25
4.15139e-25
5.32218e-25
4.98577e-25
6.17602e-25
5.75084e-25
7.23116e-25
6.84754e-25
8.59775e-25
8.35826e-25
1.031e-24
9.70986e-25
1.19218e-24
1.13659e-24
1.37145e-24
1.27324e-24
1.51058e-24
1.37357e-24
1.64796e-24
1.47694e-24
1.7526e-24
1.59735e-24
1.80323e-24
1.55021e-24
1.72741e-24
1.51547e-24
1.61493e-24
1.31784e-24
1.42493e-24
1.18269e-24
1.33076e-24
1.36762e-24
3.15033e-24
1.35955e-23
4.32347e-23
3.92166e-23
4.48313e-22
5.75651e-21
9.63377e-21
8.7767e-22
3.36341e-22
2.26775e-23
4.5214e-25
6.43785e-27
6.3391e-26
1.03253e-25
1.43041e-25
9.75744e-26
1.45008e-25
1.3845e-25
1.87729e-25
1.72186e-25
2.33059e-25
2.30617e-25
2.79853e-25
2.3908e-25
3.25783e-25
3.10263e-25
3.96754e-25
3.56719e-25
4.6943e-25
4.3735e-25
5.60325e-25
5.24225e-25
6.48822e-25
6.04207e-25
7.5826e-25
7.18068e-25
9.00489e-25
8.75155e-25
1.07772e-24
1.01407e-24
1.24399e-24
1.18375e-24
1.42649e-24
1.32107e-24
1.56621e-24
1.42079e-24
1.7024e-24
1.52073e-24
1.80387e-24
1.63739e-24
1.84604e-24
1.57945e-24
1.7611e-24
1.53897e-24
1.642e-24
1.33678e-24
1.46112e-24
1.22529e-24
1.42562e-24
1.53297e-24
3.71994e-24
1.6045e-23
5.00621e-23
3.07055e-23
4.05245e-22
6.36852e-21
9.79273e-21
9.42953e-22
2.74539e-22
2.54531e-23
4.68875e-25
5.34022e-27
6.75403e-26
1.11144e-25
1.52973e-25
1.04094e-25
1.5525e-25
1.47157e-25
2.00105e-25
1.82495e-25
2.48084e-25
2.44068e-25
2.965e-25
2.52899e-25
3.45361e-25
3.27933e-25
4.19382e-25
3.76496e-25
4.95537e-25
4.61023e-25
5.90406e-25
5.51398e-25
6.81728e-25
6.35113e-25
7.95423e-25
7.53254e-25
9.43175e-25
9.16556e-25
1.1265e-24
1.05918e-24
1.2977e-24
1.23293e-24
1.48356e-24
1.37037e-24
1.62273e-24
1.46918e-24
1.7576e-24
1.5649e-24
1.85482e-24
1.67698e-24
1.88746e-24
1.60745e-24
1.79275e-24
1.56092e-24
1.66753e-24
1.35402e-24
1.49671e-24
1.26843e-24
1.5254e-24
1.71125e-24
4.35656e-24
1.87501e-23
5.76104e-23
2.38224e-23
3.83347e-22
7.02129e-21
1.01588e-20
9.99354e-22
2.17759e-22
2.83655e-23
4.8588e-25
4.61116e-27
7.2553e-26
1.1958e-25
1.64002e-25
1.11151e-25
1.66591e-25
1.56462e-25
2.13627e-25
1.93614e-25
2.64404e-25
2.58325e-25
3.1473e-25
2.67769e-25
3.66519e-25
3.46785e-25
4.43795e-25
3.97665e-25
5.23578e-25
4.86215e-25
6.22399e-25
5.80422e-25
7.16872e-25
6.67859e-25
8.34645e-25
7.90552e-25
9.88012e-25
9.60219e-25
1.17757e-24
1.1067e-24
1.35356e-24
1.28414e-24
1.54228e-24
1.42172e-24
1.6808e-24
1.51885e-24
1.81313e-24
1.60984e-24
1.90502e-24
1.71636e-24
1.92769e-24
1.63473e-24
1.82234e-24
1.58136e-24
1.69066e-24
1.37038e-24
1.53074e-24
1.31167e-24
1.63059e-24
1.90251e-24
5.06015e-24
2.16959e-23
6.5647e-23
1.88186e-23
3.83217e-22
7.74228e-21
1.07615e-20
1.04731e-21
1.67242e-22
3.13703e-23
5.00182e-25
4.42099e-27
7.84802e-26
1.2884e-25
1.75982e-25
1.18903e-25
1.78754e-25
1.66583e-25
2.28212e-25
2.05608e-25
2.81863e-25
2.73648e-25
3.34496e-25
2.83702e-25
3.89221e-25
3.66947e-25
4.70076e-25
4.20193e-25
5.53539e-25
5.13016e-25
6.56631e-25
6.11062e-25
7.54024e-25
7.02475e-25
8.76157e-25
8.29798e-25
1.03492e-24
1.00599e-24
1.23091e-24
1.15629e-24
1.41133e-24
1.33732e-24
1.60279e-24
1.47437e-24
1.73972e-24
1.56934e-24
1.86921e-24
1.65466e-24
1.95416e-24
1.75449e-24
1.96639e-24
1.66016e-24
1.84929e-24
1.59952e-24
1.71176e-24
1.38426e-24
1.56315e-24
1.35379e-24
1.73994e-24
2.10409e-24
5.82512e-24
2.48503e-23
7.41617e-23
1.55082e-23
4.0599e-22
8.51403e-21
1.16252e-20
1.09e-21
1.24629e-22
3.45994e-23
5.06028e-25
5.0029e-27
8.5341e-26
1.39097e-25
1.88843e-25
1.27357e-25
1.92168e-25
1.77572e-25
2.44014e-25
2.1851e-25
3.01105e-25
2.90218e-25
3.55678e-25
3.00707e-25
4.13973e-25
3.88589e-25
4.98256e-25
4.44217e-25
5.85847e-25
5.41569e-25
6.93096e-25
6.43719e-25
7.93688e-25
7.39096e-25
9.19827e-25
8.71242e-25
1.08446e-24
1.05428e-24
1.28644e-24
1.20817e-24
1.47151e-24
1.39276e-24
1.66467e-24
1.52907e-24
1.79986e-24
1.62101e-24
1.92479e-24
1.69988e-24
2.00263e-24
1.79262e-24
2.00227e-24
1.684e-24
1.87387e-24
1.61622e-24
1.72895e-24
1.39641e-24
1.594e-24
1.39586e-24
1.85132e-24
2.31468e-24
6.64793e-24
2.81636e-23
8.29622e-23
1.38996e-23
4.56902e-22
9.32967e-21
1.28115e-20
1.12356e-21
9.01972e-23
3.79344e-23
5.06585e-25
6.61088e-27
9.33454e-26
1.50636e-25
2.02508e-25
1.36761e-25
2.06553e-25
1.89602e-25
2.61069e-25
2.3246e-25
3.21843e-25
3.08153e-25
3.78502e-25
3.18947e-25
4.40679e-25
4.11751e-25
5.28616e-25
4.69775e-25
6.20467e-25
5.71911e-25
7.32242e-25
6.78186e-25
8.35651e-25
7.77719e-25
9.66095e-25
9.14764e-25
1.13647e-24
1.10483e-24
1.34435e-24
1.26218e-24
1.53376e-24
1.45021e-24
1.72851e-24
1.58503e-24
1.8606e-24
1.67328e-24
1.98045e-24
1.74473e-24
2.04976e-24
1.82939e-24
2.03551e-24
1.70566e-24
1.8952e-24
1.63033e-24
1.74319e-24
1.40569e-24
1.62242e-24
1.4362e-24
1.96357e-24
2.53071e-24
7.51742e-24
3.15737e-23
9.19611e-23
1.3991e-23
5.39592e-22
1.01868e-20
1.43655e-20
1.13952e-21
6.4247e-23
4.13218e-23
5.05987e-25
9.61837e-27
1.03066e-25
1.63002e-25
2.17684e-25
1.46978e-25
2.22514e-25
2.02469e-25
2.79821e-25
2.47488e-25
3.44432e-25
3.27075e-25
4.03648e-25
3.38555e-25
4.69633e-25
4.36379e-25
5.61531e-25
4.97063e-25
6.57784e-25
6.04084e-25
7.74042e-25
7.14821e-25
8.80514e-25
8.18452e-25
1.01501e-24
9.60673e-25
1.19109e-24
1.15781e-24
1.40501e-24
1.31871e-24
1.59833e-24
1.50959e-24
1.79392e-24
1.64284e-24
1.92238e-24
1.72645e-24
2.03554e-24
1.78979e-24
2.09472e-24
1.86509e-24
2.06627e-24
1.72581e-24
1.91283e-24
1.64205e-24
1.75356e-24
1.41299e-24
1.64684e-24
1.4739e-24
2.07695e-24
2.74981e-24
8.42356e-24
3.49976e-23
1.00736e-22
1.62388e-23
6.58974e-22
1.11336e-20
1.63832e-20
1.1426e-21
4.63833e-23
4.46825e-23
5.01438e-25
1.48854e-26
1.14786e-25
1.76536e-25
2.34214e-25
1.58241e-25
2.39679e-25
2.16498e-25
3.00062e-25
2.63762e-25
3.68664e-25
3.47449e-25
4.31034e-25
3.59614e-25
5.00809e-25
4.62691e-25
5.97128e-25
5.26033e-25
6.97828e-25
6.38191e-25
8.18934e-25
7.53316e-25
9.28185e-25
8.61183e-25
1.06695e-24
1.00864e-24
1.24839e-24
1.21292e-24
1.46843e-24
1.37729e-24
1.66503e-24
1.57073e-24
1.86117e-24
1.7015e-24
1.98476e-24
1.77955e-24
2.09049e-24
1.83371e-24
2.13752e-24
1.89831e-24
2.09435e-24
1.74304e-24
1.92653e-24
1.65024e-24
1.76042e-24
1.41649e-24
1.66733e-24
1.50746e-24
2.18881e-24
2.96724e-24
9.34521e-24
3.83593e-23
1.0914e-22
2.09452e-23
8.20386e-22
1.21315e-20
1.88718e-20
1.13425e-21
3.58809e-23
4.8158e-23
4.87103e-25
2.35432e-26
1.28589e-25
1.91517e-25
2.51913e-25
1.70562e-25
2.58638e-25
2.3176e-25
3.22103e-25
2.81256e-25
3.95503e-25
3.6946e-25
4.60384e-25
3.82041e-25
5.34947e-25
4.90897e-25
6.35367e-25
5.56839e-25
7.41164e-25
6.74365e-25
8.66906e-25
7.94112e-25
9.79059e-25
9.06127e-25
1.12167e-24
1.05891e-24
1.30902e-24
1.2706e-24
1.53443e-24
1.43799e-24
1.73446e-24
1.63381e-24
1.92976e-24
1.76176e-24
2.04754e-24
1.83317e-24
2.14371e-24
1.87708e-24
2.17838e-24
1.93054e-24
2.1178e-24
1.7576e-24
1.93619e-24
1.65598e-24
1.76153e-24
1.41679e-24
1.68398e-24
1.53752e-24
2.29598e-24
3.17759e-24
1.02711e-23
4.1537e-23
1.16853e-22
2.90033e-23
1.03325e-21
1.3195e-20
2.19434e-20
1.11495e-21
3.21259e-23
5.16317e-23
4.67313e-25
3.70841e-26
1.44971e-25
2.08389e-25
2.70721e-25
1.84315e-25
2.79036e-25
2.48527e-25
3.45912e-25
3.00239e-25
4.24528e-25
3.93322e-25
4.92111e-25
4.06123e-25
5.71954e-25
5.21036e-25
6.76744e-25
5.8951e-25
7.87796e-25
7.12656e-25
9.18562e-25
8.36907e-25
1.03317e-24
9.53127e-25
1.17983e-24
1.11128e-24
1.37287e-24
1.33042e-24
1.60338e-24
1.50059e-24
1.80624e-24
1.69848e-24
2.00019e-24
1.82256e-24
2.11058e-24
1.88627e-24
2.19611e-24
1.91887e-24
2.21671e-24