/*--------------------------------*- C++ -*----------------------------------*\
| =========                 |                                                 |
| \\      /  F ield         | OpenFOAM: The Open Source CFD Toolbox           |
|  \\    /   O peration     | Version:  2312                                  |
|   \\  /    A nd           | Website:  www.openfoam.com                      |
|    \\/     M anipulation  |                                                 |
\*---------------------------------------------------------------------------*/
FoamFile
{
    version     2.0;
    format      ascii;
    arch        "LSB;label=32;scalar=64";
    class       volScalarField;
    location    "300";
    object      p;
}
// * * * * * * * * * * * * * * * * * * * * * * * * * * * * * * * * * * * * * //

dimensions      [0 2 -2 0 0 0 0];

internalField   nonuniform List<scalar> 
330000
(
-1.15068e-08
-1.3551e-09
-5.30902e-09
-3.62991e-09
-2.06285e-09
-1.47887e-09
-2.87281e-10
-3.00457e-10
6.55579e-10
3.83851e-10
1.0197e-09
5.11555e-10
1.16969e-09
5.87079e-10
1.26157e-09
6.29004e-10
1.42629e-09
7.64233e-10
1.51807e-09
7.56196e-10
1.56792e-09
7.36452e-10
1.54494e-09
6.30522e-10
1.51575e-09
5.67869e-10
1.53435e-09
5.31886e-10
1.5209e-09
4.42939e-10
1.52416e-09
4.11397e-10
1.61012e-09
4.32775e-10
1.65947e-09
3.87424e-10
1.71124e-09
3.97317e-10
1.79421e-09
3.98863e-10
1.79465e-09
2.99882e-10
1.75602e-09
2.39087e-10
1.80136e-09
2.57644e-10
1.77604e-09
1.88809e-10
1.75e-09
2.17398e-10
1.70828e-09
3.0553e-10
1.70626e-09
6.14817e-10
1.3793e-09
9.4333e-10
5.20376e-10
1.30417e-09
-3.14014e-09
8.786e-09
-1.14169e-08
-1.36381e-09
-5.32892e-09
-3.63695e-09
-2.06574e-09
-1.47857e-09
-2.88769e-10
-3.00496e-10
6.54334e-10
3.83805e-10
1.01873e-09
5.11617e-10
1.16876e-09
5.87216e-10
1.26072e-09
6.29265e-10
1.42545e-09
7.64629e-10
1.51715e-09
7.56665e-10
1.567e-09
7.37015e-10
1.54405e-09
6.31255e-10
1.51481e-09
5.68676e-10
1.53331e-09
5.32746e-10
1.51986e-09
4.43972e-10
1.52299e-09
4.12449e-10
1.60881e-09
4.33904e-10
1.65809e-09
3.88766e-10
1.70975e-09
3.98779e-10
1.79257e-09
4.00434e-10
1.79297e-09
3.01759e-10
1.75417e-09
2.41022e-10
1.79931e-09
2.59721e-10
1.77382e-09
1.91168e-10
1.74754e-09
2.20014e-10
1.70562e-09
3.08399e-10
1.70355e-09
6.18256e-10
1.37658e-09
9.47944e-10
5.20488e-10
1.30254e-09
-3.17053e-09
8.76844e-09
-1.13218e-08
-1.37934e-09
-5.35617e-09
-3.64605e-09
-2.0681e-09
-1.4775e-09
-2.89407e-10
-3.00716e-10
6.53539e-10
3.82996e-10
1.01836e-09
5.11083e-10
1.16843e-09
5.8666e-10
1.26057e-09
6.28784e-10
1.42529e-09
7.64239e-10
1.51696e-09
7.56286e-10
1.56684e-09
7.36666e-10
1.54405e-09
6.31097e-10
1.51482e-09
5.68495e-10
1.53321e-09
5.32533e-10
1.51986e-09
4.43947e-10
1.52294e-09
4.1232e-10
1.60864e-09
4.33754e-10
1.658e-09
3.88868e-10
1.7096e-09
3.98908e-10
1.79225e-09
4.00594e-10
1.79275e-09
3.02294e-10
1.7538e-09
2.4148e-10
1.79867e-09
2.6025e-10
1.77307e-09
1.92072e-10
1.74648e-09
2.2125e-10
1.70435e-09
3.10062e-10
1.70202e-09
6.20964e-10
1.37471e-09
9.52859e-10
5.2205e-10
1.30319e-09
-3.22765e-09
8.78168e-09
-1.1223e-08
-1.41133e-09
-5.38593e-09
-3.6581e-09
-2.06951e-09
-1.47471e-09
-2.89148e-10
-3.00332e-10
6.52988e-10
3.82412e-10
1.0183e-09
5.1059e-10
1.16832e-09
5.86037e-10
1.26072e-09
6.28215e-10
1.42531e-09
7.63708e-10
1.51697e-09
7.55727e-10
1.56683e-09
7.36086e-10
1.5443e-09
6.30769e-10
1.51507e-09
5.68078e-10
1.53328e-09
5.32017e-10
1.52014e-09
4.4369e-10
1.52319e-09
4.11884e-10
1.60872e-09
4.33244e-10
1.65828e-09
3.88707e-10
1.70984e-09
3.98715e-10
1.79226e-09
4.00356e-10
1.79294e-09
3.02526e-10
1.75385e-09
2.41504e-10
1.79833e-09
2.60247e-10
1.77274e-09
1.92509e-10
1.74585e-09
2.21984e-10
1.70366e-09
3.11181e-10
1.70119e-09
6.23087e-10
1.37405e-09
9.57105e-10
5.27683e-10
1.29863e-09
-3.30101e-09
8.82269e-09
-1.11245e-08
-1.45454e-09
-5.41503e-09
-3.67347e-09
-2.07024e-09
-1.47029e-09
-2.88239e-10
-2.9934e-10
6.52467e-10
3.81979e-10
1.01834e-09
5.10268e-10
1.16823e-09
5.85526e-10
1.26092e-09
6.27756e-10
1.42527e-09
7.63254e-10
1.51692e-09
7.55225e-10
1.56672e-09
7.35537e-10
1.5445e-09
6.30544e-10
1.51527e-09
5.67729e-10
1.53323e-09
5.31517e-10
1.52035e-09
4.43542e-10
1.52338e-09
4.11509e-10
1.60869e-09
4.32772e-10
1.65853e-09
3.88691e-10
1.71003e-09
3.98637e-10
1.79214e-09
4.0017e-10
1.79307e-09
3.02927e-10
1.75383e-09
2.41588e-10
1.7978e-09
2.6023e-10
1.77229e-09
1.92994e-10
1.74512e-09
2.22734e-10
1.70303e-09
3.12225e-10
1.70061e-09
6.2495e-10
1.37439e-09
9.60537e-10
5.38001e-10
1.28821e-09
-3.38134e-09
8.88056e-09
-1.10353e-08
-1.50165e-09
-5.44034e-09
-3.69207e-09
-2.07044e-09
-1.46447e-09
-2.8682e-10
-2.97911e-10
6.51887e-10
3.81612e-10
1.01839e-09
5.10058e-10
1.16811e-09
5.85098e-10
1.26112e-09
6.27385e-10
1.42515e-09
7.62869e-10
1.5168e-09
7.54772e-10
1.56647e-09
7.35021e-10
1.54464e-09
6.30424e-10
1.51541e-09
5.6746e-10
1.53303e-09
5.31049e-10
1.52046e-09
4.43519e-10
1.52349e-09
4.11215e-10
1.60852e-09
4.32367e-10
1.65871e-09
3.88841e-10
1.71014e-09
3.98702e-10
1.79185e-09
4.0007e-10
1.79309e-09
3.0353e-10
1.75368e-09
2.41781e-10
1.79703e-09
2.6027e-10
1.77166e-09
1.93597e-10
1.74421e-09
2.23592e-10
1.70237e-09
3.133e-10
1.70015e-09
6.26663e-10
1.37562e-09
9.63066e-10
5.53261e-10
1.27121e-09
-3.46176e-09
8.94861e-09
-1.09662e-08
-1.5469e-09
-5.45812e-09
-3.7134e-09
-2.07012e-09
-1.45745e-09
-2.84969e-10
-2.96206e-10
6.51197e-10
3.81239e-10
1.01842e-09
5.0989e-10
1.16794e-09
5.84707e-10
1.26132e-09
6.27054e-10
1.42493e-09
7.62519e-10
1.5166e-09
7.54333e-10
1.5661e-09
7.34512e-10
1.54472e-09
6.30377e-10
1.51548e-09
5.67243e-10
1.53269e-09
5.30593e-10
1.5205e-09
4.43594e-10
1.52354e-09
4.10981e-10
1.60824e-09
4.32012e-10
1.65883e-09
3.89126e-10
1.71019e-09
3.98882e-10
1.79141e-09
4.00032e-10
1.79299e-09
3.04306e-10
1.75342e-09
2.42068e-10
1.79602e-09
2.60371e-10
1.77085e-09
1.94322e-10
1.74312e-09
2.24582e-10
1.70162e-09
3.14441e-10
1.69974e-09
6.28259e-10
1.37767e-09
9.64483e-10
5.73842e-10
1.24647e-09
-3.53545e-09
9.02277e-09
-1.09273e-08
-1.58648e-09
-5.46448e-09
-3.73677e-09
-2.06917e-09
-1.44933e-09
-2.82734e-10
-2.94347e-10
6.50343e-10
3.80802e-10
1.01837e-09
5.09717e-10
1.16769e-09
5.84321e-10
1.26149e-09
6.26737e-10
1.4246e-09
7.62188e-10
1.51631e-09
7.53892e-10
1.56561e-09
7.34003e-10
1.54472e-09
6.30391e-10
1.51549e-09
5.67074e-10
1.53223e-09
5.30153e-10
1.52046e-09
4.43767e-10
1.52352e-09
4.10811e-10
1.60785e-09
4.31717e-10
1.65888e-09
3.89544e-10
1.71016e-09
3.99178e-10
1.7908e-09
4.00069e-10
1.79276e-09
3.05259e-10
1.75302e-09
2.42466e-10
1.79477e-09
2.60573e-10
1.76981e-09
1.95207e-10
1.7418e-09
2.25756e-10
1.70073e-09
3.15707e-10
1.69928e-09
6.29769e-10
1.38054e-09
9.64489e-10
6.00279e-10
1.21255e-09
-3.59601e-09
9.1004e-09
-1.09276e-08
-1.61811e-09
-5.45582e-09
-3.76133e-09
-2.06745e-09
-1.44016e-09
-2.80144e-10
-2.92428e-10
6.49282e-10
3.80248e-10
1.01819e-09
5.09501e-10
1.16733e-09
5.83918e-10
1.26158e-09
6.26415e-10
1.42413e-09
7.61864e-10
1.51592e-09
7.53441e-10
1.56496e-09
7.33492e-10
1.54462e-09
6.30462e-10
1.51541e-09
5.66958e-10
1.53163e-09
5.2974e-10
1.52032e-09
4.44046e-10
1.52343e-09
4.10719e-10
1.60732e-09
4.31502e-10
1.65883e-09
3.90104e-10
1.71001e-09
3.99607e-10
1.79e-09
4.00205e-10
1.79236e-09
3.06411e-10
1.75246e-09
2.43015e-10
1.79323e-09
2.60932e-10
1.76851e-09
1.96312e-10
1.7402e-09
2.27183e-10
1.69961e-09
3.17168e-10
1.69868e-09
6.31204e-10
1.38424e-09
9.62723e-10
6.33191e-10
1.16794e-09
-3.63806e-09
9.18017e-09
-1.09745e-08
-1.6407e-09
-5.42911e-09
-3.78615e-09
-2.06482e-09
-1.42996e-09
-2.77203e-10
-2.90517e-10
6.47981e-10
3.79537e-10
1.01784e-09
5.09207e-10
1.16683e-09
5.83477e-10
1.26158e-09
6.26071e-10
1.4235e-09
7.61533e-10
1.5154e-09
7.52974e-10
1.56416e-09
7.3298e-10
1.54441e-09
6.30589e-10
1.51523e-09
5.66899e-10
1.53088e-09
5.29369e-10
1.52006e-09
4.4444e-10
1.52323e-09
4.10722e-10
1.60665e-09
4.31388e-10
1.65865e-09
3.90821e-10
1.70973e-09
4.00187e-10
1.78898e-09
4.00467e-10
1.79174e-09
3.07784e-10
1.75169e-09
2.43755e-10
1.79137e-09
2.61505e-10
1.76689e-09
1.97695e-10
1.73825e-09
2.28929e-10
1.69818e-09
3.18884e-10
1.69789e-09
6.3255e-10
1.38885e-09
9.58772e-10
6.73222e-10
1.11129e-09
-3.65742e-09
9.26169e-09
-1.10735e-08
-1.65419e-09
-5.38153e-09
-3.81035e-09
-2.06111e-09
-1.41869e-09
-2.73901e-10
-2.88656e-10
6.46423e-10
3.78636e-10
1.0173e-09
5.08809e-10
1.16616e-09
5.8298e-10
1.26144e-09
6.2569e-10
1.42268e-09
7.61185e-10
1.51473e-09
7.52482e-10
1.56317e-09
7.32466e-10
1.54405e-09
6.3077e-10
1.51492e-09
5.66903e-10
1.52996e-09
5.29051e-10
1.51966e-09
4.44957e-10
1.52293e-09
4.10835e-10
1.60582e-09
4.31394e-10
1.65832e-09
3.91706e-10
1.70927e-09
4.00934e-10
1.78771e-09
4.0088e-10
1.79088e-09
3.09402e-10
1.75066e-09
2.44727e-10
1.78913e-09
2.62346e-10
1.76489e-09
1.99412e-10
1.73589e-09
2.31055e-10
1.69638e-09
3.20901e-10
1.69685e-09
6.3376e-10
1.39445e-09
9.52205e-10
7.20982e-10
1.04142e-09
-3.65127e-09
9.34545e-09
-1.12285e-08
-1.65925e-09
-5.31113e-09
-3.83304e-09
-2.05622e-09
-1.40634e-09
-2.70214e-10
-2.86874e-10
6.44597e-10
3.77526e-10
1.01652e-09
5.08288e-10
1.1653e-09
5.82414e-10
1.26115e-09
6.25261e-10
1.42165e-09
7.60809e-10
1.5139e-09
7.51961e-10
1.562e-09
7.31949e-10
1.54354e-09
6.31002e-10
1.51448e-09
5.66975e-10
1.52888e-09
5.28798e-10
1.51912e-09
4.45606e-10
1.5225e-09
4.11074e-10
1.6048e-09
4.31538e-10
1.65781e-09
3.92772e-10
1.70861e-09
4.01867e-10
1.78616e-09
4.01472e-10
1.78972e-09
3.11288e-10
1.74934e-09
2.45969e-10
1.7865e-09
2.63505e-10
1.76247e-09
2.01512e-10
1.73307e-09
2.33608e-10
1.69414e-09
3.23245e-10
1.69553e-09
6.34762e-10
1.4012e-09
9.42591e-10
7.76986e-10
9.57515e-10
-3.61792e-09
9.43232e-09
-1.14417e-08
-1.65721e-09
-5.21638e-09
-3.85341e-09
-2.05007e-09
-1.39288e-09
-2.66121e-10
-2.85179e-10
6.42504e-10
3.76195e-10
1.01551e-09
5.07631e-10
1.16423e-09
5.8177e-10
1.26068e-09
6.24777e-10
1.4204e-09
7.60394e-10
1.51289e-09
7.51406e-10
1.56061e-09
7.31429e-10
1.54286e-09
6.31285e-10
1.51388e-09
5.6712e-10
1.52761e-09
5.28621e-10
1.51841e-09
4.46396e-10
1.52192e-09
4.11454e-10
1.60359e-09
4.3184e-10
1.65709e-09
3.94032e-10
1.70771e-09
4.03002e-10
1.78431e-09
4.02267e-10
1.78823e-09
3.13465e-10
1.74769e-09
2.47519e-10
1.78342e-09
2.6503e-10
1.75958e-09
2.04041e-10
1.72975e-09
2.36629e-10
1.69143e-09
3.25929e-10
1.69394e-09
6.35465e-10
1.40921e-09
9.2954e-10
8.41604e-10
8.59097e-10
-3.55675e-09
9.52356e-09
-1.17137e-08
-1.64977e-09
-5.09619e-09
-3.8707e-09
-2.04264e-09
-1.37829e-09
-2.61604e-10
-2.83574e-10
6.4015e-10
3.74639e-10
1.01424e-09
5.06831e-10
1.16294e-09
5.81043e-10
1.26001e-09
6.24232e-10
1.4189e-09
7.59934e-10
1.51168e-09
7.50815e-10
1.559e-09
7.30907e-10
1.54198e-09
6.31619e-10
1.51312e-09
5.67344e-10
1.52614e-09
5.28533e-10
1.51752e-09
4.47336e-10
1.52118e-09
4.1199e-10
1.60216e-09
4.32315e-10
1.65615e-09
3.955e-10
1.70655e-09
4.04358e-10
1.78211e-09
4.03288e-10
1.78638e-09
3.15953e-10
1.74567e-09
2.49412e-10
1.77986e-09
2.66959e-10
1.75619e-09
2.07035e-10
1.72589e-09
2.40146e-10
1.68821e-09
3.28949e-10
1.69208e-09
6.35767e-10
1.41863e-09
9.12718e-10
9.15038e-10
7.46092e-10
-3.46806e-09
9.62039e-09
-1.20437e-08
-1.63892e-09
-4.95003e-09
-3.88423e-09
-2.03395e-09
-1.36258e-09
-2.56652e-10
-2.82057e-10
6.37542e-10
3.7286e-10
1.0127e-09
5.05885e-10
1.16143e-09
5.80233e-10
1.25913e-09
6.23625e-10
1.41716e-09
7.59424e-10
1.51025e-09
7.50186e-10
1.55715e-09
7.30384e-10
1.5409e-09
6.32004e-10
1.51216e-09
5.67653e-10
1.52448e-09
5.28544e-10
1.51644e-09
4.48434e-10
1.52026e-09
4.12697e-10
1.6005e-09
4.32982e-10
1.65494e-09
3.97188e-10
1.70509e-09
4.0595e-10
1.77956e-09
4.04559e-10
1.78414e-09
3.18773e-10
1.74324e-09
2.51678e-10
1.77579e-09
2.69328e-10
1.75225e-09
2.10522e-10
1.72145e-09
2.44179e-10
1.68446e-09
3.32293e-10
1.68998e-09
6.35571e-10
1.42958e-09
8.91875e-10
9.97316e-10
6.1879e-10
-3.35302e-09
9.72402e-09
-1.24293e-08
-1.6268e-09
-4.77775e-09
-3.89337e-09
-2.02407e-09
-1.34578e-09
-2.51268e-10
-2.80629e-10
6.34683e-10
3.70859e-10
1.01089e-09
5.04793e-10
1.15968e-09
5.79339e-10
1.25804e-09
6.22956e-10
1.41515e-09
7.58861e-10
1.5086e-09
7.4952e-10
1.55506e-09
7.29863e-10
1.53959e-09
6.32443e-10
1.511e-09
5.68054e-10
1.5226e-09
5.28665e-10
1.51514e-09
4.49699e-10
1.51915e-09
4.1359e-10
1.5986e-09
4.33855e-10
1.65346e-09
3.99109e-10
1.70332e-09
4.07796e-10
1.77662e-09
4.061e-10
1.78146e-09
3.21941e-10
1.74038e-09
2.54345e-10
1.77119e-09
2.72165e-10
1.74776e-09
2.14527e-10
1.71642e-09
2.48736e-10
1.68017e-09
3.3594e-10
1.68767e-09
6.34787e-10
1.44213e-09
8.66845e-10
1.08827e-09
4.7786e-10
-3.21339e-09
9.83543e-09
-1.28674e-08
-1.61576e-09
-4.57968e-09
-3.89753e-09
-2.01306e-09
-1.32791e-09
-2.45461e-10
-2.79287e-10
6.31579e-10
3.68641e-10
1.0088e-09
5.03557e-10
1.15769e-09
5.78365e-10
1.2567e-09
6.22227e-10
1.41288e-09
7.58244e-10
1.50672e-09
7.48819e-10
1.55272e-09
7.29348e-10
1.53805e-09
6.32937e-10
1.50964e-09
5.68553e-10
1.5205e-09
5.28907e-10
1.51363e-09
4.51139e-10
1.51782e-09
4.14682e-10
1.59643e-09
4.34951e-10
1.65168e-09
4.01275e-10
1.70121e-09
4.09908e-10
1.77327e-09
4.0793e-10
1.77833e-09
3.25474e-10
1.73706e-09
2.57434e-10
1.76604e-09
2.75493e-10
1.74267e-09
2.19065e-10
1.71079e-09
2.53822e-10
1.67533e-09
3.39868e-10
1.68517e-09
6.33339e-10
1.45634e-09
8.3756e-10
1.18756e-09
3.24248e-10
-3.05147e-09
9.95546e-09
-1.33537e-08
-1.60811e-09
-4.35652e-09
-3.8962e-09
-2.00104e-09
-1.30904e-09
-2.3925e-10
-2.78028e-10
6.28232e-10
3.66209e-10
1.00643e-09
5.02182e-10
1.15545e-09
5.77315e-10
1.25513e-09
6.21442e-10
1.41033e-09
7.57572e-10
1.50458e-09
7.48085e-10
1.55011e-09
7.28841e-10
1.53627e-09
6.3349e-10
1.50804e-09
5.69157e-10
1.51817e-09
5.2928e-10
1.51187e-09
4.52761e-10
1.51627e-09
4.15985e-10
1.59398e-09
4.36282e-10
1.64958e-09
4.03698e-10
1.69873e-09
4.12302e-10
1.7695e-09
4.10066e-10
1.77473e-09
3.29382e-10
1.73324e-09
2.60966e-10
1.76032e-09
2.7933e-10
1.73698e-09
2.24146e-10
1.70453e-09
2.59436e-10
1.66994e-09
3.44055e-10
1.6825e-09
6.31172e-10
1.47221e-09
8.04042e-10
1.29463e-09
1.59227e-10
-2.86993e-09
1.00846e-08
-1.38827e-08
-1.60607e-09
-4.1094e-09
-3.88894e-09
-1.98811e-09
-1.28925e-09
-2.3266e-10
-2.76851e-10
6.24644e-10
3.63567e-10
1.00377e-09
5.00671e-10
1.15297e-09
5.76194e-10
1.25331e-09
6.20606e-10
1.40751e-09
7.56847e-10
1.50219e-09
7.47322e-10
1.54724e-09
7.28347e-10
1.53423e-09
6.34105e-10
1.50621e-09
5.69872e-10
1.51561e-09
5.29793e-10
1.50988e-09
4.54574e-10
1.51448e-09
4.17511e-10
1.59125e-09
4.3786e-10
1.64715e-09
4.06388e-10
1.69588e-09
4.14988e-10
1.76529e-09
4.12523e-10
1.77062e-09
3.33677e-10
1.72892e-09
2.64956e-10
1.754e-09
2.83686e-10
1.73068e-09
2.29776e-10
1.69766e-09
2.65573e-10
1.66401e-09
3.4848e-10
1.67968e-09
6.28249e-10
1.48972e-09
7.66412e-10
1.40881e-09
-1.56451e-11
-2.67186e-09
1.0223e-08
-1.44487e-08
-1.61168e-09
-3.83977e-09
-3.87536e-09
-1.97441e-09
-1.26863e-09
-2.25723e-10
-2.75755e-10
6.20814e-10
3.60719e-10
1.00083e-09
4.99028e-10
1.15023e-09
5.75005e-10
1.25125e-09
6.19721e-10
1.4044e-09
7.5607e-10
1.49955e-09
7.46535e-10
1.54409e-09
7.27871e-10
1.53193e-09
6.34784e-10
1.50414e-09
5.70704e-10
1.5128e-09
5.30455e-10
1.50762e-09
4.56582e-10
1.51244e-09
4.1927e-10
1.58822e-09
4.39697e-10
1.64437e-09
4.09354e-10
1.69263e-09
4.17977e-10
1.76062e-09
4.15314e-10
1.76601e-09
3.38367e-10
1.72408e-09
2.69415e-10
1.7471e-09
2.88573e-10
1.72375e-09
2.35957e-10
1.69015e-09
2.72226e-10
1.65754e-09
3.53125e-10
1.67672e-09
6.24557e-10
1.50881e-09
7.24875e-10
1.52922e-09
-1.98557e-10
-2.46048e-09
1.03703e-08
-1.5045e-08
-1.62696e-09
-3.54944e-09
-3.85512e-09
-1.96005e-09
-1.24728e-09
-2.18473e-10
-2.74739e-10
6.16741e-10
3.57668e-10
9.97584e-10
4.97256e-10
1.14723e-09
5.73754e-10
1.24892e-09
6.18794e-10
1.40102e-09
7.55244e-10
1.49663e-09
7.45727e-10
1.54066e-09
7.27417e-10
1.52935e-09
6.35531e-10
1.50182e-09
5.71658e-10
1.50975e-09
5.31275e-10
1.50511e-09
4.58793e-10
1.51014e-09
4.21272e-10
1.58488e-09
4.41801e-10
1.64123e-09
4.12604e-10
1.68897e-09
4.21278e-10
1.75549e-09
4.18449e-10
1.76088e-09
3.43457e-10
1.7187e-09
2.74351e-10
1.73959e-09
2.93992e-10
1.71619e-09
2.42689e-10
1.68203e-09
2.79385e-10
1.65053e-09
3.57974e-10
1.67362e-09
6.20101e-10
1.52935e-09
6.79729e-10
1.65488e-09
-3.8757e-10
-2.23914e-09
1.0526e-08
-1.56646e-08
-1.65365e-09
-3.24044e-09
-3.82795e-09
-1.94513e-09
-1.22531e-09
-2.10947e-10
-2.73797e-10
6.12426e-10
3.5442e-10
9.94043e-10
4.95362e-10
1.14398e-09
5.72444e-10
1.24634e-09
6.17829e-10
1.39735e-09
7.54369e-10
1.49345e-09
7.44905e-10
1.53696e-09
7.26989e-10
1.52651e-09
6.36351e-10
1.49923e-09
5.72739e-10
1.50644e-09
5.32259e-10
1.50232e-09
4.6121e-10
1.50756e-09
4.23524e-10
1.58122e-09
4.4418e-10
1.63772e-09
4.16144e-10
1.68489e-09
4.24899e-10
1.74989e-09
4.21939e-10
1.75521e-09
3.48952e-10
1.71277e-09
2.79773e-10
1.73147e-09
2.99947e-10
1.70801e-09
2.49968e-10
1.67328e-09
2.87041e-10
1.64298e-09
3.6302e-10
1.67036e-09
6.14912e-10
1.55119e-09
6.31349e-10
1.78465e-09
-5.80577e-10
-2.01113e-09
1.06891e-08
-1.63003e-08
-1.69316e-09
-2.91513e-09
-3.79368e-09
-1.92978e-09
-1.20284e-09
-2.03185e-10
-2.72925e-10
6.07871e-10
3.50979e-10
9.90203e-10
4.93348e-10
1.14047e-09
5.71081e-10
1.24349e-09
6.1683e-10
1.3934e-09
7.53449e-10
1.48999e-09
7.44071e-10
1.53297e-09
7.26591e-10
1.52338e-09
6.37244e-10
1.49639e-09
5.73952e-10
1.50288e-09
5.33413e-10
1.49926e-09
4.63838e-10
1.50471e-09
4.26032e-10
1.57724e-09
4.46842e-10
1.63383e-09
4.1998e-10
1.68039e-09
4.28845e-10
1.74381e-09
4.25789e-10
1.74901e-09
3.54854e-10
1.70628e-09
2.85683e-10
1.72275e-09
3.06436e-10
1.69919e-09
2.57789e-10
1.66391e-09
2.95183e-10
1.6349e-09
3.68256e-10
1.66693e-09
6.0904e-10
1.57416e-09
5.80184e-10
1.91731e-09
-7.75317e-10
-1.77983e-09
1.08581e-08
-1.69445e-08
-1.74656e-09
-2.57602e-09
-3.75219e-09
-1.91411e-09
-1.18003e-09
-1.95231e-10
-2.72118e-10
6.03075e-10
3.47351e-10
9.86061e-10
4.9122e-10
1.1367e-09
5.69668e-10
1.24039e-09
6.15801e-10
1.38918e-09
7.52486e-10
1.48626e-09
7.43231e-10
1.5287e-09
7.26229e-10
1.51998e-09
6.38216e-10
1.49328e-09
5.753e-10
1.49906e-09
5.34745e-10
1.49592e-09
4.6668e-10
1.50157e-09
4.28803e-10
1.57293e-09
4.4979e-10
1.62956e-09
4.24117e-10
1.67545e-09
4.33121e-10
1.73725e-09
4.30007e-10
1.74227e-09
3.61165e-10
1.69924e-09
2.92083e-10
1.71343e-09
3.13456e-10
1.68975e-09
2.66145e-10
1.65392e-09
3.03801e-10
1.62629e-09
3.73681e-10
1.66329e-09
6.02555e-10
1.59803e-09
5.26751e-10
2.05152e-09
-9.69439e-10
-1.54844e-09
1.10312e-08
-1.75896e-08
-1.8148e-09
-2.2258e-09
-3.70341e-09
-1.89819e-09
-1.157e-09
-1.87128e-10
-2.71368e-10
5.98044e-10
3.43543e-10
9.81619e-10
4.88984e-10
1.13268e-09
5.68209e-10
1.23702e-09
6.14747e-10
1.38467e-09
7.51483e-10
1.48226e-09
7.4239e-10
1.52415e-09
7.25905e-10
1.51629e-09
6.39267e-10
1.48989e-09
5.76787e-10
1.49498e-09
5.36257e-10
1.4923e-09
4.69739e-10
1.49814e-09
4.31841e-10
1.56828e-09
4.53029e-10
1.6249e-09
4.28557e-10
1.67008e-09
4.3773e-10
1.73021e-09
4.34595e-10
1.73498e-09
3.67884e-10
1.69163e-09
2.98972e-10
1.7035e-09
3.21002e-10
1.67969e-09
2.75027e-10
1.64333e-09
3.12882e-10
1.61715e-09
3.79297e-10
1.65943e-09
5.95547e-10
1.62253e-09
4.71624e-10
2.18591e-09
-1.16064e-09
-1.31997e-09
1.12064e-08
-1.82284e-08
-1.89852e-09
-1.86727e-09
-3.6473e-09
-1.88208e-09
-1.1339e-09
-1.7892e-10
-2.70663e-10
5.92781e-10
3.39563e-10
9.76878e-10
4.86645e-10
1.12839e-09
5.66709e-10
1.23339e-09
6.13672e-10
1.37989e-09
7.50443e-10
1.47797e-09
7.41552e-10
1.51931e-09
7.25623e-10
1.51232e-09
6.40402e-10
1.48624e-09
5.78414e-10
1.49064e-09
5.37954e-10
1.48839e-09
4.73015e-10
1.49442e-09
4.35148e-10
1.56331e-09
4.56562e-10
1.61985e-09
4.33304e-10
1.66427e-09
4.42674e-10
1.72269e-09
4.39559e-10
1.72716e-09
3.75009e-10
1.68347e-09
3.06349e-10
1.69298e-09
3.29065e-10
1.66902e-09
2.84424e-10
1.63214e-09
3.22414e-10
1.60747e-09
3.85114e-10
1.65528e-09
5.88122e-10
1.6474e-09
4.15421e-10
2.31902e-09
-1.34664e-09
-1.09715e-09
1.13813e-08
-1.88534e-08
-1.99794e-09
-1.50331e-09
-3.58394e-09
-1.86584e-09
-1.11089e-09
-1.70651e-10
-2.69994e-10
5.87295e-10
3.35419e-10
9.71841e-10
4.84209e-10
1.12385e-09
5.65173e-10
1.2295e-09
6.12582e-10
1.37484e-09
7.49367e-10
1.47342e-09
7.40721e-10
1.5142e-09
7.25387e-10
1.50806e-09
6.41622e-10
1.48231e-09
5.80185e-10
1.48604e-09
5.3984e-10
1.4842e-09
4.76511e-10
1.49039e-09
4.38727e-10
1.558e-09
4.60389e-10
1.61442e-09
4.38357e-10
1.65802e-09
4.47953e-10
1.7147e-09
4.44898e-10
1.71881e-09
3.82538e-10
1.67474e-09
3.14209e-10
1.68187e-09
3.37637e-10
1.65774e-09
2.94325e-10
1.62036e-09
3.32386e-10
1.59727e-09
3.91142e-10
1.65079e-09
5.80406e-10
1.67232e-09
3.58799e-10
2.44942e-09
-1.52513e-09
-8.82544e-10
1.15534e-08
-1.94577e-08
-2.11291e-09
-1.13682e-09
-3.51346e-09
-1.84951e-09
-1.0881e-09
-1.62367e-10
-2.6935e-10
5.8159e-10
3.3112e-10
9.66512e-10
4.81683e-10
1.11906e-09
5.63605e-10
1.22536e-09
6.11478e-10
1.36952e-09
7.48259e-10
1.46859e-09
7.39902e-10
1.50881e-09
7.252e-10
1.50352e-09
6.42928e-10
1.4781e-09
5.82101e-10
1.48118e-09
5.41917e-10
1.47972e-09
4.80226e-10
1.48607e-09
4.42578e-10
1.55236e-09
4.64513e-10
1.60859e-09
4.43719e-10
1.65134e-09
4.53568e-10
1.70624e-09
4.50614e-10
1.70993e-09
3.90467e-10
1.66546e-09
3.22547e-10
1.67018e-09
3.46706e-10
1.64587e-09
3.04716e-10
1.608e-09
3.42787e-10
1.58653e-09
3.97395e-10
1.64591e-09
5.72534e-10
1.69697e-09
3.02439e-10
2.57564e-09
-1.69388e-09
-6.78404e-10
1.17198e-08
-2.00346e-08
-2.24321e-09
-7.70693e-10
-3.436e-09
-1.83309e-09
-1.0657e-09
-1.54111e-10
-2.68716e-10
5.75677e-10
3.26678e-10
9.60898e-10
4.79074e-10
1.11402e-09
5.62012e-10
1.22096e-09
6.10367e-10
1.36394e-09
7.47123e-10
1.46349e-09
7.39099e-10
1.50314e-09
7.25065e-10
1.49871e-09
6.44323e-10
1.47362e-09
5.84162e-10
1.47606e-09
5.44186e-10
1.47495e-09
4.8416e-10
1.48144e-09
4.46701e-10
1.54638e-09
4.68932e-10
1.60238e-09
4.49386e-10
1.64422e-09
4.59516e-10
1.69731e-09
4.56705e-10
1.70052e-09
3.98791e-10
1.65564e-09
3.31353e-10
1.65793e-09
3.5626e-10
1.63342e-09
3.15585e-10
1.59507e-09
3.53604e-10
1.57525e-09
4.03893e-10
1.64057e-09
5.64655e-10
1.721e-09
2.47036e-10
2.69626e-09
-1.85085e-09
-4.8664e-10
1.18775e-08
-2.0578e-08
-2.3884e-09
-4.07778e-10
-3.35173e-09
-1.81655e-09
-1.04381e-09
-1.45922e-10
-2.68074e-10
5.69569e-10
3.22106e-10
9.55006e-10
4.7639e-10
1.10874e-09
5.60397e-10
1.21632e-09
6.09253e-10
1.35809e-09
7.45959e-10
1.45812e-09
7.38317e-10
1.4972e-09
7.24985e-10
1.49361e-09
6.45809e-10
1.46887e-09
5.8637e-10
1.47068e-09
5.4665e-10
1.4699e-09
4.88312e-10
1.47651e-09
4.51096e-10
1.54007e-09
4.73644e-10
1.59578e-09
4.55359e-10
1.63668e-09
4.65794e-10
1.68792e-09
4.63169e-10
1.6906e-09
4.07503e-10
1.64527e-09
3.40621e-10
1.64512e-09
3.66284e-10
1.6204e-09
3.26915e-10
1.58158e-09
3.64825e-10
1.56344e-09
4.10659e-10
1.6347e-09
5.56925e-10
1.74406e-09
1.93286e-10
2.80987e-09
-1.99418e-09
-3.08774e-10
1.20237e-08
-2.10824e-08
-2.54764e-09
-5.08234e-11
-3.26091e-09
-1.79987e-09
-1.02258e-09
-1.37841e-10
-2.67406e-10
5.63278e-10
3.17414e-10
9.48843e-10
4.7364e-10
1.10323e-09
5.58767e-10
1.21143e-09
6.08141e-10
1.352e-09
7.44773e-10
1.45248e-09
7.3756e-10
1.49099e-09
7.24962e-10
1.48824e-09
6.47386e-10
1.46385e-09
5.88724e-10
1.46504e-09
5.49308e-10
1.46456e-09
4.9268e-10
1.47128e-09
4.55761e-10
1.53343e-09
4.78648e-10
1.5888e-09
4.61635e-10
1.62871e-09
4.72399e-10
1.67809e-09
4.70004e-10
1.68019e-09
4.16596e-10
1.63438e-09
3.50339e-10
1.63178e-09
3.76765e-10
1.60683e-09
3.38691e-10
1.56754e-09
3.7644e-10
1.55108e-09
4.17716e-10
1.62822e-09
5.49509e-10
1.7658e-09
1.41877e-10
2.91515e-09
-2.1221e-09
-1.4608e-10
1.21553e-08
-2.15426e-08
-2.71983e-09
2.97561e-10
-3.16382e-09
-1.78301e-09
-1.00213e-09
-1.29907e-10
-2.66696e-10
5.56817e-10
3.12618e-10
9.42421e-10
4.70832e-10
1.09748e-09
5.57128e-10
1.20631e-09
6.07035e-10
1.34565e-09
7.43567e-10
1.44659e-09
7.3683e-10
1.48452e-09
7.24998e-10
1.4826e-09
6.49056e-10
1.45856e-09
5.91225e-10
1.45915e-09
5.52162e-10
1.45894e-09
4.97262e-10
1.46575e-09
4.60693e-10
1.52646e-09
4.83941e-10
1.58145e-09
4.6821e-10
1.62033e-09
4.79325e-10
1.66781e-09
4.77203e-10
1.66928e-09
4.26061e-10
1.62298e-09
3.60494e-10
1.61791e-09
3.87684e-10
1.59272e-09
3.50896e-10
1.55297e-09
3.88437e-10
1.53817e-09
4.2509e-10
1.62104e-09
5.42572e-10
1.78586e-09
9.34763e-11
3.01087e-09
-2.23297e-09
4.70599e-13
1.22693e-08
-2.19541e-08
-2.90392e-09
6.3489e-10
-3.06075e-09
-1.76588e-09
-9.82589e-10
-1.22152e-10
-2.65921e-10
5.50203e-10
3.07732e-10
9.35748e-10
4.67974e-10
1.09152e-09
5.55486e-10
1.20096e-09
6.05939e-10
1.33907e-09
7.42345e-10
1.44044e-09
7.36133e-10
1.47779e-09
7.25097e-10
1.4767e-09
6.50821e-10
1.45301e-09
5.93871e-10
1.45301e-09
5.5521e-10
1.45305e-09
5.02056e-10
1.45992e-09
4.65888e-10
1.51917e-09
4.89518e-10
1.57372e-09
4.7508e-10
1.61155e-09
4.86568e-10
1.65711e-09
4.84763e-10
1.65789e-09
4.35889e-10
1.61107e-09
3.71074e-10
1.60354e-09
3.99025e-10
1.57809e-09
3.63514e-10
1.53788e-09
4.00804e-10
1.5247e-09
4.3281e-10
1.61309e-09
5.36281e-10
1.80391e-09
4.87222e-11
3.09588e-09
-2.3255e-09
1.30295e-10
1.23629e-08
-2.23132e-08
-3.09875e-09
9.58875e-10
-2.95199e-09
-1.74839e-09
-9.64049e-10
-1.14606e-10
-2.65055e-10
5.43455e-10
3.02772e-10
9.28839e-10
4.65077e-10
1.08534e-09
5.53847e-10
1.19539e-09
6.04861e-10
1.33225e-09
7.41108e-10
1.43403e-09
7.35472e-10
1.4708e-09
7.25259e-10
1.47053e-09
6.5268e-10
1.44719e-09
5.96663e-10
1.44662e-09
5.58452e-10
1.44688e-09
5.07057e-10
1.45379e-09
4.71344e-10
1.51157e-09
4.95376e-10
1.56564e-09
4.82241e-10
1.60237e-09
4.94119e-10
1.64599e-09
4.92676e-10
1.64605e-09
4.4607e-10
1.59867e-09
3.82065e-10
1.58868e-09
4.10768e-10
1.56296e-09
3.76525e-10
1.52229e-09
4.1353e-10
1.51068e-09
4.40904e-10
1.60429e-09
5.30799e-10
1.81959e-09
8.21115e-12
3.16912e-09
-2.3986e-09
2.43163e-10
1.24333e-08
-2.2617e-08
-3.30285e-09
1.26746e-09
-2.83787e-09
-1.73043e-09
-9.46607e-10
-1.07294e-10
-2.64076e-10
5.36592e-10
2.97754e-10
9.21706e-10
4.62151e-10
1.07896e-09
5.52217e-10
1.1896e-09
6.03804e-10
1.3252e-09
7.39861e-10
1.42739e-09
7.34851e-10
1.46357e-09
7.25486e-10
1.46411e-09
6.54635e-10
1.44112e-09
5.99599e-10
1.43999e-09
5.61886e-10
1.44044e-09
5.12262e-10
1.44738e-09
4.77055e-10
1.50366e-09
5.01508e-10
1.5572e-09
4.89686e-10
1.5928e-09
5.01972e-10
1.63447e-09
5.00935e-10
1.63375e-09
4.56591e-10
1.5858e-09
3.93452e-10
1.57335e-09
4.22896e-10
1.54734e-09
3.89914e-10
1.50619e-09
4.26605e-10
1.49609e-09
4.49402e-10
1.59456e-09
5.26287e-10
1.8326e-09
-2.75077e-11
3.22968e-09
-2.45136e-09
3.39089e-10
1.24781e-08
-2.28628e-08
-3.51467e-09
1.55879e-09
-2.71875e-09
-1.7119e-09
-9.30348e-10
-1.00242e-10
-2.6296e-10
5.29632e-10
2.92696e-10
9.14363e-10
4.59205e-10
1.07239e-09
5.50604e-10
1.18362e-09
6.02772e-10
1.31793e-09
7.38607e-10
1.4205e-09
7.34272e-10
1.4561e-09
7.25781e-10
1.45743e-09
6.56686e-10
1.43479e-09
6.02677e-10
1.43312e-09
5.65511e-10
1.43374e-09
5.17668e-10
1.44068e-09
4.83017e-10
1.49544e-09
5.0791e-10
1.54842e-09
4.97409e-10
1.58286e-09
5.10118e-10
1.62256e-09
5.09531e-10
1.62102e-09
4.67442e-10
1.57249e-09
4.05216e-10
1.55756e-09
4.35387e-10
1.53126e-09
4.03659e-10
1.48962e-09
4.40016e-10
1.48093e-09
4.58331e-10
1.5838e-09
5.22894e-10
1.84264e-09
-5.79405e-11
3.27679e-09
-2.48307e-09
4.18299e-10
1.24947e-08
-2.3049e-08
-3.73274e-09
1.83128e-09
-2.59497e-09
-1.69267e-09
-9.15333e-10
-9.34663e-11
-2.61678e-10
5.22598e-10
2.87615e-10
9.06826e-10
4.56249e-10
1.06564e-09
5.49015e-10
1.17744e-09
6.01773e-10
1.31045e-09
7.37348e-10
1.41338e-09
7.33741e-10
1.44839e-09
7.26145e-10
1.45052e-09
6.58835e-10
1.42822e-09
6.05897e-10
1.42601e-09
5.69324e-10
1.42677e-09
5.23268e-10
1.4337e-09
4.89223e-10
1.48693e-09
5.14573e-10
1.5393e-09
5.05404e-10
1.57255e-09
5.18549e-10
1.61027e-09
5.18456e-10
1.60788e-09
4.78607e-10
1.55873e-09
4.17343e-10
1.54135e-09
4.48222e-10
1.51473e-09
4.17743e-10
1.47258e-09
4.53753e-10
1.46519e-09
4.67718e-10
1.57196e-09
5.20761e-10
1.84944e-09
-8.26564e-11
3.30978e-09
-2.4933e-09
4.81352e-10
1.24811e-08
-2.31746e-08
-3.95566e-09
2.08358e-09
-2.46685e-09
-1.67259e-09
-9.01602e-10
-8.69755e-11
-2.60201e-10
5.15515e-10
2.82531e-10
8.99112e-10
4.53296e-10
1.05872e-09
5.47455e-10
1.17108e-09
6.00812e-10
1.30276e-09
7.36087e-10
1.40604e-09
7.3326e-10
1.44046e-09
7.26579e-10
1.44336e-09
6.61082e-10
1.4214e-09
6.09256e-10
1.41867e-09
5.73321e-10
1.41956e-09
5.29059e-10
1.42644e-09
4.95668e-10
1.47813e-09
5.21492e-10
1.52986e-09
5.13663e-10
1.5619e-09
5.27254e-10
1.59762e-09
5.277e-10
1.59434e-09
4.90075e-10
1.54457e-09
4.29815e-10
1.52472e-09
4.61379e-10
1.49778e-09
4.32148e-10
1.45509e-09
4.67802e-10
1.44887e-09
4.77589e-10
1.55896e-09
5.20015e-10
1.85276e-09
-1.01293e-10
3.32816e-09
-2.48191e-09
5.29056e-10
1.24357e-08
-2.32393e-08
-4.18185e-09
2.31463e-09
-2.33471e-09
-1.65153e-09
-8.89192e-10
-8.07771e-11
-2.58499e-10
5.08409e-10
2.77462e-10
8.91238e-10
4.50356e-10
1.05164e-09
5.45933e-10
1.16454e-09
5.99895e-10
1.29487e-09
7.34827e-10
1.39847e-09
7.32833e-10
1.4323e-09
7.27083e-10
1.43597e-09
6.63427e-10
1.41435e-09
6.12751e-10
1.4111e-09
5.77501e-10
1.41209e-09
5.35034e-10
1.41893e-09
5.02346e-10
1.46904e-09
5.28658e-10
1.5201e-09
5.22179e-10
1.55091e-09
5.36226e-10
1.58462e-09
5.37251e-10
1.58042e-09
5.0183e-10
1.53e-09
4.42614e-10
1.50771e-09
4.74837e-10
1.48042e-09
4.46853e-10
1.43716e-09
4.82152e-10
1.43197e-09
4.87967e-10
1.54473e-09
5.20767e-10
1.85238e-09
-1.13561e-10
3.33156e-09
-2.44888e-09
5.62403e-10
1.23568e-08
-2.32434e-08
-4.40979e-09
2.52365e-09
-2.1989e-09
-1.62936e-09
-8.78124e-10
-7.4875e-11
-2.56544e-10
5.01302e-10
2.72429e-10
8.83223e-10
4.47439e-10
1.04441e-09
5.44455e-10
1.15785e-09
5.99028e-10
1.28678e-09
7.3357e-10
1.3907e-09
7.32463e-10
1.42392e-09
7.2766e-10
1.42836e-09
6.6587e-10
1.40706e-09
6.16381e-10
1.40332e-09
5.81859e-10
1.40439e-09
5.41189e-10
1.41115e-09
5.09249e-10
1.45969e-09
5.36064e-10
1.51004e-09
5.30943e-10
1.53959e-09
5.45452e-10
1.5713e-09
5.471e-10
1.56613e-09
5.13858e-10
1.51507e-09
4.5572e-10
1.49032e-09
4.88575e-10
1.46267e-09
4.61839e-10
1.41881e-09
4.96789e-10
1.41448e-09
4.98869e-10
1.52921e-09
5.23115e-10
1.84813e-09
-1.19246e-10
3.31978e-09
-2.39441e-09
5.82478e-10
1.22432e-08
-2.31878e-08
-4.638e-09
2.71014e-09
-2.05973e-09
-1.60595e-09
-8.68399e-10
-6.92638e-11
-2.54305e-10
4.94222e-10
2.6745e-10
8.75087e-10
4.44559e-10
1.03705e-09
5.43029e-10
1.15101e-09
5.98216e-10