/*--------------------------------*- C++ -*----------------------------------*\
| =========                 |                                                 |
| \\      /  F ield         | OpenFOAM: The Open Source CFD Toolbox           |
|  \\    /   O peration     | Version:  2312                                  |
|   \\  /    A nd           | Website:  www.openfoam.com                      |
|    \\/     M anipulation  |                                                 |
\*---------------------------------------------------------------------------*/
FoamFile
{
    version     2.0;
    format      ascii;
    arch        "LSB;label=32;scalar=64";
    class       volScalarField;
    location    "300";
    object      pMean;
}
// * * * * * * * * * * * * * * * * * * * * * * * * * * * * * * * * * * * * * //

dimensions      [0 2 -2 0 0 0 0];

internalField   nonuniform List<scalar> 
330000
(
-1.26091e-08
-3.8313e-09
-8.16578e-09
-6.51477e-09
-4.42908e-09
-3.20237e-09
-1.78565e-09
-1.36725e-09
-3.97117e-10
-3.63746e-10
2.94997e-10
6.92135e-11
6.96692e-10
3.41722e-10
9.53381e-10
5.05464e-10
1.19654e-09
6.8121e-10
1.36499e-09
7.45502e-10
1.49915e-09
7.92539e-10
1.57955e-09
7.76178e-10
1.65787e-09
7.85912e-10
1.76823e-09
8.01198e-10
1.85141e-09
7.69333e-10
1.93402e-09
7.59494e-10
2.05767e-09
7.63932e-10
2.15162e-09
7.17315e-10
2.2634e-09
7.18019e-10
2.42354e-09
7.30247e-10
2.5688e-09
7.06978e-10
2.72856e-09
7.25536e-10
2.96407e-09
7.92124e-10
3.17611e-09
8.1713e-10
3.41434e-09
9.09214e-10
3.68261e-09
1.07914e-09
4.00763e-09
1.44666e-09
4.17502e-09
2.09603e-09
4.07089e-09
3.50445e-09
-3.96244e-09
1.63886e-08
-1.24954e-08
-3.81629e-09
-8.17948e-09
-6.52305e-09
-4.43247e-09
-3.20361e-09
-1.78777e-09
-1.36866e-09
-3.98944e-10
-3.65028e-10
2.93522e-10
6.82444e-11
6.954e-10
3.40957e-10
9.52278e-10
5.04908e-10
1.19554e-09
6.80832e-10
1.36399e-09
7.45252e-10
1.4982e-09
7.92422e-10
1.57865e-09
7.76242e-10
1.65695e-09
7.8608e-10
1.76725e-09
8.0147e-10
1.85043e-09
7.69808e-10
1.93294e-09
7.60062e-10
2.05649e-09
7.64628e-10
2.15038e-09
7.1824e-10
2.26203e-09
7.19098e-10
2.42199e-09
7.31498e-10
2.56712e-09
7.08561e-10
2.72664e-09
7.2732e-10
2.96189e-09
7.94237e-10
3.17361e-09
8.1975e-10
3.41144e-09
9.12449e-10
3.67918e-09
1.08324e-09
4.0035e-09
1.45244e-09
4.16935e-09
2.10504e-09
4.06626e-09
3.52318e-09
-4.00864e-09
1.63343e-08
-1.23799e-08
-3.80942e-09
-8.19565e-09
-6.5321e-09
-4.43538e-09
-3.20429e-09
-1.7894e-09
-1.37038e-09
-4.00586e-10
-3.66983e-10
2.92344e-10
6.66349e-11
6.94447e-10
3.39484e-10
9.51642e-10
5.03604e-10
1.19504e-09
6.79652e-10
1.36357e-09
7.44129e-10
1.49789e-09
7.91357e-10
1.57853e-09
7.75345e-10
1.6569e-09
7.8517e-10
1.76722e-09
8.00561e-10
1.85054e-09
7.69071e-10
1.93308e-09
7.59276e-10
2.0566e-09
7.63825e-10
2.1506e-09
7.1759e-10
2.26226e-09
7.18422e-10
2.42215e-09
7.30836e-10
2.56735e-09
7.0816e-10
2.72679e-09
7.26892e-10
2.96189e-09
7.9396e-10
3.17349e-09
8.19912e-10
3.41101e-09
9.13134e-10
3.6783e-09
1.08479e-09
4.00179e-09
1.45604e-09
4.16553e-09
2.11239e-09
4.06268e-09
3.54752e-09
-4.08972e-09
1.63177e-08
-1.22683e-08
-3.82584e-09
-8.20681e-09
-6.5409e-09
-4.43701e-09
-3.20327e-09
-1.79022e-09
-1.3716e-09
-4.0203e-10
-3.6885e-10
2.91367e-10
6.5054e-11
6.93622e-10
3.3794e-10
9.51184e-10
5.02211e-10
1.19465e-09
6.78336e-10
1.36328e-09
7.42841e-10
1.4977e-09
7.90089e-10
1.57861e-09
7.74285e-10
1.65707e-09
7.84046e-10
1.76737e-09
7.99383e-10
1.85092e-09
7.68112e-10
1.9335e-09
7.58203e-10
2.05698e-09
7.62674e-10
2.15118e-09
7.16643e-10
2.26286e-09
7.17373e-10
2.42267e-09
7.29723e-10
2.56802e-09
7.07352e-10
2.72741e-09
7.25953e-10
2.96232e-09
7.93099e-10
3.17386e-09
8.19511e-10
3.41106e-09
9.13204e-10
3.67792e-09
1.0857e-09
4.00051e-09
1.45904e-09
4.162e-09
2.11833e-09
4.06215e-09
3.56521e-09
-4.18448e-09
1.63364e-08
-1.2173e-08
-3.86132e-09
-8.20606e-09
-6.54763e-09
-4.43675e-09
-3.20024e-09
-1.79027e-09
-1.37229e-09
-4.03476e-10
-3.70662e-10
2.90358e-10
6.35247e-11
6.92704e-10
3.36405e-10
9.50667e-10
5.00845e-10
1.19415e-09
6.77029e-10
1.36287e-09
7.41561e-10
1.49736e-09
7.88825e-10
1.5786e-09
7.73299e-10
1.65715e-09
7.82977e-10
1.76738e-09
7.9824e-10
1.8512e-09
7.67269e-10
1.93383e-09
7.57223e-10
2.0572e-09
7.61599e-10
2.15164e-09
7.15851e-10
2.26333e-09
7.16452e-10
2.42298e-09
7.28714e-10
2.56851e-09
7.06753e-10
2.72783e-09
7.25182e-10
2.96244e-09
7.92403e-10
3.1739e-09
8.19379e-10
3.41067e-09
9.13602e-10
3.67698e-09
1.08705e-09
3.99837e-09
1.46269e-09
4.15725e-09
2.12404e-09
4.06423e-09
3.57117e-09
-4.2744e-09
1.63777e-08
-1.21077e-08
-3.90904e-09
-8.18844e-09
-6.55073e-09
-4.43389e-09
-3.19492e-09
-1.78941e-09
-1.37251e-09
-4.04972e-10
-3.72509e-10
2.89218e-10
6.19426e-11
6.91606e-10
3.34796e-10
9.50007e-10
4.99431e-10
1.19345e-09
6.75677e-10
1.36229e-09
7.40245e-10
1.49683e-09
7.87532e-10
1.57845e-09
7.72355e-10
1.65709e-09
7.81946e-10
1.76721e-09
7.97119e-10
1.85134e-09
7.66535e-10
1.93401e-09
7.56334e-10
2.05723e-09
7.60612e-10
2.15194e-09
7.15223e-10
2.26361e-09
7.15684e-10
2.42303e-09
7.27845e-10
2.56875e-09
7.06404e-10
2.72796e-09
7.24637e-10
2.96216e-09
7.91961e-10
3.17346e-09
8.1963e-10
3.40966e-09
9.14514e-10
3.67518e-09
1.08914e-09
3.9949e-09
1.46747e-09
4.15055e-09
2.13004e-09
4.06848e-09
3.56265e-09
-4.34886e-09
1.64342e-08
-1.20833e-08
-3.96315e-09
-8.15002e-09
-6.54914e-09
-4.42786e-09
-3.18697e-09
-1.78742e-09
-1.37219e-09
-4.06452e-10
-3.74395e-10
2.87937e-10
6.02536e-11
6.90303e-10
3.33052e-10
9.49174e-10
4.97904e-10
1.19254e-09
6.74225e-10
1.36152e-09
7.38835e-10
1.49609e-09
7.86162e-10
1.57814e-09
7.71405e-10
1.65689e-09
7.80909e-10
1.76687e-09
7.9598e-10
1.85134e-09
7.65865e-10
1.93405e-09
7.55498e-10
2.05709e-09
7.59681e-10
2.15209e-09
7.14723e-10
2.26373e-09
7.15039e-10
2.42283e-09
7.27088e-10
2.56874e-09
7.06276e-10
2.7278e-09
7.24304e-10
2.96145e-09
7.91782e-10
3.1725e-09
8.20293e-10
3.40793e-09
9.1602e-10
3.67234e-09
1.09212e-09
3.98977e-09
1.47362e-09
4.14147e-09
2.13641e-09
4.07479e-09
3.53777e-09
-4.40039e-09
1.65007e-08
-1.21078e-08
-4.01905e-09
-8.08763e-09
-6.54221e-09
-4.41828e-09
-3.17615e-09
-1.78405e-09
-1.37123e-09
-4.07806e-10
-3.76263e-10
2.8655e-10
5.84593e-11
6.888e-10
3.31159e-10
9.48148e-10
4.96237e-10
1.19139e-09
6.72648e-10
1.36053e-09
7.37306e-10
1.49513e-09
7.84695e-10
1.57766e-09
7.70424e-10
1.65654e-09
7.79848e-10
1.76633e-09
7.94812e-10
1.85118e-09
7.65244e-10
1.93394e-09
7.54704e-10
2.05674e-09
7.58805e-10
2.15205e-09
7.14346e-10
2.26364e-09
7.14523e-10
2.42236e-09
7.26462e-10
2.56845e-09
7.06387e-10
2.72731e-09
7.24222e-10
2.96025e-09
7.91934e-10
3.17091e-09
8.21455e-10
3.40533e-09
9.18254e-10
3.66825e-09
1.09618e-09
3.98268e-09
1.48136e-09
4.12974e-09
2.14307e-09
4.08325e-09
3.4954e-09
-4.42352e-09
1.65723e-08
-1.21865e-08
-4.07291e-09
-7.99879e-09
-6.52957e-09
-4.40501e-09
-3.16235e-09
-1.77915e-09
-1.36953e-09
-4.08929e-10
-3.7804e-10
2.85114e-10
5.65923e-11
6.87124e-10
3.29129e-10
9.46932e-10
4.94426e-10
1.18999e-09
6.7094e-10
1.35934e-09
7.35648e-10
1.49394e-09
7.83123e-10
1.57699e-09
7.69401e-10
1.65601e-09
7.78756e-10
1.76558e-09
7.93615e-10
1.85083e-09
7.6467e-10
1.93366e-09
7.53958e-10
2.05618e-09
7.57999e-10
2.15181e-09
7.14106e-10
2.26333e-09
7.14162e-10
2.42158e-09
7.26006e-10
2.5678e-09
7.06783e-10
2.7264e-09
7.24455e-10
2.95846e-09
7.92511e-10
3.16857e-09
8.23235e-10
3.4017e-09
9.2138e-10
3.66268e-09
1.10154e-09
3.97334e-09
1.49083e-09
4.11525e-09
2.14978e-09
4.09406e-09
3.435e-09
-4.41462e-09
1.66442e-08
-1.23229e-08
-4.12191e-09
-7.88168e-09
-6.51093e-09
-4.38804e-09
-3.14554e-09
-1.77264e-09
-1.36705e-09
-4.09737e-10
-3.79658e-10
2.83693e-10
5.46967e-11
6.85317e-10
3.26993e-10
9.45547e-10
4.92487e-10
1.18836e-09
6.69111e-10
1.35792e-09
7.33863e-10
1.49251e-09
7.81448e-10
1.57611e-09
7.68333e-10
1.65529e-09
7.77635e-10
1.76461e-09
7.92396e-10
1.85028e-09
7.64145e-10
1.93317e-09
7.53269e-10
2.05537e-09
7.57282e-10
2.15131e-09
7.14024e-10
2.26273e-09
7.13988e-10
2.42042e-09
7.25766e-10
2.56673e-09
7.07514e-10
2.72499e-09
7.2508e-10
2.95597e-09
7.93617e-10
3.16534e-09
8.25759e-10
3.39685e-09
9.25557e-10
3.65541e-09
1.10836e-09
3.96156e-09
1.50212e-09
4.09798e-09
2.15622e-09
4.1075e-09
3.35651e-09
-4.37144e-09
1.67127e-08
-1.25183e-08
-4.16434e-09
-7.73519e-09
-6.48615e-09
-4.36749e-09
-3.12582e-09
-1.76453e-09
-1.3638e-09
-4.10177e-10
-3.81073e-10
2.82339e-10
5.28148e-11
6.83426e-10
3.24787e-10
9.44021e-10
4.90445e-10
1.1865e-09
6.67177e-10
1.35631e-09
7.31964e-10
1.49084e-09
7.79682e-10
1.57503e-09
7.67224e-10
1.65438e-09
7.76493e-10
1.7634e-09
7.91164e-10
1.8495e-09
7.63677e-10
1.93247e-09
7.52652e-10
2.05429e-09
7.56676e-10
2.15053e-09
7.14122e-10
2.26182e-09
7.14036e-10
2.41886e-09
7.2579e-10
2.56518e-09
7.08635e-10
2.72301e-09
7.26174e-10
2.95269e-09
7.95355e-10
3.1611e-09
8.29147e-10
3.39064e-09
9.30927e-10
3.64627e-09
1.11677e-09
3.94719e-09
1.5152e-09
4.0781e-09
2.162e-09
4.12391e-09
3.26025e-09
-4.29324e-09
1.67751e-08
-1.27726e-08
-4.1995e-09
-7.55883e-09
-6.4551e-09
-4.34353e-09
-3.1033e-09
-1.75485e-09
-1.3598e-09
-4.10233e-10
-3.82263e-10
2.8109e-10
5.098e-11
6.81489e-10
3.22549e-10
9.42387e-10
4.88331e-10
1.18446e-09
6.65162e-10
1.35452e-09
7.29971e-10
1.48895e-09
7.77843e-10
1.57374e-09
7.6609e-10
1.65326e-09
7.75345e-10
1.76196e-09
7.89938e-10
1.84849e-09
7.63281e-10
1.93152e-09
7.52129e-10
2.05291e-09
7.5621e-10
2.14944e-09
7.14431e-10
2.26054e-09
7.14347e-10
2.41683e-09
7.26133e-10
2.56309e-09
7.10207e-10
2.72037e-09
7.27818e-10
2.94851e-09
7.97823e-10
3.15572e-09
8.33507e-10
3.38294e-09
9.37602e-10
3.63514e-09
1.12684e-09
3.93021e-09
1.52997e-09
4.05586e-09
2.16668e-09
4.14358e-09
3.14694e-09
-4.1804e-09
1.68298e-08
-1.30834e-08
-4.22754e-09
-7.35285e-09
-6.41773e-09
-4.31643e-09
-3.07817e-09
-1.74369e-09
-1.35512e-09
-4.09915e-10
-3.83231e-10
2.79959e-10
4.92112e-11
6.79536e-10
3.20307e-10
9.40671e-10
4.86175e-10
1.18225e-09
6.63095e-10
1.35257e-09
7.2791e-10
1.48686e-09
7.75955e-10
1.57225e-09
7.64947e-10
1.65195e-09
7.74212e-10
1.76028e-09
7.88742e-10
1.84722e-09
7.62977e-10
1.93032e-09
7.51725e-10
2.05122e-09
7.55915e-10
2.148e-09
7.14985e-10
2.25887e-09
7.14966e-10
2.41429e-09
7.2685e-10
2.56039e-09
7.12289e-10
2.71701e-09
7.30086e-10
2.94336e-09
8.01109e-10
3.14912e-09
8.38926e-10
3.37365e-09
9.45658e-10
3.62196e-09
1.13858e-09
3.91066e-09
1.54627e-09
4.03158e-09
2.16987e-09
4.16665e-09
3.01768e-09
-4.03448e-09
1.68757e-08
-1.34471e-08
-4.24912e-09
-7.11799e-09
-6.37404e-09
-4.28651e-09
-3.05065e-09
-1.73117e-09
-1.34986e-09
-4.0926e-10
-3.83999e-10
2.78944e-10
4.75122e-11
6.7758e-10
3.18081e-10
9.3889e-10
4.84002e-10
1.1799e-09
6.60998e-10
1.35047e-09
7.25808e-10
1.48458e-09
7.74044e-10
1.57057e-09
7.63819e-10
1.65043e-09
7.73118e-10
1.75836e-09
7.87602e-10
1.8457e-09
7.62791e-10
1.92884e-09
7.51472e-10
2.0492e-09
7.55828e-10
2.14619e-09
7.15821e-10
2.25676e-09
7.15938e-10
2.4112e-09
7.27997e-10
2.55702e-09
7.14937e-10
2.71286e-09
7.33048e-10
2.93717e-09
8.05284e-10
3.14123e-09
8.45471e-10
3.36271e-09
9.55136e-10
3.60669e-09
1.15197e-09
3.88864e-09
1.56388e-09
4.00561e-09
2.17125e-09
4.19305e-09
2.87397e-09
-3.85794e-09
1.69122e-08
-1.38584e-08
-4.2653e-09
-6.85558e-09
-6.3241e-09
-4.25411e-09
-3.021e-09
-1.71743e-09
-1.3441e-09
-4.08321e-10
-3.84607e-10
2.78023e-10
4.58734e-11
6.75621e-10
3.15881e-10
9.37052e-10
4.81828e-10
1.17742e-09
6.58892e-10
1.34825e-09
7.23689e-10
1.48213e-09
7.72136e-10
1.56871e-09
7.62729e-10
1.64873e-09
7.72091e-10
1.7562e-09
7.86549e-10
1.84391e-09
7.62748e-10
1.92709e-09
7.51401e-10
2.04682e-09
7.55985e-10
2.14398e-09
7.16975e-10
2.25418e-09
7.17307e-10
2.40753e-09
7.29622e-10
2.55295e-09
7.182e-10
2.70787e-09
7.36759e-10
2.92988e-09
8.10402e-10
3.132e-09
8.53177e-10
3.35011e-09
9.66041e-10
3.58939e-09
1.16693e-09
3.86429e-09
1.58259e-09
3.97827e-09
2.1706e-09
4.22254e-09
2.71777e-09
-3.65408e-09
1.69389e-08
-1.43109e-08
-4.27733e-09
-6.56737e-09
-6.26795e-09
-4.2196e-09
-2.98948e-09
-1.70263e-09
-1.33796e-09
-4.07167e-10
-3.85103e-10
2.77161e-10
4.42757e-11
6.73647e-10
3.13705e-10
9.35153e-10
4.79664e-10
1.17481e-09
6.56792e-10
1.34591e-09
7.21573e-10
1.47951e-09
7.70256e-10
1.56667e-09
7.61702e-10
1.64683e-09
7.71158e-10
1.75381e-09
7.85612e-10
1.84185e-09
7.62877e-10
1.92504e-09
7.51545e-10
2.04407e-09
7.56421e-10
2.14134e-09
7.18484e-10
2.25111e-09
7.19114e-10
2.40325e-09
7.31771e-10
2.54815e-09
7.22117e-10
2.702e-09
7.41262e-10
2.92147e-09
8.16498e-10
3.12141e-09
8.62061e-10
3.33584e-09
9.78353e-10
3.57009e-09
1.18337e-09
3.83777e-09
1.6022e-09
3.94983e-09
2.16786e-09
4.25463e-09
2.55134e-09
-3.42671e-09
1.69551e-08
-1.47973e-08
-4.28673e-09
-6.25556e-09
-6.20568e-09
-4.18332e-09
-2.95636e-09
-1.68693e-09
-1.33154e-09
-4.05869e-10
-3.85544e-10
2.76317e-10
4.26929e-11
6.71636e-10
3.11547e-10
9.33183e-10
4.77513e-10
1.17207e-09
6.54706e-10
1.34345e-09
7.19477e-10
1.47672e-09
7.68421e-10
1.56446e-09
7.60757e-10
1.64474e-09
7.70341e-10
1.75118e-09
7.84818e-10
1.83952e-09
7.63203e-10
1.92268e-09
7.51933e-10
2.04095e-09
7.57167e-10
2.13828e-09
7.20379e-10
2.24753e-09
7.21391e-10
2.39834e-09
7.34479e-10
2.54259e-09
7.26721e-10
2.69524e-09
7.46587e-10
2.91193e-09
8.23592e-10
3.10946e-09
8.72121e-10
3.31993e-09
9.92033e-10
3.54887e-09
1.20119e-09
3.80926e-09
1.62252e-09
3.92052e-09
2.16305e-09
4.28867e-09
2.37714e-09
-3.18e-09
1.69603e-08
-1.53095e-08
-4.29504e-09
-5.9227e-09
-6.13737e-09
-4.14559e-09
-2.92192e-09
-1.67047e-09
-1.32495e-09
-4.04499e-10
-3.85982e-10
2.75446e-10
4.10963e-11
6.69561e-10
3.09395e-10
9.31126e-10
4.75375e-10
1.16921e-09
6.52639e-10
1.34086e-09
7.17413e-10
1.47377e-09
7.6665e-10
1.56206e-09
7.59911e-10
1.64245e-09
7.69662e-10
1.74831e-09
7.84192e-10
1.8369e-09
7.63748e-10
1.92002e-09
7.52593e-10
2.03744e-09
7.58252e-10
2.13476e-09
7.22685e-10
2.24342e-09
7.24168e-10
2.3928e-09
7.37774e-10
2.53625e-09
7.32031e-10
2.68757e-09
7.52753e-10
2.90125e-09
8.31689e-10
3.09618e-09
8.83342e-10
3.30243e-09
1.00703e-09
3.52584e-09
1.22028e-09
3.7789e-09
1.6434e-09
3.89049e-09
2.15632e-09
4.32382e-09
2.1978e-09
-2.91829e-09
1.69541e-08
-1.58389e-08
-4.30371e-09
-5.57174e-09
-6.0632e-09
-4.10672e-09
-2.88643e-09
-1.6534e-09
-1.31826e-09
-4.03125e-10
-3.8647e-10
2.74502e-10
3.94564e-11
6.67396e-10
3.07233e-10
9.28961e-10
4.73243e-10
1.1662e-09
6.50591e-10
1.33815e-09
7.1539e-10
1.47066e-09
7.64953e-10
1.55948e-09
7.59178e-10
1.63996e-09
7.69139e-10
1.7452e-09
7.83753e-10
1.83399e-09
7.64532e-10
1.91703e-09
7.53546e-10
2.03355e-09
7.59697e-10
2.13079e-09
7.25425e-10
2.23878e-09
7.27464e-10
2.38661e-09
7.41678e-10
2.52914e-09
7.3806e-10
2.67899e-09
7.59769e-10
2.88946e-09
8.40783e-10
3.08158e-09
8.95697e-10
3.28339e-09
1.02329e-09
3.50107e-09
1.24054e-09
3.74686e-09
1.66471e-09
3.85987e-09
2.14792e-09
4.35916e-09
2.01608e-09
-2.64607e-09
1.69355e-08
-1.63766e-08
-4.31399e-09
-5.20581e-09
-5.98334e-09
-4.06701e-09
-2.85013e-09
-1.63586e-09
-1.31156e-09
-4.01807e-10
-3.87052e-10
2.73442e-10
3.77463e-11
6.6511e-10
3.05047e-10
9.26668e-10
4.71112e-10
1.16303e-09
6.48558e-10
1.33529e-09
7.13412e-10
1.46737e-09
7.63339e-10
1.55671e-09
7.58569e-10
1.63726e-09
7.68785e-10
1.74185e-09
7.83518e-10
1.8308e-09
7.65569e-10
1.91372e-09
7.5481e-10
2.02926e-09
7.61519e-10
2.12637e-09
7.28612e-10
2.2336e-09
7.31295e-10
2.37978e-09
7.46203e-10
2.52126e-09
7.44813e-10
2.66951e-09
7.67634e-10
2.87656e-09
8.50861e-10
3.0657e-09
9.09153e-10
3.26286e-09
1.04075e-09
3.47467e-09
1.26187e-09
3.71326e-09
1.68636e-09
3.82871e-09
2.13816e-09
4.39364e-09
1.83481e-09
-2.36771e-09
1.69035e-08
-1.6914e-08
-4.32718e-09
-4.82827e-09
-5.898e-09
-4.02667e-09
-2.81327e-09
-1.61796e-09
-1.3049e-09
-4.00597e-10
-3.87769e-10
2.72229e-10
3.59426e-11
6.62679e-10
3.02823e-10
9.24227e-10
4.68974e-10
1.1597e-09
6.46538e-10
1.33227e-09
7.11482e-10
1.4639e-09
7.61814e-10
1.55375e-09
7.58088e-10
1.63435e-09
7.68608e-10
1.73826e-09
7.83499e-10
1.82731e-09
7.66869e-10
1.91009e-09
7.56398e-10
2.02457e-09
7.63732e-10
2.12148e-09
7.32259e-10
2.22789e-09
7.3567e-10
2.37231e-09
7.51357e-10
2.51263e-09
7.5229e-10
2.65915e-09
7.76344e-10
2.8626e-09
8.61903e-10
3.04859e-09
9.23675e-10
3.24093e-09
1.05934e-09
3.44674e-09
1.28419e-09
3.67824e-09
1.70829e-09
3.79701e-09
2.12742e-09
4.42616e-09
1.65671e-09
-2.08735e-09
1.68571e-08
-1.74424e-08
-4.34436e-09
-4.44257e-09
-5.8074e-09
-3.98593e-09
-2.77609e-09
-1.59982e-09
-1.29835e-09
-3.99539e-10
-3.88649e-10
2.70829e-10
3.4026e-11
6.60077e-10
3.00547e-10
9.21617e-10
4.66822e-10
1.1562e-09
6.44526e-10
1.32909e-09
7.096e-10
1.46024e-09
7.6038e-10
1.55058e-09
7.57742e-10
1.63122e-09
7.68616e-10
1.73441e-09
7.83705e-10
1.82352e-09
7.68439e-10
1.90612e-09
7.58318e-10
2.01949e-09
7.66341e-10
2.11613e-09
7.36369e-10
2.22164e-09
7.40592e-10
2.36422e-09
7.57141e-10
2.50324e-09
7.60484e-10
2.64792e-09
7.85886e-10
2.84759e-09
8.73886e-10
3.03029e-09
9.39222e-10
3.21764e-09
1.07901e-09
3.41736e-09
1.30741e-09
3.6419e-09
1.73043e-09
3.76476e-09
2.11615e-09
4.45559e-09
1.48437e-09
-1.80882e-09
1.67951e-08
-1.79536e-08
-4.36628e-09
-4.05226e-09
-5.71187e-09
-3.94497e-09
-2.73882e-09
-1.58155e-09
-1.29192e-09
-3.98666e-10
-3.89718e-10
2.69215e-10
3.19817e-11
6.57285e-10
2.98211e-10
9.18823e-10
4.6465e-10
1.1525e-09
6.42516e-10
1.32573e-09
7.07767e-10
1.45639e-09
7.59038e-10
1.5472e-09
7.57531e-10
1.62786e-09
7.68812e-10
1.73032e-09
7.84142e-10
1.81943e-09
7.70285e-10
1.90182e-09
7.60576e-10
2.01402e-09
7.69352e-10
2.11033e-09
7.40946e-10
2.21487e-09
7.46061e-10
2.35551e-09
7.63553e-10
2.49312e-09
7.69385e-10
2.63584e-09
7.96248e-10
2.83157e-09
8.86781e-10
3.01084e-09
9.55754e-10
3.19308e-09
1.09969e-09
3.38662e-09
1.33146e-09
3.60435e-09
1.75278e-09
3.7319e-09
2.10478e-09
4.48078e-09
1.32034e-09
-1.53564e-09
1.67162e-08
-1.84396e-08
-4.39339e-09
-3.66084e-09
-5.61174e-09
-3.90395e-09
-2.70168e-09
-1.56323e-09
-1.28566e-09
-3.98007e-10
-3.90993e-10
2.67366e-10
2.97993e-11
6.54288e-10
2.95808e-10
9.15832e-10
4.62453e-10
1.1486e-09
6.40505e-10
1.32218e-09
7.05981e-10
1.45233e-09
7.5779e-10
1.5436e-09
7.57457e-10
1.62427e-09
7.69197e-10
1.72597e-09
7.84813e-10
1.81505e-09
7.72406e-10
1.89719e-09
7.63174e-10
2.00815e-09
7.72765e-10
2.10408e-09
7.45988e-10
2.20757e-09
7.52074e-10
2.3462e-09
7.70588e-10
2.48228e-09
7.78981e-10
2.62293e-09
8.07409e-10
2.81459e-09
9.00559e-10
2.9903e-09
9.73224e-10
3.1673e-09
1.12133e-09
3.35462e-09
1.35625e-09
3.56568e-09
1.77531e-09
3.69834e-09
2.09382e-09
4.50066e-09
1.16696e-09
-1.27097e-09
1.6619e-08
-1.88933e-08
-4.42609e-09
-3.27171e-09
-5.50736e-09
-3.86298e-09
-2.66488e-09
-1.54495e-09
-1.27958e-09
-3.9758e-10
-3.92483e-10
2.65266e-10
2.74729e-11
6.51073e-10
2.93331e-10
9.12633e-10
4.60228e-10
1.1445e-09
6.38489e-10
1.31844e-09
7.04243e-10
1.44807e-09
7.56635e-10
1.53979e-09
7.57519e-10
1.62045e-09
7.69772e-10
1.72137e-09
7.85718e-10
1.81036e-09
7.74802e-10
1.89222e-09
7.66113e-10
2.0019e-09
7.76578e-10
2.09739e-09
7.5149e-10
2.19976e-09
7.58623e-10
2.33629e-09
7.78236e-10
2.47075e-09
7.89255e-10
2.60922e-09
8.19349e-10
2.79667e-09
9.15186e-10
2.96872e-09
9.91588e-10
3.14037e-09
1.14384e-09
3.32143e-09
1.38173e-09
3.52596e-09
1.79802e-09
3.66398e-09
2.08372e-09
4.51415e-09
1.02632e-09
-1.01744e-09
1.65021e-08
-1.93085e-08
-4.46455e-09
-2.88816e-09
-5.39907e-09
-3.82214e-09
-2.62859e-09
-1.52679e-09
-1.27369e-09
-3.97399e-10
-3.94195e-10
2.62904e-10
2.50004e-11
6.47632e-10
2.9078e-10
9.09217e-10
4.57974e-10
1.14019e-09
6.36465e-10
1.3145e-09
7.02552e-10
1.44359e-09
7.55571e-10
1.53575e-09
7.57715e-10
1.61639e-09
7.70535e-10
1.71651e-09
7.86859e-10
1.80537e-09
7.77471e-10
1.88692e-09
7.69389e-10
1.99527e-09
7.80787e-10
2.09025e-09
7.57447e-10
2.19145e-09
7.65701e-10
2.32582e-09
7.86487e-10
2.45854e-09
8.0019e-10
2.59474e-09
8.32045e-10
2.77786e-09
9.30628e-10
2.94614e-09
1.0108e-09
3.11236e-09
1.16718e-09
3.28716e-09
1.40781e-09
3.48528e-09
1.82093e-09
3.6287e-09
2.07498e-09
4.52029e-09
9.00194e-10
-7.77173e-10
1.63644e-08
-1.96796e-08
-4.50859e-09
-2.51326e-09
-5.28728e-09
-3.78151e-09
-2.593e-09
-1.50881e-09
-1.26799e-09
-3.97471e-10
-3.96127e-10
2.60272e-10
2.23826e-11
6.43961e-10
2.88155e-10
9.0558e-10
4.55689e-10
1.13567e-09
6.34433e-10
1.31034e-09
7.00907e-10
1.4389e-09
7.54599e-10
1.53148e-09
7.58045e-10
1.61209e-09
7.71486e-10
1.71139e-09
7.88233e-10
1.80009e-09
7.8041e-10
1.88129e-09
7.73e-10
1.98827e-09
7.85387e-10
2.08268e-09
7.6385e-10
2.18264e-09
7.73295e-10
2.31478e-09
7.95327e-10
2.44568e-09
8.11766e-10
2.5795e-09
8.4547e-10
2.75819e-09
9.46846e-10
2.92262e-09
1.03081e-09
3.08334e-09
1.19127e-09
3.25187e-09
1.43445e-09
3.44369e-09
1.84405e-09
3.59238e-09
2.06803e-09
4.5182e-09
7.90149e-10
-5.51877e-10
1.62044e-08
-2.00017e-08
-4.55782e-09
-2.14987e-09
-5.17243e-09
-3.74112e-09
-2.55829e-09
-1.49109e-09
-1.26248e-09
-3.97801e-10
-3.98278e-10
2.57368e-10
1.96232e-11
6.40056e-10
2.85458e-10
9.0172e-10
4.53376e-10
1.13093e-09
6.32393e-10
1.30598e-09
6.9931e-10
1.434e-09
7.53719e-10
1.52698e-09
7.58506e-10
1.60754e-09
7.7262e-10
1.70602e-09
7.89839e-10
1.7945e-09
7.83614e-10
1.87533e-09
7.7694e-10
1.98089e-09
7.9037e-10
2.07469e-09
7.70691e-10
2.17336e-09
7.81394e-10
2.30321e-09
8.04742e-10
2.43218e-09
8.23961e-10
2.56355e-09
8.59596e-10
2.7377e-09
9.63803e-10
2.8982e-09
1.05156e-09
3.05338e-09
1.21606e-09
3.21564e-09
1.46157e-09
3.40126e-09
1.86742e-09
3.55489e-09
2.06329e-09
4.50713e-09
6.97467e-10
-3.42868e-10
1.60211e-08
-2.02711e-08
-4.61181e-09
-1.80054e-09
-5.05489e-09
-3.701e-09
-2.52459e-09
-1.47368e-09
-1.25716e-09
-3.98386e-10
-4.00639e-10
2.5419e-10
1.67284e-11
6.35918e-10
2.82694e-10
8.97635e-10
4.51036e-10
1.12597e-09
6.30344e-10
1.3014e-09
6.97761e-10
1.42887e-09
7.52928e-10
1.52225e-09
7.59098e-10
1.60276e-09
7.73937e-10
1.7004e-09
7.91674e-10
1.78863e-09
7.87079e-10
1.86905e-09
7.81205e-10
1.97315e-09
7.95729e-10
2.06629e-09
7.7796e-10
2.1636e-09
7.89983e-10
2.29111e-09
8.14714e-10
2.41808e-09
8.36753e-10
2.54689e-09
8.74394e-10
2.71644e-09
9.81457e-10
2.87295e-09
1.07301e-09
3.02254e-09
1.24147e-09
3.17856e-09
1.48912e-09
3.35803e-09
1.89104e-09
3.51611e-09
2.06115e-09
4.48645e-09
6.23088e-10
-1.50895e-10
1.58135e-08
-2.0485e-08
-4.67007e-09
-1.46754e-09
-4.93503e-09
-3.6611e-09
-2.49203e-09
-1.45663e-09
-1.25201e-09
-3.99222e-10
-4.032e-10
2.50743e-10
1.37067e-11
6.3155e-10
2.79867e-10
8.93328e-10
4.48675e-10
1.12081e-09
6.28289e-10
1.2966e-09
6.96263e-10
1.42353e-09
7.52229e-10
1.51729e-09
7.59819e-10
1.59772e-09
7.75431e-10
1.69452e-09
7.93736e-10
1.78246e-09
7.908e-10
1.86244e-09
7.85787e-10
1.96505e-09
8.01455e-10
2.05748e-09
7.85644e-10
2.15338e-09
7.99048e-10
2.2785e-09
8.25226e-10
2.40339e-09
8.50116e-10
2.52957e-09
8.89832e-10
2.69445e-09
9.99766e-10
2.84691e-09
1.0951e-09
2.99089e-09
1.26745e-09
3.1407e-09
1.51704e-09
3.31407e-09
1.91495e-09
3.47593e-09
2.06191e-09
4.45565e-09
5.67619e-10
2.37212e-11
1.5581e-08
-2.06414e-08
-4.73186e-09
-1.15281e-09
-4.81326e-09
-3.62141e-09
-2.46072e-09
-1.43998e-09
-1.24702e-09
-4.003e-10
-4.05949e-10
2.47031e-10
1.05677e-11
6.26956e-10
2.76985e-10
8.88799e-10
4.46296e-10
1.11543e-09
6.2623e-10
1.29159e-09
6.94816e-10
1.41797e-09
7.5162e-10
1.5121e-09
7.60666e-10
1.59245e-09
7.77102e-10
1.6884e-09
7.96021e-10
1.776e-09
7.9477e-10
1.85552e-09
7.90679e-10
1.95661e-09
8.07539e-10
2.04827e-09
7.93731e-10
2.14272e-09
8.08572e-10
2.2654e-09
8.36259e-10
2.38813e-09
8.64026e-10
2.51162e-09
9.05878e-10
2.67177e-09
1.01869e-09
2.82013e-09
1.11778e-09
2.9585e-09
1.29392e-09
3.10213e-09
1.54528e-09
3.26942e-09
1.93917e-09
3.43425e-09
2.06585e-09
4.4144e-09
5.31404e-10
1.81031e-10
1.5323e-08
-2.07391e-08
-4.79631e-09
-8.57978e-10
-4.68997e-09
-3.58191e-09
-2.43077e-09
-1.42378e-09
-1.24217e-09
-4.01612e-10
-4.08871e-10
2.43061e-10
7.32189e-12
6.22141e-10
2.74056e-10
8.84056e-10
4.43903e-10
1.10984e-09
6.2417e-10
1.28637e-09
6.93424e-10
1.4122e-09
7.51103e-10
1.50668e-09
7.6164e-10
1.58694e-09
7.78945e-10
1.68202e-09
7.98525e-10
1.76926e-09
7.98984e-10
1.84828e-09
7.95874e-10
1.94782e-09
8.13971e-10
2.03869e-09
8.02209e-10
2.13163e-09
8.18538e-10
2.25183e-09
8.47793e-10
2.37234e-09
8.78456e-10
2.49306e-09
9.22497e-10
2.64844e-09
1.03818e-09
2.79268e-09
1.141e-09
2.92543e-09
1.32083e-09
3.06292e-09
1.57377e-09
3.22411e-09
1.96371e-09
3.39097e-09
2.07319e-09
4.36251e-09
5.14485e-10
3.21334e-10
1.50391e-08
-2.0778e-08
-4.86266e-09
-5.84297e-10
-4.56549e-09
-3.54252e-09
-2.40224e-09
-1.40806e-09
-1.23744e-09
-4.03145e-10
-4.1195e-10
2.38841e-10
3.9816e-12
6.17111e-10
2.71088e-10
8.79103e-10
4.41505e-10
1.10405e-09
6.22112e-10
1.28094e-09
6.92089e-10
1.40622e-09
7.50678e-10
1.50103e-09
7.62739e-10
1.58119e-09
7.80957e-10
1.67541e-09
8.01245e-10
1.76225e-09
8.03436e-10
1.84074e-09
8.01363e-10
1.93871e-09
8.20739e-10
2.02872e-09
8.11065e-10
2.12013e-09
8.28928e-10
2.23781e-09
8.59806e-10
2.35604e-09
8.93378e-10
2.47393e-09
9.39654e-10
2.6245e-09
1.0582e-09
2.76459e-09
1.16469e-09
2.89175e-09
1.34812e-09
3.02314e-09
1.60247e-09
3.17819e-09
1.98859e-09
3.34602e-09
2.08407e-09
4.29993e-09
5.16635e-10
4.45379e-10
1.47294e-08
-2.07587e-08
-4.93015e-09
-3.3271e-10
-4.44013e-09
-3.50316e-09
-2.37519e-09
-1.39283e-09
-1.2328e-09
-4.04883e-10
-4.15168e-10
2.34382e-10
5.59812e-13
6.11876e-10
2.6809e-10
8.73945e-10
4.39106e-10
1.09807e-09
6.20061e-10
1.2753e-09
6.90814e-10
1.40003e-09
7.50345e-10
1.49517e-09
7.63962e-10
1.5752e-09
7.83134e-10
1.66856e-09
8.04178e-10
1.75496e-09
8.08119e-10
1.8329e-09
8.07139e-10
1.92927e-09
8.27833e-10
2.0184e-09
8.20283e-10
2.10822e-09
8.39724e-10
2.22336e-09
8.72277e-10
2.33925e-09
9.08764e-10
2.45426e-09
9.57315e-10
2.6e-09
1.0787e-09
2.73593e-09
1.18882e-09
2.85751e-09
1.37572e-09
2.98287e-09
1.63133e-09
3.1317e-09
2.01381e-09
3.29936e-09
2.09857e-09
4.22674e-09
5.3733e-10
5.54185e-10
1.43941e-08
-2.06827e-08
-4.99794e-09
-1.038e-10
-4.31417e-09
-3.46377e-09
-2.34966e-09
-1.37813e-09
-1.22823e-09
-4.06811e-10
-4.18508e-10
2.29696e-10
-2.9305e-12
6.06444e-10
2.65071e-10
8.68591e-10
4.36713e-10
1.09189e-09
6.1802e-10
1.26945e-09
6.89602e-10
1.39364e-09
7.50107e-10
1.48908e-09
7.65308e-10
1.56899e-09
7.85475e-10
1.66147e-09
8.07318e-10
1.74741e-09
8.13028e-10
1.82476e-09
8.13191e-10
1.91952e-09
8.35242e-10
2.00773e-09
8.29849e-10
2.09593e-09
8.50906e-10
2.2085e-09
8.85183e-10
2.322e-09
9.24586e-10
2.43409e-09
9.75444e-10
2.57498e-09
1.09963e-09
2.70675e-09
1.21333e-09
2.82278e-09
1.40358e-09
2.94215e-09
1.6603e-09
3.08469e-09
2.03938e-09
3.25097e-09
2.1167e-09
4.1432e-09
5.75826e-10
6.48997e-10
1.40338e-08
-2.05517e-08
-5.06522e-09
1.02132e-10
-4.18791e-09
-3.42426e-09
-2.32567e-09
-1.36397e-09
-1.22371e-09
-4.08913e-10
-4.21949e-10
2.24794e-10
-6.47627e-12
6.00823e-10
2.62042e-10
8.63048e-10
4.34333e-10
1.08552e-09
6.15993e-10
1.26341e-09
6.88456e-10
1.38704e-09
7.49962e-10
1.48279e-09
7.66776e-10
1.56255e-09
7.87975e-10
1.65415e-09
8.10661e-10
1.7396e-09
8.18154e-10
1.81635e-09
8.19512e-10
1.90948e-09
8.42954e-10
1.99672e-09
8.39749e-10
2.08327e-09
8.62456e-10
2.19324e-09
8.98501e-10
2.30432e-09
9.40814e-10
2.41344e-09
9.94003e-10
2.54948e-09
1.12096e-09
2.67709e-09
1.23816e-09
2.78762e-09
1.43162e-09
2.90106e-09
1.68932e-09
3.03718e-09
2.06527e-09
3.20082e-09
2.13843e-09
4.04968e-09
6.31139e-10
7.31131e-10
1.36494e-08
-2.03686e-08
-5.13126e-09
2.85123e-10
-4.06156e-09
-3.38457e-09
-2.30323e-09
-1.35035e-09
-1.21921e-09
-4.11171e-10
-4.25472e-10
2.1969e-10
-1.00636e-11
5.95024e-10
2.59012e-10
8.57326e-10
4.31972e-10
1.07896e-09
6.13985e-10
1.25717e-09
6.87379e-10
1.38025e-09
7.49912e-10
1.47628e-09
7.68364e-10
1.55589e-09
7.9063e-10
1.64662e-09
8.14203e-10
1.73154e-09
8.23491e-10
1.80766e-09
8.2609e-10
1.89914e-09
8.50956e-10
1.9854e-09
8.49966e-10
2.07026e-09
8.74352e-10
2.17763e-09
9.12208e-10
2.28623e-09
9.5742e-10
2.39236e-09
1.01296e-09
2.52354e-09
1.14263e-09
2.64701e-09
1.26326e-09
2.75209e-09
1.45981e-09
2.85964e-09
1.71835e-09
2.98922e-09
2.09147e-09
3.14895e-09
2.16364e-09
3.94669e-09
7.02142e-10
8.02189e-10
1.32418e-08
-2.01364e-08
-5.19544e-09
4.45468e-10
-3.93532e-09
-3.34459e-09
-2.28231e-09
-1.33728e-09
-1.21471e-09
-4.13565e-10
-4.29058e-10
2.14399e-10
-1.36784e-11
5.89058e-10
2.55989e-10
8.51432e-10
4.29639e-10
1.07224e-09
6.11999e-10
1.25074e-09
6.86374e-10
1.37328e-09
7.49957e-10
1.46957e-09
7.70071e-10
1.54901e-09
7.93437e-10
1.63887e-09
8.17939e-10
1.72324e-09
8.29032e-10
1.7987e-09
8.32917e-10
1.88852e-09
8.59236e-10
1.97376e-09
8.60486e-10
2.05692e-09
8.86576e-10
2.16166e-09
9.2628e-10
2.26776e-09
9.74375e-10
2.37087e-09
1.03227e-09
2.49721e-09
1.16462e-09
2.61655e-09
1.28859e-09
2.71624e-09
1.48808e-09
2.81797e-09
1.74734e-09
2.94086e-09
2.11795e-09
3.09539e-09
2.19217e-09
3.83481e-09
7.87503e-10
8.6388e-10
1.28123e-08
-1.9859e-08
-5.25717e-09
5.83765e-10
-3.80933e-09
-3.30424e-09
-2.26289e-09
-1.32476e-09
-1.21017e-09
-4.16075e-10
-4.32685e-10
2.08933e-10
-1.73072e-11
5.82934e-10
2.52985e-10
8.45376e-10
4.2734e-10
1.06534e-09
6.10039e-10
1.24413e-09
6.85443e-10
1.36611e-09
7.50098e-10
1.46267e-09
7.71897e-10
1.54193e-09
7.96392e-10
1.6309e-09
8.21865e-10
1.7147e-09
8.34769e-10
1.78949e-09
8.39983e-10
1.87764e-09
8.67781e-10
1.96183e-09
8.71294e-10
2.04326e-09
8.99107e-10
2.14537e-09
9.40694e-10
2.24893e-09
9.91648e-10
2.349e-09
1.05191e-09
2.47051e-09
1.18686e-09
2.58576e-09
1.31409e-09
2.68012e-09
1.51639e-09
2.77609e-09
1.77624e-09
2.89213e-09
2.14466e-09
3.0402e-09
2.2238e-09
3.71477e-09
8.85747e-10
9.17994e-10
1.23626e-08
-1.95402e-08
-5.31595e-09
7.00816e-10
-3.68374e-09
-3.26346e-09
-2.24494e-09
-1.31277e-09
-1.20557e-09
-4.18682e-10
-4.36334e-10
2.03309e-10
-2.0937e-11
5.76664e-10
2.50008e-10
8.39169e-10
4.2508e-10
1.05828e-09
6.08108e-10
1.23733e-09
6.8459e-10
1.35877e-09
7.50335e-10
1.45557e-09
7.73839e-10
1.53465e-09
7.9949e-10
1.62274e-09
8.25973e-10
1.70594e-09
8.40695e-10
1.78004e-09
8.47277e-10
1.8665e-09
8.76579e-10
1.94963e-09
8.82372e-10
2.0293e-09
9.11925e-10
2.12877e-09
9.55425e-10
2.22978e-09
1.00921e-09
2.3268e-09
1.07183e-09
2.4435e-09
1.20932e-09
2.55469e-09
1.33973e-09
2.64379e-09
1.54467e-09
2.73406e-09
1.805e-09
2.84307e-09
2.17156e-09
2.98346e-09
2.25825e-09
3.58738e-09
9.95249e-10
9.66264e-10
1.18945e-08
-1.91846e-08
-5.37132e-09
7.97676e-10
-3.55865e-09
-3.22217e-09
-2.2284e-09
-1.3013e-09
-1.20088e-09
-4.21366e-10
-4.39986e-10
1.97542e-10