/*--------------------------------*- C++ -*----------------------------------*\
| =========                 |                                                 |
| \\      /  F ield         | OpenFOAM: The Open Source CFD Toolbox           |
|  \\    /   O peration     | Version:  2312                                  |
|   \\  /    A nd           | Website:  www.openfoam.com                      |
|    \\/     M anipulation  |                                                 |
\*---------------------------------------------------------------------------*/
FoamFile
{
    version     2.0;
    format      ascii;
    arch        "LSB;label=32;scalar=64";
    class       volScalarField;
    location    "300";
    object      pPrime2Mean;
}
// * * * * * * * * * * * * * * * * * * * * * * * * * * * * * * * * * * * * * //

dimensions      [0 4 -4 0 0 0 0];

internalField   nonuniform List<scalar> 
330000
(
3.12801e-16
1.2762e-16
6.81384e-17
6.06777e-17
6.92438e-17
6.80631e-17
6.61476e-17
5.96782e-17
5.73743e-17
5.28777e-17
5.14466e-17
4.80709e-17
4.76922e-17
4.46719e-17
4.43396e-17
4.13099e-17
4.14773e-17
3.92356e-17
3.85141e-17
3.73886e-17
3.61846e-17
3.51439e-17
3.4746e-17
3.23764e-17
3.37459e-17
3.02371e-17
3.25467e-17
2.89633e-17
3.09297e-17
2.81111e-17
2.92829e-17
2.74108e-17
2.78259e-17
2.67802e-17
2.64851e-17
2.63142e-17
2.54002e-17
2.58036e-17
2.463e-17
2.51854e-17
2.41298e-17
2.48697e-17
2.38192e-17
2.47986e-17
2.36809e-17
2.46018e-17
2.41134e-17
2.52329e-17
2.48994e-17
2.71877e-17
2.61729e-17
2.94003e-17
3.3093e-17
2.46202e-17
5.39911e-17
2.06398e-17
7.88597e-17
6.14237e-17
1.97415e-17
1.94933e-16
3.10481e-16
1.27083e-16
6.80152e-17
6.06285e-17
6.9225e-17
6.80765e-17
6.61539e-17
5.96883e-17
5.7373e-17
5.28778e-17
5.14417e-17
4.80688e-17
4.76878e-17
4.4671e-17
4.43366e-17
4.13102e-17
4.14756e-17
3.92367e-17
3.85134e-17
3.73893e-17
3.6185e-17
3.51451e-17
3.47457e-17
3.2379e-17
3.37438e-17
3.02408e-17
3.25439e-17
2.89667e-17
3.09276e-17
2.81129e-17
2.9282e-17
2.74109e-17
2.78258e-17
2.67788e-17
2.64857e-17
2.6311e-17
2.54016e-17
2.57988e-17
2.46318e-17
2.51795e-17
2.41316e-17
2.48627e-17
2.38206e-17
2.47912e-17
2.36822e-17
2.45933e-17
2.41149e-17
2.52241e-17
2.49004e-17
2.71795e-17
2.61788e-17
2.93834e-17
3.31209e-17
2.45877e-17
5.40295e-17
2.06485e-17
7.87524e-17
6.1716e-17
1.9887e-17
1.93974e-16
3.08176e-16
1.26718e-16
6.77818e-17
6.05306e-17
6.92213e-17
6.81145e-17
6.61777e-17
5.97088e-17
5.73781e-17
5.2881e-17
5.14426e-17
4.80697e-17
4.76888e-17
4.46725e-17
4.43386e-17
4.13117e-17
4.14775e-17
3.92399e-17
3.8515e-17
3.73932e-17
3.61874e-17
3.51487e-17
3.47493e-17
3.23821e-17
3.37473e-17
3.0244e-17
3.25468e-17
2.897e-17
3.09309e-17
2.81156e-17
2.92857e-17
2.7413e-17
2.78299e-17
2.67804e-17
2.64902e-17
2.63118e-17
2.54068e-17
2.57989e-17
2.46381e-17
2.51791e-17
2.41387e-17
2.48621e-17
2.38283e-17
2.47918e-17
2.3692e-17
2.4594e-17
2.41279e-17
2.52272e-17
2.49145e-17
2.71894e-17
2.62009e-17
2.93888e-17
3.31831e-17
2.45653e-17
5.41436e-17
2.0666e-17
7.86502e-17
6.21498e-17
2.01989e-17
1.93444e-16
3.05562e-16
1.26549e-16
6.73632e-17
6.03157e-17
6.91971e-17
6.81541e-17
6.62014e-17
5.97319e-17
5.73837e-17
5.28867e-17
5.14474e-17
4.8074e-17
4.7693e-17
4.4676e-17
4.43431e-17
4.13143e-17
4.14808e-17
3.92445e-17
3.85174e-17
3.73989e-17
3.61908e-17
3.51531e-17
3.47551e-17
3.23851e-17
3.37534e-17
3.0247e-17
3.25518e-17
2.89736e-17
3.09359e-17
2.81191e-17
2.92909e-17
2.74161e-17
2.7835e-17
2.67833e-17
2.64956e-17
2.63143e-17
2.54129e-17
2.58009e-17
2.46454e-17
2.51808e-17
2.41468e-17
2.48638e-17
2.38369e-17
2.47955e-17
2.3703e-17
2.45979e-17
2.41425e-17
2.52336e-17
2.49301e-17
2.72042e-17
2.62219e-17
2.94006e-17
3.32435e-17
2.45478e-17
5.42336e-17
2.06914e-17
7.84037e-17
6.25907e-17
2.06359e-17
1.93174e-16
3.02351e-16
1.26467e-16
6.66679e-17
5.98909e-17
6.90828e-17
6.81463e-17
6.6193e-17
5.97394e-17
5.73785e-17
5.28873e-17
5.14494e-17
4.80762e-17
4.76951e-17
4.46777e-17
4.43459e-17
4.13152e-17
4.1482e-17
3.92483e-17
3.85183e-17
3.74044e-17
3.61935e-17
3.51571e-17
3.47611e-17
3.23875e-17
3.37599e-17
3.02497e-17
3.2557e-17
2.89773e-17
3.0941e-17
2.81228e-17
2.92961e-17
2.74193e-17
2.78402e-17
2.67865e-17
2.6501e-17
2.6317e-17
2.54189e-17
2.58029e-17
2.46528e-17
2.51826e-17
2.41548e-17
2.48654e-17
2.38449e-17
2.47994e-17
2.37133e-17
2.46016e-17
2.41564e-17
2.52385e-17
2.49446e-17
2.72163e-17
2.62395e-17
2.94069e-17
3.32913e-17
2.4526e-17
5.42541e-17
2.07336e-17
7.79001e-17
6.29375e-17
2.11495e-17
1.92925e-16
2.98558e-16
1.26271e-16
6.56653e-17
5.92025e-17
6.88218e-17
6.80481e-17
6.6123e-17
5.97118e-17
5.73499e-17
5.2874e-17
5.14413e-17
4.80705e-17
4.76897e-17
4.46731e-17
4.43428e-17
4.1311e-17
4.1478e-17
3.92489e-17
3.85156e-17
3.74076e-17
3.61939e-17
3.51593e-17
3.47662e-17
3.23886e-17
3.3766e-17
3.02515e-17
3.25616e-17
2.89804e-17
3.09458e-17
2.8126e-17
2.93012e-17
2.74221e-17
2.78452e-17
2.67892e-17
2.65063e-17
2.63192e-17
2.5425e-17
2.58044e-17
2.46601e-17
2.51839e-17
2.41625e-17
2.48664e-17
2.38521e-17
2.48029e-17
2.37226e-17
2.46041e-17
2.41691e-17
2.52404e-17
2.49579e-17
2.72211e-17
2.62549e-17
2.93993e-17
3.33251e-17
2.44933e-17
5.41784e-17
2.08015e-17
7.70734e-17
6.31231e-17
2.16769e-17
1.92389e-16
2.94447e-16
1.25669e-16
6.43694e-17
5.8243e-17
6.83844e-17
6.78311e-17
6.59683e-17
5.9632e-17
5.72863e-17
5.28379e-17
5.14158e-17
4.80508e-17
4.76719e-17
4.46581e-17
4.43301e-17
4.12988e-17
4.14659e-17
3.92436e-17
3.85069e-17
3.74065e-17
3.61903e-17
3.51582e-17
3.47689e-17
3.23871e-17
3.37704e-17
3.02514e-17
3.25651e-17
2.8982e-17
3.095e-17
2.81278e-17
2.9306e-17
2.74237e-17
2.78499e-17
2.67909e-17
2.65114e-17
2.63204e-17
2.54309e-17
2.58048e-17
2.46672e-17
2.51843e-17
2.41698e-17
2.48663e-17
2.38583e-17
2.48057e-17
2.37304e-17
2.46048e-17
2.41802e-17
2.52376e-17
2.49699e-17
2.72151e-17
2.62682e-17
2.93713e-17
3.33423e-17
2.44452e-17
5.39858e-17
2.09029e-17
7.58812e-17
6.31175e-17
2.21533e-17
1.91167e-16
2.90406e-16
1.24409e-16
6.28095e-17
5.7041e-17
6.77642e-17
6.74822e-17
6.57148e-17
5.94872e-17
5.71776e-17
5.27712e-17
5.13666e-17
4.80121e-17
4.76372e-17
4.46292e-17
4.43044e-17
4.12758e-17
4.1443e-17
3.92303e-17
3.84904e-17
3.73993e-17
3.61809e-17
3.51524e-17
3.47677e-17
3.23822e-17
3.37723e-17
3.02484e-17
3.25668e-17
2.89811e-17
3.09531e-17
2.81275e-17
2.93101e-17
2.74235e-17
2.78541e-17
2.6791e-17
2.65162e-17
2.63201e-17
2.54365e-17
2.58038e-17
2.4674e-17
2.51833e-17
2.41764e-17
2.48647e-17
2.3863e-17
2.4807e-17
2.37362e-17
2.46029e-17
2.4189e-17
2.52284e-17
2.49798e-17
2.71955e-17
2.62784e-17
2.93186e-17
3.33385e-17
2.43805e-17
5.36617e-17
2.10437e-17
7.43075e-17
6.29295e-17
2.25229e-17
1.88881e-16
2.86849e-16
1.22316e-16
6.10178e-17
5.56473e-17
6.69731e-17
6.70027e-17
6.53581e-17
5.92702e-17
5.70169e-17
5.26681e-17
5.12888e-17
4.79503e-17
4.75821e-17
4.45834e-17
4.42632e-17
4.124e-17
4.14073e-17
3.92072e-17
3.84643e-17
3.73842e-17
3.61644e-17
3.51407e-17
3.47614e-17
3.23728e-17
3.37705e-17
3.02418e-17
3.25659e-17
2.89769e-17
3.09547e-17
2.81242e-17
2.93132e-17
2.74206e-17
2.78575e-17
2.67889e-17
2.65203e-17
2.63178e-17
2.54416e-17
2.58008e-17
2.46802e-17
2.51804e-17
2.4182e-17
2.48612e-17
2.38659e-17
2.48063e-17
2.37393e-17
2.45973e-17
2.4195e-17
2.52117e-17
2.49864e-17
2.71608e-17
2.62834e-17
2.92398e-17
3.33093e-17
2.43016e-17
5.32012e-17
2.12278e-17
7.23671e-17
6.26042e-17
2.27476e-17
1.85261e-16
2.8416e-16
1.19344e-16
5.90272e-17
5.41167e-17
6.60345e-17
6.6405e-17
6.49021e-17
5.89796e-17
5.68012e-17
5.25252e-17
5.11793e-17
4.78629e-17
4.75041e-17
4.45189e-17
4.42046e-17
4.11902e-17
4.13574e-17
3.9173e-17
3.84273e-17
3.736e-17
3.61396e-17
3.51219e-17
3.4749e-17
3.2358e-17
3.37642e-17
3.02305e-17
3.25619e-17
2.89685e-17
3.09542e-17
2.81173e-17
2.93149e-17
2.74146e-17
2.78598e-17
2.6784e-17
2.65235e-17
2.63129e-17
2.54459e-17
2.57954e-17
2.46856e-17
2.51752e-17
2.41863e-17
2.48554e-17
2.38665e-17
2.48032e-17
2.37395e-17
2.45875e-17
2.41975e-17
2.51872e-17
2.49884e-17
2.71114e-17
2.62812e-17
2.91371e-17
3.32513e-17
2.42141e-17
5.26099e-17
2.14565e-17
7.01025e-17
6.2208e-17
2.2807e-17
1.80221e-16
2.82651e-16
1.15563e-16
5.68761e-17
5.2504e-17
6.49773e-17
6.57076e-17
6.43573e-17
5.8619e-17
5.6531e-17
5.23417e-17
5.10368e-17
4.77487e-17
4.74021e-17
4.44349e-17
4.41276e-17
4.11255e-17
4.12923e-17
3.91269e-17
3.83787e-17
3.73258e-17
3.61056e-17
3.50953e-17
3.47295e-17
3.23371e-17
3.37527e-17
3.02141e-17
3.25542e-17
2.89554e-17
3.09514e-17
2.81061e-17
2.93148e-17
2.7405e-17
2.78605e-17
2.67761e-17
2.65254e-17
2.63052e-17
2.5449e-17
2.57871e-17
2.46897e-17
2.51675e-17
2.41889e-17
2.48471e-17
2.38645e-17
2.47972e-17
2.37363e-17
2.45733e-17
2.4196e-17
2.51552e-17
2.49847e-17
2.70491e-17
2.62698e-17
2.90146e-17
3.31625e-17
2.41248e-17
5.19014e-17
2.17295e-17
6.75763e-17
6.1813e-17
2.26961e-17
1.73862e-16
2.82546e-16
1.11118e-16
5.46066e-17
5.08532e-17
6.38288e-17
6.49308e-17
6.37376e-17
5.81953e-17
5.62096e-17
5.2119e-17
5.08617e-17
4.76081e-17
4.72759e-17
4.43311e-17
4.40318e-17
4.1046e-17
4.12118e-17
3.90689e-17
3.83183e-17
3.72812e-17
3.60621e-17
3.50604e-17
3.47024e-17
3.23097e-17
3.37354e-17
3.0192e-17
3.25425e-17
2.8937e-17
3.09457e-17
2.80903e-17
2.93126e-17
2.73913e-17
2.78593e-17
2.67648e-17
2.65257e-17
2.62944e-17
2.54507e-17
2.57759e-17
2.46922e-17
2.5157e-17
2.41894e-17
2.48361e-17
2.38596e-17
2.47883e-17
2.37296e-17
2.45548e-17
2.41901e-17
2.51167e-17
2.49743e-17
2.69762e-17
2.62482e-17
2.88781e-17
3.3043e-17
2.40403e-17
5.10951e-17
2.20449e-17
6.48597e-17
6.14833e-17
2.242e-17
1.66415e-16
2.83979e-16
1.06181e-16
5.22627e-17
4.91993e-17
6.26132e-17
6.40938e-17
6.30571e-17
5.7717e-17
5.58417e-17
5.18593e-17
5.06554e-17
4.7442e-17
4.71262e-17
4.42081e-17
4.39176e-17
4.09519e-17
4.11163e-17
3.89988e-17
3.8246e-17
3.72261e-17
3.6009e-17
3.50169e-17
3.46676e-17
3.22754e-17
3.37122e-17
3.01638e-17
3.25264e-17
2.89131e-17
3.09369e-17
2.80696e-17
2.93078e-17
2.73736e-17
2.78558e-17
2.675e-17
2.6524e-17
2.62805e-17
2.54506e-17
2.57618e-17
2.46929e-17
2.51439e-17
2.41875e-17
2.48227e-17
2.38516e-17
2.47766e-17
2.37194e-17
2.45323e-17
2.41797e-17
2.5073e-17
2.49568e-17
2.68956e-17
2.62155e-17
2.87329e-17
3.2894e-17
2.39654e-17
5.02121e-17
2.23998e-17
6.20209e-17
6.12662e-17
2.19938e-17
1.58181e-16
2.86997e-16
1.00919e-16
4.98888e-17
4.75692e-17
6.13507e-17
6.32126e-17
6.23293e-17
5.7193e-17
5.54328e-17
5.1566e-17
5.04202e-17
4.72521e-17
4.69544e-17
4.40668e-17
4.37857e-17
4.08438e-17
4.10062e-17
3.89172e-17
3.81624e-17
3.71607e-17
3.59464e-17
3.49647e-17
3.46251e-17
3.22341e-17
3.36829e-17
3.01295e-17
3.25056e-17
2.88836e-17
3.09245e-17
2.8044e-17
2.93001e-17
2.73516e-17
2.78497e-17
2.67316e-17
2.652e-17
2.62634e-17
2.54484e-17
2.57447e-17
2.46915e-17
2.51282e-17
2.41831e-17
2.48068e-17
2.38405e-17
2.47621e-17
2.37058e-17
2.45064e-17
2.41646e-17
2.50253e-17
2.49323e-17
2.68095e-17
2.61717e-17
2.85839e-17
3.27178e-17
2.39032e-17
4.92729e-17
2.27908e-17
5.91208e-17
6.11901e-17
2.14397e-17
1.49474e-16
2.91559e-16
9.5482e-17
4.75291e-17
4.59812e-17
6.0057e-17
6.23001e-17
6.15654e-17
5.66312e-17
5.49886e-17
5.12425e-17
5.01584e-17
4.70403e-17
4.67619e-17
4.39085e-17
4.36371e-17
4.07225e-17
4.08823e-17
3.88245e-17
3.80681e-17
3.70852e-17
3.5875e-17
3.4904e-17
3.45751e-17
3.21857e-17
3.36475e-17
3.0089e-17
3.24801e-17
2.88486e-17
3.09083e-17
2.80137e-17
2.92893e-17
2.73257e-17
2.78407e-17
2.671e-17
2.65134e-17
2.62433e-17
2.54438e-17
2.57248e-17
2.46876e-17
2.51101e-17
2.4176e-17
2.47886e-17
2.38264e-17
2.4745e-17
2.36888e-17
2.44776e-17
2.41452e-17
2.49744e-17
2.49011e-17
2.67198e-17
2.61173e-17
2.84345e-17
3.25176e-17
2.38551e-17
4.82956e-17
2.32143e-17
5.62102e-17
6.12664e-17
2.07879e-17
1.40593e-16
2.97556e-16
8.99923e-17
4.52244e-17
4.44477e-17
5.87442e-17
6.13661e-17
6.07748e-17
5.60389e-17
5.45141e-17
5.0892e-17
4.98723e-17
4.68084e-17
4.65504e-17
4.37344e-17
4.34729e-17
4.05889e-17
4.07455e-17
3.87212e-17
3.79637e-17
3.7e-17
3.57952e-17
3.48349e-17
3.45179e-17
3.21305e-17
3.36062e-17
3.00426e-17
3.24496e-17
2.88084e-17
3.08881e-17
2.7979e-17
2.92749e-17
2.7296e-17
2.78285e-17
2.66851e-17
2.6504e-17
2.62204e-17
2.54366e-17
2.57023e-17
2.46813e-17
2.50897e-17
2.41662e-17
2.47684e-17
2.38093e-17
2.47255e-17
2.36686e-17
2.44461e-17
2.41215e-17
2.49212e-17
2.48637e-17
2.6628e-17
2.60529e-17
2.82874e-17
3.22964e-17
2.38212e-17
4.72953e-17
2.36665e-17
5.33312e-17
6.14933e-17
2.00716e-17
1.31794e-16
3.04819e-16
8.45492e-17
4.3012e-17
4.29757e-17
5.74216e-17
6.04176e-17
5.99648e-17
5.5422e-17
5.40139e-17
5.05177e-17
4.95642e-17
4.6558e-17
4.63216e-17
4.35458e-17
4.32945e-17
4.04437e-17
4.05968e-17
3.8608e-17
3.78501e-17
3.69057e-17
3.57076e-17
3.47577e-17
3.44542e-17
3.20685e-17
3.35591e-17
2.99906e-17
3.24142e-17
2.87634e-17
3.08635e-17
2.79401e-17
2.92567e-17
2.72628e-17
2.78129e-17
2.66574e-17
2.64915e-17
2.61949e-17
2.54267e-17
2.56774e-17
2.46723e-17
2.50671e-17
2.41536e-17
2.4746e-17
2.37894e-17
2.47036e-17
2.36454e-17
2.44123e-17
2.4094e-17
2.48659e-17
2.48208e-17
2.65348e-17
2.59793e-17
2.81437e-17
3.20577e-17
2.38004e-17
4.62842e-17
2.41435e-17
5.05159e-17
6.18593e-17
1.93269e-17
1.23294e-16
3.13135e-16
7.92276e-17
4.09245e-17
4.15688e-17
5.60967e-17
5.94599e-17
5.91411e-17
5.47856e-17
5.34922e-17
5.01222e-17
4.92363e-17
4.62909e-17
4.60768e-17
4.33439e-17
4.31029e-17
4.02878e-17
4.04372e-17
3.84853e-17
3.7728e-17
3.68026e-17
3.56131e-17
3.46728e-17
3.43842e-17
3.20002e-17
3.35064e-17
2.99334e-17
3.23737e-17
2.8714e-17
3.08344e-17
2.78976e-17
2.92346e-17
2.72266e-17
2.77937e-17
2.6627e-17
2.64759e-17
2.6167e-17
2.54139e-17
2.56502e-17
2.46606e-17
2.50426e-17
2.41382e-17
2.47217e-17
2.37668e-17
2.46795e-17
2.36195e-17
2.43763e-17
2.4063e-17
2.48086e-17
2.47729e-17
2.64406e-17
2.58974e-17
2.80042e-17
3.18042e-17
2.37914e-17
4.52717e-17
2.46412e-17
4.77899e-17
6.23452e-17
1.85875e-17
1.15257e-16
3.22238e-16
7.4086e-17
3.89908e-17
4.02282e-17
5.47749e-17
5.84966e-17
5.83082e-17
5.41337e-17
5.29525e-17
4.97081e-17
4.88906e-17
4.60084e-17
4.58177e-17
4.31299e-17
4.28995e-17
4.01221e-17
4.02676e-17
3.83539e-17
3.75981e-17
3.66913e-17
3.55122e-17
3.45804e-17
3.43087e-17
3.19258e-17
3.34485e-17
2.98715e-17
3.23282e-17
2.86608e-17
3.08006e-17
2.78519e-17
2.92083e-17
2.71875e-17
2.77709e-17
2.65942e-17
2.6457e-17
2.61368e-17
2.53983e-17
2.56208e-17
2.46463e-17
2.5016e-17
2.41203e-17
2.46954e-17
2.37417e-17
2.46529e-17
2.3591e-17
2.43381e-17
2.40289e-17
2.47494e-17
2.47205e-17
2.63456e-17
2.58078e-17
2.78688e-17
3.15388e-17
2.37923e-17
4.4265e-17
2.51551e-17
4.51729e-17
6.29254e-17
1.78846e-17
1.07811e-16
3.31833e-16
6.91673e-17
3.7233e-17
3.89532e-17
5.34606e-17
5.75302e-17
5.74695e-17
5.34697e-17
5.23978e-17
4.92778e-17
4.85288e-17
4.57119e-17
4.55456e-17
4.29046e-17
4.26853e-17
3.99472e-17
4.00891e-17
3.82141e-17
3.74611e-17
3.65721e-17
3.54057e-17
3.44809e-17
3.42281e-17
3.18457e-17
3.33855e-17
2.98052e-17
3.22775e-17
2.86042e-17
3.0762e-17
2.78034e-17
2.91779e-17
2.7146e-17
2.77443e-17
2.65592e-17
2.64349e-17
2.61046e-17
2.53798e-17
2.55894e-17
2.46293e-17
2.49875e-17
2.40998e-17
2.46669e-17
2.37142e-17
2.46239e-17
2.35602e-17
2.42976e-17
2.39919e-17
2.46882e-17
2.46641e-17
2.62498e-17
2.57114e-17
2.77371e-17
3.12639e-17
2.3801e-17
4.32695e-17
2.56805e-17
4.26801e-17
6.35698e-17
1.72437e-17
1.01036e-16
3.41603e-16
6.45028e-17
3.5666e-17
3.7742e-17
5.21575e-17
5.65624e-17
5.66276e-17
5.27967e-17
5.1831e-17
4.88333e-17
4.81528e-17
4.54027e-17
4.52616e-17
4.26693e-17
4.24614e-17
3.97641e-17
3.99024e-17
3.80667e-17
3.73178e-17
3.64455e-17
3.52942e-17
3.43746e-17
3.41429e-17
3.17602e-17
3.33176e-17
2.97352e-17
3.22217e-17
2.85449e-17
3.07185e-17
2.77527e-17
2.91431e-17
2.71024e-17
2.77139e-17
2.65222e-17
2.64095e-17
2.60703e-17
2.53584e-17
2.55559e-17
2.46097e-17
2.49569e-17
2.40769e-17
2.46363e-17
2.36846e-17
2.45924e-17
2.3527e-17
2.42546e-17
2.39522e-17
2.46247e-17
2.46039e-17
2.61532e-17
2.56087e-17
2.76083e-17
3.09816e-17
2.38156e-17
4.22896e-17
2.62123e-17
4.03221e-17
6.42463e-17
1.6685e-17
9.49832e-17
3.51224e-16
6.01138e-17
3.42974e-17
3.65921e-17
5.08688e-17
5.55946e-17
5.57846e-17
5.21171e-17
5.12545e-17
4.83767e-17
4.77643e-17
4.5082e-17
4.49671e-17
4.24246e-17
4.2229e-17
3.95734e-17
3.97085e-17
3.7912e-17
3.71689e-17
3.63121e-17
3.51783e-17
3.4262e-17
3.40536e-17
3.16698e-17
3.32451e-17
2.96619e-17
3.21608e-17
2.84834e-17
3.06701e-17
2.77e-17
2.91041e-17
2.7057e-17
2.76799e-17
2.64834e-17
2.63809e-17
2.60342e-17
2.53343e-17
2.55205e-17
2.45877e-17
2.49243e-17
2.40518e-17
2.46033e-17
2.36528e-17
2.45582e-17
2.34918e-17
2.42091e-17
2.39099e-17
2.45589e-17
2.45402e-17
2.60556e-17
2.55003e-17
2.74817e-17
3.06938e-17
2.38341e-17
4.13282e-17
2.67452e-17
3.81057e-17
6.49208e-17
1.62219e-17
8.96669e-17
3.60362e-16
5.60145e-17
3.31285e-17
3.55011e-17
4.95973e-17
5.46277e-17
5.49422e-17
5.1433e-17
5.06707e-17
4.79099e-17
4.73648e-17
4.4751e-17
4.46631e-17
4.21716e-17
4.19889e-17
3.93758e-17
3.95081e-17
3.77508e-17
3.70148e-17
3.61722e-17
3.50585e-17
3.41435e-17
3.39606e-17
3.1575e-17
3.31681e-17
2.95858e-17
3.20949e-17
2.842e-17
3.06168e-17
2.76458e-17
2.90608e-17
2.70099e-17
2.76422e-17
2.64429e-17
2.63491e-17
2.59962e-17
2.53075e-17
2.5483e-17
2.45633e-17
2.48896e-17
2.40244e-17
2.4568e-17
2.36191e-17
2.45212e-17
2.34545e-17
2.4161e-17
2.38652e-17
2.44907e-17
2.44728e-17
2.59568e-17
2.53868e-17
2.73562e-17
3.04022e-17
2.38546e-17
4.03877e-17
2.72735e-17
3.60351e-17
6.55579e-17
1.58628e-17
8.50756e-17
3.68702e-16
5.22136e-17
3.21535e-17
3.44666e-17
4.83454e-17
5.36626e-17
5.41019e-17
5.07465e-17
5.00817e-17
4.74349e-17
4.69561e-17
4.44109e-17
4.43508e-17
4.1911e-17
4.17421e-17
3.91721e-17
3.93022e-17
3.75836e-17
3.68564e-17
3.60262e-17
3.49355e-17
3.40193e-17
3.38643e-17
3.14761e-17
3.30869e-17
2.95074e-17
3.20241e-17
2.83551e-17
3.05586e-17
2.75903e-17
2.90132e-17
2.69615e-17
2.76009e-17
2.64009e-17
2.63144e-17
2.59565e-17
2.52781e-17
2.54436e-17
2.45365e-17
2.48527e-17
2.3995e-17
2.45303e-17
2.35835e-17
2.44812e-17
2.34153e-17
2.41099e-17
2.38182e-17
2.44201e-17
2.4402e-17
2.58568e-17
2.52687e-17
2.72311e-17
3.01084e-17
2.38757e-17
3.94698e-17
2.77916e-17
3.41115e-17
6.61227e-17
1.5611e-17
8.11734e-17
3.75951e-16
4.87152e-17
3.13601e-17
3.34858e-17
4.71158e-17
5.27002e-17
5.32649e-17
5.00592e-17
4.94892e-17
4.69532e-17
4.65397e-17
4.40629e-17
4.40311e-17
4.16437e-17
4.14894e-17
3.89629e-17
3.90914e-17
3.74109e-17
3.6694e-17
3.58747e-17
3.48097e-17
3.38901e-17
3.3765e-17
3.13736e-17
3.30016e-17
2.94272e-17
3.19483e-17
2.82893e-17
3.04957e-17
2.75339e-17
2.89616e-17
2.69119e-17
2.75563e-17
2.63574e-17
2.62767e-17
2.59151e-17
2.52462e-17
2.54023e-17
2.45077e-17
2.48136e-17
2.39636e-17
2.449e-17
2.35461e-17
2.44383e-17
2.33744e-17
2.4056e-17
2.37688e-17
2.43471e-17
2.43277e-17
2.57553e-17
2.51466e-17
2.71054e-17
2.98137e-17
2.3896e-17
3.8576e-17
2.82937e-17
3.23338e-17
6.65834e-17
1.54666e-17
7.79056e-17
3.81853e-16
4.55198e-17
3.07309e-17
3.25566e-17
4.5911e-17
5.17414e-17
5.24324e-17
4.93728e-17
4.88951e-17
4.64668e-17
4.61171e-17
4.37082e-17
4.37052e-17
4.13705e-17
4.12317e-17
3.87491e-17
3.88765e-17
3.72334e-17
3.65284e-17
3.57182e-17
3.46816e-17
3.37561e-17
3.3663e-17
3.12681e-17
3.29123e-17
2.93454e-17
3.18679e-17
2.82227e-17
3.04281e-17
2.74767e-17
2.89061e-17
2.68612e-17
2.75083e-17
2.63126e-17
2.62363e-17
2.58719e-17
2.5212e-17
2.53589e-17
2.44767e-17
2.47723e-17
2.39304e-17
2.44472e-17
2.35069e-17
2.43924e-17
2.33317e-17
2.39992e-17
2.3717e-17
2.42717e-17
2.425e-17
2.56524e-17
2.50212e-17
2.69785e-17
2.95193e-17
2.39143e-17
3.77072e-17
2.87742e-17
3.06992e-17
6.69116e-17
1.54269e-17
7.5204e-17
3.86195e-16
4.26248e-17
3.02454e-17
3.1677e-17
4.47334e-17
5.07874e-17
5.16054e-17
4.86887e-17
4.83011e-17
4.59772e-17
4.56899e-17
4.33481e-17
4.3374e-17
4.10921e-17
4.09698e-17
3.85311e-17
3.86581e-17
3.70516e-17
3.636e-17
3.5557e-17
3.45515e-17
3.3618e-17
3.35587e-17
3.116e-17
3.28194e-17
2.92627e-17
3.17829e-17
2.81556e-17
3.03562e-17
2.74191e-17
2.88467e-17
2.68097e-17
2.74572e-17
2.62665e-17
2.61933e-17
2.58272e-17
2.51756e-17
2.53137e-17
2.44438e-17
2.47287e-17
2.38954e-17
2.4402e-17
2.34662e-17
2.43434e-17
2.32874e-17
2.39396e-17
2.3663e-17
2.41943e-17
2.4169e-17
2.55479e-17
2.4893e-17
2.68497e-17
2.92263e-17
2.39297e-17
3.68644e-17
2.92278e-17
2.92033e-17
6.70819e-17
1.54876e-17
7.29883e-17
3.88808e-16
4.00253e-17
2.98804e-17
3.08453e-17
4.35851e-17
4.98392e-17
5.07851e-17
4.80084e-17
4.77084e-17
4.54859e-17
4.52595e-17
4.29836e-17
4.30386e-17
4.08094e-17
4.07044e-17
3.83098e-17
3.8437e-17
3.68662e-17
3.61895e-17
3.53918e-17
3.442e-17
3.34761e-17
3.34522e-17
3.10497e-17
3.27229e-17
2.91792e-17
3.16937e-17
2.80884e-17
3.028e-17
2.73611e-17
2.87838e-17
2.67575e-17
2.74032e-17
2.62193e-17
2.61478e-17
2.57809e-17
2.51371e-17
2.52665e-17
2.44092e-17
2.46831e-17
2.38587e-17
2.43543e-17
2.3424e-17
2.42915e-17
2.32417e-17
2.38772e-17
2.36067e-17
2.41149e-17
2.40849e-17
2.54418e-17
2.47629e-17
2.67187e-17
2.89357e-17
2.39415e-17
3.60484e-17
2.96492e-17
2.78405e-17
6.70737e-17
1.56438e-17
7.11718e-17
3.89577e-16
3.77139e-17
2.96116e-17
3.00598e-17
4.24685e-17
4.88983e-17
4.99724e-17
4.7333e-17
4.71185e-17
4.49943e-17
4.48272e-17
4.26161e-17
4.26999e-17
4.05232e-17
4.04362e-17
3.80856e-17
3.82138e-17
3.66776e-17
3.60172e-17
3.52229e-17
3.42872e-17
3.3331e-17
3.33439e-17
3.09377e-17
3.26232e-17
2.90954e-17
3.16004e-17
2.80212e-17
3.02e-17
2.7303e-17
2.87175e-17
2.67047e-17
2.73465e-17
2.6171e-17
2.61001e-17
2.57331e-17
2.50967e-17
2.52176e-17
2.43728e-17
2.46353e-17
2.38205e-17
2.43042e-17
2.33806e-17
2.42366e-17
2.31946e-17
2.38123e-17
2.35482e-17
2.40339e-17
2.39979e-17
2.53342e-17
2.46315e-17
2.65853e-17
2.86484e-17
2.39493e-17
3.52598e-17
3.0034e-17
2.66048e-17
6.68729e-17
1.58907e-17
6.96652e-17
3.88443e-16
3.56813e-17
2.94143e-17
2.93189e-17
4.13857e-17
4.79661e-17
4.91686e-17
4.66639e-17
4.65325e-17
4.45038e-17
4.43944e-17
4.22466e-17
4.23589e-17
4.02342e-17
4.01658e-17
3.78593e-17
3.7989e-17
3.64865e-17
3.58437e-17
3.5051e-17
3.41535e-17
3.31832e-17
3.32338e-17
3.08245e-17
3.25205e-17
2.90115e-17
3.15034e-17
2.79542e-17
3.01162e-17
2.72448e-17
2.86481e-17
2.66514e-17
2.72872e-17
2.61218e-17
2.60504e-17
2.5684e-17
2.50547e-17
2.51669e-17
2.4335e-17
2.45856e-17
2.37809e-17
2.4252e-17
2.33359e-17
2.4179e-17
2.31464e-17
2.37452e-17
2.34876e-17
2.39515e-17
2.39084e-17
2.52252e-17
2.44996e-17
2.64495e-17
2.83652e-17
2.39526e-17
3.44993e-17
3.03779e-17
2.54892e-17
6.64712e-17
1.62234e-17
6.83817e-17
3.85404e-16
3.39156e-17
2.92657e-17
2.86215e-17
4.03384e-17
4.70442e-17
4.83748e-17
4.60021e-17
4.59516e-17
4.40155e-17
4.39622e-17
4.18762e-17
4.20165e-17
3.99432e-17
3.98939e-17
3.76315e-17
3.77632e-17
3.62934e-17
3.56695e-17
3.48764e-17
3.40193e-17
3.3033e-17
3.31222e-17
3.07104e-17
3.2415e-17
2.89278e-17
3.1403e-17
2.78876e-17
3.00292e-17
2.71868e-17
2.85759e-17
2.65979e-17
2.72256e-17
2.60718e-17
2.59988e-17
2.56335e-17
2.50111e-17
2.51147e-17
2.42958e-17
2.45341e-17
2.37401e-17
2.41977e-17
2.32903e-17
2.41189e-17
2.30971e-17
2.36761e-17
2.34251e-17
2.38681e-17
2.38169e-17
2.51148e-17
2.43678e-17
2.63112e-17
2.80869e-17
2.39513e-17
3.37677e-17
3.06775e-17
2.44869e-17
6.58651e-17
1.66369e-17
6.72359e-17
3.80502e-16
3.24034e-17
2.9145e-17
2.79664e-17
3.93284e-17
4.61341e-17
4.75918e-17
4.53489e-17
4.53766e-17
4.35305e-17
4.35317e-17
4.15059e-17
4.16736e-17
3.96509e-17
3.96211e-17
3.74025e-17
3.7537e-17
3.60987e-17
3.54949e-17
3.46998e-17
3.38847e-17
3.28811e-17
3.30094e-17
3.05959e-17
3.23069e-17
2.88446e-17
3.12995e-17
2.78215e-17
2.99391e-17
2.71289e-17
2.8501e-17
2.65441e-17
2.7162e-17
2.60211e-17
2.59457e-17
2.5582e-17
2.49662e-17
2.50611e-17
2.42555e-17
2.4481e-17
2.36983e-17
2.41415e-17
2.32439e-17
2.40565e-17
2.30471e-17
2.36053e-17
2.33609e-17
2.3784e-17
2.37236e-17
2.50032e-17
2.4237e-17
2.61709e-17
2.78142e-17
2.3945e-17
3.30655e-17
3.09299e-17
2.3591e-17
6.50567e-17
1.71267e-17
6.61494e-17
3.73829e-16
3.1129e-17
2.90339e-17
2.73524e-17
3.83568e-17
4.52373e-17
4.6821e-17
4.47051e-17
4.48086e-17
4.30497e-17
4.31039e-17
4.11368e-17
4.1331e-17
3.93581e-17
3.93479e-17
3.71731e-17
3.73107e-17
3.5903e-17
3.53204e-17
3.45216e-17
3.375e-17
3.27279e-17
3.28953e-17
3.04812e-17
3.21966e-17
2.8762e-17
3.11932e-17
2.7756e-17
2.98463e-17
2.70715e-17
2.84237e-17
2.64903e-17
2.70966e-17
2.59699e-17
2.58911e-17
2.55294e-17
2.49202e-17
2.50061e-17
2.42141e-17
2.44264e-17
2.36555e-17
2.40836e-17
2.31969e-17
2.39921e-17
2.29963e-17
2.35333e-17
2.32951e-17
2.36996e-17
2.36292e-17
2.48908e-17
2.41076e-17
2.60288e-17
2.75477e-17
2.39337e-17
3.23933e-17
3.11331e-17
2.27948e-17
6.40534e-17
1.76879e-17
6.50516e-17
3.65512e-16
3.00754e-17
2.89167e-17
2.67783e-17
3.74249e-17
4.43556e-17
4.60632e-17
4.40719e-17
4.42482e-17
4.25741e-17
4.26795e-17
4.07697e-17
4.09894e-17
3.90654e-17
3.90749e-17
3.69435e-17
3.70848e-17
3.57067e-17
3.51463e-17
3.43423e-17
3.36153e-17
3.25738e-17
3.27803e-17
3.03667e-17
3.20843e-17
2.86803e-17
3.10845e-17
2.76913e-17
2.97511e-17
2.70144e-17
2.83444e-17
2.64365e-17
2.70295e-17
2.59182e-17
2.58353e-17
2.54759e-17
2.48732e-17
2.49501e-17
2.41719e-17
2.43706e-17
2.3612e-17
2.40243e-17
2.31495e-17
2.39259e-17
2.29452e-17
2.34605e-17
2.32281e-17
2.3615e-17
2.35342e-17
2.47776e-17
2.39803e-17
2.58854e-17
2.7288e-17
2.39174e-17
3.17518e-17
3.12855e-17
2.2092e-17
6.28677e-17
1.8315e-17
6.38836e-17
3.55718e-16
2.92239e-17
2.87817e-17
2.62432e-17
3.65336e-17
4.34904e-17
4.53195e-17
4.34501e-17
4.36962e-17
4.21043e-17
4.22595e-17
4.04054e-17
4.06497e-17
3.87735e-17
3.88026e-17
3.67144e-17
3.68597e-17
3.55102e-17
3.49729e-17
3.41623e-17
3.3481e-17
3.24192e-17
3.26644e-17
3.02527e-17
3.19702e-17
2.85996e-17
3.09738e-17
2.76274e-17
2.96539e-17
2.69579e-17
2.82633e-17
2.63828e-17
2.69611e-17
2.58661e-17
2.57785e-17
2.54218e-17
2.48255e-17
2.48932e-17
2.4129e-17
2.43138e-17
2.3568e-17
2.39639e-17
2.31019e-17
2.38583e-17
2.28937e-17
2.33871e-17
2.31602e-17
2.35307e-17
2.34391e-17
2.46642e-17
2.38555e-17
2.57411e-17
2.70358e-17
2.38959e-17
3.11412e-17
3.13864e-17
2.14766e-17
6.15148e-17
1.90014e-17
6.25957e-17
3.44633e-16
2.85548e-17
2.86204e-17
2.57462e-17
3.56832e-17
4.26431e-17
4.45908e-17
4.28404e-17
4.31533e-17
4.16409e-17
4.18445e-17
4.00445e-17
4.03124e-17
3.84831e-17
3.85315e-17
3.6486e-17
3.66358e-17
3.53139e-17
3.48005e-17
3.39822e-17
3.3347e-17
3.22647e-17
3.25479e-17
3.01394e-17
3.18547e-17
2.852e-17
3.08612e-17
2.75645e-17
2.95549e-17
2.69021e-17
2.81806e-17
2.63294e-17
2.68916e-17
2.58139e-17
2.57209e-17
2.53671e-17
2.47771e-17
2.48356e-17
2.40855e-17
2.42561e-17
2.35237e-17
2.39024e-17
2.30544e-17
2.37896e-17
2.28422e-17
2.33136e-17
2.30917e-17
2.34468e-17
2.33444e-17
2.45507e-17
2.37339e-17
2.55966e-17
2.67914e-17
2.38693e-17
3.05621e-17
3.14359e-17
2.09431e-17
6.00131e-17
1.97397e-17
6.1151e-17
3.32461e-16
2.80471e-17
2.84273e-17
2.52861e-17
3.48742e-17
4.1815e-17
4.3878e-17
4.22438e-17
4.26199e-17
4.11846e-17
4.14349e-17
3.96877e-17
3.99781e-17
3.81945e-17
3.8262e-17
3.62589e-17
3.64133e-17
3.51181e-17
3.46293e-17
3.38022e-17
3.32137e-17
3.21104e-17
3.24309e-17
3.00271e-17
3.1738e-17
2.84417e-17
3.07473e-17
2.75026e-17
2.94545e-17
2.68469e-17
2.80967e-17
2.62763e-17
2.68212e-17
2.57616e-17
2.56628e-17
2.53119e-17
2.47284e-17
2.47775e-17
2.40418e-17
2.41979e-17
2.34793e-17
2.38403e-17
2.3007e-17
2.37202e-17
2.27908e-17
2.32402e-17
2.30228e-17
2.33638e-17
2.32506e-17
2.44375e-17
2.36157e-17
2.54522e-17
2.65555e-17
2.38374e-17
3.00145e-17
3.14345e-17
2.04865e-17
5.83832e-17
2.05208e-17
5.95223e-17
3.19415e-16
2.76795e-17
2.81993e-17
2.48619e-17
3.41064e-17
4.10074e-17
4.31818e-17
4.16608e-17
4.20966e-17
4.07359e-17
4.10314e-17
3.93355e-17
3.96474e-17
3.79085e-17
3.79945e-17
3.60333e-17
3.61926e-17
3.49232e-17
3.44596e-17
3.36228e-17
3.3081e-17
3.19568e-17
3.23135e-17
2.9916e-17
3.16203e-17
2.83646e-17
3.06322e-17
2.74417e-17
2.9353e-17
2.67924e-17
2.80118e-17
2.62237e-17
2.675e-17
2.57094e-17
2.56043e-17
2.52566e-17
2.46794e-17
2.4719e-17
2.39978e-17
2.41392e-17
2.34348e-17
2.37776e-17
2.296e-17
2.36503e-17
2.27396e-17
2.31675e-17
2.29541e-17
2.32817e-17
2.31582e-17
2.4325e-17
2.35013e-17
2.53085e-17
2.63284e-17
2.38004e-17
2.94986e-17
3.13836e-17
2.01022e-17
5.66473e-17
2.13341e-17
5.7696e-17
3.05717e-16
2.74305e-17
2.79365e-17
2.44727e-17
3.33799e-17
4.02214e-17
4.25031e-17
4.1092e-17
4.15838e-17
4.0295e-17
4.06342e-17
3.89884e-17
3.93206e-17
3.76254e-17
3.77295e-17
3.58095e-17
3.59738e-17
3.47293e-17
3.42914e-17
3.34443e-17
3.29492e-17
3.18043e-17
3.2196e-17
2.98062e-17
3.15019e-17
2.82889e-17
3.05164e-17
2.7382e-17
2.92506e-17
2.67389e-17
2.7926e-17
2.61715e-17
2.66785e-17
2.56573e-17
2.55455e-17
2.52012e-17
2.46304e-17
2.46604e-17
2.39538e-17
2.40803e-17
2.33906e-17
2.37148e-17
2.29135e-17
2.35803e-17
2.2689e-17
2.30955e-17
2.28856e-17
2.32009e-17
2.30675e-17
2.42136e-17
2.33909e-17
2.51659e-17
2.61104e-17
2.37582e-17
2.90143e-17
3.12849e-17
1.97863e-17
5.48278e-17
2.2167e-17
5.56685e-17
2.91579e-16
2.7279e-17
2.7641e-17
2.41176e-17
3.2694e-17
3.94579e-17
4.18423e-17
4.0538e-17
4.1082e-17
3.98625e-17
4.02439e-17
3.86468e-17
3.89982e-17
3.73456e-17
3.74671e-17
3.55879e-17
3.57573e-17
3.45368e-17
3.41249e-17
3.32671e-17
3.28183e-17
3.1653e-17
3.20783e-17
2.96978e-17
3.1383e-17
2.82147e-17
3.03999e-17
2.73234e-17
2.91476e-17
2.66862e-17
2.78398e-17
2.612e-17
2.66066e-17
2.56055e-17
2.54867e-17
2.51458e-17
2.45813e-17
2.46019e-17
2.391e-17
2.40215e-17
2.33467e-17
2.36519e-17
2.28676e-17
2.35105e-17
2.26389e-17
2.30246e-17
2.28179e-17
2.31215e-17
2.2979e-17
2.41035e-17
2.32848e-17
2.5025e-17
2.5902e-17
2.37109e-17
2.85615e-17
3.11407e-17
1.95349e-17
5.29471e-17
2.30058e-17
5.34474e-17
2.77208e-16
2.72035e-17
2.73164e-17
2.37955e-17
3.20483e-17
3.87177e-17
4.12001e-17
3.99992e-17
4.05913e-17
3.94385e-17
3.98605e-17
3.83109e-17
3.86805e-17
3.70695e-17
3.72079e-17
3.53686e-17
3.55431e-17
3.43459e-17
3.39603e-17
3.30914e-17
3.26884e-17
3.15033e-17
3.19607e-17
2.95911e-17
3.12638e-17
2.8142e-17
3.02832e-17
2.7266e-17
2.90443e-17
2.66344e-17
2.77532e-17
2.60691e-17
2.65346e-17
2.55541e-17
2.54279e-17
2.50907e-17
2.45324e-17
2.45436e-17
2.38664e-17
2.39627e-17
2.33034e-17
2.35893e-17
2.28225e-17
2.34411e-17
2.25898e-17
2.29551e-17
2.27511e-17