/*--------------------------------*- C++ -*----------------------------------*\
| =========                 |                                                 |
| \\      /  F ield         | OpenFOAM: The Open Source CFD Toolbox           |
|  \\    /   O peration     | Version:  2312                                  |
|   \\  /    A nd           | Website:  www.openfoam.com                      |
|    \\/     M anipulation  |                                                 |
\*---------------------------------------------------------------------------*/
FoamFile
{
    version     2.0;
    format      ascii;
    arch        "LSB;label=32;scalar=64";
    class       volScalarField;
    location    "480";
    object      nut;
}
// * * * * * * * * * * * * * * * * * * * * * * * * * * * * * * * * * * * * * //

dimensions      [0 2 -1 0 0 0 0];

internalField   nonuniform List<scalar> 
144000
(
8.74683e-28
1.83951e-28
3.42343e-29
8.07716e-28
2.31967e-28
4.8749e-32
7.51356e-29
1.90838e-29
5.17251e-29
3.18422e-29
4.73784e-29
3.49805e-29
5.15476e-29
4.30353e-29
4.80638e-29
3.91704e-29
5.64394e-29
5.69068e-29
5.5913e-29
5.23225e-29
6.40847e-29
6.48244e-29
6.60264e-29
6.38598e-29
6.50088e-29
6.48804e-29
7.29491e-29
7.26376e-29
7.38129e-29
7.11388e-29
6.85889e-29
6.53105e-29
7.6611e-29
7.47914e-29
7.04921e-29
6.32908e-29
5.94859e-29
5.41023e-29
5.36393e-29
4.33937e-29
4.24138e-29
3.1169e-29
5.76164e-29
3.83874e-29
3.30803e-29
2.58565e-29
1.41078e-29
7.21544e-30
2.52012e-30
6.17009e-31
1.05014e-31
3.13539e-30
2.61905e-29
9.75336e-29
4.59774e-28
1.71896e-28
3.10615e-27
1.64285e-25
2.57477e-25
2.0178e-26
1.54257e-25
5.36278e-27
5.5609e-27
8.36196e-27
1.90999e-28
2.64339e-30
1.4048e-28
5.01303e-29
7.47935e-29
9.97238e-29
7.12048e-29
9.62114e-29
8.52667e-29
1.10072e-28
8.84744e-29
9.07399e-29
1.01958e-28
1.33424e-28
1.10461e-28
1.11497e-28
1.23438e-28
1.43578e-28
1.29776e-28
1.36435e-28
1.27798e-28
1.36176e-28
1.41428e-28
1.54623e-28
1.44964e-28
1.46989e-28
1.35808e-28
1.30481e-28
1.45988e-28
1.53845e-28
1.37772e-28
1.22445e-28
1.14971e-28
1.02237e-28
1.02777e-28
8.86891e-29
8.55054e-29
7.36684e-29
1.20696e-28
5.7834e-29
7.00554e-29
4.62518e-29
2.97748e-29
9.87762e-30
5.15277e-30
5.14782e-31
1.37792e-31
1.14351e-29
4.72982e-29
2.95655e-28
8.27177e-28
8.01166e-28
4.02444e-27
4.05679e-25
1.50248e-24
1.39404e-26
4.30295e-25
5.0296e-26
3.19186e-26
9.87486e-27
6.26232e-28
2.79602e-30
1.76891e-28
8.25861e-29
1.04197e-28
1.31817e-28
1.11207e-28
1.22661e-28
1.3269e-28
1.40871e-28
1.32709e-28
1.22738e-28
1.53311e-28
1.7457e-28
1.63328e-28
1.52041e-28
1.81013e-28
1.92104e-28
1.88091e-28
1.86173e-28
1.82983e-28
1.88934e-28
2.01689e-28
2.10988e-28
2.05519e-28
2.02132e-28
1.89916e-28
1.84044e-28
2.04158e-28
2.09116e-28
1.91671e-28
1.68889e-28
1.59746e-28
1.43668e-28
1.46135e-28
1.27364e-28
1.31497e-28
1.05542e-28
1.76502e-28
7.42591e-29
1.08003e-28
6.18533e-29
4.30152e-29
1.45171e-29
7.36058e-30
1.07987e-30
2.33689e-31
1.19236e-29
7.5979e-29
3.54307e-28
1.18932e-27
7.26598e-28
1.30429e-26
6.76766e-25
1.58557e-24
1.38029e-25
1.69765e-24
5.15569e-25
1.14909e-25
4.60024e-26
7.30009e-28
5.15735e-30
1.77797e-28
9.1834e-29
1.07561e-28
1.31047e-28
1.17079e-28
1.20727e-28
1.39281e-28
1.39204e-28
1.38822e-28
1.20567e-28
1.58051e-28
1.73872e-28
1.68585e-28
1.49424e-28
1.8652e-28
1.89741e-28
1.93927e-28
1.82966e-28
1.87824e-28
1.86398e-28
2.04985e-28
2.09731e-28
2.08889e-28
1.99439e-28
1.93027e-28
1.81762e-28
2.05553e-28
2.08882e-28
1.93722e-28
1.68115e-28
1.63843e-28
1.45754e-28
1.54481e-28
1.33443e-28
1.39977e-28
1.22408e-28
1.71301e-28
7.46445e-29
1.20801e-28
6.04105e-29
4.86856e-29
1.43084e-29
9.55244e-30
1.53004e-30
9.68787e-32
1.29716e-29
6.26689e-29
3.30389e-28
1.00008e-27
6.28275e-28
1.67561e-26
1.02962e-24
2.29589e-24
8.15637e-25
3.43113e-24
2.5028e-24
1.88865e-25
1.60127e-25
1.70318e-27
1.37715e-29
1.9483e-28
1.0736e-28
1.09097e-28
1.40154e-28
1.15656e-28
1.27597e-28
1.40993e-28
1.45427e-28
1.40986e-28
1.23373e-28
1.61051e-28
1.8002e-28
1.71163e-28
1.50468e-28
1.91596e-28
1.92324e-28
1.98666e-28
1.82961e-28
1.92471e-28
1.86659e-28
2.10215e-28
2.11975e-28
2.12931e-28
2.00531e-28
1.97363e-28
1.82602e-28
2.11599e-28
2.14612e-28
1.98986e-28
1.73107e-28
1.71797e-28
1.5386e-28
1.65368e-28
1.41231e-28
1.45468e-28
1.22657e-28
1.62102e-28
8.66282e-29
1.31675e-28
6.36358e-29
5.45746e-29
1.59739e-29
1.29617e-29
2.83634e-30
8.56097e-32
1.27154e-29
4.96316e-29
2.97874e-28
7.71769e-28
4.73159e-28
2.45191e-26
1.67884e-24
3.07343e-24
3.40361e-24
4.88214e-24
7.53093e-24
2.05726e-25
3.99946e-25
4.40468e-27
3.68775e-29
2.32765e-28
1.2739e-28
1.18885e-28
1.5255e-28
1.16942e-28
1.37666e-28
1.45771e-28
1.55819e-28
1.45483e-28
1.3044e-28
1.69188e-28
1.92323e-28
1.76936e-28
1.57787e-28
2.01828e-28
2.02333e-28
2.08181e-28
1.89561e-28
2.02755e-28
1.94024e-28
2.22785e-28
2.22067e-28
2.24484e-28
2.09148e-28
2.09017e-28
1.91686e-28
2.28158e-28
2.29885e-28
2.13486e-28
1.86728e-28
1.88117e-28
1.69757e-28
1.81051e-28
1.49965e-28
1.47018e-28
1.34336e-28
1.66046e-28
1.08978e-28
1.46699e-28
7.39627e-29
6.30514e-29
2.09709e-29
1.90182e-29
6.19164e-30
4.44623e-31
1.28192e-29
3.74879e-29
2.55376e-28
5.3147e-28
2.96767e-28
3.64014e-26
2.69681e-24
3.86624e-24
9.62418e-24
5.7282e-24
1.72765e-23
1.68954e-25
8.14255e-25
1.08421e-26
7.97198e-29
2.89959e-28
1.49494e-28
1.35758e-28
1.63512e-28
1.22413e-28
1.46274e-28
1.54387e-28
1.66017e-28
1.52079e-28
1.38975e-28
1.81526e-28
2.06369e-28
1.84841e-28
1.68258e-28
2.15382e-28
2.15732e-28
2.19733e-28
1.99636e-28
2.16092e-28
2.05921e-28
2.4003e-28
2.36098e-28
2.39947e-28
2.22276e-28
2.25356e-28
2.06749e-28
2.51837e-28
2.50426e-28
2.33572e-28
2.05384e-28
2.10127e-28
1.90745e-28
2.00166e-28
1.60788e-28
1.50578e-28
1.38758e-28
1.76144e-28
1.43453e-28
1.6922e-28
9.13658e-29
7.55743e-29
3.10696e-29
3.03486e-29
1.44342e-29
2.77337e-30
1.51104e-29
3.08891e-29
2.04545e-28
3.34466e-28
1.83021e-28
4.88542e-26
4.12695e-24
5.07465e-24
2.11006e-23
5.76721e-24
3.27685e-23
1.05936e-25
1.4244e-24
2.42389e-26
1.4044e-28
3.64776e-28
1.7173e-28
1.56012e-28
1.74687e-28
1.30392e-28
1.53395e-28
1.65791e-28
1.75602e-28
1.60634e-28
1.4794e-28
1.96471e-28
2.2065e-28
1.94184e-28
1.79786e-28
2.30867e-28
2.30903e-28
2.32378e-28
2.11697e-28
2.31492e-28
2.20419e-28
2.59185e-28
2.52925e-28
2.58085e-28
2.38173e-28
2.44954e-28
2.25374e-28
2.79612e-28
2.74832e-28
2.57723e-28
2.28063e-28
2.37746e-28
2.1719e-28
2.24104e-28
1.74491e-28
1.57156e-28
1.5419e-28
1.89242e-28
1.89577e-28
2.02545e-28
1.18222e-28
9.51847e-29
5.02266e-29
5.2052e-29
3.42984e-29
1.25678e-29
2.77487e-29
4.09515e-29
1.78495e-28
2.74751e-28
3.37511e-28
6.18243e-26
6.01708e-24
6.90033e-24
3.81842e-23
5.38466e-24
5.48111e-23
5.21738e-26
2.23945e-24
5.05587e-26
2.23586e-28
4.69395e-28
1.88598e-28
1.77102e-28
1.88105e-28
1.3951e-28
1.60256e-28
1.79912e-28
1.84878e-28
1.70868e-28
1.57597e-28
2.15012e-28
2.34949e-28
2.0506e-28
1.92139e-28
2.49591e-28
2.47128e-28
2.4611e-28
2.2557e-28
2.48997e-28
2.3725e-28
2.8161e-28
2.71898e-28
2.77951e-28
2.57144e-28
2.67538e-28
2.47727e-28
3.12694e-28
3.03297e-28
2.86072e-28
2.56613e-28
2.73735e-28
2.53392e-28
2.60345e-28
2.0099e-28
1.80306e-28
1.88112e-28
1.91365e-28
2.56787e-28
2.53098e-28
1.60059e-28
1.26837e-28
8.59873e-29
9.54873e-29
8.04763e-29
4.56756e-29
7.45232e-29
1.05973e-28
2.50489e-28
5.7522e-28
1.53751e-27
7.13213e-26
8.42438e-24
1.05019e-23
6.07989e-23
4.78263e-24
8.3316e-23
3.38379e-26
3.21588e-24
9.82123e-26
3.39645e-28
6.20946e-28
1.9632e-28
1.99062e-28
2.04682e-28
1.49289e-28
1.67645e-28
1.96181e-28
1.9443e-28
1.833e-28
1.67744e-28
2.36328e-28
2.49338e-28
2.17932e-28
2.05066e-28
2.71054e-28
2.64162e-28
2.6193e-28
2.4074e-28
2.69354e-28
2.55997e-28
3.06145e-28
2.93191e-28
3.00677e-28
2.78632e-28
2.93832e-28
2.73823e-28
3.50324e-28
3.371e-28
3.2089e-28
2.93145e-28
3.22391e-28
3.0512e-28
3.16906e-28
2.52481e-28
2.54484e-28
1.84895e-28
1.73112e-28
3.48477e-28
3.2947e-28
2.26277e-28
1.79294e-28
1.52329e-28
1.82134e-28
1.82835e-28
1.42583e-28
2.19435e-28
3.52792e-28
6.31348e-28
2.02095e-27
6.31254e-27
7.88558e-26
1.14432e-23
1.67598e-23
8.74223e-23
4.7226e-24
1.18029e-22
5.73904e-26
4.3072e-24
1.78367e-25
5.34051e-28
8.51043e-28
1.89649e-28
2.21853e-28
2.24592e-28
1.59613e-28
1.75611e-28
2.14775e-28
2.0437e-28
1.97261e-28
1.78963e-28
2.60872e-28
2.63803e-28
2.325e-28
2.1895e-28
2.96032e-28
2.81481e-28
2.79634e-28
2.57283e-28
2.92462e-28
2.76617e-28
3.3441e-28
3.15964e-28
3.25967e-28
3.03182e-28
3.24183e-28
3.04479e-28
3.94662e-28
3.76608e-28
3.6308e-28
3.39363e-28
3.85618e-28
3.72966e-28
3.9124e-28
3.22117e-28
3.27696e-28
2.22173e-28
1.84612e-28
4.24873e-28
4.70793e-28
3.21407e-28
2.69337e-28
2.71058e-28
3.49139e-28
3.97715e-28
3.90928e-28
6.18607e-28
1.09392e-27
1.89456e-27
6.57e-27
1.96028e-26
8.14042e-26
1.53484e-23
2.87182e-23
1.16271e-22
5.17641e-24
1.58286e-22
2.00083e-25
5.46934e-24
3.04722e-25
9.71043e-28
1.11949e-27
1.73235e-28
2.42125e-28
2.51139e-28
1.68894e-28
1.85367e-28
2.34078e-28
2.16004e-28
2.12284e-28
1.91491e-28
2.87012e-28
2.79118e-28
2.48302e-28
2.34002e-28
3.23136e-28
2.99628e-28
2.9932e-28
2.75282e-28
3.18588e-28
2.98984e-28
3.64622e-28
3.40848e-28
3.55242e-28
3.30596e-28
3.59486e-28
3.39614e-28
4.45309e-28
4.2316e-28
4.14621e-28
3.96861e-28
4.66619e-28
4.60017e-28
4.89823e-28
4.39395e-28
4.84333e-28
3.72124e-28
1.7362e-28
5.205e-28
6.83746e-28
4.64841e-28
4.2168e-28
4.77622e-28
6.55183e-28
8.22143e-28
9.56611e-28
1.57078e-27
2.94366e-27
5.2046e-27
1.77087e-26
4.85506e-26
8.39617e-26
2.06938e-23
4.78263e-23
1.4463e-22
7.59605e-24
2.02938e-22
5.22957e-25
6.6422e-24
4.84775e-25
1.92788e-27
1.54521e-27
1.40362e-28
2.63775e-28
2.83609e-28
1.77206e-28
1.96661e-28
2.54327e-28
2.29362e-28
2.27097e-28
2.05854e-28
3.15539e-28
2.95109e-28
2.64582e-28
2.50568e-28
3.5332e-28
3.18407e-28
3.19986e-28
2.9526e-28
3.47114e-28
3.23122e-28
3.99086e-28
3.6756e-28
3.87416e-28
3.62174e-28
3.99796e-28
3.80159e-28
5.06413e-28
4.78616e-28
4.79441e-28
4.75844e-28
5.87629e-28
6.13296e-28
7.33301e-28
9.29599e-28
1.68812e-27
7.99774e-28
2.3114e-29
9.34844e-28
8.21639e-28
7.52464e-28
6.43534e-28
8.44054e-28
1.19618e-27
1.61543e-27
2.10188e-27
3.57914e-27
6.8907e-27
1.24205e-26
4.01932e-26
1.00828e-25
8.35553e-26
2.80245e-23
8.07649e-23
1.69106e-22
1.29078e-23
2.55578e-22
1.08243e-24
7.92512e-24
7.29379e-25
3.91304e-27
2.17379e-27
9.55801e-29
2.8881e-28
3.21621e-28
1.85008e-28
2.09029e-28
2.75477e-28
2.4404e-28
2.4303e-28
2.21564e-28
3.44621e-28
3.1229e-28
2.81882e-28
2.68677e-28
3.84701e-28
3.38419e-28
3.42379e-28
3.16857e-28
3.78693e-28
3.49228e-28
4.3562e-28
3.97267e-28
4.23888e-28
3.97471e-28
4.46473e-28
4.26599e-28
5.76209e-28
5.45157e-28
5.60726e-28
5.78874e-28
7.56025e-28
8.45288e-28
1.17332e-27
2.05543e-27
3.34155e-27
7.84629e-29
5.59257e-29
1.09107e-27
1.02845e-27
1.22051e-27
9.78248e-28
1.45424e-27
2.10807e-27
3.00386e-27
4.22322e-27
7.34272e-27
1.43209e-26
2.59684e-26
7.99323e-26
1.84374e-25
8.30803e-26
3.80241e-23
1.30288e-22
1.87744e-22
2.41738e-23
3.10604e-22
1.83373e-24
9.40163e-24
1.02179e-24
8.55262e-27
2.84543e-27
5.33965e-29
3.17927e-28
3.63863e-28
1.93391e-28
2.20861e-28
2.99735e-28
2.58602e-28
2.60248e-28
2.38314e-28
3.76139e-28
3.29617e-28
3.00265e-28
2.88233e-28
4.18945e-28
3.58922e-28
3.66478e-28
3.40769e-28
4.12705e-28
3.77521e-28
4.76246e-28
4.293e-28
4.63737e-28
4.37364e-28
4.98193e-28
4.78195e-28
6.52894e-28
6.13444e-28
6.38646e-28
6.64515e-28
8.6213e-28
9.08775e-28
1.20061e-27
1.92547e-27
1.96448e-28
2.91353e-27
5.44591e-27
1.74015e-28
2.28355e-27
1.51067e-27
1.65127e-27
2.2964e-27
3.62594e-27
5.23944e-27
7.81986e-27
1.37366e-26
2.6766e-26
4.84983e-26
1.4156e-25
3.02598e-25
8.20757e-26
5.1727e-23
2.06325e-22
1.96755e-22
4.21926e-23
3.66811e-22
2.98731e-24
1.15226e-23
1.34437e-24
1.9122e-26
3.36017e-27
2.49425e-29
3.48748e-28
4.15045e-28
1.99675e-28
2.34334e-28
3.24869e-28
2.74577e-28
2.78756e-28
2.56272e-28
4.07917e-28
3.48291e-28
3.19691e-28
3.09525e-28
4.54056e-28
3.80926e-28
3.92775e-28
3.66934e-28
4.49779e-28
4.08223e-28
5.18217e-28
4.64793e-28
5.08919e-28
4.81555e-28
5.56812e-28
5.36775e-28
7.39598e-28
6.97781e-28
7.45016e-28
8.04181e-28
1.1056e-27
1.28599e-27
2.2964e-27
5.81422e-27
1.18991e-26
1.01328e-26
3.29917e-31
4.3381e-28
2.66684e-27
2.40354e-27
2.43623e-27
3.62428e-27
5.87081e-27
8.64922e-27
1.34143e-26
2.35392e-26
4.55614e-26
8.15186e-26
2.26451e-25
4.47546e-25
9.21945e-26
7.13309e-23
3.09387e-22
2.00001e-22
7.57568e-23
4.34462e-22
3.98673e-24
1.4253e-23
1.66373e-24
3.94272e-26
3.77109e-27
1.28566e-29
3.91087e-28
4.714e-28
2.04214e-28
2.49154e-28
3.51716e-28
2.91906e-28
2.96855e-28
2.75838e-28
4.42377e-28
3.67359e-28
3.39608e-28
3.32603e-28
4.92427e-28
4.03723e-28
4.2009e-28
3.96145e-28
4.88842e-28
4.41106e-28
5.64986e-28
5.03129e-28
5.57301e-28
5.32071e-28
6.21427e-28
6.03887e-28
8.44501e-28
8.03638e-28
8.92778e-28
1.03205e-27
1.56856e-27
2.19422e-27
5.35791e-27
2.03044e-26
1.58937e-25
4.26076e-28
2.21516e-26
1.96806e-27
2.41862e-27
4.01044e-27
3.31887e-27
5.65421e-27
8.9511e-27
1.35486e-26
2.13155e-26
3.74191e-26
7.11993e-26
1.25454e-25
3.32584e-25
6.10315e-25
1.14755e-25
9.79349e-23
4.51304e-22
1.93401e-22
1.29439e-22
5.2709e-22
4.61089e-24
1.82776e-23
1.94214e-24
7.53624e-26
3.87503e-27
1.80603e-29
4.49118e-28
5.32737e-28
2.06187e-28
2.66455e-28
3.79071e-28
3.10751e-28
3.16206e-28
2.96857e-28
4.76496e-28
3.88319e-28
3.60777e-28
3.57833e-28
5.31153e-28
4.28628e-28
4.49513e-28
4.27685e-28
5.30802e-28
4.76379e-28
6.13453e-28
5.45397e-28
6.09412e-28
5.85991e-28
6.89896e-28
6.71562e-28
9.41793e-28
8.89539e-28
9.83105e-28
1.10957e-27
1.56792e-27
1.86838e-27
3.39426e-27
8.14761e-27
1.85953e-26
1.18653e-26
3.75234e-30
5.93623e-28
5.2457e-27
4.39515e-27
5.18128e-27
8.00246e-27
1.32772e-26
1.98428e-26
3.18165e-26
5.51106e-26
1.03256e-25
1.77998e-25
4.55031e-25
7.79611e-25
1.60525e-25
1.32432e-22
6.29476e-22
1.81698e-22
2.1123e-22
6.305e-22
4.76569e-24
2.39752e-23
2.09775e-24
1.30609e-25
3.67868e-27
5.67177e-29
5.48088e-28
5.8422e-28
2.0961e-28
2.82735e-28
4.11437e-28
3.28172e-28
3.3773e-28
3.18403e-28
5.13862e-28
4.0893e-28
3.83621e-28
3.84561e-28
5.73036e-28
4.53932e-28
4.81063e-28
4.61805e-28
5.74942e-28
5.13905e-28
6.66312e-28
5.90448e-28
6.64564e-28
6.45581e-28
7.62399e-28
7.45445e-28
1.04782e-27
9.82322e-28
1.08122e-27
1.19972e-27
1.59321e-27
1.6505e-27
2.02342e-27
2.44182e-27
6.01705e-29
5.1049e-27
4.78726e-27
1.82111e-27
6.5296e-27
5.86718e-27
7.00417e-27
1.12221e-26
1.83959e-26
2.75609e-26
4.42767e-26
7.58002e-26
1.39042e-25
2.34671e-25
5.80547e-25
9.34836e-25
2.3963e-25
1.75832e-22
8.50951e-22
1.63528e-22
3.18728e-22
7.54215e-22
4.56241e-24
3.2245e-23
2.12022e-24
2.12227e-25
2.93041e-27
1.47527e-28
6.87646e-28
6.3249e-28
2.10439e-28
3.02649e-28
4.448e-28
3.46621e-28
3.61971e-28
3.41349e-28
5.50781e-28
4.31371e-28
4.08407e-28
4.13557e-28
6.14856e-28
4.81166e-28
5.15568e-28
4.98145e-28
6.22158e-28
5.54173e-28
7.19641e-28
6.39271e-28
7.25449e-28
7.09656e-28
8.42066e-28
8.28606e-28
1.16593e-27
1.10336e-27
1.23661e-27
1.41149e-27
1.96359e-27
2.21089e-27
3.00841e-27
4.34275e-27
5.07236e-27
3.99962e-28
2.42745e-28
6.76749e-27
6.75294e-27
7.90732e-27
8.98868e-27
1.49307e-26
2.4227e-26
3.59489e-26
5.80238e-26
9.70445e-26
1.75014e-25
2.87559e-25
6.93965e-25
1.05323e-24
3.88201e-25
2.28975e-22
1.09216e-21
1.44249e-22
4.62761e-22
8.87402e-22
3.88582e-24
4.28701e-23
1.97045e-24
3.18724e-25
1.94251e-27
3.00992e-28
8.96353e-28
6.69424e-28
2.09041e-28
3.27318e-28
4.77566e-28
3.67424e-28
3.85432e-28
3.66573e-28
5.88638e-28
4.54753e-28
4.33325e-28
4.44896e-28
6.5814e-28
5.09635e-28
5.50522e-28
5.37884e-28
6.69656e-28
5.96257e-28
7.75702e-28
6.89846e-28
7.86623e-28
7.77e-28
9.19325e-28
9.08614e-28
1.27319e-27
1.19806e-27
1.33237e-27
1.50383e-27
2.00749e-27
2.12833e-27
2.54862e-27
2.93694e-27
4.21899e-27
3.13445e-27
1.78361e-27
6.75479e-27
9.63322e-27
8.77369e-27
1.19285e-26
1.85647e-26
3.05658e-26
4.43258e-26
7.13717e-26
1.16627e-25
2.05264e-25
3.28805e-25
7.76823e-25
1.1152e-24
6.26967e-25
2.91007e-22
1.35103e-21
1.22826e-22
6.40514e-22
1.03624e-21
2.99248e-24
5.59418e-23
1.68058e-24
4.43741e-25
1.0361e-27
4.99458e-28
1.18854e-27
6.97344e-28
2.03786e-28
3.59784e-28
5.05254e-28
3.9246e-28
4.07044e-28
3.94424e-28
6.23898e-28
4.81247e-28
4.58088e-28
4.78722e-28
6.9985e-28
5.40519e-28
5.85063e-28
5.79878e-28
7.16435e-28
6.39373e-28
8.31377e-28
7.42421e-28
8.46583e-28
8.45445e-28
9.94703e-28
9.8626e-28
1.37528e-27
1.28667e-27
1.4138e-27
1.57746e-27
1.99053e-27
1.97405e-27
1.97373e-27
1.65146e-27
1.5405e-27
1.72064e-27
4.26719e-27
8.86557e-27
1.06193e-26
1.05788e-26
1.43931e-26
2.25402e-26
3.61333e-26
5.18584e-26
8.19931e-26
1.30824e-25
2.23578e-25
3.48353e-25
8.1135e-25
1.09841e-24
9.93172e-25
3.58548e-22
1.59961e-21
1.07295e-22
8.43201e-22
1.18704e-21
2.17668e-24
7.04939e-23
1.29897e-24
5.71113e-25
5.17645e-28
7.68413e-28
1.65172e-27
6.8962e-28
2.03651e-28
3.87007e-28
5.39652e-28
4.11962e-28
4.31323e-28
4.18317e-28
6.62874e-28
5.04664e-28
4.83365e-28
5.09716e-28
7.42801e-28
5.68184e-28
6.192e-28
6.1988e-28
7.60686e-28
6.7989e-28
8.86186e-28
7.91892e-28
9.01856e-28
9.1101e-28
1.06196e-27
1.05927e-27
1.4718e-27
1.37155e-27
1.49365e-27
1.67425e-27
2.05307e-27
2.02596e-27
1.99509e-27
1.5943e-27
1.34645e-27
2.64563e-27
5.97277e-27
1.08152e-26
1.14735e-26
1.20974e-26
1.65704e-26
2.57465e-26
4.01756e-26
5.68373e-26
8.73247e-26
1.3624e-25
2.24094e-25
3.38484e-25
7.80042e-25
1.00172e-24
1.50617e-24
4.25206e-22
1.80992e-21
1.00174e-22
1.08706e-21
1.36058e-21
1.6764e-24
8.70014e-23
9.12447e-25
6.94033e-25
3.57934e-28
1.1868e-27
2.45748e-27
6.29613e-28
2.16529e-28
3.95346e-28
5.96779e-28
4.14846e-28
4.73242e-28
4.276e-28
7.09174e-28
5.19585e-28
5.16543e-28
5.29658e-28
7.87987e-28
5.89316e-28
6.59625e-28
6.51938e-28
8.08014e-28
7.14233e-28
9.34522e-28
8.37687e-28
9.55665e-28
9.67983e-28
1.12251e-27
1.12061e-27
1.53768e-27
1.44258e-27
1.5428e-27
1.73013e-27
2.0536e-27
2.01682e-27
1.98514e-27
1.65236e-27
1.35103e-27
3.43502e-27
8.03588e-27
1.16715e-26
1.21648e-26
1.31687e-26
1.80553e-26
2.77807e-26
4.16471e-26
5.84977e-26
8.59289e-26
1.31848e-25
2.06114e-25
3.03421e-25
6.94045e-25
8.82741e-25
2.07693e-24
4.84152e-22
1.9996e-21
1.1064e-22
1.32998e-21
1.59097e-21
1.49885e-24
1.07813e-22
5.93475e-25
8.62921e-25
5.39451e-28
1.64352e-27
3.77215e-27
5.91052e-28
2.21772e-28
4.34059e-28
6.65575e-28
4.37975e-28
5.19507e-28
4.58794e-28
7.79974e-28
5.55544e-28
5.5703e-28
5.73781e-28
8.56935e-28
6.33859e-28
7.13092e-28
7.07653e-28
8.7538e-28
7.71065e-28
1.0121e-27
9.07764e-28
1.03114e-27
1.05278e-27
1.20701e-27
1.20984e-27
1.65104e-27
1.53927e-27
1.61369e-27
1.8115e-27
2.09785e-27
2.03176e-27
2.00802e-27
1.76957e-27
1.43734e-27
4.26642e-27
1.01553e-26
1.22758e-26
1.2785e-26
1.40596e-26
1.9215e-26
2.88733e-26
4.19913e-26
5.74015e-26
8.11902e-26
1.20709e-25
1.80893e-25
2.58216e-25
5.98883e-25
7.63926e-25
2.80803e-24
5.48062e-22
2.14872e-21
1.48482e-22
1.05881e-27
1.82588e-28
3.5281e-29
8.15656e-28
2.07402e-28
1.12043e-31
6.8378e-29
2.15781e-29
4.83947e-29
3.35986e-29
4.58677e-29
3.56244e-29
5.10239e-29
4.29731e-29
4.87581e-29
3.85697e-29
5.73154e-29
5.58819e-29
5.69875e-29
5.16457e-29
6.51194e-29
6.4603e-29
6.71535e-29
6.39769e-29
6.70844e-29
6.51954e-29
7.50949e-29
7.47081e-29
7.57765e-29
7.47661e-29
7.166e-29
6.99549e-29
8.11182e-29
8.19232e-29
7.71167e-29
7.22458e-29
6.87643e-29
6.53005e-29
6.47511e-29
5.66747e-29
4.78106e-29
3.80505e-29
4.33098e-29
3.95115e-29
3.12475e-29
2.79369e-29
1.29707e-29
7.85677e-30
2.26011e-30
7.16318e-31
1.20515e-31
2.93104e-30
2.6965e-29
9.41403e-29
4.68313e-28
1.75073e-28
3.04272e-27
1.66634e-25
2.64785e-25
1.96673e-26
1.60195e-25
5.46131e-27
5.59412e-27
8.35258e-27
1.67364e-28
3.21484e-30
1.29311e-28
5.60883e-29
6.88419e-29
1.05622e-28
6.77183e-29
9.96295e-29
8.26486e-29
1.12367e-28
8.75241e-29
9.18854e-29
1.0164e-28
1.34301e-28
1.10272e-28
1.13086e-28
1.23861e-28
1.46056e-28
1.31021e-28
1.39183e-28
1.31627e-28
1.39259e-28
1.4655e-28
1.6119e-28
1.50418e-28
1.56915e-28
1.44025e-28
1.42735e-28
1.57782e-28
1.72513e-28
1.54578e-28
1.44322e-28
1.36997e-28
1.27896e-28
1.27545e-28
1.17587e-28
9.82964e-29
9.29435e-29
8.47276e-29
6.71463e-29
6.27146e-29
5.15687e-29
2.65125e-29
1.13166e-29
4.37385e-30
6.7147e-31
1.96663e-31
1.01344e-29
5.04751e-29
2.82752e-28
8.53276e-28
8.14937e-28
3.92734e-27
4.1015e-25
1.53225e-24
1.36017e-26
4.34045e-25
5.03578e-26
3.17797e-26
9.81098e-27
5.8046e-28
3.1298e-30
1.62915e-28
9.13853e-29
9.58023e-29
1.39756e-28
1.05805e-28
1.2765e-28
1.28073e-28
1.45e-28
1.30396e-28
1.25613e-28
1.52071e-28
1.77855e-28
1.61895e-28
1.56746e-28
1.80349e-28
1.98976e-28
1.88694e-28
1.93266e-28
1.87988e-28
1.96511e-28
2.09372e-28
2.238e-28
2.14294e-28
2.1972e-28
2.0323e-28
2.05301e-28
2.23535e-28
2.39914e-28
2.18522e-28
2.04155e-28
1.93702e-28
1.83718e-28
1.83622e-28
1.70941e-28
1.51236e-28
1.37602e-28
1.11949e-28
9.68429e-29
9.04409e-29
7.19546e-29
3.68283e-29
1.72816e-29
5.89649e-30
1.42727e-30
3.83768e-31
1.01816e-29
8.28372e-29
3.32669e-28
1.24349e-27
7.26261e-28
1.29113e-26
6.82139e-25
1.61542e-24
1.36618e-25
1.70604e-24
5.14928e-25
1.14703e-25
4.57285e-26
6.7528e-28
5.34202e-30
1.65133e-28
1.00435e-28
9.95564e-29
1.39126e-28
1.1138e-28
1.2644e-28
1.33824e-28
1.44693e-28
1.35628e-28
1.25368e-28
1.56383e-28
1.79198e-28
1.66611e-28
1.56918e-28
1.85043e-28
2.00356e-28
1.9336e-28
1.94168e-28
1.9245e-28
1.9839e-28
2.13156e-28
2.27099e-28
2.18495e-28
2.21806e-28
2.07983e-28
2.07882e-28
2.27364e-28
2.45153e-28
2.23115e-28
2.07932e-28
2.00327e-28
1.8945e-28
1.95024e-28
1.80698e-28
1.66527e-28
1.41732e-28
1.07046e-28
1.02099e-28
9.54534e-29
7.37549e-29
4.01071e-29
1.78122e-29
7.37482e-30
2.0061e-30
1.99787e-31
1.09871e-29
6.94126e-29
3.06659e-28
1.05186e-27
6.20205e-28
1.67015e-26
1.03243e-24
2.34271e-24
8.1236e-25
3.44636e-24
2.50299e-24
1.88874e-25
1.59413e-25
1.61444e-27
1.33999e-29
1.82566e-28
1.1633e-28
1.01872e-28
1.49081e-28
1.10017e-28
1.34534e-28
1.35023e-28
1.52776e-28
1.3724e-28
1.30417e-28
1.59066e-28
1.87385e-28
1.69372e-28
1.60433e-28
1.89971e-28
2.06208e-28
1.9744e-28
1.98324e-28
1.96723e-28
2.03067e-28
2.18736e-28
2.33413e-28
2.23027e-28
2.2734e-28
2.13001e-28
2.12771e-28
2.34224e-28
2.55006e-28
2.28658e-28
2.15851e-28
2.08271e-28
1.99771e-28
2.07854e-28
1.92173e-28
1.79034e-28
1.40258e-28
1.05917e-28
1.11401e-28
1.01264e-28
8.01744e-29
4.36979e-29
2.04757e-29
9.80451e-30
3.64221e-30
1.25905e-31
1.06046e-29
5.55888e-29
2.74174e-28
8.18731e-28
4.60992e-28
2.45555e-26
1.6802e-24
3.14202e-24
3.40122e-24
4.90006e-24
7.53409e-24
2.06056e-25
3.98333e-25
4.27846e-27
3.52535e-29
2.19307e-28
1.37353e-28
1.11908e-28
1.62907e-28
1.11247e-28
1.46121e-28
1.39449e-28
1.6536e-28
1.41437e-28
1.39949e-28
1.66904e-28
2.01926e-28
1.75776e-28
1.70077e-28
2.00545e-28
2.19151e-28
2.06906e-28
2.08932e-28
2.06789e-28
2.14805e-28
2.31391e-28
2.47397e-28
2.34714e-28
2.40241e-28
2.24422e-28
2.25652e-28
2.50192e-28
2.73723e-28
2.41841e-28
2.31774e-28
2.23129e-28
2.18031e-28
2.2585e-28
2.09657e-28
1.95571e-28
1.48959e-28
1.13649e-28
1.24791e-28
1.13991e-28
9.34627e-29
5.01995e-29
2.69126e-29
1.44984e-29
7.76956e-30
3.38884e-31
1.09386e-29
4.20445e-29
2.34618e-28
5.69681e-28
2.84693e-28
3.66493e-26
2.699e-24
3.95177e-24
9.62711e-24
5.74875e-24
1.73e-23
1.69422e-25
8.11747e-25
1.06657e-26
7.60849e-29
2.74235e-28
1.61017e-28
1.2831e-28
1.76176e-28
1.16061e-28
1.56875e-28
1.47264e-28
1.78345e-28
1.47428e-28
1.51379e-28
1.78319e-28
2.18763e-28
1.84061e-28
1.82925e-28
2.14359e-28
2.35218e-28
2.18642e-28
2.2263e-28
2.19711e-28
2.30644e-28
2.48186e-28
2.64567e-28
2.49772e-28
2.56725e-28
2.39352e-28
2.43589e-28
2.71378e-28
2.96209e-28
2.58563e-28
2.5125e-28
2.41532e-28
2.40571e-28
2.47517e-28
2.32562e-28
2.19318e-28
1.65782e-28
1.27748e-28
1.41777e-28
1.36024e-28
1.13233e-28
6.12746e-29
3.88911e-29
2.38874e-29
1.74542e-29
2.11922e-30
1.42151e-29
3.34755e-29
1.90695e-28
3.60274e-28
1.76085e-28
4.93279e-26
4.13433e-24
5.18533e-24
2.1135e-23
5.77986e-24
3.28258e-23
1.06019e-25
1.42086e-24
2.39583e-26
1.34618e-28
3.46764e-28
1.84503e-28
1.48096e-28
1.90107e-28
1.22958e-28
1.66616e-28
1.57382e-28
1.91172e-28
1.54874e-28
1.63584e-28
1.91674e-28
2.36485e-28
1.93185e-28
1.97057e-28
2.29651e-28
2.52966e-28
2.31251e-28
2.37794e-28
2.34227e-28
2.48551e-28
2.66026e-28
2.83783e-28
2.66571e-28
2.74714e-28
2.56176e-28
2.63761e-28
2.94604e-28
3.20565e-28
2.76714e-28
2.72236e-28
2.62185e-28
2.66091e-28
2.7202e-28
2.63318e-28
2.5219e-28
1.95319e-28
1.49953e-28
1.62388e-28
1.6982e-28
1.4189e-28
7.99013e-29
6.05076e-29
4.27711e-29
3.99157e-29
1.02029e-29
2.913e-29
4.07146e-29
1.74352e-28
2.84455e-28
3.43708e-28
6.26563e-26
6.03164e-24
7.02866e-24
3.82632e-23
5.39341e-24
5.49392e-23
5.1578e-26
2.23557e-24
5.00811e-26
2.16084e-28
4.49806e-28
2.01766e-28
1.69021e-28
2.06391e-28
1.30778e-28
1.76331e-28
1.69709e-28
2.04015e-28
1.63454e-28
1.76695e-28
2.07694e-28
2.54804e-28
2.02987e-28
2.1222e-28
2.473e-28
2.71768e-28
2.44362e-28
2.54359e-28
2.5011e-28
2.68214e-28
2.86058e-28
3.04343e-28
2.84024e-28
2.94484e-28
2.74549e-28
2.86071e-28
3.20744e-28
3.46389e-28
2.95735e-28
2.95425e-28
2.85906e-28
2.95896e-28
3.02663e-28
3.05767e-28
2.96915e-28
2.40351e-28
1.79729e-28
1.89234e-28
2.21155e-28
1.8433e-28
1.11414e-28
9.93149e-29
8.20006e-29
9.07549e-29
3.953e-29
8.12236e-29
9.95545e-29
2.60027e-28
5.60899e-28
1.59425e-27
7.24117e-26
8.44365e-24
1.06662e-23
6.09586e-23
4.79017e-24
8.35607e-23
3.22313e-26
3.21181e-24
9.73619e-26
3.31267e-28
6.01647e-28
2.0879e-28
1.91336e-28
2.25475e-28
1.39369e-28
1.86429e-28
1.83924e-28
2.17133e-28
1.73825e-28
1.90364e-28
2.2571e-28
2.73614e-28
2.13936e-28
2.28129e-28
2.66713e-28
2.9146e-28
2.58779e-28
2.71867e-28
2.67989e-28
2.89334e-28
3.07037e-28
3.26611e-28
3.03112e-28
3.15567e-28
2.95052e-28
3.10479e-28
3.48719e-28
3.74576e-28
3.17174e-28
3.21733e-28
3.14495e-28
3.31545e-28
3.39854e-28
3.6366e-28
3.57553e-28
2.94417e-28
2.19797e-28
2.25258e-28
2.96152e-28
2.4924e-28
1.65281e-28
1.68908e-28
1.62313e-28
2.0112e-28
1.29153e-28
2.38217e-28
3.31348e-28
6.68989e-28
1.94958e-27
6.53507e-27
8.01614e-26
1.14618e-23
1.6975e-23
8.76772e-23
4.75238e-24
1.18479e-22
5.31787e-26
4.304e-24
1.76992e-25
5.2534e-28
8.33031e-28
2.00181e-28
2.15126e-28
2.47093e-28
1.48868e-28
1.96581e-28
2.00478e-28
2.3028e-28
1.85544e-28
2.04953e-28
2.46415e-28
2.92563e-28
2.25887e-28
2.45173e-28
2.88646e-28
3.11481e-28
2.74221e-28
2.9049e-28
2.8768e-28
3.11924e-28
3.30468e-28
3.49832e-28
3.23345e-28
3.38761e-28
3.17761e-28
3.3784e-28
3.80378e-28
4.05376e-28
3.41526e-28
3.52677e-28
3.49138e-28
3.74165e-28
3.85727e-28
4.37062e-28
4.21721e-28
3.78685e-28
2.79814e-28
2.71432e-28
4.08065e-28
3.47879e-28
2.56213e-28
2.91898e-28
3.20783e-28
4.28512e-28
3.64634e-28
6.61239e-28
1.04229e-27
1.99291e-27
6.38523e-27
2.01929e-26
8.27081e-26
1.53664e-23
2.90782e-23
1.16686e-22
5.20988e-24
1.5899e-22
1.90363e-25
5.46661e-24
3.02834e-25
9.62812e-28
1.09473e-27
1.82739e-28
2.35871e-28
2.75452e-28
1.57477e-28
2.08313e-28
2.17713e-28
2.44953e-28
1.9808e-28
2.20785e-28
2.6831e-28
3.12452e-28
2.38405e-28
2.6364e-28
3.11754e-28
3.32511e-28
2.90722e-28
3.10402e-28
3.09443e-28
3.35975e-28
3.54557e-28
3.74809e-28
3.45982e-28
3.63943e-28
3.43432e-28
3.68062e-28
4.15114e-28
4.40133e-28
3.70307e-28
3.89269e-28
3.91496e-28
4.25162e-28
4.41181e-28
5.35862e-28
5.05093e-28
4.67011e-28
3.75254e-28
3.34123e-28
5.67773e-28
4.99339e-28
4.0742e-28
5.05625e-28
6.17214e-28
8.70012e-28
9.10377e-28
1.65475e-27
2.84098e-27
5.41607e-27
1.73483e-26
4.98115e-26
8.54665e-26
2.07267e-23
4.83028e-23
1.45211e-22
7.65985e-24
2.03926e-22
5.03563e-25
6.63557e-24
4.82758e-25
1.92082e-27
1.51613e-27
1.48042e-28
2.57917e-28
3.09535e-28
1.65386e-28
2.21207e-28
2.36071e-28
2.61004e-28
2.10472e-28
2.38281e-28
2.92376e-28
3.32806e-28
2.51005e-28
2.837e-28
3.37133e-28
3.54258e-28
3.07485e-28
3.32358e-28
3.32657e-28
3.61548e-28
3.81546e-28
4.0129e-28
3.69846e-28
3.92603e-28
3.71932e-28
4.01926e-28
4.5593e-28
4.79192e-28
4.0373e-28
4.33858e-28
4.4321e-28
4.87236e-28
5.12647e-28
6.7017e-28
6.00953e-28
5.83117e-28
5.13841e-28
4.1681e-28
7.9565e-28
7.30813e-28
6.52893e-28
8.72561e-28
1.15039e-27
1.68613e-27
2.0281e-27
3.73011e-27
6.71061e-27
1.28238e-26
3.95925e-26
1.03079e-25
8.51135e-26
2.80617e-23
8.14861e-23
1.69816e-22
1.30506e-23
2.57091e-22
1.04645e-24
7.9135e-24
7.28043e-25
3.93829e-27
2.15565e-27
9.99904e-29
2.83836e-28
3.48736e-28
1.72987e-28
2.34898e-28
2.55404e-28
2.78114e-28
2.24007e-28
2.56993e-28
3.16822e-28
3.54208e-28
2.64346e-28
3.05384e-28
3.63009e-28
3.77377e-28
3.25375e-28
3.56013e-28
3.58e-28
3.88902e-28
4.09495e-28
4.30488e-28
3.96478e-28
4.24297e-28
4.04643e-28
4.39983e-28
5.00861e-28
5.24598e-28
4.44092e-28
4.87061e-28
5.06224e-28
5.60667e-28
5.97491e-28
8.30683e-28
6.86784e-28
6.88661e-28
7.13602e-28
5.18631e-28
1.11796e-27
1.08021e-27
1.04963e-27
1.48498e-27
2.05324e-27
3.10612e-27
4.11532e-27
7.59303e-27
1.40389e-26
2.66684e-26
7.90708e-26
1.88158e-25
8.45688e-26
3.80514e-23
1.31411e-22
1.88652e-22
2.45436e-23
3.12684e-22
1.77465e-24
9.37733e-24
1.02172e-24
8.6198e-27
2.82722e-27
5.5577e-29
3.1216e-28
3.92934e-28
1.80943e-28
2.47903e-28
2.77757e-28
2.9483e-28
2.38784e-28
2.76651e-28
3.43635e-28
3.75489e-28
2.78587e-28
3.28583e-28
3.91174e-28
4.00993e-28
3.44285e-28
3.81957e-28
3.85096e-28
4.18311e-28
4.40626e-28
4.61873e-28
4.25364e-28
4.60545e-28
4.41185e-28
4.83414e-28
5.52679e-28
5.76118e-28
4.91041e-28
5.49736e-28
5.7909e-28
6.42738e-28
6.9329e-28
1.00459e-27
7.94725e-28
9.37274e-28
1.03748e-27
6.36511e-28
1.58865e-27
1.57053e-27
1.64912e-27
2.4006e-27
3.52129e-27
5.40652e-27
7.65775e-27
1.41391e-26
2.63483e-26
4.96338e-26
1.40375e-25
3.08203e-25
8.342e-26
5.17531e-23
2.0829e-22
1.9793e-22
4.26808e-23
3.6938e-22
2.914e-24
1.14846e-23
1.34736e-24
1.93079e-26
3.30751e-27
2.54424e-29
3.40135e-28
4.47785e-28
1.86378e-28
2.62905e-28
3.00681e-28
3.13082e-28
2.5463e-28
2.97593e-28
3.70479e-28
3.98145e-28
2.93579e-28
3.5369e-28
4.19607e-28
4.26291e-28
3.64692e-28
4.10216e-28
4.14551e-28
4.50202e-28
4.72332e-28
4.96859e-28
4.58466e-28
5.01126e-28
4.82775e-28
5.32597e-28
6.09956e-28
6.36802e-28
5.48285e-28
6.26617e-28
6.71871e-28
7.54116e-28
8.38007e-28
1.30264e-27
1.23385e-27
1.13822e-27
1.39599e-27
8.72002e-28
2.18336e-27
2.25969e-27