/*--------------------------------*- C++ -*----------------------------------*\
| =========                 |                                                 |
| \\      /  F ield         | OpenFOAM: The Open Source CFD Toolbox           |
|  \\    /   O peration     | Version:  2312                                  |
|   \\  /    A nd           | Website:  www.openfoam.com                      |
|    \\/     M anipulation  |                                                 |
\*---------------------------------------------------------------------------*/
FoamFile
{
    version     2.0;
    format      ascii;
    arch        "LSB;label=32;scalar=64";
    class       volScalarField;
    location    "480";
    object      p;
}
// * * * * * * * * * * * * * * * * * * * * * * * * * * * * * * * * * * * * * //

dimensions      [0 2 -2 0 0 0 0];

internalField   nonuniform List<scalar> 
144000
(
2.85476e-10
2.17032e-10
-1.20573e-10
-3.61854e-10
-3.48816e-10
-2.69775e-10
-1.73911e-10
-1.23331e-10
-7.52589e-11
-6.4842e-11
-4.01666e-11
-4.21029e-11
-2.38478e-11
-3.01121e-11
-1.27756e-11
-1.95984e-11
-5.31874e-12
-1.58532e-11
5.64579e-13
-7.64878e-12
7.78263e-12
-3.54955e-12
1.19881e-11
1.21815e-12
1.68322e-11
5.84205e-12
2.07169e-11
7.98422e-12
2.32755e-11
1.13862e-11
2.7213e-11
1.5732e-11
2.98342e-11
1.56545e-11
3.03337e-11
1.79483e-11
3.22363e-11
2.00717e-11
3.28278e-11
1.9649e-11
3.09626e-11
1.99423e-11
3.04163e-11
1.84785e-11
2.80555e-11
1.66404e-11
2.53088e-11
1.89089e-11
2.4339e-11
2.12036e-11
2.32093e-11
2.63882e-11
1.50579e-11
1.73506e-11
-1.72029e-11
-6.63029e-12
-7.16734e-11
-1.54144e-10
-5.50837e-10
-1.11977e-10
3.025e-10
2.25816e-10
-1.24428e-10
-3.65593e-10
-3.50537e-10
-2.70126e-10
-1.74096e-10
-1.23395e-10
-7.54689e-11
-6.49739e-11
-4.03919e-11
-4.21997e-11
-2.40386e-11
-3.01781e-11
-1.29257e-11
-1.96159e-11
-5.4542e-12
-1.5879e-11
4.41075e-13
-7.63457e-12
7.6692e-12
-3.53991e-12
1.18822e-11
1.25443e-12
1.67371e-11
5.88698e-12
2.06198e-11
8.02467e-12
2.31817e-11
1.14434e-11
2.71303e-11
1.58013e-11
2.97468e-11
1.57073e-11
3.02499e-11
1.80248e-11
3.21655e-11
2.01499e-11
3.27632e-11
1.97085e-11
3.08491e-11
1.98964e-11
3.02698e-11
1.85651e-11
2.80231e-11
1.67496e-11
2.52971e-11
1.90526e-11
2.4369e-11
2.13451e-11
2.3319e-11
2.6571e-11
1.52885e-11
1.74973e-11
-1.67743e-11
-6.20676e-12
-6.90858e-11
-1.51515e-10
-5.62589e-10
-1.20769e-10
3.23504e-10
2.34203e-10
-1.28978e-10
-3.69878e-10
-3.52793e-10
-2.70795e-10
-1.74289e-10
-1.23537e-10
-7.56157e-11
-6.52087e-11
-4.06008e-11
-4.24166e-11
-2.4198e-11
-3.03602e-11
-1.30474e-11
-1.97285e-11
-5.51946e-12
-1.60049e-11
3.58883e-13
-7.71681e-12
7.62453e-12
-3.627e-12
1.18368e-11
1.2036e-12
1.6712e-11
5.84432e-12
2.0603e-11
7.97523e-12
2.31621e-11
1.14156e-11
2.71232e-11
1.57866e-11
2.97545e-11
1.56725e-11
3.02443e-11
1.80234e-11
3.2183e-11
2.01525e-11
3.2795e-11
1.97087e-11
3.07992e-11
1.97197e-11
3.01386e-11
1.85471e-11
2.81089e-11
1.68283e-11
2.53793e-11
1.91772e-11
2.45115e-11
2.14733e-11
2.34948e-11
2.67495e-11
1.56257e-11
1.77274e-11
-1.62534e-11
-5.98152e-12
-6.59354e-11
-1.44623e-10
-5.8051e-10
-1.30742e-10
3.47413e-10
2.4033e-10
-1.33397e-10
-3.74069e-10
-3.56016e-10
-2.71811e-10
-1.74495e-10
-1.23622e-10
-7.56964e-11
-6.54645e-11
-4.08422e-11
-4.26895e-11
-2.43838e-11
-3.05962e-11
-1.31996e-11
-1.98753e-11
-5.56978e-12
-1.61696e-11
2.54077e-13
-7.83403e-12
7.59179e-12
-3.746e-12
1.17874e-11
1.12799e-12
1.66978e-11
5.78035e-12
2.06071e-11
7.90114e-12
2.31525e-11
1.13651e-11
2.71328e-11
1.5754e-11
2.98014e-11
1.56132e-11
3.02552e-11
1.80009e-11
3.2238e-11
2.01358e-11
3.2881e-11
1.97073e-11
3.07766e-11
1.94647e-11
2.9951e-11
1.84334e-11
2.82797e-11
1.69048e-11
2.55357e-11
1.92841e-11
2.47745e-11
2.1561e-11
2.38122e-11
2.68608e-11
1.62197e-11
1.78229e-11
-1.53947e-11
-6.2568e-12
-6.10824e-11
-1.34632e-10
-6.03305e-10
-1.40194e-10
3.70697e-10
2.40294e-10
-1.36543e-10
-3.76091e-10
-3.59588e-10
-2.73142e-10
-1.74693e-10
-1.2359e-10
-7.57007e-11
-6.57308e-11
-4.11529e-11
-4.30309e-11
-2.46338e-11
-3.08936e-11
-1.34174e-11
-2.00553e-11
-5.63383e-12
-1.63666e-11
9.74043e-14
-7.9778e-12
7.54783e-12
-3.88382e-12
1.17074e-11
1.03865e-12
1.66716e-11
5.70995e-12
2.06112e-11
7.81867e-12
2.31283e-11
1.13052e-11
2.71382e-11
1.57196e-11
2.98693e-11
1.55458e-11
3.02613e-11
1.79674e-11
3.23156e-11
2.01098e-11
3.30134e-11
1.97203e-11
3.07807e-11
1.91735e-11
2.96589e-11
1.8197e-11
2.85248e-11
1.69807e-11
2.57598e-11
1.93518e-11
2.51672e-11
2.15675e-11
2.42936e-11
2.68297e-11
1.7138e-11
1.76444e-11
-1.4049e-11
-7.3004e-12
-5.42376e-11
-1.22677e-10
-6.29444e-10
-1.45741e-10
3.91395e-10
2.28757e-10
-1.38313e-10
-3.73691e-10
-3.6264e-10
-2.74721e-10
-1.74853e-10
-1.23391e-10
-7.55969e-11
-6.59984e-11
-4.15428e-11
-4.34546e-11
-2.49644e-11
-3.12649e-11
-1.37165e-11
-2.02852e-11
-5.72458e-12
-1.66006e-11
-1.21465e-13
-8.15708e-12
7.48441e-12
-4.04262e-12
1.15885e-11
9.29776e-13
1.66276e-11
5.63017e-12
2.06103e-11
7.72734e-12
2.30844e-11
1.12323e-11
2.71359e-11
1.56807e-11
2.99559e-11
1.54704e-11
3.02604e-11
1.79155e-11
3.24175e-11
2.00671e-11
3.31994e-11
1.97493e-11
3.08326e-11
1.885e-11
2.92211e-11
1.77966e-11
2.88457e-11
1.70458e-11
2.60566e-11
1.93476e-11
2.57034e-11
2.14487e-11
2.49621e-11
2.65789e-11
1.84428e-11
1.70594e-11
-1.20693e-11
-9.36751e-12
-4.52276e-11
-1.09732e-10
-6.58322e-10
-1.42812e-10
4.09676e-10
2.00448e-10
-1.39812e-10
-3.64845e-10
-3.64183e-10
-2.76454e-10
-1.74966e-10
-1.22974e-10
-7.53488e-11
-6.6249e-11
-4.20094e-11
-4.39644e-11
-2.53831e-11
-3.17154e-11
-1.41051e-11
-2.05763e-11
-5.85311e-12
-1.6874e-11
-4.07759e-13
-8.38061e-12
7.39365e-12
-4.22436e-12
1.14255e-11
7.95206e-13
1.65616e-11
5.53719e-12
2.05997e-11
7.62613e-12
2.30177e-11
1.11425e-11
2.71244e-11
1.5633e-11
3.00582e-11
1.53866e-11
3.02531e-11
1.78369e-11
3.25461e-11
1.99988e-11
3.34479e-11
1.9791e-11
3.09751e-11
1.84913e-11
2.85753e-11
1.71891e-11
2.92473e-11
1.70883e-11
2.6436e-11
1.92377e-11
2.63991e-11
2.11618e-11
2.58701e-11
2.6029e-11
2.02016e-11
1.5935e-11
-9.30379e-12
-1.26662e-11
-3.3942e-11
-9.64939e-11
-6.90384e-10
-1.2706e-10
4.27324e-10
1.5096e-10
-1.43042e-10
-3.47878e-10
-3.63133e-10
-2.78227e-10
-1.75047e-10
-1.22301e-10
-7.49251e-11
-6.64629e-11
-4.25465e-11
-4.45577e-11
-2.58936e-11
-3.22451e-11
-1.45874e-11
-2.09351e-11
-6.03093e-12
-1.7186e-11
-7.6448e-13
-8.65332e-12
7.26628e-12
-4.42922e-12
1.12139e-11
6.31171e-13
1.64683e-11
5.42945e-12
2.05729e-11
7.51527e-12
2.2925e-11
1.10339e-11
2.71009e-11
1.55744e-11
3.01705e-11
1.52952e-11
3.02396e-11
1.77254e-11
3.27023e-11
1.98969e-11
3.37679e-11
1.98393e-11
3.12742e-11
1.80635e-11
2.76289e-11
1.63354e-11
2.97369e-11
1.70956e-11
2.69098e-11
1.89895e-11
2.72704e-11
2.06645e-11
2.70521e-11
2.51128e-11
2.24784e-11
1.41633e-11
-5.62827e-12
-1.731e-11
-2.0446e-11
-8.32794e-11
-7.26659e-10
-9.51871e-11
4.47431e-10
7.71816e-11
-1.50705e-10
-3.2164e-10
-3.58359e-10
-2.79902e-10
-1.75143e-10
-1.21355e-10
-7.43024e-11
-6.66228e-11
-4.31472e-11
-4.52292e-11
-2.6497e-11
-3.28509e-11
-1.51641e-11
-2.13643e-11
-6.26804e-12
-1.75346e-11
-1.19204e-12
-8.97739e-12
7.09372e-12
-4.65648e-12
1.0951e-11
4.35608e-13
1.63429e-11
5.30643e-12
2.05238e-11
7.39537e-12
2.28036e-11
1.09056e-11
2.70628e-11
1.5504e-11
3.02863e-11
1.51967e-11
3.02207e-11
1.75764e-11
3.28857e-11
1.97532e-11
3.41705e-11
1.98836e-11
3.18282e-11
1.7519e-11
2.62518e-11
1.51972e-11
3.03259e-11
1.70553e-11
2.74912e-11
1.85748e-11
2.83316e-11
1.99204e-11
2.85394e-11
2.37602e-11
2.53162e-11
1.16826e-11
-9.84748e-13
-2.32823e-11
-4.97926e-12
-7.00827e-11
-7.68514e-10
-4.52299e-11
4.73313e-10
-2.22784e-11
-1.65622e-10
-2.85584e-10
-3.48805e-10
-2.81321e-10
-1.75333e-10
-1.2014e-10
-7.34682e-11
-6.67162e-11
-4.38056e-11
-4.59735e-11
-2.7193e-11
-3.35286e-11
-1.58335e-11
-2.18648e-11
-6.57298e-12
-1.79173e-11
-1.6886e-12
-9.35317e-12
6.86851e-12
-4.90527e-12
1.0636e-11
2.07725e-13
1.61813e-11
5.16806e-12
2.04467e-11
7.26689e-12
2.26526e-11
1.07574e-11
2.70075e-11
1.5421e-11
3.03992e-11
1.50915e-11
3.01978e-11
1.7387e-11
3.30954e-11
1.95599e-11
3.46679e-11
1.99145e-11
3.27668e-11
1.67793e-11
2.42826e-11
1.37494e-11
3.10283e-11
1.69558e-11
2.81919e-11
1.79737e-11
2.95901e-11
1.89045e-11
3.03512e-11
2.19524e-11
2.87209e-11
8.49002e-12
4.60278e-12
-3.04335e-11
1.19737e-11
-5.65853e-11
-8.16936e-10
2.31403e-11
5.08187e-10
-1.4696e-10
-1.90496e-10
-2.39869e-10
-3.33562e-10
-2.82276e-10
-1.75713e-10
-1.18692e-10
-7.24224e-11
-6.67357e-11
-4.45174e-11
-4.67865e-11
-2.79818e-11
-3.42748e-11
-1.65938e-11
-2.2436e-11
-6.95264e-12
-1.83327e-11
-2.25128e-12
-9.77964e-12
6.58467e-12
-5.17507e-12
1.02695e-11
-5.25223e-14
1.59804e-11
5.01444e-12
2.03374e-11
7.13022e-12
2.24717e-11
1.05898e-11
2.69331e-11
1.53256e-11
3.05034e-11
1.49798e-11
3.01721e-11
1.71562e-11
3.33286e-11
1.93108e-11
3.52726e-11
1.99233e-11
3.42673e-11
1.56702e-11
2.1512e-11
1.19818e-11
3.18549e-11
1.67862e-11
2.9018e-11
1.71777e-11
3.10437e-11
1.76093e-11
3.2486e-11
1.96961e-11
3.26541e-11
4.64931e-12
1.10191e-11
-3.84805e-11
2.97899e-11
-4.22715e-11
-8.72441e-10
1.08633e-10
5.54376e-10
-2.94625e-10
-2.2747e-10
-1.85349e-10
-3.11961e-10
-2.82504e-10
-1.76376e-10
-1.17078e-10
-7.11779e-11
-6.66785e-11
-4.52798e-11
-4.76651e-11
-2.88638e-11
-3.50871e-11
-1.74432e-11
-2.3077e-11
-7.41295e-12
-1.87798e-11
-2.87685e-12
-1.02553e-11
6.23718e-12
-5.4661e-12
9.85285e-12
-3.44621e-13
1.57373e-11
4.84583e-12
2.01928e-11
6.98541e-12
2.22615e-11
1.04036e-11
2.68374e-11
1.52181e-11
3.05938e-11
1.48623e-11
3.01442e-11
1.68854e-11
3.35806e-11
1.90004e-11
3.59985e-11
1.98921e-11
3.66469e-11
1.40252e-11
1.76302e-11
9.89619e-12
3.28041e-11
1.65336e-11
2.99652e-11
1.61898e-11
3.26793e-11
1.60464e-11
3.49156e-11
1.70348e-11
3.70323e-11
2.91692e-13
1.80695e-11
-4.70379e-11
4.77256e-11
-2.66319e-11
-9.34696e-10
2.08549e-10
6.13584e-10
-4.61549e-10
-2.78226e-10
-1.23598e-10
-2.83608e-10
-2.81655e-10
-1.77375e-10
-1.1538e-10
-6.97591e-11
-6.65432e-11
-4.60887e-11
-4.86061e-11
-2.98389e-11
-3.59633e-11
-1.83797e-11
-2.37862e-11
-7.9582e-12
-1.92588e-11
-3.56186e-12
-1.07781e-11
5.82234e-12
-5.77911e-12
9.38754e-12
-6.67596e-13
1.545e-11
4.66245e-12
2.00108e-11
6.83249e-12
2.20224e-11
1.02003e-11
2.67184e-11
1.50997e-11
3.06655e-11
1.47403e-11
3.01127e-11
1.65798e-11
3.38429e-11
1.86293e-11
3.68436e-11
1.98235e-11
4.02436e-11
1.16996e-11
1.23408e-11
7.5629e-12
3.3883e-11
1.61959e-11
3.10207e-11
1.5027e-11
3.44593e-11
1.42549e-11
3.75839e-11
1.40493e-11
4.17294e-11
-4.39581e-12
2.54964e-11
-5.56636e-11
6.5136e-11
-9.36944e-12
-1.00289e-09
3.19391e-10
6.86055e-10
-6.42742e-10
-3.43389e-10
-5.67273e-11
-2.48442e-10
-2.79502e-10
-1.78753e-10
-1.13713e-10
-6.82064e-11
-6.63308e-11
-4.69385e-11
-4.96053e-11
-3.0906e-11
-3.6901e-11
-1.94001e-11
-2.4561e-11
-8.59153e-12
-1.97702e-11
-4.30252e-12
-1.13452e-11
5.33725e-12
-6.11532e-12
8.87579e-12
-1.01999e-12
1.51167e-11
4.46437e-12
1.97897e-11
6.67142e-12
2.17552e-11
9.9823e-12
2.65739e-11
1.4972e-11
3.07128e-11
1.46168e-11
3.00736e-11
1.62513e-11
3.40966e-11
1.82209e-11
3.77461e-11
1.98324e-11
4.52502e-11
8.31966e-12
5.43448e-12
5.17922e-12
3.51303e-11
1.58045e-11
3.21747e-11
1.37256e-11
3.63435e-11
1.22933e-11
4.04106e-11
1.08552e-11
4.65836e-11
-9.18492e-12
3.3003e-11
-6.39025e-11
8.13973e-11
9.61018e-12
-1.07537e-09
4.37215e-10
7.70894e-10
-8.3215e-10
-4.22521e-10
1.27219e-11
-2.06731e-10
-2.75365e-10
-1.80535e-10
-1.12222e-10
-6.65811e-11
-6.60468e-11
-4.78228e-11
-5.06584e-11
-3.20633e-11
-3.78979e-11
-2.05012e-11
-2.53986e-11
-9.31416e-12
-2.03145e-11
-5.0953e-12
-1.19538e-11
4.7805e-12
-6.476e-12
8.31963e-12
-1.39943e-12
1.47359e-11
4.25154e-12
1.95284e-11
6.50261e-12
2.14606e-11
9.75236e-12
2.64011e-11
1.48373e-11
3.07302e-11
1.4496e-11
3.00205e-11
1.59145e-11
3.43203e-11
1.78059e-11
3.86236e-11
1.99511e-11
5.26083e-11
1.64354e-12
-4.00498e-12
2.71406e-12
3.64933e-11
1.53805e-11
3.34063e-11
1.23338e-11
3.82744e-11
1.02386e-11
4.32934e-11
7.59417e-12
5.14062e-11
-1.38215e-11
4.02686e-11
-7.13053e-11
9.5979e-11
3.02952e-11
-1.15001e-09
5.57541e-10
8.6611e-10
-1.02391e-09
-5.14292e-10
8.1869e-11
-1.59223e-10
-2.69027e-10
-1.82674e-10
-1.11056e-10
-6.49632e-11
-6.57018e-11
-4.87352e-11
-5.17615e-11
-3.33098e-11
-3.89528e-11
-2.16804e-11
-2.6296e-11
-1.01263e-11
-2.08928e-11
-5.9371e-12
-1.26005e-11
4.15149e-12
-6.86272e-12
7.72072e-12
-1.804e-12
1.43068e-11
4.02402e-12
1.92262e-11
6.32656e-12
2.11388e-11
9.51365e-12
2.61974e-11
1.46983e-11
3.07131e-11
1.43808e-11
2.99498e-11
1.55764e-11
3.45101e-11
1.73811e-11
3.94692e-11
1.95088e-11
6.45243e-11
-2.40166e-12
-1.69084e-11
-2.85537e-13
3.76347e-11
1.48719e-11
3.46524e-11
1.08972e-11
4.01734e-11
8.1789e-12
4.6113e-11
4.42588e-12
5.59943e-11
-1.80418e-11
4.69825e-11
-7.74693e-11
1.08447e-10
5.24855e-11
-1.22416e-09
6.74163e-10
9.69242e-10
-1.2085e-09
-6.16959e-10
1.47541e-10
-1.07084e-10
-2.60119e-10
-1.8502e-10
-1.10351e-10
-6.34464e-11
-6.53102e-11
-4.9667e-11
-5.29098e-11
-3.46438e-11
-4.00641e-11
-2.29347e-11
-2.72498e-11
-1.10264e-11
-2.15056e-11
-6.825e-12
-1.3282e-11
3.4509e-12
-7.27668e-12
7.08035e-12
-2.23139e-12
1.38285e-11
3.78207e-12
1.88828e-11
6.14426e-12
2.07893e-11
9.26965e-12
2.59596e-11
1.45584e-11
3.06559e-11
1.42782e-11
2.98493e-11
1.5263e-11
3.46198e-11
1.70581e-11
4.0035e-11
1.88754e-11
7.25259e-11
-1.57698e-14
-2.49914e-11
-2.85101e-12
3.8514e-11
1.43285e-11
3.58924e-11
9.49266e-12
4.19611e-11
6.21385e-12
4.87421e-11
1.51588e-12
6.01463e-11
-2.15982e-11
5.28727e-11
-8.20897e-11
1.18657e-10
7.56487e-11
-1.29506e-09
7.8301e-10
1.07638e-09
-1.38068e-09
-7.27637e-10
2.06781e-10
-5.17475e-11
-2.48313e-10
-1.87362e-10
-1.10234e-10
-6.21403e-11
-6.48918e-11
-5.06083e-11
-5.40965e-11
-3.60625e-11
-4.12299e-11
-2.42601e-11
-2.82562e-11
-1.20124e-11
-2.21533e-11
-7.75598e-12
-1.39944e-11
2.6799e-12
-7.7188e-12
6.39996e-12
-2.67876e-12
1.33009e-11
3.52607e-12
1.84981e-11
5.95695e-12
2.04116e-11
9.02458e-12
2.56846e-11
1.4422e-11
3.05512e-11
1.41982e-11
2.97007e-11
1.50139e-11
3.45799e-11
1.70208e-11
3.99703e-11
1.94948e-11
6.52308e-11
-8.97717e-13
-1.66631e-11
-2.82061e-12
3.92312e-11
1.38706e-11
3.71218e-11
8.21036e-12
4.35623e-11
4.45033e-12
5.10558e-11
-9.72017e-13
6.36747e-11
-2.42698e-11
5.77152e-11
-8.49516e-11
1.26591e-10
9.90587e-11
-1.3596e-09
8.80033e-10
1.18265e-09
-1.53402e-09
-8.42389e-10
2.56947e-10
5.11492e-12
-2.33396e-10
-1.89452e-10
-1.10819e-10
-6.11665e-11
-6.44745e-11
-5.15492e-11
-5.53144e-11
-3.75627e-11
-4.24484e-11
-2.56529e-11
-2.93112e-11
-1.30808e-11
-2.28356e-11
-8.72742e-12
-1.47342e-11
1.84074e-12
-8.18939e-12
5.68067e-12
-3.14328e-12
1.27244e-11
3.25659e-12
1.80719e-11
5.7663e-12
2.00051e-11
8.7824e-12
2.537e-11
1.42918e-11
3.03964e-11
1.4142e-11
2.95052e-11
1.48194e-11
3.44245e-11
1.71506e-11
3.95304e-11
2.00415e-11
5.34805e-11
4.03045e-12
-8.57494e-13
-1.83319e-12
3.95506e-11
1.3422e-11
3.82258e-11
7.09711e-12
4.4893e-11
2.9839e-12
5.2934e-11
-2.89124e-12
6.64145e-11
-2.5874e-11
6.13307e-11
-8.5908e-11
1.32296e-10
1.22035e-10
-1.41468e-09
9.61321e-10
1.28283e-09
-1.66251e-09
-9.56799e-10
2.95738e-10
6.16309e-11
-2.15312e-10
-1.91031e-10
-1.12194e-10
-6.06557e-11
-6.40971e-11
-5.24837e-11
-5.65573e-11
-3.91423e-11
-4.37193e-11
-2.71106e-11
-3.04112e-11
-1.42277e-11
-2.35522e-11
-9.7375e-12
-1.54978e-11
9.35966e-13
-8.68871e-12
4.92306e-12
-3.62241e-12
1.20995e-11
2.97441e-12
1.76043e-11
5.57404e-12
1.95694e-11
8.54675e-12
2.50139e-11
1.41707e-11
3.01893e-11
1.41109e-11
2.9264e-11
1.46667e-11
3.41868e-11
1.73177e-11
3.89938e-11
1.99501e-11
4.59092e-11
1.11921e-11
9.20126e-12
-1.07261e-12
3.95443e-11
1.30163e-11
3.91575e-11
6.21765e-12
4.58851e-11
1.90127e-12
5.42744e-11
-4.11833e-12
6.82352e-11
-2.62704e-11
6.35965e-11
-8.48775e-11
1.35846e-10
1.43976e-10
-1.45728e-09
1.02329e-09
1.37229e-09
-1.76103e-09
-1.06665e-09
3.21243e-10
1.15911e-10
-1.94123e-10
-1.91828e-10
-1.144e-10
-6.07298e-11
-6.38044e-11
-5.3408e-11
-5.78184e-11
-4.07986e-11
-4.50424e-11
-2.86316e-11
-3.15534e-11
-1.54487e-11
-2.43025e-11
-1.0785e-11
-1.62824e-11
-3.11068e-14
-9.21662e-12
4.1271e-12
-4.11403e-12
1.14265e-11
2.68057e-12
1.7096e-11
5.38212e-12
1.9103e-11
8.32102e-12
2.4614e-11
1.40625e-11
2.99272e-11
1.41108e-11
2.89687e-11
1.45784e-11
3.38429e-11
1.75692e-11
3.83025e-11
1.99146e-11
4.10136e-11
1.38755e-11
1.75315e-11
5.40209e-13
3.95542e-11
1.27475e-11
3.98835e-11
5.65084e-12
4.6483e-11
1.28423e-12
5.49949e-11
-4.55276e-12
6.90453e-11
-2.5366e-11
6.44484e-11
-8.18414e-11
1.374e-10
1.64389e-10
-1.48499e-09
1.0629e-09
1.44692e-09
-1.82561e-09
-1.16805e-09
3.32178e-10
1.66218e-10
-1.70046e-10
-1.91598e-10
-1.17438e-10
-6.14934e-11
-6.36445e-11
-5.43202e-11
-5.90904e-11
-4.25276e-11
-4.64166e-11
-3.02134e-11
-3.27353e-11
-1.67385e-11
-2.50849e-11
-1.18684e-11
-1.70858e-11
-1.05699e-12
-9.7725e-12
3.29316e-12
-4.61616e-12
1.07069e-11
2.37593e-12
1.65478e-11
5.19233e-12
1.86054e-11
8.108e-12
2.41698e-11
1.39687e-11
2.96104e-11
1.41423e-11
2.86208e-11
1.45457e-11
3.34061e-11
1.78801e-11
3.75242e-11
2.00029e-11
3.7612e-11
1.57048e-11
2.41486e-11
2.51645e-12
3.94541e-11
1.26096e-11
4.03375e-11
5.42273e-12
4.66416e-11
1.18251e-12
5.5043e-11
-4.14096e-12
6.88016e-11
-2.31262e-11
6.38817e-11
-7.68222e-11
1.37029e-10
1.82981e-10
-1.49584e-09
1.07774e-09
1.50331e-09
-1.85332e-09
-1.25764e-09
3.2795e-10
2.11113e-10
-1.43466e-10
-1.90174e-10
-1.21277e-10
-6.30329e-11
-6.36682e-11
-5.52218e-11
-6.0367e-11
-4.43245e-11
-4.78405e-11
-3.18529e-11
-3.39558e-11
-1.80924e-11
-2.58974e-11
-1.29858e-11
-1.79069e-11
-2.13832e-12
-1.03552e-11
2.422e-12
-5.12756e-12
9.94214e-12
2.06077e-12
1.59605e-11
5.00645e-12
1.8077e-11
7.90965e-12
2.3682e-11
1.38891e-11
2.92401e-11
1.4204e-11
2.82253e-11
1.45555e-11
3.29027e-11
1.81787e-11
3.67736e-11
2.00686e-11
3.53584e-11
1.67189e-11
2.91063e-11
4.67552e-12
3.92625e-11
1.26425e-11
4.04896e-11
5.56101e-12
4.63431e-11
1.62484e-12
5.44056e-11
-2.87061e-12
6.75122e-11
-1.95737e-11
6.19451e-11
-6.98481e-11
1.34605e-10
1.99832e-10
-1.48819e-09
1.06563e-09
1.53853e-09
-1.8421e-09
-1.333e-09
3.08557e-10
2.49603e-10
-1.14888e-10
-1.87486e-10
-1.25893e-10
-6.54298e-11
-6.39334e-11
-5.61219e-11
-6.16482e-11
-4.61895e-11
-4.93162e-11
-3.35494e-11
-3.52177e-11
-1.95082e-11
-2.67383e-11
-1.41357e-11
-1.87472e-11
-3.27331e-12
-1.09637e-11
1.51387e-12
-5.64841e-12
9.13386e-12
1.73457e-12
1.53348e-11
4.82597e-12
1.75187e-11
7.72697e-12
2.31521e-11
1.38226e-11
2.88176e-11
1.42965e-11
2.77857e-11
1.46014e-11
3.23433e-11
1.84652e-11
3.60662e-11
2.00982e-11
3.39152e-11
1.72568e-11
3.27207e-11
6.96501e-12
3.89958e-11
1.28845e-11
4.0329e-11
6.0765e-12
4.55919e-11
2.61617e-12
5.31073e-11
-7.658e-13
6.52336e-11
-1.47835e-11
5.87687e-11
-6.08622e-11
1.2964e-10
2.15551e-10
-1.46041e-09
1.02446e-09
1.55102e-09
-1.79041e-09
-1.39232e-09
2.74274e-10
2.81119e-10
-8.47864e-11
-1.83495e-10
-1.31255e-10
-6.87686e-11
-6.45028e-11
-5.70338e-11
-6.29343e-11
-4.81265e-11
-5.08467e-11
-3.53054e-11
-3.65248e-11
-2.09861e-11
-2.76048e-11
-1.53175e-11
-1.96071e-11
-4.46206e-12
-1.1595e-11
5.67403e-13
-6.17839e-12
8.2813e-12
1.39771e-12
1.46707e-11
4.65379e-12
1.693e-11
7.56134e-12
2.25801e-11
1.37684e-11
2.83436e-11
1.44213e-11
2.73044e-11
1.46783e-11
3.1733e-11
1.87422e-11
3.53933e-11
2.01261e-11
3.30118e-11
1.75774e-11
3.52415e-11
9.34915e-12
3.86448e-11
1.3354e-11
3.985e-11
6.96013e-12
4.44014e-11
4.13641e-12
5.11914e-11
2.11715e-12
6.20814e-11
-8.85136e-12
5.43897e-11
-4.96192e-11
1.21276e-10
2.30648e-10
-1.41115e-09
9.52388e-10
2.86573e-10
2.16073e-10
-1.21899e-10
-3.62919e-10
-3.4979e-10
-2.70218e-10
-1.74102e-10
-1.23462e-10
-7.55104e-11
-6.52704e-11
-4.06893e-11
-4.26564e-11
-2.44095e-11
-3.06653e-11
-1.33012e-11
-2.0093e-11
-5.69174e-12
-1.61019e-11
3.91625e-13
-7.78321e-12
7.71316e-12
-3.58247e-12
1.19711e-11
1.18451e-12
1.68107e-11
5.77538e-12
2.0706e-11
7.95574e-12
2.32685e-11
1.1309e-11
2.71842e-11
1.55989e-11
2.97849e-11
1.54675e-11
3.03119e-11
1.77705e-11
3.23393e-11
1.99365e-11
3.31599e-11
1.9723e-11
3.17734e-11
2.06592e-11
3.08586e-11
1.90092e-11
2.84193e-11
1.69027e-11
2.56031e-11
1.92818e-11
2.48231e-11
2.17919e-11
2.39256e-11
2.72102e-11
1.61656e-11
1.86539e-11
-1.56376e-11
-4.86202e-12
-7.01299e-11
-1.53898e-10
-5.53436e-10
-1.1275e-10
3.03613e-10
2.24872e-10
-1.25769e-10
-3.66647e-10
-3.515e-10
-2.70563e-10
-1.7428e-10
-1.23523e-10
-7.57203e-11
-6.54055e-11
-4.09185e-11
-4.27581e-11
-2.46052e-11
-3.07372e-11
-1.34572e-11
-2.01179e-11
-5.83045e-12
-1.61312e-11
2.66038e-13
-7.77252e-12
7.59983e-12
-3.57317e-12
1.18647e-11
1.21931e-12
1.6715e-11
5.819e-12
2.06113e-11
7.9992e-12
2.31768e-11
1.13685e-11
2.71025e-11
1.56698e-11
2.96979e-11
1.55239e-11
3.02264e-11
1.78515e-11
3.2265e-11
2.00228e-11
3.30917e-11
1.98017e-11
3.16884e-11
2.0681e-11
3.07684e-11
1.91158e-11
2.83914e-11
1.70141e-11
2.55937e-11
1.94266e-11
2.48555e-11
2.19357e-11
2.40371e-11
2.73975e-11
1.64017e-11
1.88069e-11
-1.52013e-11
-4.43283e-12
-6.75333e-11
-1.51264e-10
-5.65205e-10
-1.21559e-10
3.24595e-10
2.33277e-10
-1.30336e-10
-3.70908e-10
-3.53743e-10
-2.71226e-10
-1.74464e-10
-1.23662e-10
-7.58676e-11
-6.56455e-11
-4.11331e-11
-4.29825e-11
-2.47712e-11
-3.09275e-11
-1.35863e-11
-2.02408e-11
-5.90142e-12
-1.62619e-11
1.81417e-13
-7.85922e-12
7.55532e-12
-3.65993e-12
1.18198e-11
1.16661e-12
1.669e-11
5.77452e-12
2.05979e-11
7.95387e-12
2.31617e-11
1.13432e-11
2.7098e-11
1.56563e-11
2.97074e-11
1.54925e-11
3.02207e-11
1.78536e-11
3.22804e-11
2.00319e-11
3.31228e-11
1.98136e-11
3.16815e-11
2.05884e-11
3.07282e-11
1.91466e-11
2.8485e-11
1.70928e-11
2.56778e-11
1.95515e-11
2.49995e-11
2.20651e-11
2.42162e-11
2.75753e-11
1.67431e-11
1.9042e-11
-1.46801e-11
-4.20632e-12
-6.4375e-11
-1.44329e-10
-5.831e-10
-1.31588e-10
3.4844e-10
2.39419e-10
-1.34785e-10
-3.75065e-10
-3.56925e-10
-2.72232e-10
-1.74658e-10
-1.23742e-10
-7.59476e-11
-6.59061e-11
-4.13815e-11
-4.32637e-11
-2.49649e-11
-3.1173e-11
-1.37475e-11
-2.04002e-11
-5.96082e-12
-1.64334e-11
7.31649e-14
-7.98214e-12
7.52161e-12
-3.77824e-12
1.17716e-11
1.08899e-12
1.66756e-11
5.70807e-12
2.06047e-11
7.88505e-12
2.31576e-11
1.12963e-11
2.71106e-11
1.5626e-11
2.97555e-11
1.54383e-11
3.02305e-11
1.78364e-11
3.23312e-11
2.00231e-11
3.32054e-11
1.9814e-11
3.17145e-11
2.04247e-11
3.06774e-11
1.91298e-11
2.86729e-11
1.71677e-11
2.58369e-11
1.96591e-11
2.52636e-11
2.21538e-11
2.45344e-11
2.76863e-11
1.73393e-11
1.91429e-11
-1.38257e-11
-4.48254e-12
-5.951e-11
-1.34271e-10
-6.05821e-10
-1.41117e-10
3.71619e-10
2.39393e-10
-1.37973e-10
-3.77056e-10
-3.60446e-10
-2.73546e-10
-1.74838e-10
-1.23701e-10
-7.59478e-11
-6.61758e-11
-4.16991e-11
-4.36136e-11
-2.52233e-11
-3.14805e-11
-1.39749e-11
-2.05943e-11
-6.03727e-12
-1.66391e-11
-8.81541e-14
-8.13275e-12
7.47496e-12
-3.9152e-12
1.16931e-11
9.97868e-13
1.66486e-11
5.63479e-12
2.06096e-11
7.80902e-12
2.31395e-11
1.1242e-11
2.71184e-11
1.55963e-11
2.98224e-11
1.53795e-11
3.02322e-11
1.78133e-11
3.23984e-11
2.0011e-11
3.33254e-11
1.98183e-11
3.17821e-11
2.0204e-11
3.05788e-11
1.90612e-11
2.89493e-11
1.72409e-11
2.60655e-11
1.97292e-11
2.56576e-11
2.21606e-11
2.50187e-11
2.76547e-11
1.8257e-11
1.89702e-11
-1.24875e-11
-5.52951e-12
-5.26505e-11
-1.22234e-10
-6.31852e-10
-1.46747e-10
3.92192e-10
2.2786e-10
-1.39797e-10
-3.74638e-10
-3.63441e-10
-2.75102e-10
-1.74976e-10
-1.23487e-10
-7.58358e-11
-6.64438e-11
-4.20947e-11
-4.40448e-11
-2.55615e-11
-3.18612e-11
-1.42834e-11
-2.08385e-11
-6.14296e-12
-1.68834e-11
-3.12741e-13
-8.31953e-12
7.40696e-12
-4.0731e-12
1.15761e-11
8.87947e-13
1.66031e-11
5.55214e-12
2.06067e-11
7.72501e-12
2.31013e-11
1.11774e-11
2.71171e-11
1.55655e-11
2.99044e-11
1.53176e-11
3.02214e-11
1.77799e-11
3.24799e-11
1.99923e-11
3.34839e-11
1.9827e-11
3.18959e-11
1.99197e-11
3.04101e-11
1.89228e-11
2.93199e-11
1.73031e-11
2.63702e-11
1.97302e-11
2.61955e-11
2.20418e-11
2.56863e-11
2.74028e-11
1.95578e-11
1.83901e-11
-1.05169e-11
-7.6032e-12
-4.36253e-11
-1.09202e-10
-6.60595e-10
-1.43889e-10
4.10352e-10
1.9955e-10
-1.41363e-10
-3.65793e-10
-3.64928e-10
-2.76808e-10
-1.75063e-10
-1.23051e-10
-7.55749e-11
-6.66912e-11
-4.25649e-11
-4.45602e-11
-2.59861e-11
-3.23197e-11
-1.46803e-11
-2.11428e-11
-6.28795e-12
-1.71682e-11
-6.05809e-13
-8.55081e-12
7.30967e-12
-4.25411e-12
1.14152e-11
7.53506e-13
1.65346e-11
5.45685e-12
2.05912e-11
7.63178e-12
2.3039e-11
1.1099e-11
2.71042e-11
1.55301e-11
2.99972e-11
1.52535e-11
3.01963e-11
1.77306e-11
3.25745e-11
1.99632e-11
3.36821e-11
1.98397e-11
3.20725e-11
1.956e-11
3.01508e-11
1.86992e-11
2.97906e-11
1.73426e-11
2.6762e-11
1.96296e-11
2.68941e-11
2.17552e-11
2.65956e-11
2.68504e-11
2.13095e-11
1.72692e-11
-7.75995e-12
-1.0911e-11
-3.23242e-11
-9.58801e-11
-6.92512e-10
-1.2818e-10
4.27895e-10
1.50054e-10
-1.44667e-10
-3.48851e-10
-3.63832e-10
-2.78552e-10
-1.75116e-10
-1.22356e-10
-7.51342e-11
-6.68978e-11
-4.31029e-11
-4.51567e-11
-2.65005e-11
-3.28551e-11
-1.51693e-11
-2.15126e-11
-6.48266e-12
-1.74924e-11
-9.7032e-13
-8.8312e-12
7.1739e-12
-4.4586e-12
1.12054e-11
5.91092e-13
1.6438e-11
5.34782e-12
2.05563e-11
7.52938e-12
2.29484e-11
1.10051e-11
2.70762e-11
1.54889e-11
3.00942e-11
1.51891e-11
3.01552e-11
1.76619e-11
3.26794e-11
1.99213e-11
3.39192e-11
1.98562e-11
3.23307e-11
1.91088e-11
2.97808e-11
1.83803e-11
3.0366e-11
1.73462e-11
2.7254e-11
1.93963e-11
2.77701e-11
2.12589e-11
2.7777e-11
2.59285e-11
2.35764e-11
1.54988e-11
-4.0907e-12
-1.55656e-11
-1.88129e-11
-8.25933e-11
-7.28644e-10
-9.63107e-11
4.47936e-10
7.62579e-11
-1.52415e-10
-3.22658e-10
-3.59026e-10
-2.80199e-10
-1.75183e-10
-1.21384e-10
-7.44911e-11
-6.70463e-11
-4.37017e-11
-4.58287e-11
-2.71052e-11
-3.3464e-11
-1.57508e-11
-2.19503e-11
-6.7361e-12
-1.7853e-11
-1.40656e-12
-9.16261e-12
6.99124e-12
-4.68597e-12
1.09434e-11
3.98781e-13
1.63081e-11
5.22494e-12
2.0496e-11
7.41842e-12
2.28261e-11
1.08949e-11
2.70298e-11
1.5441e-11
3.01881e-11
1.51259e-11
3.00974e-11
1.75713e-11
3.27911e-11
1.98652e-11
3.41938e-11
1.98766e-11
3.26924e-11
1.8548e-11
2.92837e-11
1.79585e-11
3.10501e-11
1.72993e-11
2.78599e-11
1.90025e-11
2.88389e-11
2.05163e-11
2.92631e-11
2.4571e-11
2.64018e-11
1.30163e-11
5.49528e-13
-2.15491e-11
-3.32897e-12
-6.93415e-11
-7.70379e-10
-4.63073e-11
4.73802e-10
-2.32267e-11
-1.67419e-10
-2.86663e-10
-3.4946e-10
-2.81595e-10
-1.75344e-10
-1.20142e-10
-7.36343e-11
-6.71249e-11
-4.43552e-11
-4.65708e-11
-2.78002e-11
-3.41418e-11
-1.6423e-11
-2.24563e-11
-7.05604e-12
-1.82473e-11
-1.91243e-12
-9.54524e-12
6.75449e-12
-4.93537e-12
1.06283e-11
1.75769e-13
1.61411e-11
5.0884e-12
2.04049e-11
7.29937e-12
2.26707e-11
1.07683e-11
2.69624e-11
1.5386e-11
3.02723e-11
1.50645e-11
3.00237e-11
1.74568e-11
3.29064e-11
1.97938e-11
3.45032e-11
1.9901e-11
3.31812e-11
1.78583e-11
2.86497e-11
1.74314e-11
3.18442e-11
1.71875e-11
2.85915e-11
1.84281e-11
3.01081e-11
1.95031e-11
3.10741e-11
2.27572e-11
2.97926e-11
9.81839e-12
6.13682e-12
-2.87116e-11
1.36432e-11
-5.58022e-11
-8.18712e-10
2.21494e-11
5.08711e-10
-1.47923e-10
-1.9237e-10
-2.4102e-10
-3.34226e-10
-2.82537e-10
-1.757e-10
-1.18669e-10
-7.2565e-11
-6.71269e-11
-4.50596e-11
-4.73789e-11
-2.85854e-11
-3.48851e-11
-1.7184e-11
-2.30301e-11
-7.44879e-12
-1.86729e-11
-2.48473e-12
-9.97762e-12
6.45802e-12
-5.2062e-12
1.02602e-11
-7.81761e-14
1.59335e-11
4.93841e-12
2.02794e-11
7.17261e-12
2.24818e-11
1.06251e-11
2.6872e-11
1.53233e-11
3.03416e-11
1.50048e-11
2.99356e-11
1.73171e-11
3.30218e-11
1.9706e-11
3.48429e-11
1.99287e-11
3.38187e-11
1.70199e-11
2.78749e-11
1.68026e-11
3.27452e-11
1.69985e-11
2.94546e-11
1.76632e-11
3.15752e-11
1.82116e-11
3.32086e-11
2.04935e-11
3.37109e-11
5.96845e-12
1.25552e-11
-3.67687e-11
3.14801e-11
-4.14511e-11
-8.74168e-10
1.07742e-10
5.5496e-10
-2.95584e-10
-2.29394e-10
-1.86573e-10
-3.12655e-10
-2.82765e-10
-1.76342e-10
-1.17031e-10
-7.12979e-11
-6.70508e-11
-4.58126e-11
-4.82506e-11
-2.94619e-11
-3.5692e-11
-1.80322e-11
-2.36707e-11
-7.91996e-12
-1.91287e-11
-3.11994e-12
-1.04582e-11
6.09716e-12
-5.49865e-12
9.84027e-12
-3.62848e-13
1.56829e-11
4.77512e-12
2.01168e-11
7.03808e-12
2.22602e-11
1.04655e-11
2.6757e-11
1.52526e-11
3.03918e-11
1.49457e-11
2.98353e-11
1.7152e-11
3.31337e-11
1.96012e-11
3.52069e-11
1.99557e-11
3.46241e-11
1.60327e-11
2.69617e-11
1.60809e-11
3.37425e-11
1.67245e-11
3.04468e-11
1.67104e-11
3.32241e-11
1.66526e-11
3.56382e-11
1.78237e-11
3.80738e-11
1.5981e-12
1.96091e-11
-4.53347e-11
4.9434e-11
-2.57726e-11
-9.36396e-10
2.07744e-10
6.14265e-10
-4.62492e-10
-2.80181e-10
-1.24889e-10
-2.84345e-10
-2.81931e-10
-1.77326e-10
-1.15311e-10
-6.98577e-11
-6.68961e-11
-4.66108e-11
-4.9183e-11
-3.04299e-11
-3.65604e-11
-1.89657e-11
-2.43769e-11
-8.47376e-12
-1.96145e-11
-3.81425e-12
-1.09847e-11
5.66866e-12
-5.81334e-12
9.37019e-12
-6.77617e-13
1.53871e-11
4.59844e-12
1.99157e-11
6.89556e-12
2.2007e-11
1.029e-11
2.66164e-11
1.51737e-11
3.04202e-11
1.48865e-11
2.97247e-11
1.69623e-11
3.32377e-11
1.94795e-11
3.55861e-11
1.99757e-11
3.56053e-11
1.4917e-11
2.59296e-11
1.52814e-11
3.48181e-11
1.63654e-11
3.15558e-11
1.55868e-11
3.50205e-11
1.48653e-11
3.83065e-11
1.48285e-11
4.27551e-11
-3.10537e-12
2.70396e-11
-5.39674e-11
6.68649e-11
-8.47408e-12
-1.0046e-09
3.18676e-10
6.8686e-10
-6.43667e-10
-3.45353e-10
-5.80683e-11
-2.49228e-10
-2.79767e-10
-1.78698e-10
-1.13625e-10
-6.8286e-11
-6.66648e-11
-4.74496e-11
-5.01728e-11
-3.14888e-11
-3.74885e-11
-1.99817e-11
-2.51466e-11
-9.1134e-12
-2.01307e-11
-4.56361e-12
-1.15545e-11
5.17004e-12
-6.15135e-12
8.85233e-12
-1.02127e-12
1.50448e-11
4.408e-12
1.96751e-11
6.74465e-12
2.17238e-11
1.00998e-11
2.64493e-11
1.50861e-11
3.04235e-11
1.4826e-11
2.96053e-11
1.67508e-11
3.33291e-11
1.9343e-11
3.59662e-11
1.99798e-11
3.67421e-11
1.37418e-11
2.48379e-11
1.44243e-11
3.59434e-11
1.59305e-11
3.27589e-11
1.43248e-11
3.69204e-11
1.29066e-11
4.11324e-11
1.16234e-11
4.75933e-11
-7.91312e-12
3.45489e-11
-6.22124e-11
8.3148e-11
1.05413e-11
-1.07712e-09
4.36609e-10
7.71824e-10
-8.33026e-10
-4.24453e-10
1.13514e-11
-2.07575e-10
-2.7567e-10
-1.80479e-10
-1.12121e-10
-6.66452e-11
-6.63637e-11
-4.83232e-11
-5.12163e-11
-3.26377e-11
-3.84748e-11
-2.10772e-11
-2.59774e-11
-9.84025e-12
-2.0678e-11
-5.36427e-12
-1.21644e-11
4.60032e-12
-6.5139e-12
8.289e-12
-1.39228e-12
1.46549e-11
4.20323e-12
1.93948e-11