/*--------------------------------*- C++ -*----------------------------------*\
| =========                 |                                                 |
| \\      /  F ield         | OpenFOAM: The Open Source CFD Toolbox           |
|  \\    /   O peration     | Version:  2312                                  |
|   \\  /    A nd           | Website:  www.openfoam.com                      |
|    \\/     M anipulation  |                                                 |
\*---------------------------------------------------------------------------*/
FoamFile
{
    version     2.0;
    format      ascii;
    arch        "LSB;label=32;scalar=64";
    class       volScalarField;
    location    "480";
    object      pMean;
}
// * * * * * * * * * * * * * * * * * * * * * * * * * * * * * * * * * * * * * //

dimensions      [0 2 -2 0 0 0 0];

internalField   nonuniform List<scalar> 
144000
(
1.02268e-09
4.69598e-10
-5.66546e-10
-9.9739e-10
-8.19112e-10
-5.42324e-10
-2.92501e-10
-1.57373e-10
-4.27147e-11
-1.11479e-11
3.9341e-11
3.43484e-11
6.69417e-11
4.97717e-11
7.81425e-11
5.748e-11
8.11649e-11
5.24898e-11
7.80427e-11
5.21144e-11
7.85244e-11
4.7808e-11
7.52775e-11
4.51638e-11
7.46817e-11
4.3676e-11
7.3552e-11
3.89484e-11
7.04506e-11
3.63437e-11
7.04112e-11
3.59523e-11
6.92505e-11
2.92563e-11
6.41153e-11
2.57695e-11
6.24649e-11
2.32471e-11
5.96475e-11
1.74816e-11
5.38355e-11
1.404e-11
5.18743e-11
8.50824e-12
4.49302e-11
1.16887e-12
3.73125e-11
9.04613e-13
3.4451e-11
4.30116e-12
3.26379e-11
1.79173e-11
2.78594e-11
2.93171e-11
-1.32219e-12
4.74173e-11
-3.25021e-12
9.70279e-11
-1.39129e-09
-3.32904e-10
1.06325e-09
4.94548e-10
-5.76985e-10
-1.00559e-09
-8.21591e-10
-5.42408e-10
-2.92729e-10
-1.57682e-10
-4.32868e-11
-1.16515e-11
3.87619e-11
3.39706e-11
6.64948e-11
4.95099e-11
7.77974e-11
5.7339e-11
8.08834e-11
5.23567e-11
7.77845e-11
5.207e-11
7.83097e-11
4.77708e-11
7.50712e-11
4.51822e-11
7.45005e-11
4.37226e-11
7.3377e-11
3.8997e-11
7.02732e-11
3.64247e-11
7.0249e-11
3.6066e-11
6.9085e-11
2.93526e-11
6.39345e-11
2.59141e-11
6.22973e-11
2.34108e-11
5.94754e-11
1.76351e-11
5.35712e-11
1.41169e-11
5.15847e-11
8.74219e-12
4.47414e-11
1.45016e-12
3.71059e-11
1.27463e-12
3.42706e-11
4.70092e-12
3.24889e-11
1.83981e-11
2.77957e-11
2.9722e-11
-1.3779e-12
4.71272e-11
1.15986e-12
1.12447e-10
-1.41596e-09
-3.67208e-10
1.11844e-09
5.00116e-10
-5.93892e-10
-1.00789e-09
-8.2177e-10
-5.4166e-10
-2.92326e-10
-1.57812e-10
-4.36221e-11
-1.23704e-11
3.81312e-11
3.32811e-11
6.60345e-11
4.89445e-11
7.74524e-11
5.69444e-11
8.0703e-11
5.19758e-11
7.75866e-11
5.17877e-11
7.82272e-11
4.75052e-11
7.49871e-11
4.49787e-11
7.44771e-11
4.35518e-11
7.33832e-11
3.88193e-11
7.02671e-11
3.62802e-11
7.02755e-11
3.59629e-11
6.91538e-11
2.92137e-11
6.39558e-11
2.58262e-11
6.23648e-11
2.33426e-11
5.95578e-11
1.75677e-11
5.35104e-11
1.3873e-11
5.14701e-11
8.67853e-12
4.48589e-11
1.51993e-12
3.71689e-11
1.4303e-12
3.44053e-11
4.8748e-12
3.26171e-11
1.86176e-11
2.81031e-11
2.98258e-11
-8.12854e-13
4.46697e-11
5.5449e-12
1.37984e-10
-1.45922e-09
-3.90196e-10
1.17604e-09
4.64902e-10
-6.12385e-10
-9.97589e-10
-8.1895e-10
-5.40124e-10
-2.91126e-10
-1.57262e-10
-4.35194e-11
-1.30103e-11
3.73948e-11
3.24082e-11
6.54289e-11
4.82208e-11
7.69631e-11
5.64321e-11
8.04705e-11
5.14818e-11
7.72716e-11
5.14098e-11
7.81088e-11
4.71624e-11
7.48363e-11
4.47107e-11
7.44188e-11
4.3341e-11
7.3387e-11
3.85975e-11
7.02305e-11
3.60945e-11
7.02876e-11
3.58394e-11
6.92564e-11
2.90478e-11
6.39559e-11
2.57091e-11
6.24466e-11
2.32634e-11
5.9679e-11
1.75174e-11
5.34275e-11
1.35551e-11
5.12641e-11
8.48331e-12
4.50495e-11
1.59306e-12
3.72732e-11
1.54754e-12
3.46784e-11
4.93729e-12
3.29534e-11
1.85496e-11
2.90353e-11
2.90762e-11
1.23551e-12
3.82582e-11
1.57816e-11
1.6145e-10
-1.51508e-09
-3.79629e-10
1.22647e-09
3.69396e-10
-6.29435e-10
-9.63971e-10
-8.10898e-10
-5.38368e-10
-2.89526e-10
-1.55976e-10
-4.29137e-11
-1.35099e-11
3.65199e-11
3.13711e-11
6.46268e-11
4.73403e-11
7.62731e-11
5.58123e-11
8.01309e-11
5.08948e-11
7.67849e-11
5.09492e-11
7.79012e-11
4.67719e-11
7.45581e-11
4.44021e-11
7.42725e-11
4.31196e-11
7.33301e-11
3.83711e-11
7.01004e-11
3.59005e-11
7.02246e-11
3.57418e-11
6.93331e-11
2.89058e-11
6.38672e-11
2.56066e-11
6.24819e-11
2.32217e-11
5.97818e-11
1.75591e-11
5.32637e-11
1.32867e-11
5.08455e-11
8.15703e-12
4.52235e-11
1.74653e-12
3.73469e-11
1.63749e-12
3.50395e-11
4.85758e-12
3.35301e-11
1.80446e-11
3.07774e-11
2.70674e-11
5.39683e-12
2.72938e-11
3.37091e-11
1.76792e-10
-1.58024e-09
-3.18024e-10
1.27115e-09
2.02934e-10
-6.47423e-10
-9.01841e-10
-7.95107e-10
-5.37071e-10
-2.88075e-10
-1.54128e-10
-4.1893e-11
-1.39075e-11
3.5463e-11
3.01411e-11
6.36046e-11
4.62908e-11
7.53716e-11
5.50692e-11
7.96715e-11
5.02287e-11
7.61255e-11
5.0406e-11
7.75929e-11
4.63433e-11
7.41498e-11
4.40521e-11
7.40312e-11
4.28924e-11
7.3203e-11
3.81489e-11
6.98668e-11
3.57036e-11
7.00789e-11
3.56723e-11
6.93664e-11
2.87996e-11
6.36784e-11
2.55175e-11
6.24564e-11
2.32244e-11
5.9854e-11
1.77247e-11
5.30175e-11
1.30957e-11
5.01397e-11
7.64601e-12
4.53418e-11
1.98528e-12
3.73922e-11
1.66964e-12
3.55083e-11
4.56273e-12
3.44253e-11
1.69157e-11
3.35534e-11
2.3434e-11
1.2235e-11
1.14768e-11
5.97095e-11
1.82416e-10
-1.65694e-09
-1.96881e-10
1.31704e-09
-3.59485e-11
-6.72607e-10
-8.0957e-10
-7.69057e-10
-5.36422e-10
-2.87309e-10
-1.51911e-10
-4.05344e-11
-1.42738e-11
3.41638e-11
2.86694e-11
6.23244e-11
4.50577e-11
7.42462e-11
5.41892e-11
7.90787e-11
4.94918e-11
7.53004e-11
4.97823e-11
7.7181e-11
4.58912e-11
7.36159e-11
4.36673e-11
7.36957e-11
4.26684e-11
7.29988e-11
3.79441e-11
6.95313e-11
3.55125e-11
6.98471e-11
3.56365e-11
6.93472e-11
2.87428e-11
6.33916e-11
2.54464e-11
6.23665e-11
2.32764e-11
5.98978e-11
1.80275e-11
5.27484e-11
1.30029e-11
4.90406e-11
6.88588e-12
4.54095e-11
2.30674e-12
3.74264e-11
1.58915e-12
3.61128e-11
3.96729e-12
3.57323e-11
1.50189e-11
3.75091e-11
1.79613e-11
2.18824e-11
-8.6247e-12
9.23305e-11
1.79842e-10
-1.74665e-09
-1.69759e-11
1.37071e-09
-3.37405e-10
-7.10872e-10
-6.89638e-10
-7.30847e-10
-5.36273e-10
-2.8767e-10
-1.49519e-10
-3.8904e-11
-1.46549e-11
3.25819e-11
2.69098e-11
6.07388e-11
4.36178e-11
7.28721e-11
5.31527e-11
7.8321e-11
4.8683e-11
7.43106e-11
4.90772e-11
7.66514e-11
4.54228e-11
7.29588e-11
4.32549e-11
7.32633e-11
4.24551e-11
7.27133e-11
3.77687e-11
6.90969e-11
3.53373e-11
6.95291e-11
3.56427e-11
6.9265e-11
2.87461e-11
6.30108e-11
2.53948e-11
6.22141e-11
2.3374e-11
5.99287e-11
1.84691e-11
5.25651e-11
1.29808e-11
4.7397e-11
5.80554e-12
4.54379e-11
2.69272e-12
3.74818e-11
1.34873e-12
3.68868e-11
3.00761e-12
3.75081e-11
1.22833e-11
4.26325e-11
1.08082e-11
3.39326e-11
-3.15102e-11
1.28232e-10
1.72852e-10
-1.8477e-09
2.08935e-10
1.43763e-09
-6.833e-10
-7.67073e-10
-5.48255e-10
-6.79441e-10
-5.36052e-10
-2.89524e-10
-1.47184e-10
-3.70805e-11
-1.50772e-11
3.06749e-11
2.48442e-11
5.88256e-11
4.19526e-11
7.12333e-11
5.194e-11
7.73659e-11
4.77947e-11
7.31507e-11
4.8287e-11
7.59837e-11
4.49366e-11
7.21758e-11
4.28177e-11
7.27274e-11
4.22535e-11
7.23382e-11
3.76299e-11
6.85648e-11
3.51856e-11
6.91261e-11
3.56946e-11
6.91121e-11
2.88151e-11
6.25479e-11
2.53628e-11
6.20056e-11
2.35031e-11
5.99758e-11
1.90333e-11
5.26443e-11
1.29836e-11
4.49986e-11
4.34717e-12
4.54599e-11
3.12308e-12
3.75906e-11
9.17481e-13
3.78436e-11
1.6768e-12
3.97465e-11
8.77635e-12
4.87214e-11
2.41032e-12
4.74842e-11
-5.51435e-11
1.63527e-10
1.65848e-10
-1.95619e-09
4.60742e-10
1.51915e-09
-1.05184e-09
-8.43665e-10
-3.93954e-10
-6.14967e-10
-5.34974e-10
-2.9308e-10
-1.45158e-10
-3.5132e-11
-1.55455e-11
2.84562e-11
2.24785e-11
5.65797e-11
4.00624e-11
6.9327e-11
5.05504e-11
7.61928e-11
4.68186e-11
7.18232e-11
4.74089e-11
7.51629e-11
4.44277e-11
7.12666e-11
4.2354e-11
7.20813e-11
4.20657e-11
7.18637e-11
3.7523e-11
6.7937e-11
3.50577e-11
6.86383e-11
3.57922e-11
6.88802e-11
2.89496e-11
6.20116e-11
2.53471e-11
6.17476e-11
2.3651e-11
6.0065e-11
1.96986e-11
5.32073e-11
1.29135e-11
4.15861e-11
2.46766e-12
4.55147e-11
3.57532e-12
3.77792e-11
2.90816e-13
3.89716e-11
1.16837e-14
4.23669e-11
4.69729e-12
5.54025e-11
-6.52674e-12
6.13649e-11
-7.73285e-11
1.94667e-10
1.62193e-10
-2.06539e-09
7.18432e-10
1.61261e-09
-1.41854e-09
-9.40473e-10
-2.3644e-10
-5.38688e-10
-5.32103e-10
-2.98365e-10
-1.43704e-10
-3.31752e-11
-1.60534e-11
2.59476e-11
1.98317e-11
5.401e-11
3.79577e-11
6.71628e-11
4.8985e-11
7.4794e-11
4.57545e-11
7.03306e-11
4.64451e-11
7.41809e-11
4.38902e-11
7.0232e-11
4.18633e-11
7.132e-11
4.18849e-11
7.1284e-11
3.74459e-11
6.72185e-11
3.4956e-11
6.80646e-11
3.5932e-11
6.85641e-11
2.91422e-11
6.14133e-11
2.53484e-11
6.14419e-11
2.3796e-11
6.02359e-11
2.04418e-11
5.45313e-11
1.25452e-11
3.68495e-11
1.5249e-13
4.56362e-11
4.0375e-12
3.8043e-11
-5.04147e-13
4.0215e-11
-1.89946e-12
4.52079e-11
3.30914e-13
6.21986e-11
-1.52251e-11
7.43616e-11
-9.61545e-11
2.19052e-10
1.63836e-10
-2.16697e-09
9.62601e-10
1.71223e-09
-1.76312e-09
-1.05418e-09
-8.46784e-11
-4.52826e-10
-5.26501e-10
-3.05215e-10
-1.4309e-10
-3.13312e-11
-1.65969e-11
2.31838e-11
1.69319e-11
5.11322e-11
3.56539e-11
6.47497e-11
4.72544e-11
7.31673e-11
4.46031e-11
6.86814e-11
4.54017e-11
7.30324e-11
4.33189e-11
6.90752e-11
4.13447e-11
7.04404e-11
4.17085e-11
7.05959e-11
3.73936e-11
6.64129e-11
3.48788e-11
6.74052e-11
3.6108e-11
6.81646e-11
2.93863e-11
6.07574e-11
2.5365e-11
6.10916e-11
2.39162e-11
6.05217e-11
2.12182e-11
5.70891e-11
1.16712e-11
3.03429e-11
-2.55821e-12
4.58469e-11
4.49124e-12
3.83519e-11
-1.40994e-12
4.15117e-11
-3.93045e-12
4.80621e-11
-3.98361e-12
6.86117e-11
-2.29084e-11
8.54286e-11
-1.10197e-10
2.35212e-10
1.71353e-10
-2.25318e-09
1.1775e-09
1.81089e-09
-2.06874e-09
-1.17948e-09
5.34566e-11
-3.60264e-10
-5.17297e-10
-3.13246e-10
-1.43541e-10
-2.97608e-11
-1.71765e-11
2.02085e-11
1.38144e-11
4.79711e-11
3.31671e-11
6.21068e-11
4.53684e-11
7.13185e-11
4.33684e-11
6.68885e-11
4.42867e-11
7.17184e-11
4.2711e-11
6.78029e-11
4.08011e-11
6.94451e-11
4.15312e-11
6.98025e-11
3.73601e-11
6.55248e-11
3.48232e-11
6.66608e-11
3.63144e-11
6.76779e-11
2.96759e-11
6.00493e-11
2.5399e-11
6.06919e-11
2.40048e-11
6.09184e-11
2.20253e-11
6.14099e-11
1.00355e-11
2.1616e-11
-5.52022e-12
4.61713e-11
4.9414e-12
3.86694e-11
-2.35934e-12
4.27341e-11
-5.91208e-12
5.07082e-11
-7.90423e-12
7.41705e-11
-2.89604e-11
9.38081e-11
-1.18658e-10
2.42801e-10
1.83849e-10
-2.31762e-09
1.35243e-09
1.90122e-09
-2.32405e-09
-1.3101e-09
1.72036e-10
-2.64293e-10
-5.03812e-10
-3.21929e-10
-1.45219e-10
-2.86244e-11
-1.78018e-11
1.70682e-11
1.05208e-11
4.45537e-11
3.05232e-11
5.92575e-11
4.33467e-11
6.92589e-11
4.20572e-11
6.49668e-11
4.31086e-11
7.02437e-11
4.20652e-11
6.64241e-11
4.02364e-11
6.83374e-11
4.13494e-11
6.89067e-11
3.73405e-11
6.45599e-11
3.47883e-11
6.58352e-11
3.65461e-11
6.71008e-11
3.00067e-11
5.92878e-11
2.54651e-11
6.02199e-11
2.40934e-11
6.1332e-11
2.29444e-11
6.78594e-11
6.77021e-12
1.02996e-11
-8.4724e-12
4.66634e-11
5.43763e-12
3.89735e-11
-3.26025e-12
4.37873e-11
-7.67734e-12
5.29368e-11
-1.11175e-11
7.85006e-11
-3.29526e-11
9.90815e-11
-1.21337e-10
2.42452e-10
1.99562e-10
-2.3559e-09
1.48195e-09
1.97595e-09
-2.52214e-09
-1.43914e-09
2.67099e-10
-1.68397e-10
-4.85674e-10
-3.3066e-10
-1.48218e-10
-2.80965e-11
-1.8498e-11
1.38091e-11
7.09149e-12
4.09086e-11
2.77419e-11
5.62225e-11
4.1206e-11
6.70023e-11
4.06752e-11
6.29299e-11
4.18768e-11
6.86182e-11
4.13801e-11
6.49478e-11
3.96532e-11
6.71234e-11
4.11599e-11
6.79132e-11
3.73307e-11
6.35255e-11
3.47732e-11
6.49319e-11
3.67994e-11
6.64334e-11
3.03775e-11
5.84698e-11
2.55786e-11
5.96572e-11
2.42136e-11
6.16736e-11
2.3878e-11
7.77477e-11
5.57805e-13
-4.78773e-12
-1.1474e-11
4.71945e-11
5.98026e-12
3.92228e-11
-4.01282e-12
4.45716e-11
-9.07818e-12
5.45676e-11
-1.33924e-11
8.13516e-11
-3.46595e-11
1.01151e-10
-1.18537e-10
2.35313e-10
2.1649e-10
-2.36533e-09
1.56418e-09
2.02878e-09
-2.66012e-09
-1.5598e-09
3.36643e-10
-7.59852e-11
-4.62846e-10
-3.38799e-10
-1.52557e-10
-2.83541e-11
-1.93067e-11
1.04709e-11
3.56499e-12
3.70636e-11
2.4839e-11
5.30225e-11
3.89625e-11
6.45667e-11
3.92277e-11
6.07911e-11
4.06002e-11
6.68532e-11
4.06559e-11
6.33836e-11
3.90546e-11
6.58104e-11
4.09599e-11
6.68287e-11
3.73283e-11
6.24289e-11
3.47773e-11
6.39562e-11
3.70693e-11
6.56795e-11
3.07822e-11
5.76019e-11
2.57356e-11
5.9017e-11
2.43521e-11
6.19576e-11
2.4231e-11
9.39685e-11
-2.30756e-12
-2.46064e-11
-1.47858e-11
4.72049e-11
6.46769e-12
3.92998e-11
-4.56017e-12
4.49804e-11
-9.99981e-12
5.5463e-11
-1.4575e-11
8.2598e-11
-3.40414e-11
1.002e-10
-1.10911e-10
2.2297e-10
2.32655e-10
-2.34497e-09
1.60084e-09
2.0544e-09
-2.73888e-09
-1.66572e-09
3.80355e-10
9.91317e-12
-4.35595e-10
-3.45726e-10
-1.58179e-10
-2.95595e-11
-2.02823e-11
7.08838e-12
-2.12758e-14
3.3045e-11
2.18297e-11
4.96768e-11
3.66322e-11
6.19707e-11
3.7721e-11
5.85635e-11
3.92869e-11
6.49625e-11
3.98928e-11
6.17397e-11
3.84427e-11
6.44063e-11
4.0747e-11
6.56619e-11
3.7331e-11
6.12774e-11
3.47994e-11
6.29125e-11
3.73542e-11
6.48416e-11
3.12252e-11
5.66703e-11
2.59724e-11
5.82279e-11
2.46946e-11
6.17539e-11
2.45262e-11
1.03908e-10
-2.9494e-14
-3.70276e-11
-1.67786e-11
4.67308e-11
6.98517e-12
3.92097e-11
-4.81011e-12
4.49509e-11
-1.03516e-11
5.55389e-11
-1.45923e-11
8.22334e-11
-3.12104e-11
9.66373e-11
-9.93193e-11
2.07109e-10
2.46306e-10
-2.29517e-09
1.59555e-09
2.0496e-09
-2.76199e-09
-1.75191e-09
3.99335e-10
8.67485e-11
-4.04441e-10
-3.5087e-10
-1.64949e-10
-3.18444e-11
-2.14859e-11
3.69168e-12
-3.63114e-12
2.888e-11
1.87276e-11
4.62051e-11
3.42288e-11
5.9232e-11
3.61613e-11
5.62601e-11
3.79444e-11
6.29589e-11
3.9092e-11
6.00269e-11
3.78201e-11
6.2922e-11
4.05193e-11
6.44205e-11
3.73364e-11
6.00774e-11
3.48401e-11
6.1805e-11
3.76541e-11
6.39174e-11
3.17162e-11
5.56532e-11
2.63425e-11
5.71822e-11
2.54775e-11
6.04953e-11
2.59651e-11
9.17583e-11
9.05867e-13
-2.51991e-11
-1.52467e-11
4.61125e-11
7.70829e-12
3.90021e-11
-4.66399e-12
4.44597e-11
-1.00719e-11
5.47772e-11
-1.34424e-11
8.03611e-11
-2.64149e-11
9.10039e-11
-8.47328e-11
1.89215e-10
2.56061e-10
-2.21788e-09
1.55355e-09
2.01247e-09
-2.73479e-09
-1.81439e-09
3.95775e-10
1.52524e-10
-3.7016e-10
-3.53778e-10
-1.72666e-10
-3.53075e-11
-2.29856e-11
3.01739e-13
-7.23182e-12
2.45953e-11
1.55472e-11
4.26247e-11
3.17643e-11
5.63685e-11
3.45538e-11
5.38925e-11
3.65789e-11
6.08562e-11
3.82547e-11
5.82533e-11
3.71884e-11
6.13659e-11
4.0275e-11
6.3113e-11
3.73427e-11
5.88361e-11
3.48977e-11
6.06411e-11
3.79643e-11
6.29166e-11
3.22421e-11
5.45718e-11
2.68073e-11
5.59694e-11
2.65045e-11
5.86662e-11
2.74087e-11
7.32163e-11
6.22913e-12
-4.81175e-12
-1.20208e-11
4.49384e-11
8.49156e-12
3.85546e-11
-4.13378e-12
4.34722e-11
-9.16151e-12
5.31953e-11
-1.12062e-11
7.71697e-11
-1.99971e-11
8.38713e-11
-6.81373e-11
1.70622e-10
2.61061e-10
-2.11568e-09
1.48068e-09
1.94281e-09
-2.66346e-09
-1.85065e-09
3.72578e-10
2.059e-10
-3.33677e-10
-3.54147e-10
-1.81103e-10
-4.00138e-11
-2.48569e-11
-3.07447e-12
-1.07978e-11
2.02141e-11
1.22968e-11
3.89487e-11
2.92483e-11
5.33974e-11
3.29034e-11
5.14705e-11
3.51949e-11
5.86671e-11
3.73816e-11
5.64263e-11
3.65487e-11
5.97469e-11
4.00131e-11
6.17475e-11
3.73486e-11
5.75603e-11
3.49707e-11
5.9428e-11
3.8281e-11
6.1849e-11
3.27932e-11
5.34455e-11
2.73297e-11
5.46766e-11
2.75605e-11
5.67747e-11
2.81661e-11
6.10058e-11
1.44014e-11
9.59085e-12
-8.77343e-12
4.31874e-11
9.2799e-12
3.78113e-11
-3.22448e-12
4.19938e-11
-7.6473e-12
5.08696e-11
-8.00763e-12
7.29025e-11
-1.23415e-11
7.58388e-11
-5.04353e-11
1.52437e-10
2.60994e-10
-1.9919e-09
1.3828e-09
1.84113e-09
-2.55459e-09
-1.85909e-09
3.33225e-10
2.4613e-10
-2.96043e-10
-3.51844e-10
-1.90013e-10
-4.59854e-11
-2.71746e-11
-6.44212e-12
-1.43094e-11
1.57569e-11
8.9836e-12
3.51882e-11
2.66882e-11
5.03356e-11
3.12145e-11
4.90019e-11
3.37957e-11
5.64044e-11
3.64733e-11
5.4552e-11
3.59006e-11
5.80729e-11
3.9733e-11
6.03326e-11
3.73525e-11
5.62549e-11
3.50573e-11
5.81707e-11
3.86033e-11
6.07207e-11
3.3372e-11
5.22704e-11
2.79194e-11
5.32861e-11
2.86614e-11
5.4778e-11
2.87938e-11
5.30733e-11
1.88095e-11
1.99547e-11
-5.0125e-12
4.14173e-11
1.0205e-11
3.68154e-11
-1.92008e-12
4.0079e-11
-5.57776e-12
4.79068e-11
-4.00707e-12
6.78315e-11
-3.83246e-12
6.74411e-11
-3.24072e-11
1.35304e-10
2.56073e-10
-1.84969e-09
1.26504e-09
1.70926e-09
-2.41528e-09
-1.83964e-09
2.81395e-10
2.73193e-10
-2.58283e-10
-3.46881e-10
-1.9914e-10
-5.31942e-11
-3.00004e-11
-9.81136e-12
-1.77512e-11
1.12444e-11
5.61579e-12
3.13541e-11
2.40892e-11
4.71975e-11
2.94915e-11
4.64947e-11
3.23825e-11
5.40793e-11
3.55314e-11
5.26368e-11
3.52436e-11
5.63518e-11
3.94333e-11
5.88761e-11
3.73529e-11
5.49257e-11
3.51549e-11
5.68763e-11
3.89269e-11
5.95422e-11
3.39707e-11
5.10582e-11
2.85576e-11
5.18252e-11
2.97658e-11
5.27556e-11
2.94521e-11
4.74924e-11
2.13745e-11
2.75238e-11
-7.89152e-13
3.9761e-11
1.1289e-11
3.55699e-11
-2.55711e-13
3.77876e-11
-3.03343e-12
4.44349e-11
6.05016e-13
6.22449e-11
5.15879e-12
5.91533e-11
-1.4666e-11
1.19547e-10
2.46772e-10
-1.69238e-09
1.13233e-09
1.54982e-09
-2.25287e-09
-1.7935e-09
2.20883e-10
2.87768e-10
-2.21334e-10
-3.39418e-10
-2.08247e-10
-6.15675e-11
-3.33807e-11
-1.3197e-11
-2.1114e-11
6.69587e-12
2.2009e-12
2.74575e-11
2.14538e-11
4.39965e-11
2.77395e-11
4.3957e-11
3.09548e-11
5.17018e-11
3.45577e-11
5.06868e-11
3.45758e-11
5.45915e-11
3.91124e-11
5.73856e-11
3.73488e-11
5.35791e-11
3.52603e-11
5.55535e-11
3.9245e-11
5.83248e-11
3.45791e-11
4.98274e-11
2.92136e-11
5.03412e-11
3.08008e-11
5.08458e-11
3.00578e-11
4.35165e-11
2.29315e-11
3.29225e-11
3.64674e-12
3.82097e-11
1.25097e-11
3.40795e-11
1.71058e-12
3.51906e-11
-1.09144e-13
4.06114e-11
5.63366e-12
5.64228e-11
1.42924e-11
5.1371e-11
2.33906e-12
1.05148e-10
2.33655e-10
-1.52301e-09
9.89583e-10
1.36665e-09
-2.07507e-09
-1.72342e-09
1.55333e-10
2.9121e-10
-1.8594e-10
-3.29715e-10
-2.17153e-10
-7.10269e-11
-3.7357e-11
-1.66246e-11
-2.44009e-11
2.12101e-12
-1.25978e-12
2.35047e-11
1.87779e-11
4.07403e-11
2.59618e-11
4.13951e-11
2.95087e-11
4.92779e-11
3.35535e-11
4.87069e-11
3.38937e-11
5.27982e-11
3.8767e-11
5.58665e-11
3.73387e-11
5.22218e-11
3.53694e-11
5.42103e-11
3.95506e-11
5.70777e-11
3.51906e-11
4.85921e-11
2.98671e-11
4.88604e-11
3.17441e-11
4.90815e-11
3.05805e-11
4.0698e-11
2.40026e-11
3.65891e-11
8.07362e-12
3.67502e-11
1.38595e-11
3.23805e-11
3.91857e-12
3.23792e-11
3.09601e-12
3.66014e-11
1.08885e-11
5.06351e-11
2.32853e-11
4.43935e-11
1.8384e-11
9.19e-11
2.17193e-10
-1.34467e-09
8.41799e-10
1.16467e-09
-1.88827e-09
-1.63304e-09
8.77428e-11
2.85196e-10
-1.52636e-10
-3.18064e-10
-2.25716e-10
-8.14979e-11
-4.19684e-11
-2.01254e-11
-2.76175e-11
-2.47741e-12
-4.76699e-12
1.94957e-11
1.60556e-11
3.74312e-11
2.41632e-11
3.88132e-11
2.80419e-11
4.68102e-11
3.25221e-11
4.66991e-11
3.31945e-11
5.09739e-11
3.83955e-11
5.43218e-11
3.73235e-11
5.08567e-11
3.54794e-11
5.28517e-11
3.98386e-11
5.58073e-11
3.58029e-11
4.73619e-11
3.05046e-11
4.73923e-11
3.25962e-11
4.74531e-11
3.10362e-11
3.86943e-11
2.4864e-11
3.88709e-11
1.23549e-11
3.53801e-11
1.53371e-11
3.05238e-11
6.30223e-12
2.94409e-11
6.4768e-12
3.25606e-11
1.61896e-11
4.51012e-11
3.19254e-11
3.8411e-11
3.34268e-11
7.93927e-11
1.97837e-10
-1.1603e-09
6.93066e-10
1.02514e-09
4.71414e-10
-5.65526e-10
-9.96738e-10
-8.18464e-10
-5.40559e-10
-2.90191e-10
-1.55232e-10
-4.12166e-11
-1.04882e-11
3.93528e-11
3.39228e-11
6.62594e-11
4.89131e-11
7.72195e-11
5.65166e-11
8.03563e-11
5.18736e-11
7.75944e-11
5.17459e-11
7.82942e-11
4.76618e-11
7.52028e-11
4.50721e-11
7.46303e-11
4.35595e-11
7.3536e-11
3.89319e-11
7.05019e-11
3.62986e-11
7.04418e-11
3.58237e-11
6.92284e-11
2.90333e-11
6.40938e-11
2.55283e-11
6.25614e-11
2.30343e-11
5.99595e-11
1.75558e-11
5.4719e-11
1.50628e-11
5.22877e-11
8.99688e-12
4.50293e-11
9.56128e-13
3.68766e-11
4.79755e-13
3.39012e-11
3.81081e-12
3.19817e-11
1.73275e-11
2.72081e-11
2.89933e-11
-1.76856e-12
4.76712e-11
-2.89023e-12
9.59752e-11
-1.39407e-09
-3.34196e-10
1.06577e-09
4.96564e-10
-5.7602e-10
-1.00496e-09
-8.20914e-10
-5.40626e-10
-2.90397e-10
-1.55529e-10
-4.17847e-11
-1.09946e-11
3.8768e-11
3.35371e-11
6.58045e-11
4.86418e-11
7.68648e-11
5.63638e-11
8.00687e-11
5.17355e-11
7.73328e-11
5.16963e-11
7.80787e-11
4.76243e-11
7.49954e-11
4.50885e-11
7.44477e-11
4.3604e-11
7.33635e-11
3.8985e-11
7.03272e-11
3.6383e-11
7.02804e-11
3.59394e-11
6.90627e-11
2.91343e-11
6.39102e-11
2.56782e-11
6.23892e-11
2.32066e-11
5.97831e-11
1.77301e-11
5.44969e-11
1.52091e-11
5.20622e-11
9.25139e-12
4.48409e-11
1.23662e-12
3.66695e-11
8.46854e-13
3.37192e-11
4.20849e-12
3.18287e-11
1.78034e-11
2.71455e-11
2.93971e-11
-1.81765e-12
4.73943e-11
1.54258e-12
1.11453e-10
-1.41876e-09
-3.68667e-10
1.12112e-09
5.0259e-10
-5.93002e-10
-1.00736e-09
-8.21075e-10
-5.39859e-10
-2.89962e-10
-1.55643e-10
-4.21073e-11
-1.17137e-11
3.81305e-11
3.28368e-11
6.53341e-11
4.80643e-11
7.65081e-11
5.59525e-11
7.98769e-11
5.13465e-11
7.71306e-11
5.14067e-11
7.79947e-11
4.73591e-11
7.49119e-11
4.48822e-11
7.44236e-11
4.34296e-11
7.33728e-11
3.88134e-11
7.03276e-11
3.62424e-11
7.03101e-11
3.58379e-11
6.91328e-11
2.9e-11
6.39309e-11
2.55943e-11
6.24529e-11
2.31447e-11
5.98642e-11
1.76706e-11
5.44969e-11
1.50534e-11
5.2059e-11
9.2527e-12
4.4964e-11
1.30325e-12
3.67297e-11
1.00018e-12
3.385e-11
4.38131e-12
3.19545e-11
1.80173e-11
2.74538e-11
2.94996e-11
-1.25381e-12
4.49272e-11
5.96952e-12
1.37249e-10
-1.46211e-09
-3.92223e-10
1.17883e-09
4.68041e-10
-6.11548e-10
-9.97204e-10
-8.18251e-10
-5.383e-10
-2.88725e-10
-1.55062e-10
-4.19843e-11
-1.23491e-11
3.73886e-11
3.19527e-11
6.47174e-11
4.7327e-11
7.60054e-11
5.542e-11
7.96273e-11
5.08408e-11
7.68096e-11
5.10192e-11
7.78723e-11
4.70169e-11
7.47629e-11
4.46115e-11
7.43645e-11
4.32136e-11
7.33774e-11
3.8599e-11
7.02993e-11
3.60627e-11
7.0327e-11
3.57172e-11
6.92358e-11
2.88409e-11
6.39288e-11
2.54837e-11
6.25284e-11
2.30722e-11
5.998e-11
1.76075e-11
5.44954e-11
1.48246e-11
5.20174e-11
9.2037e-12
4.51777e-11
1.36834e-12
3.68358e-11
1.11592e-12
3.41214e-11
4.44006e-12
3.2291e-11
1.79339e-11
2.83937e-11
2.87426e-11
7.97803e-13
3.84968e-11
1.62306e-11
1.61091e-10
-1.51801e-09
-3.82421e-10
1.22908e-09
3.73163e-10
-6.28597e-10
-9.63727e-10
-8.1018e-10
-5.36541e-10
-2.87068e-10
-1.53727e-10
-4.13412e-11
-1.28358e-11
3.65129e-11
3.0907e-11
6.39048e-11
4.6433e-11
7.5302e-11
5.47779e-11
7.92649e-11
5.02385e-11
7.63151e-11
5.05472e-11
7.76577e-11
4.66273e-11
7.44877e-11
4.43013e-11
7.42164e-11
4.29864e-11
7.33173e-11
3.83812e-11
7.01785e-11
3.58788e-11
7.0268e-11
3.56266e-11
6.93089e-11
2.87113e-11
6.3833e-11
2.5395e-11
6.25482e-11
2.30429e-11
6.00659e-11
1.76086e-11
5.44393e-11
1.45988e-11
5.18168e-11
9.14426e-12
4.54045e-11
1.5095e-12
3.69132e-11
1.20578e-12
3.4487e-11
4.35718e-12
3.28722e-11
1.7419e-11
3.01407e-11
2.67197e-11
4.95425e-12
2.75122e-11
3.41756e-11
1.76773e-10
-1.58308e-09
-3.21582e-10
1.27353e-09
2.07168e-10
-6.46545e-10
-9.01728e-10
-7.94361e-10
-5.35222e-10
-2.8556e-10
-1.51819e-10
-4.02789e-11
-1.32143e-11
3.54586e-11
2.9671e-11
6.28751e-11
4.53734e-11
7.43888e-11
5.40141e-11
7.87799e-11
4.9555e-11
7.56462e-11
4.99924e-11
7.73391e-11
4.61993e-11
7.40831e-11
4.39515e-11
7.39723e-11
4.27536e-11
7.3182e-11
3.81684e-11
6.99532e-11
3.56966e-11
7.01236e-11
3.55701e-11
6.93321e-11
2.86251e-11
6.36277e-11
2.5332e-11
6.24946e-11
2.3068e-11
6.01042e-11
1.76996e-11
5.4323e-11
1.43845e-11
5.13973e-11
9.05801e-12
4.56191e-11
1.73079e-12
3.6967e-11
1.24337e-12
3.4965e-11
4.05933e-12
3.37784e-11
1.62759e-11
3.29178e-11
2.30722e-11
1.1785e-11
1.16612e-11
6.01716e-11
1.82733e-10
-1.65961e-09
-2.0098e-10
1.31901e-09
-3.14621e-11
-6.71642e-10
-8.09569e-10
-7.68299e-10
-5.34545e-10
-2.84738e-10
-1.49542e-10
-3.88692e-11
-1.35482e-11
3.417e-11
2.81993e-11
6.15913e-11
4.41336e-11
7.32546e-11
5.31165e-11
7.81607e-11
4.87996e-11
7.48099e-11
4.93573e-11
7.6914e-11
4.57475e-11
7.35528e-11
4.35694e-11
7.36326e-11
4.25255e-11
7.29646e-11
3.79739e-11
6.96225e-11
3.55257e-11
6.98884e-11
3.55552e-11
6.92953e-11
2.85985e-11
6.33121e-11
2.53041e-11
6.23578e-11
2.31594e-11
6.00868e-11
1.78962e-11
5.41651e-11
1.41815e-11
5.07095e-11
8.92874e-12
4.58266e-11
2.02863e-12
3.70169e-11
1.1775e-12
3.55846e-11
3.46491e-12
3.51016e-11
1.43666e-11
3.68751e-11
1.75902e-11
2.14274e-11
-8.48369e-12
9.27848e-11
1.8044e-10
-1.74903e-09
-2.13929e-11
1.37219e-09
-3.32884e-10
-7.09771e-10
-6.89715e-10
-7.30103e-10
-5.34367e-10
-2.85043e-10
-1.47089e-10
-3.71853e-11
-1.38888e-11
3.26026e-11
2.64433e-11
6.00063e-11
4.26918e-11
7.18751e-11
5.2067e-11
7.73779e-11
4.79723e-11
7.38076e-11
4.86412e-11
7.63685e-11
4.52788e-11
7.28982e-11
4.31626e-11
7.31939e-11
4.23105e-11
7.26608e-11
3.78097e-11
6.9188e-11
3.53767e-11
6.9561e-11
3.55911e-11
6.91846e-11
2.86444e-11
6.28869e-11
2.53148e-11
6.21347e-11
2.33217e-11
6.00147e-11
1.82068e-11
5.40048e-11
1.39743e-11
4.97263e-11
8.73446e-12
4.60319e-11
2.38222e-12
3.70939e-11
9.62338e-13
3.6381e-11
2.50926e-12
3.68964e-11
1.16222e-11
4.19996e-11
1.04251e-11
3.34842e-11
-3.14193e-11
1.28681e-10
1.73669e-10
-1.84979e-09
2.04421e-10
1.43868e-09
-6.78985e-10
-7.65858e-10
-5.48371e-10
-6.78718e-10
-5.34122e-10
-2.86848e-10
-1.44693e-10
-3.53019e-11
-1.42657e-11
3.07161e-11
2.43863e-11
5.80981e-11
4.10297e-11
7.0234e-11
5.0847e-11
7.64002e-11
4.70669e-11
7.26345e-11
4.78416e-11
7.56831e-11
4.47918e-11
7.2116e-11
4.27341e-11
7.26504e-11
4.21103e-11
7.22626e-11
3.7683e-11
6.86501e-11
3.52571e-11
6.91421e-11
3.56814e-11
6.89923e-11
2.87692e-11
6.23618e-11
2.53683e-11
6.18252e-11
2.35552e-11
5.98985e-11
1.86274e-11
5.38875e-11
1.37434e-11
4.84206e-11
8.47699e-12
4.62511e-11
2.76253e-12
3.72311e-11
5.67006e-13
3.7368e-11
1.18704e-12
3.91572e-11
8.11033e-12
4.80911e-11
2.0132e-12
4.70492e-11
-5.51102e-11
1.63977e-10
1.66794e-10
-1.95804e-09
4.56407e-10
1.51991e-09
-1.04796e-09
-8.42402e-10
-3.94083e-10
-6.14275e-10
-5.33028e-10
-2.90359e-10
-1.42605e-10
-3.32947e-11
-1.46872e-11
2.85215e-11
2.20337e-11
5.58608e-11
3.91477e-11
6.83301e-11
4.94558e-11
7.52082e-11
4.60764e-11
7.12934e-11
4.69559e-11
7.48433e-11
4.42818e-11
7.12054e-11
4.22818e-11
7.19949e-11
4.19272e-11
7.17614e-11
3.75897e-11
6.80112e-11
3.51665e-11
6.86316e-11
3.58254e-11
6.87116e-11
2.89722e-11
6.17461e-11
2.54646e-11
6.14321e-11
2.38562e-11
5.97353e-11
1.91555e-11
5.38635e-11
1.34564e-11
4.6776e-11
8.15013e-12
4.64966e-11
3.1441e-12
3.74538e-11
-1.40969e-14
3.85335e-11
-4.64588e-13
4.18055e-11
4.03055e-12
5.47778e-11
-6.93912e-12
6.09546e-11
-7.73533e-11
1.95125e-10
1.63186e-10
-2.06711e-09
7.14556e-10
1.61327e-09
-1.41521e-09
-9.39245e-10
-2.36559e-10
-5.38039e-10
-5.30155e-10
-2.9561e-10
-1.41095e-10
-3.12836e-11
-1.51489e-11
2.60392e-11
1.94034e-11
5.33027e-11
3.70559e-11
6.61718e-11
4.78938e-11
7.3795e-11
4.50015e-11
6.97878e-11
4.59867e-11
7.38417e-11
4.37435e-11
7.01666e-11
4.18043e-11
7.12223e-11
4.17544e-11
7.11526e-11
3.75272e-11
6.72751e-11
3.51056e-11
6.80293e-11
3.60187e-11
6.83379e-11
2.92449e-11
6.10513e-11
2.56027e-11
6.09584e-11
2.42163e-11
5.95324e-11
1.97796e-11
5.39784e-11
1.30794e-11
4.48021e-11
7.75339e-12
4.67715e-11
3.51446e-12
3.77575e-11
-7.56149e-13
3.98208e-11
-2.35748e-12
4.46771e-11
-3.33749e-13
6.15835e-11
-1.56528e-11
7.39864e-11
-9.62315e-11
2.19527e-10
1.64823e-10
-2.16867e-09
9.59335e-10
1.71292e-09
-1.76039e-09
-1.05304e-09
-8.47665e-11
-4.5223e-10
-5.24568e-10
-3.02438e-10
-1.40436e-10
-2.93938e-11
-1.56491e-11
2.33024e-11
1.65222e-11
5.04396e-11
3.47689e-11
6.3768e-11
4.61714e-11
7.21583e-11
4.38432e-11
6.81265e-11
4.49404e-11
7.26737e-11
4.31715e-11
6.90034e-11
4.1301e-11
7.03303e-11
4.15883e-11
7.04343e-11
3.74899e-11
6.64472e-11
3.5071e-11
6.73371e-11
3.62528e-11
6.78739e-11
2.95776e-11
6.02853e-11
2.57756e-11
6.04044e-11
2.46231e-11
5.92913e-11
2.04746e-11
5.42744e-11
1.26083e-11
4.25149e-11
7.31039e-12
4.70688e-11
3.8674e-12
3.81182e-11
-1.60136e-12
4.11656e-11
-4.36629e-12
4.75638e-11
-4.64439e-12
6.80091e-11
-2.33503e-11
8.50939e-11
-1.10314e-10
2.35701e-10
1.72303e-10
-2.25494e-09
1.17489e-09
1.81176e-09
-2.0666e-09
-1.17847e-09
5.34159e-11
-3.5972e-10
-5.15398e-10
-3.1046e-10
-1.40853e-10
-2.77861e-11
-1.61895e-11
2.03534e-11
1.34249e-11
4.7294e-11
3.23024e-11
6.11374e-11
4.42978e-11
7.03039e-11
4.26057e-11
6.63227e-11
4.3825e-11
7.13414e-11
4.25634e-11
6.77227e-11
4.07731e-11
6.93218e-11
4.14233e-11
6.96102e-11
3.74715e-11
6.55339e-11
3.5058e-11
6.65579e-11
3.65192e-11
6.73201e-11
2.99597e-11
5.9459e-11
2.59788e-11
5.97748e-11
2.50668e-11
5.90043e-11
2.12159e-11
5.47638e-11
1.206e-11
3.99605e-11
6.85136e-12
4.73605e-11
4.21036e-12
3.84995e-11
-2.48408e-12
4.24406e-11
-6.32369e-12
5.02441e-11
-8.5581e-12
7.35818e-11
-2.94143e-11
9.35157e-11
-1.18803e-10
2.43304e-10
1.84744e-10
-2.31952e-09
1.35048e-09
1.90242e-09
-2.3225e-09
-1.3093e-09
1.72051e-10
-2.63793e-10
-5.01959e-10
-3.19149e-10
-1.42509e-10
-2.66221e-11
-1.67815e-11
1.7237e-11
1.01513e-11
4.38922e-11
2.96806e-11
5.83014e-11
4.22916e-11
6.82426e-11
4.12952e-11
6.43922e-11
4.26488e-11
6.985e-11
4.19178e-11
6.63341e-11
4.02238e-11
6.82008e-11
4.12544e-11
6.86852e-11
3.74659e-11
6.45424e-11
3.50634e-11
6.56981e-11
3.68093e-11
6.66791e-11
3.03794e-11
5.8583e-11
2.62107e-11
5.90725e-11
2.55395e-11
5.8659e-11
2.19768e-11
5.54167e-11
1.15027e-11
3.7242e-11
6.41621e-12
4.76049e-11
4.56477e-12
3.88562e-11
-3.32419e-12
4.35432e-11
-8.06494e-12
5.25067e-11
-1.17621e-11
7.79282e-11
-3.34164e-11
9.88311e-11
-1.21497e-10
2.42975e-10
2.00384e-10
-2.35801e-09
1.48066e-09
1.97754e-09
-2.52111e-09
-1.43856e-09
2.67181e-10
-1.67929e-10
-4.83879e-10
-3.27902e-10
-1.45499e-10
-2.60775e-11
-1.74511e-11
1.39991e-11
6.741e-12
4.02623e-11
2.69208e-11
5.52814e-11
4.01688e-11
6.59877e-11
3.99169e-11
6.23486e-11
4.1421e-11
6.82096e-11
4.12335e-11
6.48473e-11
3.96551e-11
6.6974e-11
4.10776e-11
6.76649e-11
3.74681e-11
6.34821e-11
3.50845e-11
6.47645e-11
3.71152e-11
6.5956e-11
3.08282e-11
5.76655e-11
2.64696e-11
5.83004e-11
2.60357e-11
5.82353e-11
2.27239e-11
5.61125e-11
1.10698e-11
3.4571e-11
6.05366e-12
4.77459e-11
4.95505e-12
3.91355e-11
-4.02879e-12
4.43702e-11
-9.44439e-12
5.41686e-11
-1.4027e-11
8.07952e-11
-3.51305e-11
1.00938e-10
-1.18698e-10
2.35855e-10
2.17233e-10
-2.3677e-09
1.56348e-09
2.03076e-09
-2.65953e-09
-1.55941e-09