/*--------------------------------*- C++ -*----------------------------------*\
| =========                 |                                                 |
| \\      /  F ield         | OpenFOAM: The Open Source CFD Toolbox           |
|  \\    /   O peration     | Version:  2312                                  |
|   \\  /    A nd           | Website:  www.openfoam.com                      |
|    \\/     M anipulation  |                                                 |
\*---------------------------------------------------------------------------*/
FoamFile
{
    version     2.0;
    format      ascii;
    arch        "LSB;label=32;scalar=64";
    class       volScalarField;
    location    "480";
    object      pPrime2Mean;
}
// * * * * * * * * * * * * * * * * * * * * * * * * * * * * * * * * * * * * * //

dimensions      [0 4 -4 0 0 0 0];

internalField   nonuniform List<scalar> 
144000
(
5.18616e-18
6.42057e-18
5.94777e-18
4.78039e-18
3.43523e-18
2.47195e-18
1.85799e-18
1.37883e-18
1.02479e-18
8.42196e-19
7.85145e-19
7.09745e-19
6.04303e-19
4.83934e-19
4.03627e-19
3.39588e-19
3.11031e-19
2.66806e-19
2.47603e-19
2.20188e-19
1.98101e-19
1.63896e-19
1.65551e-19
1.2488e-19
1.31677e-19
1.03657e-19
1.04568e-19
8.49577e-20
8.38095e-20
6.599e-20
6.92659e-20
5.07403e-20
5.77803e-20
4.19431e-20
4.43326e-20
4.40078e-20
2.3952e-20
4.91462e-20
1.70556e-20
3.17898e-20
4.04012e-20
4.64693e-21
6.223e-20
1.51893e-20
4.5407e-20
6.85932e-20
2.69813e-20
9.39379e-20
7.33491e-20
7.83969e-20
1.41739e-19
1.24361e-19
1.81868e-19
2.62334e-19
3.27369e-19
4.85836e-19
7.81171e-19
1.38548e-18
3.18328e-18
3.51904e-18
5.43838e-18
6.56802e-18
6.10523e-18
4.89734e-18
3.48978e-18
2.50382e-18
1.8789e-18
1.39222e-18
1.03223e-18
8.46651e-19
7.88873e-19
7.13037e-19
6.06697e-19
4.85504e-19
4.04698e-19
3.40426e-19
3.11819e-19
2.67449e-19
2.48051e-19
2.20771e-19
1.98574e-19
1.64085e-19
1.65945e-19
1.25198e-19
1.31826e-19
1.03993e-19
1.04722e-19
8.52116e-20
8.39927e-20
6.61474e-20
6.94997e-20
5.08514e-20
5.80063e-20
4.21598e-20
4.43942e-20
4.4572e-20
2.37892e-20
4.98091e-20
1.73572e-20
3.17842e-20
4.16397e-20
4.3023e-21
6.34708e-20
1.60442e-20
4.56273e-20
7.1034e-20
2.74881e-20
9.62054e-20
7.6382e-20
8.04661e-20
1.46712e-19
1.29616e-19
1.88465e-19
2.73344e-19
3.41409e-19
5.06623e-19
8.15787e-19
1.43644e-18
3.32808e-18
3.60576e-18
5.61325e-18
6.68516e-18
6.16019e-18
4.93155e-18
3.50099e-18
2.51324e-18
1.88905e-18
1.40046e-18
1.03725e-18
8.4982e-19
7.9223e-19
7.1623e-19
6.09102e-19
4.8696e-19
4.05746e-19
3.41217e-19
3.12802e-19
2.68119e-19
2.48579e-19
2.21467e-19
1.99192e-19
1.64199e-19
1.66595e-19
1.25451e-19
1.32185e-19
1.04337e-19
1.05036e-19
8.55024e-20
8.43431e-20
6.63161e-20
6.99484e-20
5.09645e-20
5.84472e-20
4.24685e-20
4.45713e-20
4.54654e-20
2.3581e-20
5.09509e-20
1.78028e-20
3.19732e-20
4.35629e-20
3.90996e-21
6.55718e-20
1.73549e-20
4.63342e-20
7.47614e-20
2.85794e-20
9.9924e-20
8.11381e-20
8.40054e-20
1.54415e-19
1.37718e-19
1.9839e-19
2.88971e-19
3.60436e-19
5.31928e-19
8.53627e-19
1.48972e-18
3.46354e-18
3.69361e-18
5.56181e-18
6.60856e-18
6.03636e-18
4.80972e-18
3.43632e-18
2.47786e-18
1.87238e-18
1.39275e-18
1.0327e-18
8.47017e-19
7.91415e-19
7.16388e-19
6.09282e-19
4.86917e-19
4.05706e-19
3.41217e-19
3.13228e-19
2.68319e-19
2.48667e-19
2.2189e-19
1.99613e-19
1.64085e-19
1.67114e-19
1.25607e-19
1.32454e-19
1.04657e-19
1.05329e-19
8.57949e-20
8.46883e-20
6.6492e-20
7.04379e-20
5.10755e-20
5.89583e-20
4.28197e-20
4.47667e-20
4.6527e-20
2.33318e-20
5.2323e-20
1.83506e-20
3.22193e-20
4.58526e-20
3.51009e-21
6.80248e-20
1.89989e-20
4.71626e-20
7.91271e-20
2.99676e-20
1.04161e-19
8.67237e-20
8.80375e-20
1.62948e-19
1.46779e-19
2.0868e-19
3.04996e-19
3.78476e-19
5.52922e-19
8.79929e-19
1.50072e-18
3.53145e-18
3.67012e-18
5.30285e-18
6.42132e-18
5.7611e-18
4.53999e-18
3.30156e-18
2.39656e-18
1.82573e-18
1.3656e-18
1.01553e-18
8.35358e-19
7.83576e-19
7.10965e-19
6.05447e-19
4.84169e-19
4.03718e-19
3.39744e-19
3.12442e-19
2.67551e-19
2.47891e-19
2.21595e-19
1.99487e-19
1.63557e-19
1.67195e-19
1.25512e-19
1.32487e-19
1.04801e-19
1.05486e-19
8.59861e-20
8.49265e-20
6.66026e-20
7.08689e-20
5.11408e-20
5.94354e-20
4.31479e-20
4.49092e-20
4.75985e-20
2.30527e-20
5.36754e-20
1.89374e-20
3.24298e-20
4.81577e-20
3.15435e-21
7.03546e-20
2.07665e-20
4.78793e-20
8.34058e-20
3.14213e-20
1.08025e-19
9.2199e-20
9.17571e-20
1.70653e-19
1.55144e-19
2.17131e-19
3.17967e-19
3.9197e-19
5.65064e-19
8.93034e-19
1.47016e-18
3.55819e-18
3.58192e-18
4.98734e-18
6.33513e-18
5.42491e-18
4.19178e-18
3.1258e-18
2.286e-18
1.75518e-18
1.32149e-18
9.86805e-19
8.14996e-19
7.68252e-19
6.99319e-19
5.96952e-19
4.78168e-19
3.9939e-19
3.36472e-19
3.10131e-19
2.65553e-19
2.46024e-19
2.20312e-19
1.98573e-19
1.62475e-19
1.66655e-19
1.25018e-19
1.32182e-19
1.04656e-19
1.05425e-19
8.6003e-20
8.49824e-20
6.65954e-20
7.116e-20
5.11144e-20
5.97939e-20
4.33986e-20
4.4943e-20
4.85573e-20
2.27448e-20
5.48713e-20
1.94933e-20
3.25717e-20
5.02271e-20
2.867e-21
7.23016e-20
2.24421e-20
4.84035e-20
8.70448e-20
3.27694e-20
1.11111e-19
9.68505e-20
9.48503e-20
1.76625e-19
1.61971e-19
2.23183e-19
3.27134e-19
4.00429e-19
5.69985e-19
8.95854e-19
1.41343e-18
3.6028e-18
3.52943e-18
4.68188e-18
6.46683e-18
5.07989e-18
3.81604e-18
2.92334e-18
2.15445e-18
1.66592e-18
1.26374e-18
9.48514e-19
7.873e-19
7.46292e-19
6.81881e-19
5.83988e-19
4.69015e-19
3.92775e-19
3.31446e-19
3.0629e-19
2.623e-19
2.43069e-19
2.17983e-19
1.96816e-19
1.6079e-19
1.65417e-19
1.24032e-19
1.31472e-19
1.04176e-19
1.05069e-19
8.58128e-20
8.48074e-20
6.644e-20
7.12597e-20
5.09774e-20
5.99788e-20
4.35431e-20
4.48402e-20
4.93338e-20
2.24101e-20
5.58188e-20
1.99685e-20
3.26527e-20
5.19428e-20
2.64471e-21
7.38104e-20
2.38809e-20
4.87661e-20
8.98939e-20
3.38858e-20
1.1342e-19
1.00411e-19
9.73067e-20
1.80868e-19
1.67026e-19
2.27063e-19
3.32682e-19
4.04241e-19
5.69589e-19
8.90016e-19
1.34087e-18
3.68516e-18
3.57919e-18
4.40777e-18
6.8333e-18
4.7472e-18
3.44555e-18
2.69979e-18
2.00657e-18
1.56178e-18
1.19497e-18
9.02655e-19
7.53779e-19
7.1893e-19
6.59693e-19
5.67271e-19
4.57111e-19
3.84136e-19
3.24845e-19
3.01073e-19
2.57939e-19
2.39166e-19
2.14721e-19
1.94294e-19
1.58539e-19
1.63522e-19
1.22567e-19
1.30333e-19
1.03371e-19
1.04394e-19
8.54179e-20
8.43913e-20
6.61367e-20
7.11531e-20
5.07354e-20
5.997e-20
4.35844e-20
4.45945e-20
4.99135e-20
2.20562e-20
5.65236e-20
2.03615e-20
3.26744e-20
5.33448e-20
2.46138e-21
7.49395e-20
2.50756e-20
4.90052e-20
9.20654e-20
3.47209e-20
1.15209e-19
1.02964e-19
9.92086e-20
1.83785e-19
1.70502e-19
2.29151e-19
3.35316e-19
4.03846e-19
5.65338e-19
8.75894e-19
1.25977e-18
3.79939e-18
3.73348e-18
4.1696e-18
7.35045e-18
4.43678e-18
3.10395e-18
2.46191e-18
1.8476e-18
1.44713e-18
1.1184e-18
8.51636e-19
7.16152e-19
6.87724e-19
6.33975e-19
5.4772e-19
4.43076e-19
3.73867e-19
3.16947e-19
2.94708e-19
2.52666e-19
2.34506e-19
2.10715e-19
1.91165e-19
1.55821e-19
1.61084e-19
1.20697e-19
1.28772e-19
1.02284e-19
1.03403e-19
8.48383e-20
8.37475e-20
6.57094e-20
7.08557e-20
5.04107e-20
5.97765e-20
4.35483e-20
4.42114e-20
5.03294e-20
2.16922e-20
5.70067e-20
2.0719e-20
3.26155e-20
5.45504e-20
2.27518e-21
7.58007e-20
2.61132e-20
4.90655e-20
9.38225e-20
3.52074e-20
1.16571e-19
1.04727e-19
1.00445e-19
1.8563e-19
1.72383e-19
2.29352e-19
3.35298e-19
3.99208e-19
5.57003e-19
8.52646e-19
1.17524e-18
3.91865e-18
3.93131e-18
3.96057e-18
7.87487e-18
4.15618e-18
2.79909e-18
2.21995e-18
1.68321e-18
1.32702e-18
1.03748e-18
7.97797e-19
6.76219e-19
6.54106e-19
6.05948e-19
5.2631e-19
4.27595e-19
3.62456e-19
3.08105e-19
2.87471e-19
2.46687e-19
2.29274e-19
2.06164e-19
1.87633e-19
1.52761e-19
1.58252e-19
1.1855e-19
1.2683e-19
1.0099e-19
1.02125e-19
8.41009e-20
8.28995e-20
6.519e-20
7.03916e-20
5.00294e-20
5.94151e-20
4.34695e-20
4.36918e-20
5.06125e-20
2.13266e-20
5.72617e-20
2.11115e-20
3.24033e-20
5.56807e-20
2.04656e-21
7.63678e-20
2.7116e-20
4.87665e-20
9.5299e-20
3.52577e-20
1.17324e-19
1.05793e-19
1.00629e-19
1.86185e-19
1.72478e-19
2.27077e-19
3.32142e-19
3.89359e-19
5.43016e-19
8.16583e-19
1.0875e-18
4.00453e-18
4.06621e-18
3.75955e-18
8.21983e-18
3.90758e-18
2.52335e-18
1.98496e-18
1.51958e-18
1.20653e-18
9.55518e-19
7.43454e-19
6.35648e-19
6.19453e-19
5.76782e-19
5.03924e-19
4.11329e-19
3.50403e-19
2.98702e-19
2.79653e-19
2.40242e-19
2.2362e-19
2.01229e-19
1.83879e-19
1.49489e-19
1.55157e-19
1.16271e-19
1.24571e-19
9.95503e-20
1.00605e-19
8.32223e-20
8.18794e-20
6.46067e-20
6.97797e-20
4.96157e-20
5.8897e-20
4.33718e-20
4.30355e-20
5.07819e-20
2.09666e-20
5.72494e-20
2.1599e-20
3.19477e-20
5.67804e-20
1.75212e-21
7.65145e-20
2.81509e-20
4.79096e-20
9.64064e-20
3.47805e-20
1.17106e-19
1.06057e-19
9.93665e-20
1.85047e-19
1.70384e-19
2.21549e-19
3.2516e-19
3.73681e-19
5.21944e-19
7.67102e-19
9.95807e-19
4.0094e-18
4.04928e-18
3.54435e-18
8.26448e-18
3.68596e-18
2.26645e-18
1.76549e-18
1.36189e-18
1.08992e-18
8.75252e-19
6.90395e-19
5.95802e-19
5.84908e-19
5.47423e-19
4.81287e-19
3.9483e-19
3.38116e-19
2.89061e-19
2.71525e-19
2.33533e-19
2.17695e-19
1.96048e-19
1.8002e-19
1.4612e-19
1.51898e-19
1.13987e-19
1.22079e-19
9.80291e-20
9.88973e-20
8.22189e-20
8.07131e-20
6.39774e-20
6.90291e-20
4.91883e-20
5.82391e-20
4.32667e-20
4.22387e-20
5.08306e-20
2.06227e-20
5.69107e-20
2.21926e-20
3.11804e-20
5.78175e-20
1.39475e-21
7.61129e-20
2.92054e-20
4.63362e-20
9.69959e-20
3.37432e-20
1.15659e-19
1.05424e-19
9.64828e-20
1.81954e-19
1.65988e-19
2.12677e-19
3.14234e-19
3.52461e-19
4.93639e-19
7.06454e-19
9.01045e-19
3.90621e-18
3.83907e-18
3.29414e-18
7.96178e-18
3.4772e-18
2.01847e-18
1.56644e-18
1.21396e-18
9.8054e-19
7.98665e-19
6.39853e-19
5.57676e-19
5.51364e-19
5.18631e-19
4.58999e-19
3.78496e-19
3.25913e-19
2.79454e-19
2.63328e-19
2.26754e-19
2.11654e-19
1.90739e-19
1.76135e-19
1.42748e-19
1.48549e-19
1.11788e-19
1.19449e-19
9.6479e-20
9.70721e-20
8.11122e-20
7.94299e-20
6.331e-20
6.8145e-20
4.87623e-20
5.74493e-20
4.31524e-20
4.13188e-20
5.07376e-20
2.03059e-20
5.62105e-20
2.28709e-20
3.01195e-20
5.87973e-20
1.00093e-21
7.5131e-20
3.02357e-20
4.4083e-20
9.69629e-20
3.22042e-20
1.12934e-19
1.039e-19
9.20372e-20
1.76991e-19
1.59558e-19
2.00857e-19
2.99946e-19
3.27001e-19
4.59592e-19
6.38943e-19
8.0511e-19
3.68898e-18
3.44968e-18
3.00073e-18
7.3452e-18
3.26666e-18
1.77544e-18
1.38937e-18
1.0782e-18
8.80313e-19
7.27088e-19
5.92566e-19
5.21921e-19
5.19436e-19
4.90975e-19
4.37467e-19
3.62669e-19
3.1404e-19
2.70099e-19
2.55249e-19
2.20082e-19
2.0564e-19
1.8541e-19
1.7227e-19
1.39446e-19
1.45162e-19
1.09727e-19
1.16761e-19
9.49425e-20
9.51905e-20
7.99315e-20
7.80603e-20
6.26146e-20
6.71381e-20
4.83488e-20
5.65442e-20
4.30239e-20
4.03075e-20
5.04943e-20
2.00281e-20
5.51683e-20
2.35978e-20
2.88158e-20
5.97969e-20
6.13566e-22
7.37069e-20
3.12185e-20
4.12761e-20
9.63021e-20
3.03061e-20
1.09091e-19
1.01664e-19
8.63753e-20
1.70531e-19
1.51649e-19
1.86958e-19
2.83317e-19
2.99162e-19
4.22131e-19
5.7014e-19
7.10988e-19
3.37758e-18
2.94187e-18
2.66719e-18
6.50572e-18
3.04176e-18
1.53992e-18
1.23326e-18
9.55819e-19
7.90058e-19
6.61289e-19
5.4888e-19
4.8886e-19
4.89524e-19
4.64797e-19
4.16958e-19
3.47555e-19
3.02625e-19
2.61127e-19
2.47422e-19
2.13629e-19
1.99762e-19
1.80157e-19
1.6846e-19
1.36267e-19
1.41778e-19
1.07822e-19
1.14077e-19
9.34503e-20
9.33009e-20
7.87126e-20
7.66393e-20
6.19054e-20
6.60289e-20
4.79574e-20
5.55498e-20
4.28787e-20
3.92488e-20
5.011e-20
1.98051e-20
5.38358e-20
2.43544e-20
2.73139e-20
6.10661e-20
2.88542e-22
7.22024e-20
3.21693e-20
3.80846e-20
9.51046e-20
2.82335e-20
1.04359e-19
9.89646e-20
7.99292e-20
1.63053e-19
1.42923e-19
1.71937e-19
2.65491e-19
2.70847e-19
3.83672e-19
5.04514e-19
6.21422e-19
3.00383e-18
2.39189e-18
2.30914e-18
5.56023e-18
2.79653e-18
1.3188e-18
1.09568e-18
8.47141e-19
7.09838e-19
6.01566e-19
5.08829e-19
4.58565e-19
4.61776e-19
4.40287e-19
3.97629e-19
3.3325e-19
2.91746e-19
2.52616e-19
2.39931e-19
2.07467e-19
1.94097e-19
1.75065e-19
1.6473e-19
1.33249e-19
1.38432e-19
1.0607e-19
1.11441e-19
9.20208e-20
9.14441e-20
7.74933e-20
7.51988e-20
6.11985e-20
6.48467e-20
4.75921e-20
5.44998e-20
4.27169e-20
3.81883e-20
4.96057e-20
1.96523e-20
5.22858e-20
2.5122e-20
2.56631e-20
6.3008e-20
7.9017e-23
7.12267e-20
3.31206e-20
3.46838e-20
9.35019e-20
2.61617e-20
9.90415e-20
9.60559e-20
7.31154e-20
1.55032e-19
1.33975e-19
1.56652e-19
2.47447e-19
2.436e-19
3.46194e-19
4.4493e-19
5.38252e-19
2.60726e-18
1.87305e-18
1.94874e-18
4.61161e-18
2.53002e-18
1.11913e-18
9.73719e-19
7.51741e-19
6.39139e-19
5.47847e-19
4.72253e-19
4.30929e-19
4.36203e-19
4.1751e-19
3.79529e-19
3.19792e-19
2.81435e-19
2.44605e-19
2.3282e-19
2.01632e-19
1.8869e-19
1.70193e-19
1.611e-19
1.30414e-19
1.35149e-19
1.0446e-19
1.08881e-19
9.06643e-20
8.96488e-20
7.63027e-20
7.37672e-20
6.05097e-20
6.36235e-20
4.72559e-20
5.34258e-20
4.25449e-20
3.71554e-20
4.90191e-20
1.95546e-20
5.06303e-20
2.58069e-20
2.40497e-20
6.39893e-20
1.00151e-27
6.96868e-20
3.39136e-20
3.12505e-20
9.16094e-20
2.4229e-20
9.33974e-20
9.31377e-20
6.62746e-20
1.46854e-19
1.25261e-19
1.41743e-19
2.29955e-19
2.18368e-19
3.10927e-19
3.92712e-19
4.62617e-19
2.22141e-18
1.43203e-18
1.61258e-18
3.74014e-18
2.24867e-18
9.46146e-19
8.64852e-19
6.68753e-19
5.77151e-19
4.99854e-19
4.38905e-19
4.05755e-19
4.12726e-19
3.96448e-19
3.62654e-19
3.07175e-19
2.71693e-19
2.37095e-19
2.26104e-19
1.96137e-19
1.83562e-19
1.6558e-19
1.57583e-19
1.27774e-19
1.31964e-19
1.02979e-19
1.06421e-19
8.93841e-20
8.79316e-20
7.51622e-20
7.23671e-20
5.98521e-20
6.23897e-20
4.695e-20
5.23547e-20
4.23719e-20
3.61684e-20
4.83909e-20
1.94911e-20
4.89671e-20
2.63255e-20
2.26258e-20
6.17331e-20
7.13977e-23
6.55924e-20
3.44145e-20
2.79204e-20
8.95347e-20
2.2531e-20
8.7626e-20
9.03456e-20
5.96563e-20
1.3878e-19
1.17082e-19
1.27628e-19
2.13455e-19
1.95708e-19
2.78508e-19
3.47862e-19
3.95343e-19
1.87271e-18
1.09288e-18
1.32384e-18
2.99466e-18
1.96328e-18
8.02218e-19
7.67233e-19
5.97016e-19
5.22992e-19
4.57215e-19
4.08517e-19
3.82804e-19
3.91208e-19
3.77029e-19
3.46959e-19
2.95381e-19
2.62499e-19
2.3007e-19
2.19776e-19
1.90974e-19
1.78717e-19
1.61246e-19
1.54188e-19
1.25327e-19
1.28893e-19
1.01612e-19
1.04067e-19
8.81793e-20
8.6301e-20
7.40851e-20
7.10159e-20
5.92339e-20
6.11717e-20
4.6673e-20
5.13111e-20
4.22022e-20
3.52473e-20
4.77415e-20
1.94792e-20
4.73177e-20
2.67587e-20
2.13142e-20
5.87947e-20
2.88841e-22
6.11076e-20
3.48533e-20
2.47562e-20
8.73591e-20
2.11217e-20
8.1877e-20
8.77577e-20
5.34245e-20
1.30987e-19
1.096e-19
1.14544e-19
1.98156e-19
1.7577e-19
2.491e-19
3.09759e-19
3.36844e-19
1.57645e-18
8.58506e-19
1.09951e-18
2.39289e-18
1.68669e-18
6.85947e-19
6.79713e-19
5.35262e-19
4.75764e-19
4.1949e-19
3.80821e-19
3.61824e-19
3.71482e-19
3.59148e-19
3.32376e-19
2.84353e-19
2.53819e-19
2.23505e-19
2.13827e-19
1.86128e-19
1.74143e-19
1.57196e-19
1.50919e-19
1.23067e-19
1.25949e-19
1.00347e-19
1.01825e-19
8.70478e-20
8.47609e-20
7.3078e-20
6.97257e-20
5.86595e-20
5.9989e-20
4.64235e-20
5.03126e-20
4.20395e-20
3.44044e-20
4.70878e-20
1.95326e-20
4.56963e-20
2.71892e-20
2.00524e-20
5.67283e-20
7.08503e-22
5.75643e-20
3.53779e-20
2.18033e-20
8.51325e-20
2.00312e-20
7.62539e-20
8.54104e-20
4.76767e-20
1.23544e-19
1.02885e-19
1.02579e-19
1.84106e-19
1.58448e-19
2.22512e-19
2.77432e-19
2.8716e-19
1.33796e-18
7.1573e-19
9.46808e-19
1.92723e-18
1.42998e-18
5.93265e-19
6.01589e-19
4.8214e-19
4.34641e-19
3.86199e-19
3.55571e-19
3.4257e-19
3.53367e-19
3.4269e-19
3.18825e-19
2.74032e-19
2.45613e-19
2.17368e-19
2.08237e-19
1.81577e-19
1.69826e-19
1.53422e-19
1.47777e-19
1.20981e-19
1.2314e-19
9.91711e-20
9.96927e-20
8.59862e-20
8.33113e-20
7.21439e-20
6.8504e-20
5.81305e-20
5.88539e-20
4.62003e-20
4.937e-20
4.18888e-20
3.36396e-20
4.64483e-20
1.96386e-20
4.41401e-20
2.76124e-20
1.88868e-20
5.51951e-20
1.27322e-21
5.45159e-20
3.5962e-20
1.91126e-20
8.28894e-20
1.92555e-20
7.08269e-20
8.33041e-20
4.246e-20
1.16498e-19
9.69397e-20
9.17299e-20
1.7126e-19
1.43471e-19
1.98507e-19
2.49862e-19
2.46011e-19
1.15345e-18
6.42607e-19
8.65679e-19
1.57635e-18
1.20173e-18
5.18478e-19
5.32352e-19
4.36417e-19
3.98873e-19
3.56882e-19
3.32549e-19
3.24824e-19
3.3669e-19
3.27535e-19
3.06224e-19
2.64356e-19
2.37845e-19
2.11625e-19
2.02983e-19
1.77299e-19
1.65747e-19
1.49913e-19
1.4476e-19
1.19054e-19
1.20469e-19
9.80751e-20
9.76695e-20
8.49897e-20
8.19501e-20
7.12818e-20
6.73554e-20
5.76461e-20
5.7774e-20
4.60016e-20
4.84905e-20
4.17518e-20
3.29534e-20
4.58319e-20
1.97908e-20
4.26658e-20
2.80172e-20
1.78586e-20
5.39281e-20
1.92548e-21
5.17374e-20
3.65772e-20
1.67029e-20
8.06555e-20
1.87768e-20
6.56406e-20
8.14214e-20
3.77902e-20
1.09856e-19
9.17179e-20
8.1943e-20
1.59526e-19
1.30551e-19
1.76752e-19
2.26215e-19
2.12763e-19
1.01437e-18
6.14497e-19
8.49664e-19
1.31126e-18
1.00798e-18
4.55685e-19
4.71523e-19
3.96961e-19
3.678e-19
3.31103e-19
3.11571e-19
3.08402e-19
3.21292e-19
3.13568e-19
2.94499e-19
2.55268e-19
2.30475e-19
2.06244e-19
1.98042e-19
1.73271e-19
1.61888e-19
1.46652e-19
1.41866e-19
1.17273e-19
1.17937e-19
9.70492e-20
9.57513e-20
8.4053e-20
8.06742e-20
7.0489e-20
6.62822e-20
5.72044e-20
5.67539e-20
4.58251e-20
4.76781e-20
4.16279e-20
3.23463e-20
4.52418e-20
1.99888e-20
4.1274e-20
2.84084e-20
1.69743e-20
5.27924e-20
2.64496e-21
4.91561e-20
3.72251e-20
1.45703e-20
7.84451e-20
1.85704e-20
6.07232e-20
7.97339e-20
3.36614e-20
1.036e-19
8.71597e-20
7.31377e-20
1.48806e-19
1.19409e-19
1.56982e-19
2.05738e-19
1.86563e-19
9.0964e-19
6.08315e-19
8.88278e-19
1.10365e-18
8.51714e-19
3.99933e-19
4.18564e-19
3.62855e-19
3.40867e-19
3.08471e-19
2.92475e-19
2.9315e-19
3.07027e-19
3.00681e-19
2.83575e-19
2.4671e-19
2.2347e-19
2.01191e-19
1.9339e-19
1.69471e-19
1.58231e-19
1.43619e-19
1.3909e-19
1.15622e-19
1.15542e-19
9.60849e-20
9.39335e-20
8.31707e-20
7.94794e-20
6.97621e-20
6.52855e-20
5.68028e-20
5.57946e-20
4.56685e-20
4.69339e-20
4.15164e-20
3.1817e-20
4.46806e-20
2.02293e-20
3.99663e-20
2.87916e-20
1.62254e-20
5.17138e-20
3.42495e-21
4.67431e-20
3.79001e-20
1.27083e-20
7.62676e-20
1.86058e-20
5.60959e-20
7.82088e-20
3.00558e-20
9.77092e-20
8.31967e-20
6.52368e-20
1.38993e-19
1.09801e-19
1.38963e-19
1.8788e-19
1.66649e-19
8.28072e-19
6.04294e-19
9.68409e-19
9.28204e-19
7.32724e-19
3.47752e-19
3.72721e-19
3.33343e-19
3.17603e-19
2.88645e-19
2.75122e-19
2.78943e-19
2.93768e-19
2.88773e-19
2.73385e-19
2.38632e-19
2.16793e-19
1.96437e-19
1.89005e-19
1.65881e-19
1.5476e-19
1.40795e-19
1.36427e-19
1.14087e-19
1.13279e-19
9.5176e-20
9.22098e-20
8.23384e-20
7.83612e-20
6.9098e-20
6.4365e-20
5.64392e-20
5.48955e-20
4.55302e-20
4.62583e-20
4.1417e-20
3.13634e-20
4.41508e-20
2.05072e-20
3.87468e-20
2.91674e-20
1.5604e-20
5.06792e-20
4.25859e-21
4.44866e-20
3.859e-20
1.11082e-20
7.41386e-20
1.88509e-20
5.17758e-20
7.68238e-20
2.69487e-20
9.21774e-20
7.97664e-20
5.81774e-20
1.30018e-19
1.01545e-19
1.22521e-19
1.72215e-19
1.52306e-19
7.59034e-19
5.87674e-19
5.19527e-18
6.44295e-18
5.97123e-18
4.79433e-18
3.44392e-18
2.47668e-18
1.8617e-18
1.38202e-18
1.02726e-18
8.43792e-19
7.86034e-19
7.10208e-19
6.04483e-19
4.83956e-19
4.03539e-19
3.39488e-19
3.10928e-19
2.66779e-19
2.47612e-19
2.20206e-19
1.98136e-19
1.63929e-19
1.65609e-19
1.24897e-19
1.31725e-19
1.03663e-19
1.04611e-19
8.49683e-20
8.38606e-20
6.59799e-20
6.93045e-20
5.07191e-20
5.77952e-20
4.19223e-20
4.43391e-20
4.39961e-20
2.39638e-20
4.9142e-20
1.7076e-20
3.17874e-20
4.04397e-20
4.63834e-21
6.22415e-20
1.51643e-20
4.54497e-20
6.86686e-20
2.69684e-20
9.40425e-20
7.33594e-20
7.85055e-20
1.41789e-19
1.24478e-19
1.81771e-19
2.62402e-19
3.27057e-19
4.85499e-19
7.80431e-19
1.38351e-18
3.19863e-18
3.5292e-18
5.44712e-18
6.59167e-18
6.12885e-18
4.91211e-18
3.49844e-18
2.50856e-18
1.88263e-18
1.39539e-18
1.0347e-18
8.48242e-19
7.89753e-19
7.13492e-19
6.0687e-19
4.85518e-19
4.04604e-19
3.40318e-19
3.11713e-19
2.67419e-19
2.4806e-19
2.20787e-19
1.98609e-19
1.64117e-19
1.66003e-19
1.25214e-19
1.31874e-19
1.03998e-19
1.04765e-19
8.5223e-20
8.40442e-20
6.61379e-20
6.95383e-20
5.08309e-20
5.80205e-20
4.21404e-20
4.43998e-20
4.45616e-20
2.37999e-20
4.98056e-20
1.7377e-20
3.17821e-20
4.16804e-20
4.29361e-21
6.34845e-20
1.60181e-20
4.56713e-20
7.11132e-20
2.7476e-20
9.63124e-20
7.63952e-20
8.05746e-20
1.46766e-19
1.29733e-19
1.88357e-19
2.73398e-19
3.41078e-19
5.06264e-19
8.1488e-19
1.43443e-18
3.34364e-18
3.61589e-18
5.62477e-18
6.70963e-18
6.18352e-18
4.9464e-18
3.50935e-18
2.51761e-18
1.89258e-18
1.40359e-18
1.03968e-18
8.51399e-19
7.93101e-19
7.16668e-19
6.09265e-19
4.86964e-19
4.05641e-19
3.411e-19
3.12689e-19
2.68084e-19
2.48586e-19
2.2148e-19
1.99226e-19
1.64231e-19
1.66652e-19
1.25465e-19
1.32232e-19
1.04341e-19
1.05079e-19
8.55152e-20
8.43966e-20
6.63075e-20
6.99879e-20
5.09449e-20
5.84608e-20
4.24509e-20
4.45766e-20
4.54569e-20
2.3591e-20
5.09498e-20
1.78227e-20
3.19707e-20
4.36069e-20
3.90098e-21
6.55913e-20
1.73253e-20
4.63822e-20
7.48478e-20
2.85698e-20
1.00035e-19
8.11569e-20
8.41188e-20
1.54479e-19
1.37845e-19
1.98296e-19
2.89066e-19
3.60126e-19
5.31598e-19
8.52691e-19
1.48855e-18
3.47871e-18
3.7049e-18
5.57399e-18
6.63422e-18
6.05775e-18
4.82357e-18
3.44403e-18
2.48152e-18
1.87571e-18
1.39574e-18
1.03509e-18
8.48557e-19
7.9226e-19
7.16803e-19
6.09423e-19
4.86905e-19
4.05588e-19
3.41084e-19
3.13104e-19
2.68278e-19
2.48672e-19
2.21901e-19
1.99645e-19
1.64117e-19
1.67171e-19
1.2562e-19
1.325e-19
1.0466e-19
1.05372e-19
8.58098e-20
8.47426e-20
6.64854e-20
7.04777e-20
5.10576e-20
5.89706e-20
4.28043e-20
4.47698e-20
4.65212e-20
2.33403e-20
5.23218e-20
1.83705e-20
3.22165e-20
4.59071e-20
3.50144e-21
6.80506e-20
1.89602e-20
4.7218e-20
7.92224e-20
2.99618e-20
1.04282e-19
8.67532e-20
8.81602e-20
1.63037e-19
1.46934e-19
2.08614e-19
3.05143e-19
3.78266e-19
5.52755e-19
8.79251e-19
1.50089e-18
3.54802e-18
3.68237e-18
5.31163e-18
6.44475e-18
5.77916e-18
4.55184e-18
3.30814e-18
2.40006e-18
1.82863e-18
1.36839e-18
1.0178e-18
8.36852e-19
7.84376e-19
7.11359e-19
6.05558e-19
4.84132e-19
4.03584e-19
3.39593e-19
3.12302e-19
2.675e-19
2.4789e-19
2.21601e-19
1.99513e-19
1.63588e-19
1.67252e-19
1.25525e-19
1.32529e-19
1.04804e-19
1.05525e-19
8.60041e-20
8.49812e-20
6.65996e-20
7.09074e-20
5.11261e-20
5.94448e-20
4.3136e-20
4.49104e-20
4.75957e-20
2.30578e-20
5.36774e-20
1.89571e-20
3.24257e-20
4.822e-20
3.14709e-21
7.0389e-20
2.07106e-20
4.79446e-20
8.3513e-20
3.14219e-20
1.08155e-19
9.22407e-20
9.18984e-20
1.70774e-19
1.55337e-19
2.17129e-19
3.18202e-19
3.91891e-19
5.65138e-19
8.92775e-19
1.47042e-18
3.57641e-18
3.59379e-18
4.99737e-18
6.35356e-18
5.43986e-18
4.20153e-18
3.13104e-18
2.28896e-18
1.75776e-18
1.32409e-18
9.89058e-19
8.1648e-19
7.69016e-19
6.9967e-19
5.97036e-19
4.78111e-19
3.99239e-19
3.36302e-19
3.09974e-19
2.65492e-19
2.46015e-19
2.20312e-19
1.98593e-19
1.62505e-19
1.6671e-19
1.25031e-19
1.3222e-19
1.04659e-19
1.05459e-19
8.60249e-20
8.50366e-20
6.65973e-20
7.11969e-20
5.11037e-20
5.97978e-20
4.33916e-20
4.49389e-20
4.85598e-20
2.27463e-20
5.48759e-20
1.95118e-20
3.25658e-20
5.03012e-20
2.86262e-21
7.23465e-20
2.23591e-20
4.84798e-20
8.71634e-20
3.27779e-20
1.1125e-19
9.69057e-20
9.50113e-20
1.76772e-19
1.62201e-19
2.23233e-19
3.27455e-19
4.00453e-19
5.70289e-19
8.95895e-19
1.41422e-18
3.6217e-18
3.53931e-18
4.69157e-18
6.47917e-18
5.09191e-18
3.82392e-18
2.92773e-18
2.15691e-18
1.66824e-18
1.26625e-18
9.50731e-19
7.88747e-19
7.4701e-19
6.82186e-19
5.84047e-19
4.6894e-19
3.92609e-19
3.3126e-19
3.06115e-19
2.62226e-19
2.43052e-19
2.17978e-19
1.96826e-19
1.6082e-19
1.65468e-19
1.24048e-19
1.31505e-19
1.0418e-19
1.05095e-19
8.58392e-20
8.48584e-20
6.64484e-20
7.12921e-20
5.09723e-20
5.99762e-20
4.35424e-20
4.4829e-20
4.93434e-20
2.24053e-20
5.58254e-20
1.99835e-20
3.26414e-20
5.20286e-20
2.64482e-21
7.38664e-20
2.37595e-20
4.88541e-20
9.00235e-20
3.39027e-20
1.13564e-19
1.00479e-19
9.74843e-20
1.81038e-19
1.67291e-19
2.27153e-19
3.33086e-19
4.04325e-19
5.70087e-19
8.90243e-19
1.34194e-18
3.70379e-18
3.5866e-18
4.41681e-18
6.84009e-18
4.75644e-18
3.45189e-18
2.70347e-18
2.00856e-18
1.56386e-18
1.19743e-18
9.04849e-19
7.55193e-19
7.19633e-19
6.59966e-19
5.67308e-19
4.5702e-19
3.83957e-19
3.24648e-19
3.00881e-19
2.57854e-19
2.3914e-19
2.1471e-19
1.94294e-19
1.58569e-19
1.63569e-19
1.22585e-19
1.30358e-19
1.03377e-19
1.04411e-19
8.54492e-20
8.4437e-20
6.61531e-20
7.11786e-20
5.07378e-20
5.99575e-20
4.35919e-20
4.45739e-20
4.99302e-20
2.20413e-20
5.65354e-20
2.03689e-20
3.26561e-20
5.34361e-20
2.46732e-21
7.50277e-20
2.49005e-20
4.91024e-20
9.2199e-20
3.47451e-20
1.15357e-19
1.03043e-19
9.94002e-20
1.83972e-19
1.70798e-19
2.29269e-19
3.35776e-19
4.03965e-19
5.65976e-19
8.76141e-19
1.2609e-18
3.81695e-18
3.73849e-18
4.17797e-18
7.35319e-18
4.44355e-18
3.10898e-18
2.46494e-18
1.84916e-18
1.449e-18
1.12078e-18
8.5378e-19
7.17536e-19
6.88401e-19
6.3422e-19
5.47739e-19
4.42972e-19
3.73674e-19
3.16741e-19
2.945e-19
2.52572e-19
2.34472e-19
2.10701e-19
1.91154e-19
1.55851e-19
1.61125e-19
1.20721e-19
1.28791e-19
1.02292e-19
1.0341e-19
8.48755e-20
8.37863e-20
6.57349e-20
7.08731e-20
5.0422e-20
5.97524e-20
4.35661e-20
4.41779e-20
5.03534e-20
2.16633e-20
5.70269e-20
2.07086e-20
3.25876e-20
5.46368e-20
2.28687e-21
7.59172e-20
2.58658e-20
4.91672e-20
9.39681e-20
3.52382e-20
1.16719e-19
1.04815e-19
1.00644e-19
1.85825e-19
1.72699e-19
2.29488e-19
3.35795e-19
3.99325e-19
5.5772e-19
8.52937e-19
1.17637e-18
3.93466e-18
3.93465e-18
3.96828e-18
7.87554e-18
4.16074e-18
2.80314e-18
2.2224e-18
1.68441e-18
1.32867e-18
1.03976e-18
7.99889e-19
6.77575e-19
6.54763e-19
6.06176e-19
5.26314e-19
4.27483e-19
3.62258e-19
3.07893e-19
2.8725e-19
2.46584e-19
2.29231e-19
2.06147e-19
1.87612e-19
1.52792e-19
1.58285e-19
1.18579e-19
1.2684e-19
1.01002e-19
1.0212e-19
8.41442e-20
8.29311e-20
6.52253e-20
7.03989e-20
5.00508e-20
5.93769e-20
4.34988e-20
4.36437e-20
5.06484e-20
2.12788e-20
5.72947e-20
2.10757e-20
3.23759e-20
5.57349e-20
2.06275e-21
7.65428e-20
2.67744e-20
4.88677e-20
9.54524e-20
3.52938e-20
1.17468e-19
1.05885e-19
1.00831e-19
1.86382e-19
1.728e-19
2.27208e-19
3.3265e-19
3.89467e-19
5.43764e-19
8.16838e-19
1.08858e-18
4.01882e-18
4.06894e-18
3.76669e-18
8.21985e-18
3.9105e-18
2.52666e-18
1.98691e-18
1.52047e-18
1.20797e-18
9.57693e-19
7.45498e-19
6.3698e-19
6.20095e-19
5.76997e-19
5.03915e-19
4.1121e-19
3.50199e-19
2.98485e-19
2.79423e-19
2.40133e-19
2.23567e-19
2.01212e-19
1.83847e-19
1.49522e-19
1.55182e-19
1.16305e-19
1.24573e-19
9.95664e-20
1.00588e-19
8.32717e-20
8.19015e-20
6.46529e-20
6.97758e-20
4.96484e-20
5.88447e-20
4.3414e-20
4.29683e-20
5.08341e-20
2.08957e-20
5.72967e-20
2.15171e-20
3.19123e-20
5.67565e-20
1.77022e-21
7.67391e-20
2.76945e-20
4.80029e-20
9.65663e-20
3.482e-20
1.17243e-19
1.06151e-19
9.95643e-20
1.85242e-19
1.707e-19
2.21678e-19
3.25652e-19
3.73767e-19
5.22638e-19
7.67325e-19
9.96766e-19
4.02176e-18
4.05225e-18
3.55117e-18
8.26495e-18
3.68764e-18
2.26917e-18
1.76701e-18
1.36249e-18
1.09116e-18
8.77317e-19
6.92386e-19
5.97107e-19
5.85536e-19
5.47628e-19
4.81276e-19
3.94705e-19
3.37909e-19
2.88841e-19
2.71287e-19
2.33419e-19
2.17634e-19
1.9603e-19
1.79978e-19
1.46155e-19
1.51916e-19
1.14027e-19
1.22073e-19
9.80494e-20
9.88701e-20
8.22738e-20
8.07247e-20
6.40336e-20
6.90135e-20
4.92326e-20
5.81711e-20
4.33222e-20
4.21529e-20
5.08992e-20
2.0523e-20
5.69807e-20
2.2048e-20
3.11394e-20
5.76484e-20
1.41323e-21
7.63584e-20
2.86168e-20
4.64216e-20
9.71572e-20
3.37842e-20
1.15785e-19
1.05517e-19
9.66696e-20
1.8214e-19
1.66285e-19
2.12795e-19
3.14684e-19
3.52529e-19
4.94223e-19
7.06645e-19
9.01855e-19
3.91667e-18
3.84276e-18
3.30073e-18
7.96315e-18
3.47809e-18
2.02071e-18
1.56759e-18
1.21436e-18
9.81585e-19
8.00611e-19
6.41785e-19
5.5895e-19
5.51979e-19
5.18831e-19
4.58979e-19
3.78374e-19
3.25708e-19
2.79233e-19
2.63085e-19
2.26639e-19
2.11584e-19
1.90721e-19
1.76085e-19
1.42785e-19
1.4856e-19
1.11835e-19
1.19436e-19
9.6503e-20
9.70342e-20
8.1172e-20
7.94313e-20
6.33756e-20
6.81184e-20
4.88176e-20
5.73657e-20
4.32214e-20
4.1213e-20
5.08228e-20
2.01752e-20
5.63086e-20
2.26516e-20
3.00565e-20
5.83245e-20
1.02298e-21
7.53197e-20
2.95056e-20
4.41518e-20
9.71194e-20
3.22462e-20
1.13048e-19
1.03989e-19
9.2207e-20
1.77163e-19
1.59828e-19
2.00966e-19
3.00333e-19
3.27054e-19
4.60024e-19
6.39112e-19
8.05764e-19
3.69761e-18
3.45398e-18
3.00709e-18
7.34746e-18
3.26717e-18
1.77721e-18
1.39021e-18
1.07843e-18
8.81175e-19
7.28908e-19
5.94432e-19
5.23161e-19
5.20028e-19
4.91166e-19
4.37441e-19
3.6255e-19
3.1383e-19
2.69876e-19
2.55002e-19
2.19965e-19
2.05563e-19
1.85393e-19
1.72212e-19
1.39485e-19
1.45167e-19
1.09779e-19
1.16741e-19
9.49698e-20
9.51431e-20
7.99954e-20
7.8052e-20
6.26885e-20
6.71015e-20
4.84147e-20
5.64474e-20
4.31052e-20
4.01846e-20
5.05949e-20
1.98695e-20
5.5293e-20
2.32972e-20
2.87203e-20
5.87282e-20
6.46901e-22
7.36681e-20
3.03375e-20
4.1321e-20
9.64521e-20
3.03484e-20
1.0919e-19
1.01747e-19
8.65253e-20
1.70689e-19
1.51885e-19
1.87055e-19
2.83626e-19
2.99203e-19
4.22386e-19
5.70284e-19
7.11476e-19
3.38449e-18
2.94652e-18
2.67324e-18
6.50849e-18
3.04219e-18
1.54122e-18
1.23383e-18
9.55929e-19
7.90758e-19
6.62978e-19
5.50674e-19
4.90063e-19
4.90101e-19
4.6498e-19
4.16927e-19
3.47436e-19
3.02416e-19
2.60905e-19
2.47172e-19
2.13512e-19
1.99678e-19
1.80142e-19
1.68395e-19
1.36308e-19
1.41777e-19
1.07877e-19
1.14051e-19
9.34802e-20
9.32455e-20
7.87794e-20
7.66226e-20
6.1986e-20
6.59838e-20
4.80321e-20
5.54423e-20
4.29697e-20
3.91124e-20
5.02219e-20
1.96203e-20
5.39905e-20
2.39543e-20
2.72156e-20
5.88431e-20
3.34583e-22
7.1498e-20
3.11148e-20
3.81126e-20
9.52444e-20
2.82737e-20
1.04443e-19
9.90407e-20
8.0058e-20
1.63196e-19
1.43122e-19
1.72026e-19
2.65718e-19
2.70886e-19
3.83745e-19
5.04635e-19
6.21749e-19
3.00914e-18
2.39669e-18
2.31479e-18
5.56312e-18
2.79706e-18
1.31965e-18
1.09602e-18
8.47168e-19
7.104e-19
6.03123e-19
5.10546e-19
4.5973e-19
4.62336e-19
4.40461e-19
3.97592e-19
3.33129e-19
2.91538e-19
2.52396e-19
2.3968e-19
2.0735e-19
1.94007e-19
1.7505e-19
1.6466e-19
1.33291e-19
1.38425e-19
1.06129e-19
1.11411e-19
9.20528e-20
9.13821e-20
7.75617e-20
7.5175e-20
6.12842e-20
6.47949e-20
4.76739e-20
5.43844e-20
4.28158e-20
3.80399e-20
4.97301e-20
1.94376e-20
5.24808e-20
2.46007e-20
2.56351e-20
5.86792e-20
1.27411e-22
6.8964e-20
3.18546e-20
3.47128e-20
9.3622e-20
2.61981e-20