/*--------------------------------*- C++ -*----------------------------------*\
| =========                 |                                                 |
| \\      /  F ield         | OpenFOAM: The Open Source CFD Toolbox           |
|  \\    /   O peration     | Version:  2312                                  |
|   \\  /    A nd           | Website:  www.openfoam.com                      |
|    \\/     M anipulation  |                                                 |
\*---------------------------------------------------------------------------*/
FoamFile
{
    version     2.0;
    format      ascii;
    arch        "LSB;label=32;scalar=64";
    class       volScalarField;
    location    "920";
    object      nut;
}
// * * * * * * * * * * * * * * * * * * * * * * * * * * * * * * * * * * * * * //

dimensions      [0 2 -1 0 0 0 0];

internalField   nonuniform List<scalar> 
144000
(
9.8921e-31
8.03014e-31
4.7694e-31
8.99291e-29
1.44274e-29
1.56155e-31
1.06242e-29
2.37743e-30
6.54279e-30
4.35301e-30
6.04559e-30
4.93132e-30
6.67574e-30
6.00201e-30
6.09044e-30
5.11727e-30
7.0989e-30
8.09654e-30
7.28867e-30
7.00253e-30
8.24971e-30
8.95768e-30
8.75306e-30
8.68641e-30
8.21194e-30
8.55878e-30
9.36209e-30
9.65534e-30
9.60451e-30
9.40526e-30
8.42059e-30
8.10824e-30
9.47544e-30
9.64628e-30
8.73855e-30
7.71445e-30
6.58384e-30
5.90524e-30
5.42259e-30
3.73497e-30
3.98468e-30
1.96081e-30
6.19528e-30
4.85278e-30
3.74488e-30
3.3263e-30
1.42813e-30
7.68013e-31
1.59209e-31
5.56849e-32
6.83446e-32
6.01241e-31
4.73448e-30
1.28062e-29
7.28075e-29
3.63792e-29
1.30038e-28
1.0153e-26
2.41749e-26
4.49748e-27
5.94984e-27
8.67014e-28
2.3579e-28
8.88174e-28
5.73732e-30
2.08091e-30
1.84917e-29
7.4259e-30
8.84917e-30
1.36984e-29
8.62593e-30
1.38147e-29
1.03993e-29
1.57719e-29
1.06493e-29
1.21309e-29
1.19974e-29
1.94438e-29
1.38627e-29
1.50908e-29
1.50957e-29
2.02629e-29
1.63742e-29
1.90387e-29
1.52624e-29
1.82279e-29
1.72347e-29
2.08994e-29
1.78769e-29
1.97939e-29
1.57787e-29
1.61358e-29
1.70499e-29
1.97537e-29
1.60909e-29
1.4639e-29
1.16759e-29
1.04973e-29
9.42772e-30
7.15784e-30
7.37673e-30
5.7635e-30
1.51479e-29
6.54738e-30
8.05087e-30
5.92334e-30
3.13957e-30
9.95456e-31
3.51936e-31
3.97415e-32
6.7175e-32
2.40135e-30
7.56938e-30
4.06616e-29
1.21114e-28
1.6587e-28
1.60628e-28
2.13689e-26
1.37641e-25
3.30117e-27
2.91791e-26
1.56005e-27
2.38227e-27
7.71092e-28
3.72824e-29
9.24393e-31
2.84827e-29
1.07365e-29
1.31926e-29
1.75307e-29
1.35e-29
1.69236e-29
1.61243e-29
2.03454e-29
1.57041e-29
1.66331e-29
1.78803e-29
2.56208e-29
1.99671e-29
2.09183e-29
2.16178e-29
2.74182e-29
2.30413e-29
2.62194e-29
2.12315e-29
2.55899e-29
2.38534e-29
2.87337e-29
2.4489e-29
2.73105e-29
2.1181e-29
2.2963e-29
2.28346e-29
2.67171e-29
2.11244e-29
1.98679e-29
1.50521e-29
1.44317e-29
1.22267e-29
1.0219e-29
1.11991e-29
7.92265e-30
2.54472e-29
7.65672e-30
1.24205e-29
8.08939e-30
4.23991e-30
1.63038e-30
4.1715e-31
1.41004e-31
1.86709e-31
2.04491e-30
1.41467e-29
4.36647e-29
1.98843e-28
1.3508e-28
5.70511e-28
3.87703e-26
1.43767e-25
1.21612e-26
1.42377e-25
1.92026e-26
1.04007e-26
2.94554e-27
3.22594e-29
1.24919e-30
2.80967e-29
1.36366e-29
1.293e-29
1.7957e-29
1.35031e-29
1.697e-29
1.62312e-29
2.05323e-29
1.58273e-29
1.66299e-29
1.77544e-29
2.58596e-29
1.98853e-29
2.08294e-29
2.14784e-29
2.73562e-29
2.29023e-29
2.59932e-29
2.09597e-29
2.54415e-29
2.32283e-29
2.87068e-29
2.38488e-29
2.69249e-29
2.05197e-29
2.25976e-29
2.17347e-29
2.63806e-29
2.00593e-29
1.93248e-29
1.43383e-29
1.42746e-29
1.20812e-29
1.08774e-29
1.13757e-29
1.13303e-29
2.50992e-29
7.05339e-30
1.45608e-29
7.53869e-30
4.89346e-30
1.54766e-30
5.74383e-31
2.19334e-31
1.01757e-31
2.23045e-30
1.19782e-29
4.12633e-29
1.73333e-28
1.17453e-28
7.23094e-28
5.58226e-26
2.11292e-25
4.23003e-26
3.4386e-25
1.11729e-25
2.06838e-26
1.00162e-26
6.92398e-29
1.83095e-30
3.15613e-29
1.73668e-29
1.27702e-29
1.93297e-29
1.29383e-29
1.82784e-29
1.5882e-29
2.14073e-29
1.56023e-29
1.69949e-29
1.74633e-29
2.67657e-29
1.9593e-29
2.09446e-29
2.13094e-29
2.76876e-29
2.26515e-29
2.59768e-29
2.06215e-29
2.54331e-29
2.28041e-29
2.89146e-29
2.3227e-29
2.69115e-29
1.99466e-29
2.24761e-29
2.11518e-29
2.67721e-29
1.94524e-29
1.9652e-29
1.42162e-29
1.51656e-29
1.26096e-29
1.22369e-29
1.16981e-29
1.34754e-29
2.21786e-29
8.28793e-30
1.64402e-29
7.49992e-30
5.60021e-30
1.63191e-30
8.22096e-31
4.07682e-31
4.53517e-32
2.30153e-30
9.84701e-30
3.81517e-29
1.45221e-28
9.21802e-29
1.01976e-27
8.86561e-26
2.97514e-25
1.6327e-25
5.7519e-25
3.82573e-25
2.75845e-26
2.55676e-26
2.00227e-28
3.75561e-30
3.90919e-29
2.13514e-29
1.38805e-29
2.10547e-29
1.27135e-29
1.96763e-29
1.59254e-29
2.27733e-29
1.56577e-29
1.7898e-29
1.77297e-29
2.84142e-29
1.96625e-29
2.17257e-29
2.17213e-29
2.88793e-29
2.29896e-29
2.66335e-29
2.09101e-29
2.61526e-29
2.32053e-29
3.0017e-29
2.34935e-29
2.77235e-29
2.01709e-29
2.32619e-29
2.1783e-29
2.84451e-29
2.00234e-29
2.11886e-29
1.51539e-29
1.72731e-29
1.39242e-29
1.39589e-29
1.18063e-29
1.73609e-29
2.01157e-29
1.13712e-29
1.82372e-29
8.40323e-30
6.47045e-30
2.03023e-30
1.24875e-30
8.19042e-31
2.01213e-32
2.42403e-30
7.70122e-30
3.45741e-29
1.14187e-28
6.3746e-29
1.46751e-27
1.44745e-25
3.91397e-25
4.95042e-25
7.70912e-25
9.70865e-25
2.83445e-26
5.32548e-26
5.4443e-28
8.45609e-30
5.11607e-29
2.7727e-29
1.58026e-29
2.26611e-29
1.28896e-29
2.08073e-29
1.6308e-29
2.40512e-29
1.58644e-29
1.88972e-29
1.84388e-29
3.0196e-29
1.99094e-29
2.28388e-29
2.24691e-29
3.04022e-29
2.35279e-29
2.75776e-29
2.1512e-29
2.73279e-29
2.41553e-29
3.14978e-29
2.42154e-29
2.90115e-29
2.0925e-29
2.47893e-29
2.33147e-29
3.08837e-29
2.13731e-29
2.35185e-29
1.68709e-29
2.0291e-29
1.58313e-29
1.60429e-29
1.22089e-29
1.9819e-29
1.85192e-29
1.64893e-29
2.02673e-29
1.02815e-29
7.4941e-30
2.90207e-30
2.01201e-30
1.71857e-30
4.9548e-32
2.76515e-30
5.87165e-30
3.00675e-29
8.20028e-29
3.97798e-29
1.96323e-27
2.29701e-25
5.02607e-25
1.19821e-24
8.88312e-25
1.99775e-24
2.41645e-26
9.55863e-26
1.27375e-27
1.66209e-29
6.79493e-29
3.62822e-29
1.82889e-29
2.42626e-29
1.33182e-29
2.16973e-29
1.68719e-29
2.51856e-29
1.61776e-29
1.98029e-29
1.93671e-29
3.19164e-29
2.02392e-29
2.40123e-29
2.33435e-29
3.20851e-29
2.41306e-29
2.86601e-29
2.2313e-29
2.87368e-29
2.53102e-29
3.32723e-29
2.52705e-29
3.05776e-29
2.20878e-29
2.67696e-29
2.5399e-29
3.39097e-29
2.33092e-29
2.64558e-29
1.93124e-29
2.42044e-29
1.84063e-29
1.85718e-29
1.31986e-29
2.38668e-29
1.73633e-29
2.31301e-29
2.3019e-29
1.33617e-29
8.82476e-30
4.59591e-30
3.38214e-30
3.67718e-30
3.21144e-31
3.90375e-30
5.20568e-30
2.67479e-29
5.68945e-29
3.35241e-29
2.47355e-27
3.47692e-25
6.40772e-25
2.38503e-24
9.17671e-25
3.61008e-24
1.70942e-26
1.55986e-25
2.71524e-27
2.96456e-29
8.88905e-29
4.52201e-29
2.11819e-29
2.59818e-29
1.39174e-29
2.24354e-29
1.76486e-29
2.61755e-29
1.66027e-29
2.077e-29
2.06101e-29
3.35515e-29
2.06743e-29
2.52375e-29
2.45001e-29
3.38445e-29
2.47857e-29
2.99099e-29
2.33009e-29
3.04066e-29
2.68386e-29
3.52681e-29
2.65317e-29
3.25041e-29
2.36128e-29
2.92356e-29
2.81364e-29
3.74608e-29
2.57523e-29
3.01255e-29
2.26669e-29
2.94595e-29
2.24099e-29
2.31057e-29
1.67498e-29
3.09155e-29
1.49988e-29
3.19522e-29
2.72964e-29
1.80636e-29
1.08131e-29
7.70356e-30
6.00222e-30
7.84641e-30
1.55836e-30
7.35341e-30
7.5618e-30
2.90652e-29
5.18441e-29
7.20373e-29
2.86723e-27
5.04565e-25
8.60147e-25
4.19219e-24
8.61989e-25
5.87437e-24
1.08269e-26
2.33817e-25
5.32968e-27
4.92546e-29
1.14855e-28
5.42796e-29
2.43776e-29
2.78983e-29
1.46632e-29
2.30687e-29
1.86286e-29
2.70459e-29
1.72471e-29
2.17027e-29
2.20892e-29
3.50787e-29
2.12905e-29
2.64525e-29
2.58765e-29
3.5651e-29
2.56208e-29
3.12611e-29
2.45529e-29
3.22824e-29
2.85573e-29
3.75334e-29
2.80995e-29
3.46894e-29
2.55243e-29
3.21158e-29
3.13359e-29
4.16135e-29
2.88386e-29
3.46748e-29
2.72809e-29
3.67084e-29
2.87375e-29
3.18596e-29
2.77143e-29
3.3542e-29
1.24033e-29
4.19971e-29
3.40204e-29
2.51247e-29
1.40543e-29
1.32165e-29
1.10602e-29
1.63777e-29
5.76015e-30
1.70326e-29
1.84041e-29
4.78025e-29
9.09027e-29
2.6153e-28
3.21766e-27
7.07819e-25
1.19385e-24
6.62436e-24
7.60676e-25
8.88551e-24
7.4275e-27
3.28679e-25
9.89163e-27
7.9662e-29
1.48599e-28
6.26127e-29
2.76489e-29
3.00773e-29
1.55197e-29
2.36137e-29
1.98324e-29
2.77915e-29
1.80474e-29
2.26613e-29
2.38942e-29
3.64558e-29
2.20642e-29
2.76774e-29
2.75946e-29
3.73835e-29
2.66096e-29
3.27026e-29
2.60377e-29
3.43518e-29
3.06411e-29
3.98916e-29
2.98728e-29
3.71708e-29
2.77811e-29
3.54781e-29
3.51594e-29
4.63072e-29
3.25934e-29
4.03109e-29
3.3489e-29
4.65686e-29
3.83305e-29
4.66483e-29
4.13019e-29
4.70091e-29
1.28303e-29
4.78923e-29
4.69245e-29
3.47518e-29
1.96089e-29
2.26329e-29
2.08729e-29
3.31756e-29
1.74398e-29
4.18632e-29
5.30613e-29
1.10543e-28
2.46792e-28
8.56157e-28
3.41862e-27
9.73902e-25
1.77834e-24
9.73208e-24
6.37047e-25
1.26058e-23
1.00489e-26
4.34906e-25
1.7371e-26
1.27208e-28
1.89999e-28
6.98902e-29
3.08948e-29
3.2804e-29
1.63214e-29
2.42614e-29
2.10555e-29
2.86256e-29
1.89447e-29
2.36549e-29
2.58271e-29
3.77858e-29
2.29385e-29
2.89052e-29
2.9479e-29
3.90917e-29
2.77497e-29
3.41955e-29
2.77778e-29
3.65325e-29
3.28243e-29
4.2383e-29
3.19554e-29
3.9842e-29
3.04231e-29
3.92237e-29
3.94541e-29
5.16585e-29
3.71794e-29
4.72258e-29
4.17814e-29
5.98269e-29
5.25651e-29
7.42312e-29
7.0489e-29
8.57934e-29
1.07956e-29
5.49616e-29
6.5396e-29
4.86859e-29
2.8926e-29
3.8337e-29
3.91821e-29
6.48701e-29
4.58897e-29
9.96547e-29
1.4534e-28
2.79787e-28
6.87881e-28
2.34729e-27
3.60491e-27
1.32916e-24
2.69473e-24
1.335e-23
5.5296e-25
1.70581e-23
2.17101e-26
5.48197e-25
2.90219e-26
2.06165e-28
2.45561e-28
7.43962e-29
3.40963e-29
3.60211e-29
1.70632e-29
2.49842e-29
2.22934e-29
2.95575e-29
1.97785e-29
2.47634e-29
2.79642e-29
3.90281e-29
2.38146e-29
3.01796e-29
3.16283e-29
4.06981e-29
2.89145e-29
3.5788e-29
2.96653e-29
3.87792e-29
3.53423e-29
4.48805e-29
3.41658e-29
4.28039e-29
3.33863e-29
4.33842e-29
4.45508e-29
5.76382e-29
4.26448e-29
5.58633e-29
5.28301e-29
7.77925e-29
7.50733e-29
1.34408e-28
3.07964e-28
2.24613e-28
8.56173e-30
9.50918e-29
7.34627e-29
7.56558e-29
4.2159e-29
6.49093e-29
7.17068e-29
1.21928e-28
1.06937e-28
2.2242e-28
3.56155e-28
6.69548e-28
1.70754e-27
5.36545e-27
3.67442e-27
1.79732e-24
4.26058e-24
1.74252e-23
5.26424e-25
2.22361e-23
5.38941e-26
6.64497e-25
4.60284e-26
3.42299e-28
3.16347e-28
7.55602e-29
3.72588e-29
3.97634e-29
1.77559e-29
2.57491e-29
2.34972e-29
3.05447e-29
2.06687e-29
2.59177e-29
3.0048e-29
4.02501e-29
2.47272e-29
3.14866e-29
3.37793e-29
4.22679e-29
3.0164e-29
3.73981e-29
3.17382e-29
4.10664e-29
3.78855e-29
4.74957e-29
3.6628e-29
4.59186e-29
3.67732e-29
4.79322e-29
5.01598e-29
6.4472e-29
4.93618e-29
6.68244e-29
6.86352e-29
1.06897e-28
1.27949e-28
3.47922e-28
7.14175e-28
1.00078e-29
7.09186e-30
9.54527e-29
8.50748e-29
1.18578e-28
6.20906e-29
1.08059e-28
1.27275e-28
2.19012e-28
2.268e-28
4.57385e-28
7.81688e-28
1.45153e-27
3.7446e-27
1.08215e-26
3.69468e-27
2.422e-24
6.6621e-24
2.17541e-23
6.46171e-25
2.81824e-23
1.12028e-25
7.8178e-25
6.92968e-26
5.82101e-28
4.0824e-28
7.23974e-29
4.0377e-29
4.37033e-29
1.85574e-29
2.62983e-29
2.48857e-29
3.13663e-29
2.16113e-29
2.70687e-29
3.22681e-29
4.12758e-29
2.56545e-29
3.27919e-29
3.60953e-29
4.36454e-29
3.14463e-29
3.90512e-29
3.39121e-29
4.33879e-29
4.0668e-29
5.00806e-29
3.92133e-29
4.92943e-29
4.04534e-29
5.28608e-29
5.63235e-29
7.14586e-29
5.61523e-29
7.7006e-29
8.13164e-29
1.22353e-28
1.53907e-28
4.59461e-28
2.00834e-29
8.23844e-28
1.15404e-27
8.22485e-30
2.00132e-28
1.40896e-28
1.04128e-28
1.69161e-28
2.20987e-28
3.75851e-28
4.40162e-28
8.71861e-28
1.5459e-27
2.8564e-27
7.29494e-27
1.94828e-26
3.61447e-27
3.26495e-24
1.04987e-23
2.61626e-23
9.63421e-25
3.51671e-23
2.05646e-25
9.02799e-25
1.00439e-25
1.0356e-27
5.00606e-28
6.63745e-29
4.27708e-29
4.85684e-29
1.91164e-29
2.69546e-29
2.61558e-29
3.2271e-29
2.25596e-29
2.82392e-29
3.43136e-29
4.22995e-29
2.65485e-29
3.41314e-29
3.82892e-29
4.4989e-29
3.27744e-29
4.07301e-29
3.62259e-29
4.57455e-29
4.33314e-29
5.27677e-29
4.20899e-29
5.28187e-29
4.45201e-29
5.81322e-29
6.28518e-29
7.93229e-29
6.44549e-29
9.06639e-29
1.02979e-28
1.66389e-28
2.91311e-28
1.21888e-27
2.70078e-27
4.2989e-27
1.01913e-29
3.08563e-29
2.20955e-28
2.17702e-28
1.54059e-28
2.66127e-28
3.63783e-28
6.17431e-28
7.92233e-28
1.53767e-27
2.79695e-27
5.11285e-27
1.28889e-26
3.20609e-26
3.57128e-27
4.44287e-24
1.58447e-23
3.02586e-23
1.67312e-24
4.2322e-23
3.36674e-25
1.0338e-24
1.38152e-25
1.84751e-27
6.07975e-28
5.74711e-29
4.50207e-29
5.3761e-29
1.95698e-29
2.75605e-29
2.74238e-29
3.31938e-29
2.33419e-29
2.94434e-29
3.64416e-29
4.31597e-29
2.73362e-29
3.54932e-29
4.06072e-29
4.61894e-29
3.40186e-29
4.25465e-29
3.85286e-29
4.80968e-29
4.62262e-29
5.54497e-29
4.49974e-29
5.67176e-29
4.87968e-29
6.38199e-29
7.04045e-29
8.83797e-29
7.51343e-29
1.11258e-28
1.42369e-28
2.6931e-28
6.70895e-28
3.93474e-27
4.35451e-26
7.16594e-29
1.15918e-26
1.35694e-28
1.64453e-28
3.68561e-28
2.06923e-28
4.10943e-28
5.67821e-28
9.71918e-28
1.3195e-27
2.53634e-27
4.65112e-27
8.42652e-27
2.085e-26
4.85331e-26
3.58166e-27
6.0145e-24
2.3677e-23
3.37327e-23
2.81622e-24
4.89418e-23
5.31534e-25
1.2048e-24
1.79022e-25
3.21028e-27
7.18654e-28
4.72571e-29
4.71375e-29
5.91929e-29
1.98458e-29
2.8225e-29
2.85385e-29
3.41743e-29
2.40947e-29
3.06704e-29
3.82694e-29
4.40669e-29
2.80789e-29
3.69265e-29
4.26882e-29
4.74342e-29
3.52711e-29
4.44127e-29
4.08935e-29
5.04725e-29
4.89909e-29
5.83032e-29
4.80428e-29
6.07201e-29
5.33197e-29
6.95067e-29
7.74149e-29
9.60515e-29
8.22223e-29
1.1926e-28
1.44412e-28
2.33101e-28
4.17002e-28
1.57059e-27
4.08288e-27
3.07595e-27
1.44681e-29
9.67844e-30
4.27668e-28
3.80275e-28
3.29598e-28
5.72542e-28
8.68025e-28
1.44331e-27
2.06829e-27
3.89815e-27
7.19091e-27
1.28463e-26
3.14002e-26
6.90513e-26
3.79834e-27
8.07786e-24
3.39916e-23
3.63215e-23
5.1452e-24
5.68788e-23
7.05173e-25
1.4004e-24
2.21651e-25
5.44818e-27
8.1734e-28
3.77812e-29
4.8903e-29
6.42729e-29
2.01836e-29
2.85519e-29
2.99222e-29
3.48222e-29
2.48971e-29
3.17849e-29
4.01855e-29
4.46929e-29
2.8821e-29
3.8334e-29
4.48324e-29
4.8477e-29
3.65197e-29
4.635e-29
4.32317e-29
5.28538e-29
5.19012e-29
6.11557e-29
5.10901e-29
6.49935e-29
5.7921e-29
7.54507e-29
8.47131e-29
1.03637e-28
8.91552e-29
1.26975e-28
1.44426e-28
1.98898e-28
2.19353e-28
4.1514e-28
1.50032e-31
1.17987e-27
1.1056e-27
4.8787e-29
5.74652e-28
4.76382e-28
4.56167e-28
8.06931e-28
1.24347e-27
2.05693e-27
3.02577e-27
5.64587e-27
1.03393e-26
1.8336e-26
4.40565e-26
9.26428e-26
4.28226e-27
1.07068e-23
4.78211e-23
3.74943e-23
8.79654e-24
6.66662e-23
8.69858e-25
1.67683e-24
2.63595e-25
9.16545e-27
8.52202e-28
2.93918e-29
4.9333e-29
7.04429e-29
1.99949e-29
2.91589e-29
3.11044e-29
3.55269e-29
2.5721e-29
3.29436e-29
4.17385e-29
4.53789e-29
2.95516e-29
3.98357e-29
4.66551e-29
4.95542e-29
3.78115e-29
4.83434e-29
4.5609e-29
5.53155e-29
5.45304e-29
6.41486e-29
5.43863e-29
6.93917e-29
6.27822e-29
8.1748e-29
9.21272e-29
1.12683e-28
9.9303e-29
1.43903e-28
1.70134e-28
2.48366e-28
3.08014e-28
6.63365e-28
7.08062e-28
2.87238e-29
3.58271e-32
5.45901e-28
5.03456e-28
6.7056e-28
5.82474e-28
1.11302e-27
1.69001e-27
2.78209e-27
4.18142e-27
7.66057e-27
1.39787e-26
2.45145e-26
5.79891e-26
1.17769e-25
5.80702e-27
1.41346e-23
6.39257e-23
3.74241e-23
1.46211e-23
7.56521e-23
1.00621e-24
2.04637e-24
2.93906e-25
1.45389e-26
8.43577e-28
2.36189e-29
5.11618e-29
7.56792e-29
1.95721e-29
2.99484e-29
3.20511e-29
3.63685e-29
2.62538e-29
3.42162e-29
4.30748e-29
4.60047e-29
3.00875e-29
4.14192e-29
4.83045e-29
5.05886e-29
3.89114e-29
5.05299e-29
4.77512e-29
5.7762e-29
5.71192e-29
6.71173e-29
5.7473e-29
7.39781e-29
6.72901e-29
8.76842e-29
9.86985e-29
1.19531e-28
1.05099e-28
1.50385e-28
1.69777e-28
2.32041e-28
2.3913e-28
3.81399e-28
5.17255e-28
4.0865e-28
7.67601e-30
5.64747e-28
7.69125e-28
7.29539e-28
7.94863e-28
1.42358e-27
2.20848e-27
3.55187e-27
5.43564e-27
9.74841e-27
1.76705e-26
3.04663e-26
7.18476e-26
1.40783e-25
8.82664e-27
1.83212e-23
8.35698e-23
3.55173e-23
2.29237e-23
8.45747e-23
1.09945e-24
2.54976e-24
3.10338e-25
2.18851e-26
7.66998e-28
2.06233e-29
5.38303e-29
7.99614e-29
1.87607e-29
3.11502e-29
3.24374e-29
3.75231e-29
2.64279e-29
3.56453e-29
4.3841e-29
4.68372e-29
3.04063e-29
4.31139e-29
4.95032e-29
5.17605e-29
3.97649e-29
5.28031e-29
4.95639e-29
6.01406e-29
5.9347e-29
7.01386e-29
6.01937e-29
7.84644e-29
7.13898e-29
9.31087e-29
1.04389e-28
1.2544e-28
1.09263e-28
1.54437e-28
1.65343e-28
2.12152e-28
1.63508e-28
1.70822e-28
1.12212e-28
1.38253e-28
1.50131e-28
6.83625e-28
9.2387e-28
8.45933e-28
1.00072e-27
1.76152e-27
2.73142e-27
4.31023e-27
6.64943e-27
1.1628e-26
2.08282e-26
3.49274e-26
8.35819e-26
1.57006e-25
1.52159e-26
2.31678e-23
1.04462e-22
3.20142e-23
3.45223e-23
9.22233e-23
1.1514e-24
3.16755e-24
3.0842e-25
3.06233e-26
6.64676e-28
2.03422e-29
5.81763e-29
8.15589e-29
1.82835e-29
3.15776e-29
3.32495e-29
3.78922e-29
2.67055e-29
3.65145e-29
4.4693e-29
4.71358e-29
3.06678e-29
4.43756e-29
5.06476e-29
5.2428e-29
4.04647e-29
5.47205e-29
5.09389e-29
6.21157e-29
6.12126e-29
7.27203e-29
6.22698e-29
8.25227e-29
7.44591e-29
9.78145e-29
1.08975e-28
1.30276e-28
1.1228e-28
1.58989e-28
1.63636e-28
2.06538e-28
1.47636e-28
1.39126e-28
6.9947e-29
2.03792e-28
2.75216e-28
9.36919e-28
9.59748e-28
9.89423e-28
1.18618e-27
2.09119e-27
3.1889e-27
4.99846e-27
7.58258e-27
1.31183e-26
2.27539e-26
3.76289e-26
8.9187e-26
1.63074e-25
2.69501e-26
2.83133e-23
1.2549e-22
2.67309e-23
4.85288e-23
1.01343e-22
1.21641e-24
4.05758e-24
2.89453e-25
4.05335e-26
5.74844e-28
2.48643e-29
6.75878e-29
7.86353e-29
1.89759e-29
2.99805e-29
3.56714e-29
3.63877e-29
2.82963e-29
3.57363e-29
4.59552e-29
4.63739e-29
3.15733e-29
4.43906e-29
5.19093e-29
5.22196e-29
4.16693e-29
5.56601e-29
5.24302e-29
6.33848e-29
6.23665e-29
7.48167e-29
6.40739e-29
8.57034e-29
7.6749e-29
1.01437e-28
1.10606e-28
1.33855e-28
1.12645e-28
1.59718e-28
1.55183e-28
1.91833e-28
1.32943e-28
1.27313e-28
5.63408e-29
2.56794e-28
4.46045e-28
1.07705e-27
1.0044e-27
1.10655e-27
1.34418e-27
2.38251e-27
3.47959e-27
5.53085e-27
8.01007e-27
1.39331e-26
2.2839e-26
3.81243e-26
8.75986e-26
1.64258e-25
4.60354e-26
3.33816e-23
1.43612e-22
2.14201e-23
6.96313e-23
1.11597e-22
1.28559e-24
5.27412e-24
2.6349e-25
5.42079e-26
5.01368e-28
3.72805e-29
8.5326e-29
7.87357e-29
1.90177e-29
3.04795e-29
3.82655e-29
3.70293e-29
2.95963e-29
3.69464e-29
4.84289e-29
4.7727e-29
3.25435e-29
4.66085e-29
5.44385e-29
5.40416e-29
4.33601e-29
5.8583e-29
5.49947e-29
6.66144e-29
6.54075e-29
7.89349e-29
6.71919e-29
9.11469e-29
8.0585e-29
1.07468e-28
1.15783e-28
1.3977e-28
1.1479e-28
1.62979e-28
1.51964e-28
1.83969e-28
1.27338e-28
1.26133e-28
5.70573e-29
3.11623e-28
6.39464e-28
1.1708e-27
1.06496e-27
1.22198e-27
1.50728e-27
2.63391e-27
3.74859e-27
5.85782e-27
8.24008e-27
1.40456e-26
2.21964e-26
3.66634e-26
8.45428e-26
1.64449e-25
7.07836e-26
3.92943e-23
1.65857e-22
1.58347e-23
1.57661e-30
7.18449e-31
4.03266e-31
8.86128e-29
1.3511e-29
1.92924e-31
9.72904e-30
2.63963e-30
6.136e-30
4.45066e-30
5.93704e-30
4.83518e-30
6.66298e-30
5.80412e-30
6.2458e-30
4.85456e-30
7.27118e-30
7.72248e-30
7.48787e-30
6.69797e-30
8.44677e-30
8.74216e-30
8.93963e-30
8.51697e-30
8.58371e-30
8.42385e-30
9.74179e-30
9.90535e-30
9.92017e-30
9.95164e-30
8.97705e-30
8.84527e-30
1.03565e-29
1.09487e-29
1.00932e-29
9.42204e-30
8.50857e-30
8.17891e-30
7.95359e-30
6.60924e-30
5.66419e-30
4.05439e-30
3.73577e-30
5.37125e-30
3.22186e-30
3.74939e-30
1.25049e-30
8.6073e-31
1.3347e-31
6.67328e-32
7.43061e-32
5.47022e-31
4.88371e-30
1.20751e-29
7.37622e-29
3.88501e-29
1.23926e-28
1.03389e-26
2.52274e-26
4.3768e-27
6.33858e-27
9.0954e-28
2.28452e-28
8.68498e-28
4.9682e-30
2.31502e-30
1.71186e-29
7.95495e-30
8.30157e-30
1.38448e-29
8.43683e-30
1.36437e-29
1.02646e-29
1.54702e-29
1.07428e-29
1.17487e-29
1.2174e-29
1.88892e-29
1.40339e-29
1.47564e-29
1.53723e-29
2.00607e-29
1.6748e-29
1.88941e-29
1.60894e-29
1.81848e-29
1.82929e-29
2.16065e-29
1.89684e-29
2.11985e-29
1.74048e-29
1.80428e-29
1.94774e-29
2.3135e-29
1.96941e-29
1.88585e-29
1.63672e-29
1.57538e-29
1.51911e-29
1.34614e-29
1.12551e-29
1.05815e-29
8.16233e-30
8.29854e-30
6.63233e-30
6.8801e-30
2.66528e-30
1.17829e-30
2.78332e-31
5.33704e-32
8.53503e-32
2.17658e-30
8.02589e-30
3.89125e-29
1.23657e-28
1.73862e-28
1.52335e-28
2.17211e-26
1.42184e-25
3.17473e-27
2.93061e-26
1.57959e-27
2.34754e-27
7.42759e-28
3.47769e-29
1.03898e-30
2.67914e-29
1.11541e-29
1.26235e-29
1.74453e-29
1.33491e-29
1.66512e-29
1.59644e-29
1.99213e-29
1.58328e-29
1.61528e-29
1.8169e-29
2.50093e-29
2.01756e-29
2.06967e-29
2.19653e-29
2.75065e-29
2.35864e-29
2.63567e-29
2.25189e-29
2.58966e-29
2.56305e-29
3.0132e-29
2.64962e-29
2.97264e-29
2.40096e-29
2.62581e-29
2.69923e-29
3.22876e-29
2.70708e-29
2.67282e-29
2.24484e-29
2.28051e-29
2.10298e-29
1.99465e-29
1.73056e-29
1.55585e-29
1.17899e-29
1.13766e-29
9.48525e-30
9.86028e-30
3.39519e-30
2.00925e-30
2.95099e-31
1.83399e-31
2.51425e-31
1.78333e-30
1.53047e-29
4.12706e-29
2.05284e-28
1.39339e-28
5.57561e-28
3.9357e-26
1.47904e-25
1.18621e-26
1.42576e-25
1.9154e-26
1.03244e-26
2.8775e-27
3.02397e-29
1.3347e-30
2.6684e-29
1.37e-29
1.26166e-29
1.76566e-29
1.35018e-29
1.66287e-29
1.61306e-29
2.01158e-29
1.59764e-29
1.63063e-29
1.81333e-29
2.53925e-29
2.01607e-29
2.09242e-29
2.18618e-29
2.79069e-29
2.34745e-29
2.66386e-29
2.24062e-29
2.6331e-29
2.53186e-29
3.07489e-29
2.62992e-29
3.0043e-29
2.39317e-29
2.66779e-29
2.66366e-29
3.29975e-29
2.68399e-29
2.71331e-29
2.25347e-29
2.3509e-29
2.17457e-29
2.16919e-29
1.90218e-29
1.76083e-29
1.12893e-29
1.13308e-29
1.02554e-29
9.82871e-30
3.69991e-30
2.02512e-30
3.83303e-31
2.7871e-31
1.61715e-31
1.92405e-30
1.3225e-29
3.8619e-29
1.79817e-28
1.1934e-28
7.18504e-28
5.63468e-26
2.15956e-25
4.19155e-26
3.43857e-25
1.11522e-25
2.06119e-26
9.8735e-27
6.61609e-29
1.84032e-30
3.02397e-29
1.72136e-29
1.26604e-29
1.88972e-29
1.30817e-29
1.78608e-29
1.58722e-29
2.10576e-29
1.58134e-29
1.68676e-29
1.79493e-29
2.64568e-29
2.00373e-29
2.13375e-29
2.183e-29
2.86843e-29
2.33069e-29
2.72185e-29
2.22266e-29
2.69686e-29
2.52092e-29
3.16055e-29
2.60549e-29
3.07659e-29
2.38041e-29
2.72517e-29
2.65791e-29
3.42326e-29
2.66741e-29
2.81046e-29
2.27422e-29
2.49103e-29
2.27872e-29
2.39641e-29
2.06569e-29
1.90648e-29
1.08204e-29
1.19887e-29
1.09997e-29
1.03124e-29
4.03164e-30
2.2423e-30
5.26987e-31
5.07745e-31
8.95041e-32
1.95505e-30
1.10735e-29
3.53047e-29
1.51955e-28
9.24542e-29
1.02456e-27
8.90871e-26
3.03046e-25
1.62985e-25
5.74607e-25
3.82031e-25
2.75699e-26
2.53137e-26
1.93833e-28
3.64969e-30
3.74345e-29
2.13787e-29
1.38336e-29
2.06296e-29
1.29615e-29
1.92594e-29
1.60299e-29
2.25228e-29
1.59858e-29
1.79544e-29
1.83706e-29
2.8267e-29
2.03715e-29
2.23748e-29
2.24882e-29
3.0266e-29
2.38312e-29
2.84823e-29
2.27164e-29
2.83566e-29
2.59287e-29
3.33643e-29
2.66643e-29
3.23448e-29
2.43603e-29
2.8712e-29
2.75857e-29
3.66205e-29
2.74547e-29
3.01098e-29
2.37753e-29
2.73866e-29
2.4494e-29
2.70992e-29
2.29264e-29
2.18915e-29
1.14251e-29
1.32937e-29
1.21932e-29
1.1695e-29
4.5668e-30
2.8243e-30
8.0116e-31
1.00333e-30
4.10812e-32
2.07533e-30
8.77499e-30
3.18052e-29
1.21012e-28
6.29143e-29
1.48823e-27
1.45227e-25
3.9765e-25
4.94978e-25
7.69618e-25
9.70424e-25
2.83713e-26
5.28756e-26
5.31737e-28
8.14185e-30
4.90299e-29
2.79565e-29
1.57118e-29
2.24867e-29
1.31318e-29
2.05587e-29
1.64588e-29
2.40345e-29
1.6276e-29
1.92206e-29
1.91832e-29
3.02965e-29
2.08749e-29
2.37388e-29
2.35129e-29
3.21274e-29
2.46168e-29
2.99922e-29
2.35086e-29
3.0153e-29
2.71551e-29
3.53881e-29
2.76638e-29
3.42678e-29
2.52778e-29
3.07643e-29
2.92408e-29
3.94495e-29
2.86767e-29
3.25332e-29
2.5201e-29
3.03687e-29
2.65615e-29
3.08831e-29
2.62103e-29
2.59927e-29
1.28567e-29
1.49536e-29
1.4095e-29
1.39078e-29
5.3781e-30
3.92251e-30
1.3497e-30
2.05871e-30
4.37101e-32
2.50273e-30
6.65632e-30
2.78905e-29
8.83102e-29
3.86181e-29
1.99997e-27
2.30391e-25
5.09829e-25
1.19961e-24
8.86311e-25
1.99772e-24
2.42045e-26
9.50796e-26
1.24956e-27
1.59461e-29
6.56493e-29
3.6589e-29
1.81309e-29
2.45077e-29
1.34649e-29
2.17774e-29
1.69873e-29
2.55406e-29
1.66029e-29
2.04931e-29
2.01412e-29
3.23778e-29
2.13953e-29
2.51923e-29
2.46352e-29
3.41234e-29
2.54646e-29
3.1556e-29
2.44507e-29
3.21026e-29
2.84709e-29
3.75683e-29
2.88649e-29
3.62456e-29
2.63958e-29
3.30314e-29
3.11246e-29
4.24476e-29
3.00511e-29
3.50068e-29
2.67782e-29
3.35104e-29
2.8725e-29
3.5645e-29
3.08138e-29
3.22159e-29
1.50793e-29
1.6731e-29
1.69681e-29
1.71305e-29
6.63486e-30
5.88675e-30
2.43341e-30
4.28828e-30
2.27051e-31
3.85583e-30
5.59393e-30
2.55859e-29
6.15481e-29
3.25655e-29
2.52834e-27
3.485e-25
6.48928e-25
2.38857e-24
9.15222e-25
3.61277e-24
1.70692e-26
1.55425e-25
2.67426e-27
2.84567e-29
8.62554e-29
4.57306e-29
2.09308e-29
2.67552e-29
1.39033e-29
2.29666e-29
1.76376e-29
2.70296e-29
1.69511e-29
2.18988e-29
2.12957e-29
3.44936e-29
2.19081e-29
2.67386e-29
2.59422e-29
3.61863e-29
2.62987e-29
3.32013e-29
2.54888e-29
3.4204e-29
3.00179e-29
3.98007e-29
3.01092e-29
3.83306e-29
2.76619e-29
3.54981e-29
3.33085e-29
4.54645e-29
3.14276e-29
3.75005e-29
2.84955e-29
3.68611e-29
3.13225e-29
4.18253e-29
3.68359e-29
4.06697e-29
1.77967e-29
1.87093e-29
2.13972e-29
2.16612e-29
8.69196e-30
9.28767e-30
4.66573e-30
8.88366e-30
1.20687e-30
7.74951e-30
7.38686e-30
2.92133e-29
5.43479e-29
7.22448e-29
2.93403e-27
5.05298e-25
8.69892e-25
4.201e-24
8.59055e-25
5.88147e-24
1.06886e-26
2.33235e-25
5.26419e-27
4.73337e-29
1.11485e-28
5.50166e-29
2.4051e-29
2.92116e-29
1.44718e-29
2.4094e-29
1.84333e-29
2.84635e-29
1.74487e-29
2.33205e-29
2.25712e-29
3.66064e-29
2.24835e-29
2.83179e-29
2.73411e-29
3.83022e-29
2.7209e-29
3.48645e-29
2.66841e-29
3.64074e-29
3.1588e-29
4.21585e-29
3.14881e-29
4.04247e-29
2.91061e-29
3.80829e-29
3.55671e-29
4.85478e-29
3.29105e-29
4.00415e-29
3.04957e-29
4.05732e-29
3.43219e-29
4.98177e-29
4.47281e-29
4.95889e-29
2.14101e-29
2.09819e-29
2.77926e-29
2.81715e-29
1.21632e-29
1.50893e-29
9.22381e-30
1.80201e-29
4.86156e-30
1.82932e-29
1.71173e-29
4.98952e-29
9.03437e-29
2.67559e-28
3.29682e-27
7.08329e-25
1.20492e-24
6.63874e-24
7.58465e-25
8.90206e-24
7.12025e-27
3.28187e-25
9.80043e-27
7.68237e-29
1.44712e-28
6.34641e-29
2.7307e-29
3.18563e-29
1.51766e-29
2.50895e-29
1.94382e-29
2.97587e-29
1.80616e-29
2.47683e-29
2.40843e-29
3.8616e-29
2.31072e-29
2.99292e-29
2.89518e-29
4.03439e-29
2.81514e-29
3.6552e-29
2.79905e-29
3.87098e-29
3.33588e-29
4.4485e-29
3.28842e-29
4.26147e-29
3.0674e-29
4.08686e-29
3.80762e-29
5.16406e-29
3.44941e-29
4.28056e-29
3.28755e-29
4.4801e-29
3.79536e-29
5.95421e-29
5.25908e-29
6.29698e-29
2.69413e-29
2.34775e-29
3.71459e-29
3.74841e-29
1.7966e-29
2.48187e-29
1.8324e-29
3.5675e-29
1.55664e-29
4.46754e-29
4.95047e-29
1.16197e-28
2.40365e-28
8.78881e-28
3.49901e-27
9.73982e-25
1.79483e-24
9.75708e-24
6.35792e-25
1.26355e-23
9.4201e-27
4.34529e-25
1.72617e-26
1.23271e-28
1.85547e-28
7.07725e-29
3.05616e-29
3.50026e-29
1.58419e-29
2.6153e-29
2.04467e-29
3.11264e-29
1.87282e-29
2.62465e-29
2.56493e-29
4.06173e-29
2.37252e-29
3.15739e-29
3.05957e-29
4.23851e-29
2.91208e-29
3.8246e-29
2.94358e-29
4.10572e-29
3.50614e-29
4.68671e-29
3.44136e-29
4.48287e-29
3.24175e-29
4.3771e-29
4.06869e-29
5.49071e-29
3.63156e-29
4.58957e-29
3.5789e-29
4.96496e-29
4.21376e-29
7.22648e-29
6.27348e-29
7.53988e-29
3.58864e-29
2.67902e-29
4.98801e-29
5.11616e-29
2.75252e-29
4.09251e-29
3.56262e-29
6.86484e-29
4.24356e-29
1.04996e-28
1.37848e-28
2.91957e-28
6.7121e-28
2.4098e-27
3.68852e-27
1.32927e-24
2.71837e-24
1.33861e-23
5.53383e-25
1.71081e-23
2.04045e-26
5.47903e-25
2.89258e-26
2.01144e-28
2.40556e-28
7.52189e-29
3.37914e-29
3.85626e-29
1.64844e-29
2.72164e-29
2.14925e-29
3.25272e-29
1.93307e-29
2.78025e-29
2.73864e-29
4.2506e-29
2.42804e-29
3.32718e-29
3.24012e-29
4.43304e-29
3.00136e-29
4.00142e-29
3.0928e-29
4.34176e-29
3.69586e-29
4.92025e-29
3.58964e-29
4.72344e-29
3.42819e-29
4.68691e-29
4.37168e-29
5.83235e-29
3.83424e-29
4.9549e-29
3.93094e-29
5.52928e-29
4.73408e-29
8.88352e-29
7.25661e-29
9.16557e-29
4.87398e-29
3.09775e-29
6.71717e-29
7.12306e-29
4.27492e-29
6.73312e-29
6.72339e-29
1.27429e-28
1.01181e-28
2.31899e-28
3.42602e-28
6.93176e-28
1.67603e-27
5.49467e-27
3.75702e-27
1.79693e-24
4.29854e-24
1.74797e-23
5.28932e-25
2.23173e-23
5.13042e-26
6.64173e-25
4.59861e-26
3.36552e-28
3.10224e-28
7.63076e-29
3.69275e-29
4.26405e-29
1.70924e-29
2.82717e-29
2.25159e-29
3.39276e-29
1.99968e-29
2.93672e-29
2.90463e-29
4.4343e-29
2.48343e-29
3.50029e-29
3.41203e-29
4.62486e-29
3.09182e-29
4.17779e-29
3.25302e-29
4.57777e-29
3.87694e-29
5.16241e-29
3.74997e-29
4.9714e-29
3.64046e-29
5.01737e-29
4.6863e-29
6.21192e-29
4.08037e-29
5.37893e-29
4.36017e-29
6.17539e-29
5.32909e-29
1.08498e-28
7.48519e-29
9.669e-29
6.74477e-29
3.54483e-29
9.06013e-29
1.00143e-28
6.68208e-29
1.09204e-28
1.22362e-28
2.26297e-28
2.18195e-28
4.73142e-28
7.5991e-28
1.49392e-27
3.69502e-27
1.10653e-26
3.77519e-27
2.42073e-24
6.72002e-24
2.1832e-23
6.53945e-25
2.83065e-23
1.07439e-25
7.8122e-25
6.93867e-26
5.76868e-28
4.00378e-28
7.3019e-29
3.99723e-29
4.69085e-29
1.78127e-29
2.90564e-29
2.37357e-29
3.50994e-29
2.0723e-29
3.08918e-29
3.08543e-29
4.59221e-29
2.53907e-29
3.67268e-29
3.59573e-29
4.79697e-29
3.18007e-29
4.35821e-29
3.41766e-29
4.81441e-29
4.07528e-29
5.39955e-29
3.91336e-29
5.24368e-29
3.87125e-29
5.38079e-29
5.04336e-29
6.62024e-29
4.364e-29
5.87138e-29
4.8482e-29
6.86056e-29
5.92874e-29
1.25256e-28
7.60194e-29
1.42691e-28
1.03635e-28
3.87429e-29
1.25332e-28
1.39287e-28
1.04073e-28
1.73719e-28
2.13368e-28
3.86954e-28
4.27351e-28
8.97892e-28
1.51314e-27
2.92946e-27
7.22367e-27
1.98819e-26
3.68819e-27
3.26273e-24
1.05979e-23
2.62718e-23
9.76445e-25
3.534e-23
1.99034e-25
9.01839e-25
1.00808e-25
1.03585e-27
4.89347e-28
6.68857e-29
4.22151e-29
5.22018e-29
1.82756e-29
2.99539e-29
2.48288e-29
3.63458e-29
2.14488e-29
3.24208e-29
3.2484e-29
4.74714e-29
2.59011e-29
3.84869e-29
3.76238e-29
4.96696e-29
3.26838e-29
4.54177e-29
3.59162e-29
5.05415e-29
4.25609e-29
5.64827e-29
4.09939e-29
5.53106e-29
4.13204e-29
5.77193e-29
5.41804e-29
7.0864e-29
4.71452e-29
6.46517e-29
5.47974e-29
7.80343e-29
6.9691e-29
1.58269e-28
1.33432e-28
1.31782e-28
1.47613e-28
5.10332e-29
1.67507e-28
1.94771e-28