/*--------------------------------*- C++ -*----------------------------------*\
| =========                 |                                                 |
| \\      /  F ield         | OpenFOAM: The Open Source CFD Toolbox           |
|  \\    /   O peration     | Version:  2312                                  |
|   \\  /    A nd           | Website:  www.openfoam.com                      |
|    \\/     M anipulation  |                                                 |
\*---------------------------------------------------------------------------*/
FoamFile
{
    version     2.0;
    format      ascii;
    arch        "LSB;label=32;scalar=64";
    class       volScalarField;
    location    "920";
    object      pMean;
}
// * * * * * * * * * * * * * * * * * * * * * * * * * * * * * * * * * * * * * //

dimensions      [0 2 -2 0 0 0 0];

internalField   nonuniform List<scalar> 
144000
(
6.18786e-10
3.16854e-10
-3.22092e-10
-6.24863e-10
-5.36353e-10
-3.74494e-10
-2.18202e-10
-1.34045e-10
-6.03358e-11
-4.10528e-11
-7.09016e-12
-1.01382e-11
1.28464e-11
2.33231e-12
2.30416e-11
1.07144e-11
2.80583e-11
1.04971e-11
2.97546e-11
1.44795e-11
3.37578e-11
1.48871e-11
3.47266e-11
1.63136e-11
3.72197e-11
1.83411e-11
3.92103e-11
1.78739e-11
3.97084e-11
1.88802e-11
4.2231e-11
2.14241e-11
4.37619e-11
1.91115e-11
4.24102e-11
1.91229e-11
4.31526e-11
1.95129e-11
4.28453e-11
1.73018e-11
3.99805e-11
1.63445e-11
3.96671e-11
1.42038e-11
3.68516e-11
1.12198e-11
3.33134e-11
1.30034e-11
3.25046e-11
1.63397e-11
3.19152e-11
2.54234e-11
2.64051e-11
2.69293e-11
-1.60663e-12
2.44211e-11
-2.73565e-11
-6.0091e-12
-8.9063e-10
-2.00946e-10
6.45029e-10
3.32558e-10
-3.28559e-10
-6.30283e-10
-5.38226e-10
-3.747e-10
-2.18409e-10
-1.34243e-10
-6.07101e-11
-4.13612e-11
-7.46676e-12
-1.03675e-11
1.255e-11
2.17309e-12
2.28123e-11
1.06343e-11
2.78662e-11
1.04184e-11
2.95794e-11
1.44602e-11
3.3608e-11
1.48699e-11
3.45844e-11
1.63343e-11
3.7094e-11
1.83792e-11
3.90871e-11
1.79114e-11
3.95857e-11
1.89406e-11
4.21202e-11
2.15055e-11
4.36475e-11
1.91784e-11
4.22903e-11
1.92231e-11
4.30439e-11
1.96234e-11
4.2737e-11
1.73995e-11
3.98055e-11
1.63519e-11
3.94638e-11
1.43558e-11
3.67481e-11
1.14046e-11
3.32091e-11
1.32475e-11
3.24291e-11
1.6601e-11
3.18849e-11
2.57429e-11
2.64647e-11
2.72078e-11
-1.46207e-12
2.4456e-11
-2.42837e-11
2.54496e-12
-9.0703e-10
-2.21248e-10
6.80043e-10
3.38245e-10
-3.38552e-10
-6.32858e-10
-5.39115e-10
-3.74617e-10
-2.18313e-10
-1.34385e-10
-6.09504e-11
-4.18194e-11
-7.86768e-12
-1.08004e-11
1.22547e-11
1.81806e-12
2.25906e-11
1.03914e-11
2.77476e-11
1.01781e-11
2.94473e-11
1.42857e-11
3.35471e-11
1.47024e-11
3.45245e-11
1.62123e-11
3.70721e-11
1.82763e-11
3.90827e-11
1.78027e-11
3.95759e-11
1.88577e-11
4.21313e-11
2.14479e-11
4.36848e-11
1.90957e-11
4.23006e-11
1.91792e-11
4.30858e-11
1.95905e-11
4.27919e-11
1.73655e-11
3.97574e-11
1.61448e-11
3.93488e-11
1.432e-11
3.68434e-11
1.14735e-11
3.3277e-11
1.33799e-11
3.2556e-11
1.67474e-11
3.2024e-11
2.59357e-11
2.67546e-11
2.73697e-11
-9.55368e-13
2.33584e-11
-2.09855e-11
1.75313e-11
-9.35035e-10
-2.36032e-10
7.17296e-10
3.22375e-10
-3.4928e-10
-6.28954e-10
-5.38799e-10
-3.7429e-10
-2.17836e-10
-1.34173e-10
-6.0953e-11
-4.22495e-11
-8.33632e-12
-1.13473e-11
1.18738e-11
1.36171e-12
2.22832e-11
1.00753e-11
2.76057e-11
9.86513e-12
2.92461e-11
1.40491e-11
3.34704e-11
1.44835e-11
3.44286e-11
1.6049e-11
3.70355e-11
1.81453e-11
3.90836e-11
1.7663e-11
3.9554e-11
1.87469e-11
4.21408e-11
2.13739e-11
4.37523e-11
1.89914e-11
4.23064e-11
1.91149e-11
4.31483e-11
1.95464e-11
4.28861e-11
1.73414e-11
3.97093e-11
1.58672e-11
3.91569e-11
1.41844e-11
3.70068e-11
1.15479e-11
3.33925e-11
1.34933e-11
3.27962e-11
1.68313e-11
3.23176e-11
2.59688e-11
2.74537e-11
2.7067e-11
4.40655e-13
2.01224e-11
-1.40836e-11
3.22966e-11
-9.7118e-10
-2.33369e-10
7.50748e-10
2.73877e-10
-3.58788e-10
-6.12474e-10
-5.35989e-10
-3.74005e-10
-2.17177e-10
-1.33555e-10
-6.06807e-11
-4.26159e-11
-8.89979e-12
-1.20021e-11
1.137e-11
8.0335e-13
2.18505e-11
9.6919e-12
2.74036e-11
9.49227e-12
2.89387e-11
1.37604e-11
3.33433e-11
1.42328e-11
3.42572e-11
1.58604e-11
3.69499e-11
1.80064e-11
3.9053e-11
1.75177e-11
3.94798e-11
1.86293e-11
4.21106e-11
2.13128e-11
4.38136e-11
1.88969e-11
4.22657e-11
1.90558e-11
4.31955e-11
1.95188e-11
4.29882e-11
1.73704e-11
3.9633e-11
1.55967e-11
3.88054e-11
1.39396e-11
3.7189e-11
1.16683e-11
3.35158e-11
1.3587e-11
3.31259e-11
1.68244e-11
3.27888e-11
2.57425e-11
2.86764e-11
2.60478e-11
3.09216e-12
1.4361e-11
-2.54328e-12
4.34436e-11
-1.01326e-09
-2.03408e-10
7.80448e-10
1.85855e-10
-3.68204e-10
-5.80126e-10
-5.29163e-10
-3.74096e-10
-2.16608e-10
-1.32606e-10
-6.01688e-11
-4.29355e-11
-9.58307e-12
-1.27831e-11
1.07269e-11
1.33377e-13
2.12826e-11
9.22896e-12
2.71312e-11
9.06548e-12
2.85218e-11
1.3417e-11
3.31578e-11
1.39547e-11
3.40063e-11
1.56444e-11
3.68098e-11
1.78609e-11
3.89849e-11
1.73713e-11
3.93465e-11
1.85066e-11
4.2036e-11
2.12647e-11
4.38591e-11
1.88182e-11
4.21723e-11
1.89986e-11
4.32207e-11
1.95087e-11
4.30954e-11
1.7469e-11
3.95367e-11
1.53483e-11
3.82388e-11
1.3544e-11
3.73708e-11
1.18344e-11
3.3649e-11
1.3635e-11
3.35587e-11
1.66753e-11
3.34861e-11
2.51368e-11
3.0555e-11
2.40841e-11
7.32806e-12
5.84271e-12
1.38784e-11
4.99345e-11
-1.06221e-09
-1.40615e-10
8.09892e-10
5.61324e-11
-3.80992e-10
-5.30515e-10
-5.16762e-10
-3.74633e-10
-2.16397e-10
-1.31407e-10
-5.94454e-11
-4.32395e-11
-1.04165e-11
-1.37163e-11
9.92299e-12
-6.57445e-13
2.05706e-11
8.67547e-12
2.67786e-11
8.58845e-12
2.79976e-11
1.30174e-11
3.29107e-11
1.36563e-11
3.36769e-11
1.54024e-11
3.66148e-11
1.77126e-11
3.88747e-11
1.72305e-11
3.91541e-11
1.83819e-11
4.19147e-11
2.12311e-11
4.38836e-11
1.87623e-11
4.20274e-11
1.8943e-11
4.32234e-11
1.95152e-11
4.32124e-11
1.76428e-11
3.94672e-11
1.51306e-11
3.73779e-11
1.29495e-11
3.75569e-11
1.20412e-11
3.38031e-11
1.35984e-11
3.41133e-11
1.63263e-11
3.44688e-11
2.40532e-11
3.31829e-11
2.1025e-11
1.32557e-11
-5.20245e-12
3.44552e-11
5.23952e-11
-1.1188e-09
-4.42361e-11
8.42823e-10
-1.11439e-10
-4.00675e-10
-4.64461e-10
-4.9752e-10
-3.75501e-10
-2.16767e-10
-1.30042e-10
-5.85339e-11
-4.35454e-11
-1.14188e-11
-1.48247e-11
8.93262e-12
-1.58106e-12
1.97004e-11
8.01937e-12
2.63262e-11
8.06102e-12
2.73655e-11
1.25596e-11
3.25918e-11
1.33415e-11
3.3269e-11
1.5137e-11
3.63621e-11
1.75648e-11
3.87183e-11
1.71014e-11
3.89031e-11
1.82597e-11
4.17461e-11
2.12158e-11
4.388e-11
1.87348e-11
4.1833e-11
1.88876e-11
4.3205e-11
1.95338e-11
4.3351e-11
1.78905e-11
3.95045e-11
1.49145e-11
3.61103e-11
1.21065e-11
3.77556e-11
1.22754e-11
3.3998e-11
1.34422e-11
3.48114e-11
1.57312e-11
3.57772e-11
2.24332e-11
3.65712e-11
1.69191e-11
2.06976e-11
-1.8039e-11
5.74377e-11
5.27063e-11
-1.18237e-09
8.00568e-11
8.82795e-10
-3.08427e-10
-4.30444e-10
-3.84837e-10
-4.70602e-10
-3.76361e-10
-2.17909e-10
-1.28621e-10
-5.7466e-11
-4.38608e-11
-1.26095e-11
-1.61158e-11
7.74427e-12
-2.64614e-12
1.86635e-11
7.24941e-12
2.57541e-11
7.48003e-12
2.66228e-11
1.20409e-11
3.21882e-11
1.30097e-11
3.278e-11
1.48489e-11
3.6047e-11
1.7418e-11
3.85097e-11
1.69882e-11
3.85934e-11
1.81436e-11
4.15302e-11
2.122e-11
4.38425e-11
1.87389e-11
4.15957e-11
1.88306e-11
4.31691e-11
1.95544e-11
4.35305e-11
1.82004e-11
3.97749e-11
1.46553e-11
3.42811e-11
1.09733e-11
3.79879e-11
1.25226e-11
3.42537e-11
1.31411e-11
3.56639e-11
1.48747e-11
3.74179e-11
2.02919e-11
4.0628e-11
1.19694e-11
2.92047e-11
-3.16221e-11
8.07496e-11
5.31454e-11
-1.25122e-09
2.22487e-10
9.31355e-10
-5.24127e-10
-4.72315e-10
-2.95859e-10
-4.35789e-10
-3.76758e-10
-2.1994e-10
-1.27269e-10
-5.62703e-11
-4.41832e-11
-1.39793e-11
-1.75844e-11
6.35558e-12
-3.85107e-12
1.74589e-11
6.36499e-12
2.50492e-11
6.84206e-12
2.57712e-11
1.14596e-11
3.16897e-11
1.26588e-11
3.22096e-11
1.45367e-11
3.56647e-11
1.72732e-11
3.82421e-11
1.68885e-11
3.82256e-11
1.80336e-11
4.12663e-11
2.12439e-11
4.37649e-11
1.87746e-11
4.13202e-11
1.87693e-11
4.31188e-11
1.95679e-11
4.37684e-11
1.85591e-11
4.04387e-11
1.42695e-11
3.16992e-11
9.52067e-12
3.82786e-11
1.27673e-11
3.45875e-11
1.26853e-11
3.66673e-11
1.37669e-11
3.93555e-11
1.77207e-11
4.51642e-11
6.53349e-12
3.81677e-11
-4.47926e-11
1.0243e-10
5.55288e-11
-1.32214e-09
3.72954e-10
9.8805e-10
-7.4599e-10
-5.26977e-10
-2.02514e-10
-3.93473e-10
-3.76147e-10
-2.22891e-10
-1.26126e-10
-5.50038e-11
-4.45056e-11
-1.55148e-11
-1.92189e-11
4.77155e-12
-5.18905e-12
1.60923e-11
5.36666e-12
2.42051e-11
6.14776e-12
2.4813e-11
1.0817e-11
3.10904e-11
1.2286e-11
3.15581e-11
1.42e-11
3.52118e-11
1.71269e-11
3.79112e-11
1.68015e-11
3.78021e-11
1.79308e-11
4.09533e-11
2.12853e-11
4.36426e-11
1.88382e-11
4.10127e-11
1.87033e-11
4.30543e-11
1.95611e-11
4.40892e-11
1.89528e-11
4.17035e-11
1.3568e-11
2.81294e-11
7.73817e-12
3.86489e-11
1.2999e-11
3.49993e-11
1.20844e-11
3.77928e-11
1.24489e-11
4.15081e-11
1.48651e-11
4.99258e-11
1.0233e-12
4.69342e-11
-5.65063e-11
1.20978e-10
6.0987e-11
-1.39102e-09
5.21292e-10
1.05069e-09
-9.63253e-10
-5.93411e-10
-1.09569e-10
-3.44579e-10
-3.73971e-10
-2.26697e-10
-1.25339e-10
-5.37294e-11
-4.48236e-11
-1.71967e-11
-2.10033e-11
3.00047e-12
-6.6511e-12
1.4569e-11
4.2603e-12
2.3219e-11
5.398e-12
2.37535e-11
1.01166e-11
3.03858e-11
1.18885e-11
3.08277e-11
1.38384e-11
3.46856e-11
1.69779e-11
3.75142e-11
1.67245e-11
3.73249e-11
1.78345e-11
4.05907e-11
2.13415e-11
4.34745e-11
1.89265e-11
4.06757e-11
1.86321e-11
4.29752e-11
1.95215e-11
4.45138e-11
1.93525e-11
4.3929e-11
1.23691e-11
2.32318e-11
5.64603e-12
3.91096e-11
1.3203e-11
3.54731e-11
1.13667e-11
3.90056e-11
1.09861e-11
4.3763e-11
1.19078e-11
5.46369e-11
-4.13252e-12
5.49187e-11
-6.59438e-11
1.35447e-10
6.99427e-11
-1.45389e-09
6.58897e-10
1.11629e-09
-1.16654e-09
-6.69498e-10
-2.14044e-11
-2.90427e-10
-3.69682e-10
-2.31172e-10
-1.25045e-10
-5.25338e-11
-4.51355e-11
-1.90009e-11
-2.29182e-11
1.05539e-12
-8.22798e-12
1.28997e-11
3.05137e-12
2.20923e-11
4.595e-12
2.26007e-11
9.36333e-12
2.95752e-11
1.1465e-11
3.00222e-11
1.34533e-11
3.40868e-11
1.68237e-11
3.7052e-11
1.66547e-11
3.67965e-11
1.77435e-11
4.01781e-11
2.14097e-11
4.32568e-11
1.90369e-11
4.03115e-11
1.8558e-11
4.28765e-11
1.94455e-11
4.50405e-11
1.97535e-11
4.75208e-11
1.04669e-11
1.66607e-11
3.33916e-12
3.96752e-11
1.33792e-11
3.59877e-11
1.05694e-11
4.02304e-11
9.4734e-12
4.59932e-11
9.04311e-12
5.90235e-11
-8.57269e-12
6.16675e-11
-7.25907e-11
1.45487e-10
8.20098e-11
-1.50739e-09
7.79554e-10
1.18144e-09
-1.34899e-09
-7.5241e-10
5.84557e-11
-2.32628e-10
-3.62821e-10
-2.36051e-10
-1.2535e-10
-5.15077e-11
-4.54451e-11
-2.09014e-11
-2.49407e-11
-1.04921e-12
-9.90518e-12
1.10974e-11
1.751e-12
2.08298e-11
3.74245e-12
2.13634e-11
8.56214e-12
2.86598e-11
1.10145e-11
2.91467e-11
1.30473e-11
3.34163e-11
1.66624e-11
3.65255e-11
1.65893e-11
3.622e-11
1.76578e-11
3.97167e-11
2.14877e-11
4.29862e-11
1.91678e-11
3.99183e-11
1.84919e-11
4.27403e-11
1.93555e-11
4.56029e-11
2.02355e-11
5.27389e-11
7.35874e-12
8.14604e-12
1.01832e-12
4.0387e-11
1.35608e-11
3.65304e-11
9.74811e-12
4.14081e-11
8.01069e-12
4.80708e-11
6.46036e-12
6.28517e-11
-1.20202e-11
6.68903e-11
-7.62352e-11
1.51252e-10
9.63142e-11
-1.54895e-09
8.79553e-10
1.24246e-09
-1.50562e-09
-8.38734e-10
1.27367e-10
-1.72977e-10
-3.53078e-10
-2.41024e-10
-1.26338e-10
-5.07537e-11
-4.5765e-11
-2.28724e-11
-2.70484e-11
-3.29805e-12
-1.16716e-11
9.17398e-12
3.68595e-13
1.94379e-11
2.84316e-12
2.00498e-11
7.71882e-12
2.76442e-11
1.05359e-11
2.82068e-11
1.26221e-11
3.26769e-11
1.64925e-11
3.59367e-11
1.65266e-11
3.55994e-11
1.75777e-11
3.92077e-11
2.15743e-11
4.2661e-11
1.93199e-11
3.94926e-11
1.84461e-11
4.25502e-11
1.92784e-11
4.6123e-11
2.08119e-11
6.06207e-11
1.24699e-12
-3.27923e-12
-1.36139e-12
4.11616e-11
1.37533e-11
3.70752e-11
8.9659e-12
4.24719e-11
6.6932e-12
4.98763e-11
4.31457e-12
6.59427e-11
-1.42934e-11
7.04534e-11
-7.69213e-11
1.53184e-10
1.11825e-10
-1.57678e-09
9.5688e-10
1.29587e-09
-1.63346e-09
-9.24867e-10
1.83594e-10
-1.13327e-10
-3.4031e-10
-2.45753e-10
-1.28058e-10
-5.03811e-11
-4.61178e-11
-2.48913e-11
-2.92206e-11
-5.67638e-12
-1.35186e-11
7.14077e-12
-1.0866e-12
1.79255e-11
1.89969e-12
1.86678e-11
6.83897e-12
2.65336e-11
1.00288e-11
2.72077e-11
1.21799e-11
3.18717e-11
1.63124e-11
3.52887e-11
1.64652e-11
3.49385e-11
1.75038e-11
3.86526e-11
2.16678e-11
4.22816e-11
1.9491e-11
3.90365e-11
1.8421e-11
4.23106e-11
1.92088e-11
4.65966e-11
2.08349e-11
7.3548e-11
-1.96192e-12
-1.84918e-11
-4.11832e-12
4.1595e-11
1.38851e-11
3.75443e-11
8.2634e-12
4.33456e-11
5.60298e-12
5.13063e-11
2.72773e-12
6.81764e-11
-1.53002e-11
7.23659e-11
-7.48791e-11
1.51968e-10
1.27476e-10
-1.58978e-09
1.01111e-09
1.3386e-09
-1.73108e-09
-1.00733e-09
2.26164e-10
-5.54232e-11
-3.24525e-10
-2.49892e-10
-1.3052e-10
-5.04961e-11
-4.65335e-11
-2.6938e-11
-3.14365e-11
-8.17021e-12
-1.54377e-11
5.00871e-12
-2.6052e-12
1.63025e-11
9.15053e-13
1.7225e-11
5.92773e-12
2.53353e-11
9.49302e-12
2.6154e-11
1.17223e-11
3.10044e-11
1.61211e-11
3.45858e-11
1.64043e-11
3.4241e-11
1.74363e-11
3.80528e-11
2.17681e-11
4.18475e-11
1.96853e-11
3.85392e-11
1.84432e-11
4.19697e-11
1.92792e-11
4.67188e-11
2.07599e-11
8.17493e-11
-2.15436e-14
-2.80376e-11
-6.08593e-12
4.1687e-11
1.40138e-11
3.79351e-11
7.70717e-12
4.39741e-11
4.8139e-12
5.22813e-11
1.78405e-12
6.9491e-11
-1.50258e-11
7.27574e-11
-7.0458e-11
1.48405e-10
1.42239e-10
-1.58754e-09
1.04288e-09
1.36837e-09
-1.79838e-09
-1.08309e-09
2.54797e-10
-8.62196e-13
-3.0587e-10
-2.53108e-10
-1.33697e-10
-5.11936e-11
-4.7047e-11
-2.89939e-11
-3.36762e-11
-1.07648e-11
-1.74211e-11
2.78919e-12
-4.17901e-12
1.45783e-11
-1.07698e-13
1.57292e-11
4.99007e-12
2.40557e-11
8.92865e-12
2.5052e-11
1.12515e-11
3.00802e-11
1.59175e-11
3.38319e-11
1.63428e-11
3.35101e-11
1.73767e-11
3.74093e-11
2.18767e-11
4.13552e-11
1.99106e-11
3.79842e-11
1.8552e-11
4.14502e-11
1.96705e-11
4.6084e-11
2.17621e-11
7.28126e-11
3.33164e-13
-1.88356e-11
-5.27546e-12
4.16477e-11
1.42712e-11
3.82762e-11
7.37496e-12
4.43227e-11
4.38838e-12
5.27547e-11
1.53332e-12
6.98816e-11
-1.35281e-11
7.18328e-11
-6.40816e-11
1.43213e-10
1.55229e-10
-1.57035e-09
1.05372e-09
1.38328e-09
-1.83618e-09
-1.14941e-09
2.69792e-10
4.89641e-11
-2.84645e-10
-2.55114e-10
-1.37526e-10
-5.25561e-11
-4.76986e-11
-3.10455e-11
-3.59208e-11
-1.34456e-11
-1.94606e-11
4.92172e-13
-5.80064e-12
1.27629e-11
-1.16584e-12
1.41872e-11
4.03031e-12
2.27025e-11
8.33607e-12
2.3906e-11
1.07692e-11
2.91036e-11
1.5701e-11
3.30312e-11
1.62805e-11
3.27493e-11
1.73254e-11
3.67251e-11
2.19919e-11
4.08086e-11
2.01606e-11
3.7382e-11
1.87256e-11
4.08073e-11
2.02455e-11
4.50218e-11
2.27236e-11
5.88594e-11
5.2319e-12
-2.57454e-12
-3.27162e-12
4.11824e-11
1.45474e-11
3.84701e-11
7.2753e-12
4.43475e-11
4.35521e-12
5.26972e-11
1.98093e-12
6.939e-11
-1.09192e-11
6.98184e-11
-5.61909e-11
1.37047e-10
1.65838e-10
-1.53872e-09
1.04531e-09
1.38202e-09
-1.84584e-09
-1.20401e-09
2.71872e-10
9.2936e-11
-2.61257e-10
-2.55698e-10
-1.41929e-10
-5.46527e-11
-4.85357e-11
-3.30874e-11
-3.81563e-11
-1.62005e-11
-2.1552e-11
-1.87477e-12
-7.46406e-12
1.08663e-11
-2.25708e-12
1.26045e-11
3.05185e-12
2.12828e-11
7.71543e-12
2.27199e-11
1.02765e-11
2.80788e-11
1.54712e-11
3.21878e-11
1.62168e-11
3.19618e-11
1.72827e-11
3.60029e-11
2.21127e-11
4.0212e-11
2.0431e-11
3.67429e-11
1.89417e-11
4.00955e-11
2.08511e-11
4.3885e-11
2.30877e-11
4.97156e-11
1.26393e-11
8.89091e-12
-1.42023e-12
4.03e-11
1.48161e-11
3.84681e-11
7.42735e-12
4.40279e-11
4.72989e-12
5.21129e-11
3.10685e-12
6.80925e-11
-7.33946e-12
6.69653e-11
-4.71934e-11
1.30449e-10
1.73753e-10
-1.49348e-09
1.01947e-09
1.36374e-09
-1.82891e-09
-1.2451e-09
2.62106e-10
1.30203e-10
-2.36201e-10
-2.54718e-10
-1.46806e-10
-5.7531e-11
-4.96073e-11
-3.51208e-11
-4.0371e-11
-1.90185e-11
-2.36916e-11
-4.3056e-12
-9.16468e-12
8.89816e-12
-3.37896e-12
1.09856e-11
2.05715e-12
1.98038e-11
7.06677e-12
2.14969e-11
9.77393e-12
2.70099e-11
1.52278e-11
3.13064e-11
1.61517e-11
3.11497e-11
1.72488e-11
3.52445e-11
2.22399e-11
3.95673e-11
2.07249e-11
3.60618e-11
1.92116e-11
3.9298e-11
2.15104e-11
4.26358e-11
2.34069e-11
4.37916e-11
1.63152e-11
1.74114e-11
9.5862e-13
3.94061e-11
1.51967e-11
3.8284e-11
7.86241e-12
4.33724e-11
5.51305e-12
5.10257e-11
4.86455e-12
6.60877e-11
-2.94056e-12
6.35019e-11
-3.74459e-11
1.23745e-10
1.78948e-10
-1.43552e-09
9.77664e-10
1.32827e-09
-1.78739e-09
-1.27164e-09
2.41785e-10
1.60287e-10
-2.10005e-10
-2.52113e-10
-1.52043e-10
-6.12116e-11
-5.09576e-11
-3.71499e-11
-4.25555e-11
-2.18882e-11
-2.58749e-11
-6.79405e-12
-1.0899e-11
6.86733e-12
-4.52912e-12
9.33487e-12
1.0476e-12
1.82724e-11
6.39094e-12
2.02402e-11
9.26188e-12
2.59012e-11
1.49705e-11
3.0391e-11
1.60849e-11
3.03156e-11
1.72232e-11
3.4453e-11
2.23719e-11
3.88798e-11
2.10385e-11
3.53446e-11
1.95237e-11
3.84322e-11
2.21908e-11
4.13409e-11
2.37917e-11
3.964e-11
1.85821e-11
2.3935e-11
3.75735e-12
3.85522e-11
1.56865e-11
3.7895e-11
8.57489e-12
4.23938e-11
6.68522e-12
4.94772e-11
7.18865e-12
6.34939e-11
2.12148e-12
5.96409e-11
-2.72304e-11
1.17076e-10
1.81596e-10
-1.36581e-09
9.21302e-10
1.27594e-09
-1.72354e-09
-1.28331e-09
2.12409e-10
1.83098e-10
-1.83203e-10
-2.47913e-10
-1.5753e-10
-6.56894e-11
-5.26249e-11
-3.91826e-11
-4.47039e-11
-2.4799e-11
-2.8098e-11
-9.33358e-12
-1.26656e-11
4.78212e-12
-5.70453e-12
7.65697e-12
2.30762e-14
1.66943e-11
5.68898e-12
1.89531e-11
8.73975e-12
2.47569e-11
1.46983e-11
2.94457e-11
1.60163e-11
2.9463e-11
1.72051e-11
3.36329e-11
2.2505e-11
3.81554e-11
2.13665e-11
3.46021e-11
1.98585e-11
3.75305e-11
2.28345e-11
4.01124e-11
2.41421e-11
3.67454e-11
1.99527e-11
2.87777e-11
6.74969e-12
3.77208e-11
1.6281e-11
3.72897e-11
9.5472e-12
4.11177e-11
8.2166e-12
4.7534e-11
9.99593e-12
6.04409e-11
7.69151e-12
5.55732e-11
-1.67402e-11
1.10315e-10
1.82036e-10
-1.28525e-09
8.51734e-10
1.20787e-09
-1.63996e-09
-1.28071e-09
1.7556e-10
1.98973e-10
-1.56282e-10
-2.42225e-10
-1.63184e-10
-7.09566e-11
-5.46481e-11
-4.12348e-11
-4.6819e-11
-2.77468e-11
-3.03613e-11
-1.19211e-11
-1.4468e-11
2.6468e-12
-6.90326e-12
5.95547e-12
-1.01894e-12
1.50729e-11
4.96154e-12
1.76378e-11
8.20548e-12
2.35806e-11
1.44092e-11
2.84734e-11
1.59459e-11
2.85951e-11
1.71928e-11
3.27886e-11
2.26356e-11
3.73987e-11
2.17056e-11
3.38426e-11
2.02033e-11
3.66107e-11
2.34265e-11
3.89768e-11
2.44319e-11
3.47624e-11
2.08371e-11
3.22464e-11
9.79311e-12
3.69135e-11
1.69952e-11
3.64807e-11
1.07589e-11
3.95861e-11
1.00641e-11
4.52784e-11
1.31935e-11
5.70709e-11
1.36216e-11
5.14607e-11
-6.03639e-12
1.0314e-10
1.80758e-10
-1.19476e-09
7.70221e-10
1.12579e-09
-1.53862e-09
-1.26505e-09
1.32583e-10
2.08509e-10
-1.29636e-10
-2.35184e-10
-1.68939e-10
-7.70091e-11
-5.70662e-11
-4.33263e-11
-4.89048e-11
-3.07325e-11
-3.26668e-11
-1.45577e-11
-1.63107e-11
4.62188e-13
-8.12214e-12
4.23226e-12
-2.07994e-12
1.34092e-11
4.21097e-12
1.62947e-11
7.65763e-12
2.23727e-11
1.41023e-11
2.7475e-11
1.58749e-11
2.77133e-11
1.71855e-11
3.19222e-11
2.27607e-11
3.66133e-11
2.20555e-11
3.30712e-11
2.05493e-11
3.56797e-11
2.3966e-11
3.79261e-11
2.46772e-11
3.34174e-11
2.14805e-11
3.46028e-11
1.27972e-11
3.61311e-11
1.78396e-11
3.54879e-11
1.21771e-11
3.78411e-11
1.21747e-11
4.27933e-11
1.66831e-11
5.35082e-11
1.97937e-11
4.73959e-11
4.98737e-12
9.49846e-11
1.78354e-10
-1.09507e-09
6.77441e-10
6.20066e-10
3.17187e-10
-3.22272e-10
-6.25182e-10
-5.36646e-10
-3.74034e-10
-2.17353e-10
-1.33211e-10
-5.982e-11
-4.09725e-11
-7.33319e-12
-1.05839e-11
1.22848e-11
1.70115e-12
2.23949e-11
1.00669e-11
2.75333e-11
1.01178e-11
2.94832e-11
1.42638e-11
3.36296e-11
1.48147e-11
3.46911e-11
1.62667e-11
3.71935e-11
1.82663e-11
3.91996e-11
1.78549e-11
3.97248e-11
1.88249e-11
4.22296e-11
2.13082e-11
4.37293e-11
1.89296e-11
4.23935e-11
1.8939e-11
4.32516e-11
1.93588e-11
4.3149e-11
1.73551e-11
4.07686e-11
1.71211e-11
4.00871e-11
1.47088e-11
3.70859e-11
1.12642e-11
3.3263e-11
1.29946e-11
3.24741e-11
1.63816e-11
3.19177e-11
2.54975e-11
2.65419e-11
2.72917e-11
-1.22988e-12
2.51988e-11
-2.66746e-11
-6.54019e-12
-8.93039e-10
-2.02132e-10
6.46342e-10
3.32998e-10
-3.28775e-10
-6.30613e-10
-5.38503e-10
-3.7423e-10
-2.17546e-10
-1.33402e-10
-6.01929e-11
-4.12838e-11
-7.71408e-12
-1.0819e-11
1.19826e-11
1.53497e-12
2.21587e-11
9.97807e-12
2.73371e-11
1.00353e-11
2.93056e-11
1.42405e-11
3.34795e-11
1.47971e-11
3.45483e-11
1.62857e-11
3.70669e-11
1.83027e-11
3.90786e-11
1.78957e-11
3.96044e-11
1.88876e-11
4.21196e-11
2.1391e-11
4.36151e-11
1.9e-11
4.22716e-11
1.90434e-11
4.31394e-11
1.94766e-11
4.3037e-11
1.74711e-11
4.0626e-11
1.71955e-11
3.99397e-11
1.48771e-11
3.69834e-11
1.14491e-11
3.31592e-11
1.32376e-11
3.23986e-11
1.66425e-11
3.18861e-11
2.58156e-11
2.66037e-11
2.75715e-11
-1.07987e-12
2.52424e-11
-2.35874e-11
2.04435e-12
-9.09452e-10
-2.22525e-10
6.81435e-10
3.38926e-10
-3.38814e-10
-6.33232e-10
-5.39379e-10
-3.74136e-10
-2.17431e-10
-1.33537e-10
-6.04277e-11
-4.17443e-11
-8.12079e-12
-1.12601e-11
1.16797e-11
1.17085e-12
2.19284e-11
9.72308e-12
2.72108e-11
9.7891e-12
2.91704e-11
1.40606e-11
3.3418e-11
1.46298e-11
3.44888e-11
1.61615e-11
3.70447e-11
1.81972e-11
3.90772e-11
1.77915e-11
3.95994e-11
1.88074e-11
4.21334e-11
2.13344e-11
4.36539e-11
1.89208e-11
4.22817e-11
1.90027e-11
4.31787e-11
1.94494e-11
4.30908e-11
1.74465e-11
4.06248e-11
1.70745e-11
3.9921e-11
1.48921e-11
3.70834e-11
1.15162e-11
3.32262e-11
1.33688e-11
3.2524e-11
1.67889e-11
3.20248e-11
2.60055e-11
2.68954e-11
2.77345e-11
-5.74109e-13
2.414e-11
-2.02666e-11
1.71762e-11
-9.37497e-10
-2.3762e-10
7.18727e-10
3.23405e-10
-3.49582e-10
-6.29395e-10
-5.3905e-10
-3.73792e-10
-2.16933e-10
-1.33307e-10
-6.04207e-11
-4.21745e-11
-8.59508e-12
-1.18159e-11
1.12901e-11
7.04049e-13
2.16108e-11
9.39209e-12
2.70572e-11
9.46781e-12
2.89649e-11
1.38172e-11
3.3339e-11
1.44115e-11
3.43943e-11
1.5996e-11
3.70077e-11
1.80627e-11
3.90796e-11
1.76574e-11
3.95838e-11
1.87008e-11
4.21464e-11
2.12626e-11
4.37222e-11
1.88217e-11
4.2286e-11
1.89435e-11
4.32364e-11
1.94122e-11
4.31801e-11
1.74184e-11
4.0638e-11
1.68899e-11
3.98753e-11
1.48677e-11
3.72628e-11
1.15853e-11
3.33435e-11
1.34815e-11
3.27638e-11
1.68712e-11
3.23191e-11
2.60308e-11
2.75991e-11
2.74296e-11
8.21552e-13
2.08936e-11
-1.33501e-11
3.21542e-11
-9.73638e-10
-2.35377e-10
7.52056e-10
2.75235e-10
-3.59108e-10
-6.12981e-10
-5.36215e-10
-3.73499e-10
-2.16239e-10
-1.32662e-10
-6.0129e-11
-4.25365e-11
-9.1619e-12
-1.24784e-11
1.07779e-11
1.3501e-13
2.11677e-11
8.99223e-12
2.68393e-11
9.08414e-12
2.86521e-11
1.35202e-11
3.32077e-11
1.41616e-11
3.42248e-11
1.58058e-11
3.69208e-11
1.79197e-11
3.90481e-11
1.75189e-11
3.95167e-11
1.85902e-11
4.21193e-11
2.12065e-11
4.37816e-11
1.87364e-11
4.22403e-11
1.88951e-11
4.32717e-11
1.93972e-11
4.32675e-11
1.74265e-11
4.0637e-11
1.66852e-11
3.97271e-11
1.48229e-11
3.74796e-11
1.16972e-11
3.347e-11
1.35755e-11
3.30959e-11
1.68627e-11
3.2793e-11
2.57993e-11
2.88239e-11
2.6405e-11
3.46708e-12
1.51202e-11
-1.79778e-12
4.34996e-11
-1.01565e-09
-2.05836e-10
7.81605e-10
1.87456e-10
-3.68525e-10
-5.80696e-10
-5.29359e-10
-3.73571e-10
-2.15634e-10
-1.31678e-10
-5.95944e-11
-4.28479e-11
-9.84661e-12
-1.32654e-11
1.0128e-11
-5.43792e-13
2.05903e-11
8.51338e-12
2.65488e-11
8.64495e-12
2.82284e-11
1.31683e-11
3.30157e-11
1.38843e-11
3.39765e-11
1.55892e-11
3.67788e-11
1.77704e-11
3.89757e-11
1.73801e-11
3.93899e-11
1.84776e-11
4.20458e-11
2.11675e-11
4.38207e-11
1.86726e-11
4.21351e-11
1.88579e-11
4.32748e-11
1.9409e-11
4.33442e-11
1.74842e-11
4.0623e-11
1.64632e-11
3.94378e-11
1.47436e-11
3.77222e-11
1.18509e-11
3.36094e-11
1.36273e-11
3.35334e-11
1.67118e-11
3.34961e-11
2.51857e-11
3.07015e-11
2.44354e-11
7.69482e-12
6.58157e-12
1.46253e-11
5.01881e-11
-1.06446e-09
-1.43341e-10
8.10799e-10
5.78626e-11
-3.81293e-10
-5.31145e-10
-5.16936e-10
-3.74083e-10
-2.15386e-10
-1.30443e-10
-5.8842e-11
-4.31357e-11
-1.06768e-11
-1.42011e-11
9.31963e-12
-1.34124e-12
1.98706e-11
7.94599e-12
2.6177e-11
8.15459e-12
2.76962e-11
1.27602e-11
3.27599e-11
1.35866e-11
3.36498e-11
1.53484e-11
3.65809e-11
1.76191e-11
3.88576e-11
1.72475e-11
3.92019e-11
1.83668e-11
4.19226e-11
2.11486e-11
4.38334e-11
1.86388e-11
4.19693e-11
1.8835e-11
4.32404e-11
1.94525e-11
4.34069e-11
1.75995e-11
4.06112e-11
1.62205e-11
3.89749e-11
1.46161e-11
3.79949e-11
1.20406e-11
3.37746e-11
1.36e-11
3.40956e-11
1.63628e-11
3.44865e-11
2.40944e-11
3.33273e-11
2.13723e-11
1.36153e-11
-4.48985e-12
3.52025e-11
5.28174e-11
-1.12086e-09
-4.71362e-11
8.43451e-10
-1.09695e-10
-4.00934e-10
-4.65138e-10
-4.97687e-10
-3.74925e-10
-2.15717e-10
-1.2904e-10
-5.7899e-11
-4.342e-11
-1.16731e-11
-1.53095e-11
8.3277e-12
-2.26842e-12
1.89948e-11
7.27891e-12
2.57058e-11
7.61356e-12
2.70553e-11
1.22942e-11
3.24305e-11
1.3272e-11
3.32438e-11
1.50861e-11
3.6324e-11
1.74699e-11
3.86898e-11
1.71273e-11
3.89522e-11
1.82628e-11
4.1748e-11
2.1154e-11
4.38104e-11
1.86424e-11
4.17428e-11
1.88268e-11
4.31663e-11
1.95293e-11
4.34559e-11
1.77764e-11
4.06285e-11
1.59446e-11
3.83188e-11
1.44253e-11
3.83013e-11
1.22516e-11
3.39849e-11
1.34598e-11
3.48052e-11
1.57689e-11
3.58036e-11
2.2468e-11
3.67121e-11
1.72602e-11
2.10566e-11
-1.73571e-11
5.81882e-11
5.32623e-11
-1.18423e-09
7.71108e-11
8.83185e-10
-3.06796e-10
-4.30673e-10
-3.85547e-10
-4.70769e-10
-3.75762e-10
-2.16823e-10
-1.2758e-10
-5.67949e-11
-4.371e-11
-1.2854e-11
-1.65971e-11
7.14073e-12
-3.33372e-12
1.79544e-11
6.50165e-12
2.51163e-11
7.0195e-12
2.6303e-11
1.17681e-11
3.20147e-11
1.294e-11
3.27559e-11
1.48032e-11
3.60036e-11
1.73237e-11
3.84662e-11
1.70236e-11
3.864e-11
1.81691e-11
4.15216e-11
2.11853e-11
4.37458e-11
1.86872e-11
4.14603e-11
1.88347e-11
4.30516e-11
1.96388e-11
4.34963e-11
1.8013e-11
4.07051e-11
1.56199e-11
3.74505e-11
1.41695e-11
3.86507e-11
1.24642e-11
3.42612e-11
1.31817e-11
3.56735e-11
1.49158e-11
3.74542e-11
2.03219e-11
4.07651e-11
1.2302e-11
2.95674e-11
-3.09751e-11
8.15063e-11
5.37827e-11
-1.25292e-09
2.19655e-10
9.31592e-10
-5.22732e-10
-4.7255e-10
-2.96591e-10
-4.35967e-10
-3.76141e-10
-2.18821e-10
-1.26188e-10
-5.55627e-11
-4.40051e-11
-1.4211e-11
-1.80591e-11
5.75608e-12
-4.53534e-12
1.67495e-11
5.61375e-12
2.4396e-11
6.36993e-12
2.54413e-11
1.11805e-11
3.1503e-11
1.25885e-11
3.2185e-11
1.44982e-11
3.56148e-11
1.71817e-11
3.81809e-11
1.69343e-11
3.8266e-11
1.80853e-11
4.12425e-11
2.12419e-11
4.36339e-11
1.8773e-11
4.11266e-11
1.88577e-11
4.28968e-11
1.97788e-11
4.35256e-11
1.83077e-11
4.08754e-11
1.52236e-11
3.6358e-11
1.38443e-11
3.90496e-11
1.26604e-11
3.46202e-11
1.27552e-11
3.66971e-11
1.38138e-11
3.94043e-11
1.77473e-11
4.52984e-11
6.85572e-12
3.85409e-11
-4.41813e-11
1.03199e-10
5.62019e-11
-1.32374e-09
3.70393e-10
9.88249e-10
-7.44886e-10
-5.27258e-10
-2.0326e-10
-3.93672e-10
-3.75522e-10
-2.21745e-10
-1.25008e-10
-5.42613e-11
-4.42994e-11
-1.57318e-11
-1.96843e-11
4.17848e-12
-5.86668e-12
1.5385e-11
4.61552e-12
2.35395e-11
5.66613e-12
2.44732e-11
1.05329e-11
3.08898e-11
1.22151e-11
3.15314e-11
1.41701e-11
3.51541e-11
1.70404e-11
3.78303e-11
1.68584e-11
3.78318e-11
1.80115e-11
4.09101e-11
2.13215e-11
4.34707e-11
1.88956e-11
4.07482e-11
1.88947e-11
4.27023e-11
1.99446e-11
4.35463e-11
1.8654e-11
4.117e-11
1.47321e-11
3.50449e-11
1.34501e-11
3.94987e-11
1.28294e-11
3.50616e-11
1.21887e-11
3.78464e-11
1.2504e-11
4.15705e-11
1.4889e-11
5.00587e-11
1.33353e-12
4.7324e-11
-5.59274e-11
1.21764e-10
6.16664e-11
-1.3926e-09
5.19087e-10
1.05093e-09
-9.62458e-10
-5.93757e-10
-1.10318e-10
-3.44811e-10
-3.73351e-10
-2.25531e-10
-1.2419e-10
-5.29562e-11
-4.459e-11
-1.7398e-11
-2.14578e-11
2.41609e-12
-7.31919e-12
1.38662e-11
3.51262e-12
2.25438e-11
4.90916e-12
2.34042e-11
9.82914e-12
3.0171e-11
1.1817e-11
3.0797e-11
1.38184e-11
3.46192e-11
1.68983e-11
3.74123e-11
1.67929e-11
3.73404e-11
1.79459e-11
4.05247e-11
2.14196e-11
4.32563e-11
1.90495e-11
4.03297e-11
1.89416e-11
4.24673e-11
2.01294e-11
4.35572e-11
1.90374e-11
4.16195e-11
1.41438e-11
3.35193e-11
1.30008e-11
3.99915e-11
1.29646e-11
3.55735e-11
1.15104e-11
3.90855e-11
1.10512e-11
4.38399e-11
1.19293e-11
5.47696e-11
-3.83515e-12
5.53286e-11
-6.53908e-11
1.36248e-10
7.0613e-11
-1.45549e-09
6.57071e-10
1.11668e-09
-1.16606e-09
-6.69932e-10
-2.21476e-11
-2.90696e-10
-3.6908e-10
-2.29994e-10
-1.2387e-10
-5.17343e-11
-4.48763e-11
-1.91861e-11
-2.33603e-11
4.80672e-13
-8.88399e-12
1.22035e-11
2.31019e-12
2.14106e-11
4.10163e-12
2.22424e-11
9.07392e-12
2.93465e-11
1.13929e-11
2.99861e-11
1.3444e-11
3.40111e-11
1.67523e-11
3.69285e-11
1.67346e-11
3.67953e-11
1.78861e-11
4.00875e-11
2.15318e-11
4.29897e-11
1.92291e-11
3.98773e-11
1.89961e-11
4.21928e-11
2.0328e-11
4.35516e-11
1.94426e-11
4.22348e-11
1.34748e-11
3.18119e-11
1.25153e-11
4.05083e-11
1.30685e-11
3.61349e-11
1.07567e-11
4.03395e-11
9.54948e-12
4.60852e-11
9.06295e-12
5.91564e-11
-8.28842e-12
6.20987e-11
-7.20568e-11
1.46304e-10
8.26605e-11
-1.50906e-09
7.78113e-10
1.18205e-09
-1.3488e-09
-7.52958e-10
5.7727e-11
-2.3293e-10
-3.62246e-10
-2.34872e-10
-1.24158e-10
-5.06875e-11
-4.5163e-11
-2.10715e-11
-2.53701e-11
-1.6138e-12
-1.05476e-11
1.04088e-11
1.01854e-12
2.01442e-11
3.24681e-12
2.09973e-11
8.27236e-12
2.8418e-11
1.09418e-11
2.91041e-11
1.30485e-11
3.3331e-11
1.66e-11
3.63809e-11
1.66801e-11
3.62007e-11
1.78307e-11
3.96015e-11
2.16534e-11
4.26715e-11
1.9428e-11
3.93971e-11
1.90578e-11
4.18787e-11
2.05367e-11
4.35186e-11
1.98527e-11
4.29939e-11
1.27834e-11
2.99975e-11
1.20197e-11
4.10196e-11
1.31533e-11
3.67177e-11
9.97559e-12
4.15443e-11
8.09716e-12
4.81775e-11
6.47916e-12
6.29858e-11
-1.17491e-11
6.73424e-11
-7.57132e-11
1.52088e-10
9.69362e-11
-1.55076e-09
8.78494e-10
1.24333e-09
-1.50569e-09
-8.39394e-10
1.26664e-10
-1.7331e-10
-3.52539e-10
-2.39854e-10
-1.25136e-10
-4.9919e-11
-4.54637e-11
-2.30285e-11
-2.74655e-11
-3.85239e-12
-1.23002e-11
8.49421e-12
-3.53285e-13
1.87508e-11
2.34738e-12
1.96771e-11
7.43003e-12
2.73903e-11
1.04628e-11
2.81567e-11
1.26334e-11
3.25822e-11
1.64391e-11
3.57722e-11
1.66269e-11
3.5562e-11
1.77786e-11
3.90697e-11
2.17805e-11
4.23033e-11
1.96414e-11
3.88934e-11
1.91266e-11
4.15248e-11
2.07533e-11
4.3442e-11
2.02443e-11
4.38094e-11
1.21778e-11
2.82285e-11
1.15456e-11
4.14839e-11
1.3235e-11
3.72865e-11
9.22545e-12
4.26313e-11
6.78791e-12
4.99956e-11
4.33197e-12
6.60776e-11
-1.4035e-11
7.09233e-11
-7.64033e-11
1.54039e-10
1.12419e-10