/*--------------------------------*- C++ -*----------------------------------*\
| =========                 |                                                 |
| \\      /  F ield         | OpenFOAM: The Open Source CFD Toolbox           |
|  \\    /   O peration     | Version:  2312                                  |
|   \\  /    A nd           | Website:  www.openfoam.com                      |
|    \\/     M anipulation  |                                                 |
\*---------------------------------------------------------------------------*/
FoamFile
{
    version     2.0;
    format      ascii;
    arch        "LSB;label=32;scalar=64";
    class       volScalarField;
    location    "600";
    object      k;
}
// * * * * * * * * * * * * * * * * * * * * * * * * * * * * * * * * * * * * * //

dimensions      [0 2 -2 0 0 0 0];

internalField   nonuniform List<scalar> 
144000
(
9.39377e-06
9.3922e-06
9.39629e-06
9.3918e-06
9.42992e-06
9.39292e-06
9.43239e-06
9.42722e-06
9.43112e-06
9.39644e-06
9.39473e-06
9.39382e-06
9.39692e-06
9.39442e-06
9.42934e-06
9.42831e-06
9.39419e-06
9.39605e-06
9.39532e-06
9.42924e-06
9.42739e-06
9.39672e-06
9.39533e-06
9.43192e-06
9.3964e-06
9.39358e-06
9.42917e-06
9.3954e-06
9.39339e-06
9.42668e-06
9.38914e-06
9.43221e-06
9.39618e-06
9.43274e-06
9.4282e-06
9.43356e-06
9.39918e-06
9.43386e-06
9.39821e-06
9.39683e-06
9.43222e-06
9.39151e-06
9.39745e-06
9.39487e-06
9.43212e-06
9.42899e-06
9.3949e-06
9.39939e-06
9.39438e-06
9.39666e-06
9.39157e-06
9.42669e-06
9.39256e-06
9.39915e-06
9.42818e-06
9.43043e-06
9.39398e-06
9.39679e-06
9.39272e-06
9.39171e-06
1.95601e-05
1.95582e-05
1.95635e-05
1.95615e-05
1.95369e-05
1.95525e-05
1.95398e-05
1.95264e-05
1.95254e-05
1.95499e-05
1.95593e-05
1.9559e-05
1.9563e-05
1.95625e-05
1.95409e-05
1.95276e-05
1.95478e-05
1.9559e-05
1.95638e-05
1.95409e-05
1.95226e-05
1.9547e-05
1.95607e-05
1.95384e-05
1.95547e-05
1.95617e-05
1.95372e-05
1.9554e-05
1.95611e-05
1.95356e-05
1.95478e-05
1.95336e-05
1.9554e-05
1.954e-05
1.95272e-05
1.95274e-05
1.95547e-05
1.9539e-05
1.95543e-05
1.95629e-05
1.95413e-05
1.95504e-05
1.95614e-05
1.95619e-05
1.95427e-05
1.95288e-05
1.95474e-05
1.95636e-05
1.95623e-05
1.95655e-05
1.9563e-05
1.95348e-05
1.95474e-05
1.9565e-05
1.95398e-05
1.95288e-05
1.95482e-05
1.9559e-05
1.95604e-05
1.95587e-05
2.39435e-05
2.39412e-05
2.39443e-05
2.39463e-05
2.39148e-05
2.39311e-05
2.39146e-05
2.39001e-05
2.38922e-05
2.39196e-05
2.39377e-05
2.39394e-05
2.39428e-05
2.39448e-05
2.39207e-05
2.39005e-05
2.39215e-05
2.39354e-05
2.39451e-05
2.39214e-05
2.38947e-05
2.39166e-05
2.39384e-05
2.39123e-05
2.39291e-05
2.39436e-05
2.39144e-05
2.39302e-05
2.39433e-05
2.39149e-05
2.39289e-05
2.39055e-05
2.39284e-05
2.39133e-05
2.38997e-05
2.38927e-05
2.39244e-05
2.39092e-05
2.39265e-05
2.39412e-05
2.39169e-05
2.39293e-05
2.39393e-05
2.39433e-05
2.39201e-05
2.39015e-05
2.39198e-05
2.39388e-05
2.39434e-05
2.39466e-05
2.39491e-05
2.39157e-05
2.39248e-05
2.39422e-05
2.39193e-05
2.39001e-05
2.3922e-05
2.39349e-05
2.39426e-05
2.3942e-05
2.58024e-05
2.58004e-05
2.58007e-05
2.58049e-05
2.57802e-05
2.57893e-05
2.57769e-05
2.57659e-05
2.57534e-05
2.5771e-05
2.57909e-05
2.57954e-05
2.57978e-05
2.58018e-05
2.57858e-05
2.5765e-05
2.57774e-05
2.57885e-05
2.58e-05
2.57864e-05
2.57608e-05
2.57709e-05
2.57916e-05
2.57734e-05
2.57828e-05
2.57993e-05
2.57783e-05
2.5786e-05
2.57998e-05
2.57802e-05
2.57897e-05
2.57686e-05
2.57831e-05
2.57738e-05
2.5764e-05
2.57525e-05
2.57751e-05
2.57669e-05
2.57785e-05
2.57944e-05
2.57782e-05
2.5787e-05
2.57935e-05
2.57998e-05
2.57834e-05
2.57655e-05
2.57753e-05
2.579e-05
2.57986e-05
2.58013e-05
2.58077e-05
2.57836e-05
2.57851e-05
2.57953e-05
2.57834e-05
2.57635e-05
2.57777e-05
2.5788e-05
2.57986e-05
2.57995e-05
2.6448e-05
2.64471e-05
2.64453e-05
2.64496e-05
2.64335e-05
2.64372e-05
2.64284e-05
2.64219e-05
2.64087e-05
2.64166e-05
2.64323e-05
2.64391e-05
2.64407e-05
2.64453e-05
2.64372e-05
2.64205e-05
2.64256e-05
2.64318e-05
2.6442e-05
2.64361e-05
2.64189e-05
2.64205e-05
2.64333e-05
2.64238e-05
2.64279e-05
2.64413e-05
2.64299e-05
2.64326e-05
2.64429e-05
2.64323e-05
2.64388e-05
2.6423e-05
2.64294e-05
2.64237e-05
2.64186e-05
2.64067e-05
2.64193e-05
2.64155e-05
2.64221e-05
2.64357e-05
2.64274e-05
2.64335e-05
2.64368e-05
2.64436e-05
2.64343e-05
2.64202e-05
2.64237e-05
2.64315e-05
2.6441e-05
2.64432e-05
2.64508e-05
2.64378e-05
2.64351e-05
2.64388e-05
2.64339e-05
2.64188e-05
2.64255e-05
2.64313e-05
2.64414e-05
2.64432e-05
2.64892e-05
2.64894e-05
2.64871e-05
2.64904e-05
2.64811e-05
2.6482e-05
2.64757e-05
2.64722e-05
2.64619e-05
2.64638e-05
2.64719e-05
2.64796e-05
2.64808e-05
2.64852e-05
2.64817e-05
2.64714e-05
2.64724e-05
2.64746e-05
2.64813e-05
2.64797e-05
2.64714e-05
2.64683e-05
2.64747e-05
2.64703e-05
2.64717e-05
2.64805e-05
2.6476e-05
2.64766e-05
2.64831e-05
2.64783e-05
2.64834e-05
2.6473e-05
2.64746e-05
2.64703e-05
2.64681e-05
2.6459e-05
2.64643e-05
2.64619e-05
2.64654e-05
2.6475e-05
2.64718e-05
2.64766e-05
2.6478e-05
2.64837e-05
2.64794e-05
2.64701e-05
2.64709e-05
2.64732e-05
2.64804e-05
2.64822e-05
2.64893e-05
2.64842e-05
2.64815e-05
2.6481e-05
2.64791e-05
2.64697e-05
2.64719e-05
2.64742e-05
2.6481e-05
2.64833e-05
2.62194e-05
2.62208e-05
2.62187e-05
2.62208e-05
2.62157e-05
2.62158e-05
2.62111e-05
2.62093e-05
2.62029e-05
2.62014e-05
2.62043e-05
2.62104e-05
2.62114e-05
2.62149e-05
2.62138e-05
2.62089e-05
2.62083e-05
2.62085e-05
2.62115e-05
2.62115e-05
2.62092e-05
2.62053e-05
2.62078e-05
2.62057e-05
2.6206e-05
2.62106e-05
2.62097e-05
2.62099e-05
2.62137e-05
2.62118e-05
2.6216e-05
2.62102e-05
2.62097e-05
2.62059e-05
2.62051e-05
2.61993e-05
2.62006e-05
2.61983e-05
2.62e-05
2.62056e-05
2.62048e-05
2.6209e-05
2.62096e-05
2.62137e-05
2.6212e-05
2.62072e-05
2.62071e-05
2.62069e-05
2.62108e-05
2.62121e-05
2.62175e-05
2.62164e-05
2.62159e-05
2.62136e-05
2.62128e-05
2.62074e-05
2.62079e-05
2.62082e-05
2.62116e-05
2.62135e-05
2.57827e-05
2.57846e-05
2.57831e-05
2.57842e-05
2.57815e-05
2.57814e-05
2.5778e-05
2.57771e-05
2.57738e-05
2.57711e-05
2.57717e-05
2.5775e-05
2.57756e-05
2.57781e-05
2.5778e-05
2.57764e-05
2.57759e-05
2.57751e-05
2.5776e-05
2.57763e-05
2.57762e-05
2.57742e-05
2.57744e-05
2.57732e-05
2.57729e-05
2.57748e-05
2.57754e-05
2.57755e-05
2.57776e-05
2.57771e-05
2.57805e-05
2.57777e-05
2.5777e-05
2.57735e-05
2.57734e-05
2.57701e-05
2.57698e-05
2.57673e-05
2.5768e-05
2.57707e-05
2.57705e-05
2.57739e-05
2.57742e-05
2.57771e-05
2.57766e-05
2.57747e-05
2.57749e-05
2.57737e-05
2.57756e-05
2.57761e-05
2.57794e-05
2.57798e-05
2.57812e-05
2.57789e-05
2.57786e-05
2.57757e-05
2.57756e-05
2.57751e-05
2.57764e-05
2.57776e-05
2.52505e-05
2.52522e-05
2.52511e-05
2.52517e-05
2.52501e-05
2.52503e-05
2.52478e-05
2.52474e-05
2.52458e-05
2.52436e-05
2.52428e-05
2.52444e-05
2.52445e-05
2.52459e-05
2.52461e-05
2.52459e-05
2.52459e-05
2.52453e-05
2.52451e-05
2.5245e-05
2.52458e-05
2.52451e-05
2.52446e-05
2.52434e-05
2.52434e-05
2.52437e-05
2.52445e-05
2.52446e-05
2.52458e-05
2.52458e-05
2.52484e-05
2.52472e-05
2.52469e-05
2.52443e-05
2.52444e-05
2.52427e-05
2.5242e-05
2.52395e-05
2.52396e-05
2.52405e-05
2.52403e-05
2.52429e-05
2.5243e-05
2.52448e-05
2.52448e-05
2.52445e-05
2.52451e-05
2.52439e-05
2.52447e-05
2.52448e-05
2.52464e-05
2.5247e-05
2.52493e-05
2.52475e-05
2.52474e-05
2.52461e-05
2.5246e-05
2.52454e-05
2.52457e-05
2.52463e-05
2.46584e-05
2.46594e-05
2.46587e-05
2.46589e-05
2.4658e-05
2.46581e-05
2.46564e-05
2.46562e-05
2.46555e-05
2.46542e-05
2.46529e-05
2.46536e-05
2.46535e-05
2.4654e-05
2.46541e-05
2.46543e-05
2.46547e-05
2.46543e-05
2.46538e-05
2.46533e-05
2.46543e-05
2.46542e-05
2.46538e-05
2.46528e-05
2.46529e-05
2.46527e-05
2.46531e-05
2.46532e-05
2.46537e-05
2.46538e-05
2.46558e-05
2.46553e-05
2.46554e-05
2.46538e-05
2.4654e-05
2.46531e-05
2.46525e-05
2.46505e-05
2.46502e-05
2.46503e-05
2.46498e-05
2.46516e-05
2.46516e-05
2.46526e-05
2.46527e-05
2.46529e-05
2.46539e-05
2.46531e-05
2.46535e-05
2.46533e-05
2.4654e-05
2.46544e-05
2.46565e-05
2.46553e-05
2.46554e-05
2.46549e-05
2.46551e-05
2.46547e-05
2.46544e-05
2.46547e-05
2.40246e-05
2.40249e-05
2.40244e-05
2.40243e-05
2.40236e-05
2.40238e-05
2.40226e-05
2.40225e-05
2.40222e-05
2.40216e-05
2.40205e-05
2.40208e-05
2.40205e-05
2.40206e-05
2.40204e-05
2.40206e-05
2.40211e-05
2.40209e-05
2.40205e-05
2.40198e-05
2.40206e-05
2.40207e-05
2.40205e-05
2.40199e-05
2.40201e-05
2.40197e-05
2.40197e-05
2.40199e-05
2.40199e-05
2.402e-05
2.40214e-05
2.40213e-05
2.40216e-05
2.40206e-05
2.40209e-05
2.40205e-05
2.40201e-05
2.40186e-05
2.40183e-05
2.40181e-05
2.40172e-05
2.40184e-05
2.40184e-05
2.40189e-05
2.40189e-05
2.40192e-05
2.40203e-05
2.40198e-05
2.40201e-05
2.40199e-05
2.40201e-05
2.40202e-05
2.40218e-05
2.40211e-05
2.40212e-05
2.40212e-05
2.40215e-05
2.40213e-05
2.4021e-05
2.40212e-05
2.33588e-05
2.33588e-05
2.33583e-05
2.3358e-05
2.33573e-05
2.33575e-05
2.33567e-05
2.33566e-05
2.33565e-05
2.33563e-05
2.33556e-05
2.33558e-05
2.33555e-05
2.33553e-05
2.33549e-05
2.3355e-05
2.33555e-05
2.33554e-05
2.33551e-05
2.33544e-05
2.3355e-05
2.33552e-05
2.33551e-05
2.33547e-05
2.33549e-05
2.33546e-05
2.33544e-05
2.33545e-05
2.33545e-05
2.33544e-05
2.33553e-05
2.33553e-05
2.33557e-05
2.3355e-05
2.33554e-05
2.33552e-05
2.3355e-05
2.33541e-05
2.33538e-05
2.33535e-05
2.33526e-05
2.33535e-05
2.33534e-05
2.33536e-05
2.33536e-05
2.33538e-05
2.33547e-05
2.33544e-05
2.33546e-05
2.33544e-05
2.33544e-05
2.33544e-05
2.33556e-05
2.33551e-05
2.33551e-05
2.33553e-05
2.33556e-05
2.33556e-05
2.33554e-05
2.33556e-05
2.2667e-05
2.26669e-05
2.26664e-05
2.2666e-05
2.26653e-05
2.26655e-05
2.26648e-05
2.26648e-05
2.26647e-05
2.26647e-05
2.26644e-05
2.26646e-05
2.26643e-05
2.2664e-05
2.26635e-05
2.26636e-05
2.2664e-05
2.26639e-05
2.26636e-05
2.2663e-05
2.26634e-05
2.26637e-05
2.26636e-05
2.26634e-05
2.26636e-05
2.26634e-05
2.26631e-05
2.26632e-05
2.26631e-05
2.26629e-05
2.26636e-05
2.26636e-05
2.26638e-05
2.26634e-05
2.26638e-05
2.26637e-05
2.26637e-05
2.26632e-05
2.2663e-05
2.26627e-05
2.26619e-05
2.26625e-05
2.26624e-05
2.26625e-05
2.26624e-05
2.26625e-05
2.26632e-05
2.2663e-05
2.26632e-05
2.2663e-05
2.26629e-05
2.26628e-05
2.26637e-05
2.26633e-05
2.26632e-05
2.26634e-05
2.26638e-05
2.26638e-05
2.26638e-05
2.26639e-05
2.19531e-05
2.19531e-05
2.19526e-05
2.19522e-05
2.19515e-05
2.19515e-05
2.1951e-05
2.1951e-05
2.19511e-05
2.19511e-05
2.1951e-05
2.19511e-05
2.19509e-05
2.19506e-05
2.19502e-05
2.19501e-05
2.19505e-05
2.19504e-05
2.19502e-05
2.19497e-05
2.195e-05
2.19502e-05
2.19502e-05
2.195e-05
2.19502e-05
2.19501e-05
2.19498e-05
2.19499e-05
2.19498e-05
2.19495e-05
2.195e-05
2.195e-05
2.19502e-05
2.19498e-05
2.19502e-05
2.19502e-05
2.19503e-05
2.19499e-05
2.19498e-05
2.19496e-05
2.1949e-05
2.19495e-05
2.19494e-05
2.19493e-05
2.19491e-05
2.19492e-05
2.19498e-05
2.19497e-05
2.19498e-05
2.19496e-05
2.19495e-05
2.19493e-05
2.195e-05
2.19497e-05
2.19496e-05
2.19497e-05
2.195e-05
2.195e-05
2.19501e-05
2.19501e-05
2.12204e-05
2.12204e-05
2.122e-05
2.12196e-05
2.12189e-05
2.12189e-05
2.12184e-05
2.12184e-05
2.12185e-05
2.12185e-05
2.12185e-05
2.12186e-05
2.12185e-05
2.12183e-05
2.12179e-05
2.12178e-05
2.12181e-05
2.1218e-05
2.12178e-05
2.12174e-05
2.12177e-05
2.12178e-05
2.12178e-05
2.12177e-05
2.12179e-05
2.12178e-05
2.12176e-05
2.12176e-05
2.12175e-05
2.12172e-05
2.12176e-05
2.12176e-05
2.12177e-05
2.12175e-05
2.12177e-05
2.12177e-05
2.12178e-05
2.12176e-05
2.12176e-05
2.12176e-05
2.12172e-05
2.12175e-05
2.12174e-05
2.12172e-05
2.1217e-05
2.1217e-05
2.12175e-05
2.12174e-05
2.12175e-05
2.12174e-05
2.12172e-05
2.12171e-05
2.12176e-05
2.12174e-05
2.12172e-05
2.12173e-05
2.12175e-05
2.12175e-05
2.12175e-05
2.12176e-05
2.04716e-05
2.04715e-05
2.04712e-05
2.04708e-05
2.04702e-05
2.04701e-05
2.04697e-05
2.04697e-05
2.04698e-05
2.04698e-05
2.04698e-05
2.04699e-05
2.04699e-05
2.04697e-05
2.04693e-05
2.04693e-05
2.04695e-05
2.04695e-05
2.04693e-05
2.0469e-05
2.04692e-05
2.04692e-05
2.04692e-05
2.04692e-05
2.04693e-05
2.04693e-05
2.04691e-05
2.04692e-05
2.04691e-05
2.04688e-05
2.0469e-05
2.0469e-05
2.04691e-05
2.04689e-05
2.04691e-05
2.04691e-05
2.04692e-05
2.04691e-05
2.04691e-05
2.04691e-05
2.04689e-05
2.04691e-05
2.0469e-05
2.04689e-05
2.04687e-05
2.04686e-05
2.0469e-05
2.0469e-05
2.0469e-05
2.04689e-05
2.04688e-05
2.04686e-05
2.0469e-05
2.04689e-05
2.04687e-05
2.04688e-05
2.04689e-05
2.04689e-05
2.04689e-05
2.0469e-05
1.97091e-05
1.9709e-05
1.97087e-05
1.97084e-05
1.97078e-05
1.97078e-05
1.97074e-05
1.97073e-05
1.97074e-05
1.97074e-05
1.97074e-05
1.97076e-05
1.97075e-05
1.97074e-05
1.97071e-05
1.9707e-05
1.97072e-05
1.97072e-05
1.97071e-05
1.97068e-05
1.9707e-05
1.9707e-05
1.9707e-05
1.9707e-05
1.97071e-05
1.97071e-05
1.97069e-05
1.9707e-05
1.97069e-05
1.97066e-05
1.97068e-05
1.97068e-05
1.97069e-05
1.97067e-05
1.97068e-05
1.97068e-05
1.97069e-05
1.97068e-05
1.97069e-05
1.97069e-05
1.97067e-05
1.97069e-05
1.97069e-05
1.97068e-05
1.97066e-05
1.97065e-05
1.97068e-05
1.97068e-05
1.97069e-05
1.97068e-05
1.97067e-05
1.97065e-05
1.97068e-05
1.97067e-05
1.97065e-05
1.97066e-05
1.97067e-05
1.97067e-05
1.97067e-05
1.97067e-05
1.89355e-05
1.89354e-05
1.89352e-05
1.89349e-05
1.89344e-05
1.89343e-05
1.89339e-05
1.89339e-05
1.8934e-05
1.8934e-05
1.89339e-05
1.89341e-05
1.8934e-05
1.89339e-05
1.89337e-05
1.89336e-05
1.89338e-05
1.89338e-05
1.89337e-05
1.89335e-05
1.89336e-05
1.89336e-05
1.89336e-05
1.89336e-05
1.89337e-05
1.89337e-05
1.89336e-05
1.89335e-05
1.89334e-05
1.89332e-05
1.89334e-05
1.89334e-05
1.89334e-05
1.89333e-05
1.89334e-05
1.89334e-05
1.89335e-05
1.89334e-05
1.89334e-05
1.89335e-05
1.89334e-05
1.89335e-05
1.89335e-05
1.89335e-05
1.89333e-05
1.89332e-05
1.89335e-05
1.89335e-05
1.89335e-05
1.89335e-05
1.89334e-05
1.89332e-05
1.89334e-05
1.89334e-05
1.89332e-05
1.89332e-05
1.89333e-05
1.89333e-05
1.89333e-05
1.89334e-05
1.81533e-05
1.81532e-05
1.8153e-05
1.81528e-05
1.81523e-05
1.81522e-05
1.8152e-05
1.81519e-05
1.81519e-05
1.81519e-05
1.81519e-05
1.8152e-05
1.8152e-05
1.8152e-05
1.81518e-05
1.81517e-05
1.81518e-05
1.81518e-05
1.81518e-05
1.81516e-05
1.81517e-05
1.81517e-05
1.81517e-05
1.81517e-05
1.81518e-05
1.81517e-05
1.81516e-05
1.81516e-05
1.81514e-05
1.81512e-05
1.81514e-05
1.81514e-05
1.81515e-05
1.81514e-05
1.81514e-05
1.81514e-05
1.81515e-05
1.81515e-05
1.81515e-05
1.81515e-05
1.81514e-05
1.81516e-05
1.81516e-05
1.81515e-05
1.81514e-05
1.81514e-05
1.81516e-05
1.81516e-05
1.81516e-05
1.81516e-05
1.81515e-05
1.81513e-05
1.81515e-05
1.81515e-05
1.81513e-05
1.81514e-05
1.81514e-05
1.81514e-05
1.81514e-05
1.81515e-05
1.73654e-05
1.73653e-05
1.73652e-05
1.73649e-05
1.73645e-05
1.73645e-05
1.73642e-05
1.73641e-05
1.73642e-05
1.73642e-05
1.73642e-05
1.73643e-05
1.73643e-05
1.73642e-05
1.73641e-05
1.7364e-05
1.73641e-05
1.73641e-05
1.7364e-05
1.73639e-05
1.7364e-05
1.7364e-05
1.7364e-05
1.7364e-05
1.7364e-05
1.7364e-05
1.7364e-05
1.73639e-05
1.73637e-05
1.73635e-05
1.73637e-05
1.73637e-05
1.73637e-05
1.73637e-05
1.73637e-05
1.73637e-05
1.73638e-05
1.73638e-05
1.73637e-05
1.73638e-05
1.73638e-05
1.73639e-05
1.73639e-05
1.73638e-05
1.73638e-05
1.73638e-05
1.73639e-05
1.73639e-05
1.73639e-05
1.73639e-05
1.73638e-05
1.73637e-05
1.73638e-05
1.73638e-05
1.73637e-05
1.73637e-05
1.73638e-05
1.73638e-05
1.73638e-05
1.73638e-05
1.65748e-05
1.65748e-05
1.65746e-05
1.65745e-05
1.65741e-05
1.65741e-05
1.65739e-05
1.65738e-05
1.65738e-05
1.65738e-05
1.65738e-05
1.65739e-05
1.65739e-05
1.65739e-05
1.65738e-05
1.65736e-05
1.65737e-05
1.65737e-05
1.65737e-05
1.65736e-05
1.65736e-05
1.65737e-05
1.65737e-05
1.65737e-05
1.65737e-05
1.65737e-05
1.65737e-05
1.65736e-05
1.65734e-05
1.65733e-05
1.65734e-05
1.65733e-05
1.65734e-05
1.65734e-05
1.65734e-05
1.65734e-05
1.65735e-05
1.65734e-05
1.65734e-05
1.65735e-05
1.65734e-05
1.65735e-05
1.65735e-05
1.65735e-05
1.65735e-05
1.65735e-05
1.65736e-05
1.65737e-05
1.65736e-05
1.65735e-05
1.65735e-05
1.65734e-05
1.65735e-05
1.65735e-05
1.65734e-05
1.65734e-05
1.65735e-05
1.65735e-05
1.65735e-05
1.65735e-05
1.57854e-05
1.57854e-05
1.57853e-05
1.57851e-05
1.57849e-05
1.57848e-05
1.57846e-05
1.57845e-05
1.57846e-05
1.57846e-05
1.57846e-05
1.57846e-05
1.57846e-05
1.57846e-05
1.57846e-05
1.57845e-05
1.57845e-05
1.57845e-05
1.57845e-05
1.57844e-05
1.57844e-05
1.57845e-05
1.57845e-05
1.57845e-05
1.57845e-05
1.57845e-05
1.57845e-05
1.57844e-05
1.57843e-05
1.57841e-05
1.57842e-05
1.57842e-05
1.57842e-05
1.57842e-05
1.57842e-05
1.57842e-05
1.57842e-05
1.57842e-05
1.57842e-05
1.57843e-05
1.57843e-05
1.57843e-05
1.57843e-05
1.57843e-05
1.57844e-05
1.57844e-05
1.57845e-05
1.57845e-05
1.57844e-05
1.57844e-05
1.57843e-05
1.57842e-05
1.57843e-05
1.57843e-05
1.57843e-05
1.57843e-05
1.57843e-05
1.57843e-05
1.57843e-05
1.57843e-05
1.5002e-05
1.5002e-05
1.50019e-05
1.50018e-05
1.50016e-05
1.50015e-05
1.50014e-05
1.50013e-05
1.50014e-05
1.50014e-05
1.50014e-05
1.50014e-05
1.50014e-05
1.50014e-05
1.50013e-05
1.50013e-05
1.50013e-05
1.50013e-05
1.50013e-05
1.50012e-05
1.50012e-05
1.50013e-05
1.50013e-05
1.50013e-05
1.50013e-05
1.50013e-05
1.50013e-05
1.50012e-05
1.50011e-05
1.5001e-05
1.5001e-05
1.5001e-05
1.50011e-05
1.5001e-05
1.5001e-05
1.50011e-05
1.50011e-05
1.50011e-05
1.50011e-05
1.50011e-05
1.50011e-05
1.50012e-05
1.50012e-05
1.50012e-05
1.50012e-05
1.50012e-05
1.50013e-05
1.50013e-05
1.50013e-05
1.50012e-05
1.50012e-05
1.50011e-05
1.50012e-05
1.50012e-05
1.50011e-05
1.50011e-05
1.50012e-05
1.50012e-05
1.50012e-05
1.50012e-05
1.42315e-05
1.42315e-05
1.42314e-05
1.42314e-05
1.42312e-05
1.42312e-05
1.42311e-05
1.4231e-05
1.4231e-05
1.42311e-05
1.42311e-05
1.42311e-05
1.42311e-05
1.42311e-05
1.4231e-05
1.4231e-05
1.4231e-05
1.4231e-05
1.4231e-05
1.4231e-05
1.4231e-05
1.4231e-05
1.4231e-05
1.4231e-05
1.4231e-05
1.4231e-05
1.4231e-05
1.42309e-05
1.42309e-05
1.42308e-05
1.42308e-05
1.42308e-05
1.42308e-05
1.42308e-05
1.42308e-05
1.42308e-05
1.42308e-05
1.42308e-05
1.42308e-05
1.42309e-05
1.42308e-05
1.42309e-05
1.42309e-05
1.42309e-05
1.42309e-05
1.42309e-05
1.4231e-05
1.4231e-05
1.4231e-05
1.42309e-05
1.42309e-05
1.42308e-05
1.42309e-05
1.42309e-05
1.42309e-05
1.42309e-05
1.42309e-05
1.42309e-05
1.42309e-05
1.42309e-05
1.34845e-05
1.34845e-05
1.34844e-05
1.34844e-05
1.34843e-05
1.34843e-05
1.34842e-05
1.34842e-05
1.34842e-05
1.34842e-05
1.34842e-05
1.34842e-05
1.34842e-05
1.34842e-05
1.34842e-05
1.34842e-05
1.34842e-05
1.34842e-05
1.34842e-05
1.34841e-05
1.34842e-05
1.34842e-05
1.34842e-05
1.34842e-05
1.34842e-05
1.34842e-05
1.34842e-05
1.34841e-05
1.34841e-05
1.3484e-05
1.3484e-05
1.3484e-05
1.3484e-05
1.3484e-05
1.3484e-05
1.3484e-05
1.3484e-05
1.3484e-05
1.3484e-05
1.34841e-05
1.3484e-05
1.34841e-05
1.34841e-05
1.34841e-05
1.34841e-05
1.34841e-05
1.34841e-05
1.34841e-05
1.34841e-05
1.34841e-05
1.34841e-05
1.34841e-05
1.34841e-05
1.34841e-05
1.34841e-05
1.34841e-05
1.34841e-05
1.34841e-05
1.34841e-05
1.34841e-05
9.43072e-06
9.39432e-06
9.39791e-06
9.39169e-06
9.39339e-06
9.39198e-06
9.42901e-06
9.42807e-06
9.40036e-06
9.39537e-06
9.43204e-06
9.39502e-06
9.43269e-06
9.42981e-06
9.39919e-06
9.39685e-06
9.43137e-06
9.3975e-06
9.396e-06
9.43103e-06
9.42712e-06
9.43428e-06
9.39698e-06
9.39735e-06
9.39493e-06
9.39093e-06
9.39408e-06
9.39079e-06
9.43058e-06
9.3906e-06
9.42913e-06
9.39486e-06
9.39499e-06
9.42929e-06
9.43118e-06
9.39755e-06
9.40112e-06
9.39206e-06
9.43235e-06
9.39037e-06
9.43544e-06
9.39281e-06
9.43437e-06
9.39134e-06
9.39384e-06
9.39293e-06
9.39152e-06
9.3918e-06
9.39449e-06
9.39609e-06
9.42663e-06
9.43083e-06
9.39433e-06
9.43357e-06
9.39549e-06
9.39898e-06
9.43089e-06
9.43403e-06
9.39779e-06
9.43275e-06
1.95302e-05
1.95482e-05
1.95639e-05
1.95618e-05
1.95603e-05
1.95606e-05
1.95401e-05
1.95219e-05
1.95509e-05
1.95626e-05
1.95392e-05
1.95552e-05
1.95415e-05
1.9527e-05
1.95517e-05
1.95639e-05
1.95387e-05
1.95558e-05
1.95648e-05
1.95431e-05
1.95251e-05
1.95268e-05
1.95511e-05
1.95616e-05
1.95638e-05
1.95603e-05
1.95609e-05
1.95595e-05
1.95381e-05
1.95507e-05
1.95326e-05
1.95494e-05
1.95615e-05
1.95385e-05
1.95262e-05
1.95478e-05
1.95673e-05
1.95624e-05
1.954e-05
1.95508e-05
1.95383e-05
1.95519e-05
1.95395e-05
1.95507e-05
1.95577e-05
1.9559e-05
1.95584e-05
1.95586e-05
1.956e-05
1.95661e-05
1.95393e-05
1.95261e-05
1.95499e-05
1.95376e-05
1.95508e-05
1.95652e-05
1.95415e-05
1.95316e-05
1.95555e-05
1.95404e-05
2.39018e-05
2.39214e-05
2.39406e-05
2.39465e-05
2.39442e-05
2.39449e-05
2.39216e-05
2.38931e-05
2.39181e-05
2.39412e-05
2.3914e-05
2.39321e-05
2.39167e-05
2.38975e-05
2.39205e-05
2.39424e-05
2.39139e-05
2.39302e-05
2.39454e-05
2.39227e-05
2.38999e-05
2.38916e-05
2.39204e-05
2.39374e-05
2.39451e-05
2.39457e-05
2.39444e-05
2.39443e-05
2.39155e-05
2.39313e-05
2.39075e-05
2.39234e-05
2.39411e-05
2.39169e-05
2.38956e-05
2.39162e-05
2.39413e-05
2.39458e-05
2.39167e-05
2.39312e-05
2.39095e-05
2.39286e-05
2.39109e-05
2.39286e-05
2.39374e-05
2.3941e-05
2.39416e-05
2.39424e-05
2.39415e-05
2.39479e-05
2.39222e-05
2.38967e-05
2.39236e-05
2.39083e-05
2.3924e-05
2.39425e-05
2.39193e-05
2.39003e-05
2.39282e-05
2.39132e-05
2.57645e-05
2.57764e-05
2.5792e-05
2.58038e-05
2.58029e-05
2.58039e-05
2.57889e-05
2.57597e-05
2.57705e-05
2.57936e-05
2.57754e-05
2.57876e-05
2.57784e-05
2.57607e-05
2.57723e-05
2.57952e-05
2.57758e-05
2.57843e-05
2.57996e-05
2.57863e-05
2.57679e-05
2.5752e-05
2.57715e-05
2.57887e-05
2.57989e-05
2.58045e-05
2.58031e-05
2.5804e-05
2.57805e-05
2.57908e-05
2.57721e-05
2.57795e-05
2.57956e-05
2.57814e-05
2.57592e-05
2.57693e-05
2.57891e-05
2.58022e-05
2.57797e-05
2.57901e-05
2.57709e-05
2.57848e-05
2.57707e-05
2.57848e-05
2.57931e-05
2.57983e-05
2.57998e-05
2.58016e-05
2.57994e-05
2.58039e-05
2.57894e-05
2.57616e-05
2.57789e-05
2.5768e-05
2.57778e-05
2.57949e-05
2.57822e-05
2.57617e-05
2.5781e-05
2.57725e-05
2.6418e-05
2.64239e-05
2.64331e-05
2.64461e-05
2.64475e-05
2.64491e-05
2.64411e-05
2.64196e-05
2.64198e-05
2.64341e-05
2.64252e-05
2.64327e-05
2.64281e-05
2.6416e-05
2.64194e-05
2.64355e-05
2.6426e-05
2.64296e-05
2.64409e-05
2.64355e-05
2.64252e-05
2.64076e-05
2.6417e-05
2.64299e-05
2.64393e-05
2.64483e-05
2.64481e-05
2.645e-05
2.64337e-05
2.64391e-05
2.64266e-05
2.64283e-05
2.64383e-05
2.64322e-05
2.64158e-05
2.64181e-05
2.64274e-05
2.64438e-05
2.64303e-05
2.64374e-05
2.64231e-05
2.64313e-05
2.64211e-05
2.64303e-05
2.64369e-05
2.64426e-05
2.64446e-05
2.64475e-05
2.64452e-05
2.64471e-05
2.64406e-05
2.64194e-05
2.64268e-05
2.64191e-05
2.64239e-05
2.64358e-05
2.6431e-05
2.64157e-05
2.64258e-05
2.64212e-05
2.64677e-05
2.64702e-05
2.6474e-05
2.64839e-05
2.64875e-05
2.64899e-05
2.64863e-05
2.64746e-05
2.64677e-05
2.64751e-05
2.64711e-05
2.64756e-05
2.64733e-05
2.6467e-05
2.64659e-05
2.64749e-05
2.64716e-05
2.64731e-05
2.648e-05
2.64785e-05
2.64748e-05
2.64616e-05
2.6464e-05
2.64706e-05
2.64774e-05
2.64871e-05
2.64881e-05
2.64913e-05
2.64812e-05
2.64837e-05
2.64763e-05
2.64749e-05
2.64796e-05
2.64775e-05
2.64682e-05
2.64664e-05
2.64687e-05
2.64812e-05
2.6475e-05
2.64806e-05
2.64711e-05
2.64758e-05
2.64684e-05
2.64738e-05
2.64781e-05
2.64834e-05
2.64854e-05
2.64889e-05
2.64876e-05
2.64875e-05
2.64852e-05
2.6472e-05
2.64735e-05
2.64674e-05
2.64693e-05
2.64754e-05
2.64747e-05
2.64658e-05
2.64698e-05
2.64673e-05
2.62045e-05
2.6206e-05
2.62069e-05
2.62124e-05
2.62165e-05
2.62197e-05
2.62184e-05
2.6214e-05
2.62056e-05
2.62083e-05
2.62061e-05
2.62087e-05
2.62072e-05
2.6205e-05
2.62022e-05
2.62064e-05
2.62058e-05
2.62065e-05
2.62102e-05
2.621e-05
2.62099e-05
2.62027e-05
2.62017e-05
2.62037e-05
2.62075e-05
2.62153e-05
2.6217e-05
2.62211e-05
2.62157e-05
2.62169e-05
2.6213e-05
2.62106e-05
2.6212e-05
2.62114e-05
2.6207e-05
2.62046e-05
2.62026e-05
2.62104e-05
2.6208e-05
2.62128e-05
2.6207e-05
2.62099e-05
2.62045e-05
2.62076e-05
2.62098e-05
2.62139e-05
2.62159e-05
2.62193e-05
2.62191e-05
2.62181e-05
2.62174e-05
2.62107e-05
2.62097e-05
2.62044e-05
2.6205e-05
2.62068e-05
2.62076e-05
2.62031e-05
2.62042e-05
2.62024e-05
2.57726e-05
2.57736e-05
2.57733e-05
2.57758e-05
2.57789e-05
2.57821e-05
2.57818e-05
2.5781e-05
2.57757e-05
2.57754e-05
2.57733e-05
2.57748e-05
2.57734e-05
2.57732e-05
2.57712e-05
2.57723e-05
2.57723e-05
2.57726e-05
2.57744e-05
2.57744e-05
2.57759e-05
2.57728e-05
2.57708e-05
2.57711e-05
2.57726e-05
2.57773e-05
2.57792e-05
2.57833e-05
2.57809e-05
2.57819e-05
2.578e-05
2.57782e-05
2.57777e-05
2.57774e-05
2.57756e-05
2.57741e-05
2.57704e-05
2.57746e-05
2.57736e-05
2.57774e-05
2.57742e-05
2.57762e-05
2.57726e-05
2.57742e-05
2.57752e-05
2.57777e-05
2.57795e-05
2.57821e-05
2.57829e-05
2.57818e-05
2.57817e-05
2.57789e-05
2.57777e-05
2.57731e-05
2.57733e-05
2.57728e-05
2.57734e-05
2.57713e-05
2.57713e-05
2.57698e-05
2.52436e-05
2.52442e-05
2.52435e-05
2.52444e-05
2.5246e-05
2.52488e-05
2.52488e-05
2.52497e-05
2.52471e-05
2.52461e-05
2.52438e-05
2.52446e-05
2.52433e-05
2.52439e-05
2.52428e-05
2.52422e-05
2.52424e-05
2.52424e-05
2.52431e-05
2.5243e-05
2.52448e-05
2.52438e-05
2.52425e-05
2.5242e-05
2.52425e-05
2.52448e-05
2.52462e-05
2.52495e-05
2.52488e-05
2.52499e-05
2.5249e-05
2.52484e-05
2.5247e-05
2.52469e-05
2.52461e-05
2.52456e-05
2.52422e-05
2.5244e-05
2.52432e-05
2.5246e-05
2.52442e-05
2.52458e-05
2.52434e-05
2.52444e-05
2.52447e-05
2.52459e-05
2.52474e-05
2.52489e-05
2.52504e-05
2.52495e-05
2.52496e-05
2.52487e-05
2.52479e-05
2.52445e-05
2.52445e-05
2.52432e-05
2.52433e-05
2.52422e-05
2.52419e-05
2.52404e-05
2.46534e-05
2.46537e-05
2.46529e-05
2.46532e-05
2.46538e-05
2.46555e-05
2.46556e-05
2.4657e-05
2.46561e-05
2.46552e-05
2.46533e-05
2.46538e-05
2.46526e-05
2.46532e-05
2.46528e-05
2.46517e-05
2.46516e-05
2.46515e-05
2.46517e-05
2.46514e-05
2.46529e-05
2.46527e-05
2.46523e-05
2.46517e-05
2.46519e-05
2.46528e-05
2.46536e-05
2.46559e-05
2.46559e-05
2.46571e-05
2.46567e-05
2.46568e-05
2.46559e-05
2.46556e-05
2.46551e-05
2.46552e-05
2.46528e-05
2.46534e-05
2.46525e-05
2.46543e-05
2.46532e-05
2.46545e-05
2.4653e-05
2.46537e-05
2.46537e-05
2.46542e-05
2.46553e-05
2.46559e-05
2.46574e-05
2.46568e-05
2.46568e-05
2.46567e-05
2.46565e-05
2.46543e-05
2.46544e-05
2.4653e-05
2.46526e-05
2.46517e-05
2.46514e-05
2.46502e-05
2.40208e-05
2.40209e-05
2.40202e-05
2.402e-05
2.40202e-05
2.4021e-05
2.4021e-05
2.40223e-05
2.40221e-05
2.40216e-05
2.40203e-05
2.40206e-05
2.40197e-05
2.40201e-05
2.402e-05
2.40191e-05
2.40188e-05
2.40186e-05
2.40184e-05
2.40179e-05
2.4019e-05
2.40191e-05
2.40191e-05
2.4019e-05
2.4019e-05
2.40193e-05
2.40197e-05
2.4021e-05
2.40211e-05
2.40223e-05
2.40222e-05
2.40227e-05
2.40221e-05
2.40219e-05
2.40217e-05
2.4022e-05
2.40204e-05
2.40205e-05
2.40197e-05
2.40208e-05
2.402e-05
2.4021e-05
2.402e-05
2.40205e-05
2.40205e-05
2.40207e-05
2.40214e-05
2.40217e-05
2.40227e-05
2.40224e-05
2.40223e-05
2.40225e-05
2.40226e-05
2.40213e-05
2.40215e-05
2.40204e-05
2.40197e-05
2.40189e-05
2.40187e-05
2.40177e-05
2.3356e-05
2.3356e-05
2.33553e-05
2.3355e-05
2.33547e-05
2.33551e-05
2.3355e-05
2.3356e-05
2.3356e-05
2.33557e-05
2.3355e-05
2.33552e-05
2.33545e-05
2.33548e-05
2.33548e-05
2.33541e-05
2.33539e-05
2.33535e-05
2.33532e-05
2.33526e-05
2.33534e-05
2.33535e-05
2.33537e-05
2.33537e-05
2.33538e-05
2.33539e-05
2.33541e-05
2.33547e-05
2.33548e-05
2.33558e-05
2.33558e-05
2.33564e-05
2.33561e-05
2.3356e-05
2.33561e-05
2.33564e-05
2.33553e-05
2.33552e-05
2.33546e-05
2.33553e-05
2.33548e-05
2.33555e-05
2.33549e-05
2.33552e-05
2.33552e-05
2.33553e-05
2.33557e-05
2.33558e-05
2.33564e-05
2.33562e-05
2.3356e-05
2.33563e-05
2.33566e-05
2.33558e-05
2.33561e-05
2.33554e-05
2.33547e-05
2.3354e-05
2.33538e-05
2.33529e-05
2.2665e-05
2.2665e-05
2.26644e-05
2.26639e-05
2.26635e-05
2.26636e-05
2.26634e-05
2.2664e-05
2.2664e-05
2.26639e-05
2.26634e-05
2.26636e-05
2.26632e-05
2.26634e-05
2.26634e-05
2.26629e-05
2.26627e-05
2.26623e-05
2.2662e-05
2.26614e-05
2.26619e-05
2.2662e-05
2.26623e-05
2.26623e-05
2.26624e-05
2.26624e-05
2.26626e-05
2.26629e-05
2.26629e-05
2.26637e-05
2.26637e-05
2.26643e-05
2.26641e-05
2.26642e-05
2.26642e-05
2.26646e-05
2.26639e-05
2.26638e-05
2.26633e-05
2.26638e-05
2.26634e-05
2.2664e-05
2.26636e-05
2.26638e-05
2.26638e-05
2.26639e-05
2.26641e-05
2.26642e-05
2.26645e-05
2.26643e-05
2.26641e-05
2.26643e-05
2.26647e-05
2.26641e-05
2.26645e-05
2.26641e-05
2.26634e-05
2.26629e-05
2.26627e-05
2.2662e-05
2.19518e-05
2.19518e-05
2.19513e-05
2.19508e-05
2.19503e-05
2.19502e-05
2.19498e-05
2.19503e-05
2.19503e-05
2.19502e-05
2.19498e-05
2.195e-05
2.19498e-05
2.19498e-05
2.19499e-05
2.19496e-05
2.19494e-05
2.19491e-05
2.19488e-05
2.19482e-05
2.19486e-05
2.19487e-05
2.19488e-05
2.19489e-05
2.1949e-05
2.1949e-05
2.19491e-05
2.19494e-05
2.19493e-05
2.19499e-05
2.19499e-05
2.19504e-05
2.19503e-05
2.19503e-05
2.19504e-05
2.19507e-05
2.19503e-05
2.19502e-05
2.19499e-05
2.19503e-05
2.195e-05
2.19505e-05
2.19502e-05
2.19504e-05
2.19504e-05
2.19504e-05
2.19506e-05
2.19506e-05
2.19508e-05
2.19507e-05
2.19504e-05
2.19505e-05
2.19509e-05
2.19505e-05
2.19508e-05
2.19506e-05
2.19501e-05
2.19496e-05
2.19495e-05
2.1949e-05
2.12196e-05
2.12195e-05
2.12192e-05
2.12187e-05
2.12181e-05
2.1218e-05
2.12176e-05
2.12179e-05
2.12179e-05
2.12177e-05
2.12174e-05
2.12176e-05
2.12174e-05
2.12174e-05
2.12176e-05
2.12173e-05
2.12172e-05
2.12169e-05
2.12166e-05
2.12161e-05
2.12165e-05
2.12165e-05
2.12166e-05
2.12166e-05
2.12167e-05
2.12167e-05
2.12167e-05
2.1217e-05
2.12169e-05
2.12174e-05
2.12174e-05
2.12177e-05
2.12177e-05
2.12176e-05
2.12177e-05
2.12181e-05
2.12178e-05
2.12177e-05
2.12174e-05
2.12178e-05
2.12177e-05
2.1218e-05
2.12178e-05
2.1218e-05
2.1218e-05
2.1218e-05
2.12182e-05
2.12182e-05
2.12183e-05
2.12182e-05
2.12179e-05
2.1218e-05
2.12183e-05
2.1218e-05
2.12183e-05
2.12181e-05
2.12178e-05
2.12174e-05
2.12173e-05
2.12169e-05
2.0471e-05
2.0471e-05
2.04707e-05
2.04702e-05
2.04697e-05
2.04696e-05
2.04691e-05
2.04693e-05
2.04693e-05
2.04692e-05
2.04689e-05
2.0469e-05
2.04689e-05
2.04688e-05
2.0469e-05
2.04688e-05
2.04687e-05
2.04684e-05
2.04682e-05
2.04678e-05
2.0468e-05
2.04681e-05
2.04681e-05
2.04681e-05
2.04682e-05
2.04682e-05
2.04682e-05
2.04684e-05
2.04684e-05
2.04687e-05
2.04687e-05
2.0469e-05
2.04689e-05
2.04689e-05
2.0469e-05
2.04693e-05
2.0469e-05
2.0469e-05
2.04688e-05
2.04691e-05
2.0469e-05
2.04693e-05
2.04692e-05
2.04694e-05
2.04694e-05
2.04694e-05
2.04695e-05
2.04695e-05
2.04696e-05