/*--------------------------------*- C++ -*----------------------------------*\
| =========                 |                                                 |
| \\      /  F ield         | OpenFOAM: The Open Source CFD Toolbox           |
|  \\    /   O peration     | Version:  2312                                  |
|   \\  /    A nd           | Website:  www.openfoam.com                      |
|    \\/     M anipulation  |                                                 |
\*---------------------------------------------------------------------------*/
FoamFile
{
    version     2.0;
    format      ascii;
    arch        "LSB;label=32;scalar=64";
    class       volScalarField;
    location    "600";
    object      k_0;
}
// * * * * * * * * * * * * * * * * * * * * * * * * * * * * * * * * * * * * * //

dimensions      [0 2 -2 0 0 0 0];

internalField   nonuniform List<scalar> 
144000
(
9.39607e-06
9.3945e-06
9.39859e-06
9.3941e-06
9.43223e-06
9.39522e-06
9.4347e-06
9.42953e-06
9.43343e-06
9.39875e-06
9.39704e-06
9.39612e-06
9.39922e-06
9.39673e-06
9.43166e-06
9.43062e-06
9.3965e-06
9.39835e-06
9.39762e-06
9.43155e-06
9.42971e-06
9.39903e-06
9.39763e-06
9.43424e-06
9.3987e-06
9.39589e-06
9.43148e-06
9.3977e-06
9.3957e-06
9.42899e-06
9.39144e-06
9.43453e-06
9.39849e-06
9.43505e-06
9.43052e-06
9.43587e-06
9.40148e-06
9.43618e-06
9.40051e-06
9.39913e-06
9.43454e-06
9.39381e-06
9.39975e-06
9.39718e-06
9.43443e-06
9.4313e-06
9.39721e-06
9.4017e-06
9.39669e-06
9.39896e-06
9.39388e-06
9.42901e-06
9.39486e-06
9.40146e-06
9.43049e-06
9.43274e-06
9.39629e-06
9.3991e-06
9.39503e-06
9.39402e-06
1.95645e-05
1.95626e-05
1.95679e-05
1.9566e-05
1.95414e-05
1.95569e-05
1.95443e-05
1.95309e-05
1.95299e-05
1.95543e-05
1.95638e-05
1.95634e-05
1.95674e-05
1.95669e-05
1.95454e-05
1.95321e-05
1.95522e-05
1.95635e-05
1.95683e-05
1.95454e-05
1.9527e-05
1.95515e-05
1.95652e-05
1.95429e-05
1.95592e-05
1.95662e-05
1.95417e-05
1.95585e-05
1.95655e-05
1.954e-05
1.95522e-05
1.9538e-05
1.95585e-05
1.95444e-05
1.95316e-05
1.95319e-05
1.95592e-05
1.95434e-05
1.95587e-05
1.95674e-05
1.95458e-05
1.95548e-05
1.95659e-05
1.95664e-05
1.95471e-05
1.95332e-05
1.95518e-05
1.9568e-05
1.95668e-05
1.957e-05
1.95675e-05
1.95393e-05
1.95518e-05
1.95694e-05
1.95443e-05
1.95333e-05
1.95526e-05
1.95634e-05
1.95649e-05
1.95631e-05
2.39487e-05
2.39463e-05
2.39495e-05
2.39515e-05
2.39199e-05
2.39362e-05
2.39197e-05
2.39053e-05
2.38974e-05
2.39248e-05
2.39428e-05
2.39445e-05
2.3948e-05
2.395e-05
2.39259e-05
2.39056e-05
2.39266e-05
2.39405e-05
2.39502e-05
2.39266e-05
2.38998e-05
2.39218e-05
2.39436e-05
2.39175e-05
2.39343e-05
2.39488e-05
2.39196e-05
2.39354e-05
2.39485e-05
2.39201e-05
2.3934e-05
2.39106e-05
2.39336e-05
2.39185e-05
2.39049e-05
2.38979e-05
2.39295e-05
2.39144e-05
2.39316e-05
2.39464e-05
2.39221e-05
2.39345e-05
2.39444e-05
2.39485e-05
2.39252e-05
2.39067e-05
2.3925e-05
2.3944e-05
2.39486e-05
2.39518e-05
2.39543e-05
2.39209e-05
2.393e-05
2.39474e-05
2.39245e-05
2.39052e-05
2.39272e-05
2.39401e-05
2.39478e-05
2.39472e-05
2.58077e-05
2.58058e-05
2.58061e-05
2.58103e-05
2.57856e-05
2.57947e-05
2.57823e-05
2.57712e-05
2.57588e-05
2.57764e-05
2.57963e-05
2.58008e-05
2.58031e-05
2.58072e-05
2.57912e-05
2.57704e-05
2.57828e-05
2.57938e-05
2.58054e-05
2.57918e-05
2.57662e-05
2.57763e-05
2.57969e-05
2.57788e-05
2.57881e-05
2.58047e-05
2.57837e-05
2.57914e-05
2.58052e-05
2.57856e-05
2.57951e-05
2.5774e-05
2.57885e-05
2.57791e-05
2.57694e-05
2.57578e-05
2.57805e-05
2.57723e-05
2.57839e-05
2.57998e-05
2.57836e-05
2.57924e-05
2.57989e-05
2.58052e-05
2.57888e-05
2.57709e-05
2.57807e-05
2.57954e-05
2.5804e-05
2.58067e-05
2.58131e-05
2.57889e-05
2.57905e-05
2.58007e-05
2.57888e-05
2.57689e-05
2.5783e-05
2.57933e-05
2.5804e-05
2.58049e-05
2.64533e-05
2.64524e-05
2.64506e-05
2.64549e-05
2.64389e-05
2.64425e-05
2.64338e-05
2.64273e-05
2.64141e-05
2.64219e-05
2.64377e-05
2.64445e-05
2.6446e-05
2.64507e-05
2.64426e-05
2.64259e-05
2.6431e-05
2.64371e-05
2.64474e-05
2.64415e-05
2.64242e-05
2.64259e-05
2.64387e-05
2.64291e-05
2.64332e-05
2.64467e-05
2.64353e-05
2.6438e-05
2.64483e-05
2.64377e-05
2.64442e-05
2.64284e-05
2.64348e-05
2.64291e-05
2.6424e-05
2.64121e-05
2.64247e-05
2.64208e-05
2.64275e-05
2.64411e-05
2.64328e-05
2.64389e-05
2.64421e-05
2.64489e-05
2.64396e-05
2.64255e-05
2.64291e-05
2.64369e-05
2.64464e-05
2.64486e-05
2.64562e-05
2.64431e-05
2.64405e-05
2.64442e-05
2.64392e-05
2.64242e-05
2.64309e-05
2.64367e-05
2.64468e-05
2.64486e-05
2.64945e-05
2.64946e-05
2.64924e-05
2.64957e-05
2.64863e-05
2.64873e-05
2.64809e-05
2.64774e-05
2.64672e-05
2.6469e-05
2.64772e-05
2.64848e-05
2.64861e-05
2.64905e-05
2.6487e-05
2.64767e-05
2.64776e-05
2.64799e-05
2.64865e-05
2.64849e-05
2.64766e-05
2.64736e-05
2.648e-05
2.64756e-05
2.6477e-05
2.64857e-05
2.64812e-05
2.64819e-05
2.64884e-05
2.64835e-05
2.64886e-05
2.64783e-05
2.64798e-05
2.64756e-05
2.64733e-05
2.64642e-05
2.64695e-05
2.64672e-05
2.64707e-05
2.64802e-05
2.6477e-05
2.64819e-05
2.64833e-05
2.64889e-05
2.64846e-05
2.64754e-05
2.64761e-05
2.64785e-05
2.64857e-05
2.64875e-05
2.64945e-05
2.64894e-05
2.64867e-05
2.64863e-05
2.64844e-05
2.64749e-05
2.64772e-05
2.64795e-05
2.64863e-05
2.64885e-05
2.62245e-05
2.62259e-05
2.62238e-05
2.62259e-05
2.62208e-05
2.62209e-05
2.62162e-05
2.62144e-05
2.6208e-05
2.62065e-05
2.62094e-05
2.62155e-05
2.62165e-05
2.622e-05
2.62189e-05
2.6214e-05
2.62134e-05
2.62136e-05
2.62166e-05
2.62166e-05
2.62143e-05
2.62104e-05
2.62128e-05
2.62108e-05
2.6211e-05
2.62157e-05
2.62148e-05
2.6215e-05
2.62188e-05
2.62169e-05
2.62211e-05
2.62153e-05
2.62148e-05
2.62109e-05
2.62102e-05
2.62044e-05
2.62057e-05
2.62034e-05
2.62051e-05
2.62107e-05
2.62099e-05
2.62141e-05
2.62147e-05
2.62188e-05
2.62171e-05
2.62123e-05
2.62122e-05
2.6212e-05
2.62159e-05
2.62172e-05
2.62226e-05
2.62215e-05
2.6221e-05
2.62187e-05
2.62179e-05
2.62125e-05
2.6213e-05
2.62133e-05
2.62167e-05
2.62186e-05
2.57876e-05
2.57896e-05
2.5788e-05
2.57891e-05
2.57864e-05
2.57863e-05
2.57829e-05
2.57821e-05
2.57787e-05
2.5776e-05
2.57766e-05
2.57799e-05
2.57805e-05
2.5783e-05
2.57829e-05
2.57813e-05
2.57808e-05
2.578e-05
2.57809e-05
2.57812e-05
2.57811e-05
2.57791e-05
2.57793e-05
2.57781e-05
2.57778e-05
2.57797e-05
2.57803e-05
2.57804e-05
2.57825e-05
2.5782e-05
2.57854e-05
2.57826e-05
2.57819e-05
2.57784e-05
2.57783e-05
2.57751e-05
2.57747e-05
2.57722e-05
2.57729e-05
2.57756e-05
2.57754e-05
2.57789e-05
2.57791e-05
2.5782e-05
2.57815e-05
2.57796e-05
2.57798e-05
2.57786e-05
2.57805e-05
2.57811e-05
2.57843e-05
2.57848e-05
2.57861e-05
2.57838e-05
2.57835e-05
2.57806e-05
2.57805e-05
2.578e-05
2.57813e-05
2.57825e-05
2.52552e-05
2.52569e-05
2.52558e-05
2.52563e-05
2.52548e-05
2.5255e-05
2.52525e-05
2.5252e-05
2.52505e-05
2.52483e-05
2.52475e-05
2.5249e-05
2.52492e-05
2.52506e-05
2.52508e-05
2.52506e-05
2.52506e-05
2.52499e-05
2.52498e-05
2.52496e-05
2.52505e-05
2.52498e-05
2.52493e-05
2.52481e-05
2.52481e-05
2.52484e-05
2.52492e-05
2.52493e-05
2.52505e-05
2.52505e-05
2.52531e-05
2.52519e-05
2.52516e-05
2.5249e-05
2.52491e-05
2.52474e-05
2.52467e-05
2.52442e-05
2.52443e-05
2.52452e-05
2.5245e-05
2.52476e-05
2.52477e-05
2.52495e-05
2.52495e-05
2.52492e-05
2.52498e-05
2.52486e-05
2.52494e-05
2.52495e-05
2.52511e-05
2.52517e-05
2.5254e-05
2.52522e-05
2.52521e-05
2.52508e-05
2.52507e-05
2.52501e-05
2.52503e-05
2.5251e-05
2.46629e-05
2.46639e-05
2.46632e-05
2.46633e-05
2.46624e-05
2.46626e-05
2.46609e-05
2.46606e-05
2.466e-05
2.46587e-05
2.46574e-05
2.46581e-05
2.46579e-05
2.46585e-05
2.46585e-05
2.46588e-05
2.46592e-05
2.46588e-05
2.46583e-05
2.46578e-05
2.46588e-05
2.46587e-05
2.46582e-05
2.46573e-05
2.46574e-05
2.46572e-05
2.46576e-05
2.46577e-05
2.46582e-05
2.46583e-05
2.46602e-05
2.46598e-05
2.46599e-05
2.46583e-05
2.46585e-05
2.46576e-05
2.4657e-05
2.46549e-05
2.46547e-05
2.46548e-05
2.46543e-05
2.4656e-05
2.46561e-05
2.46571e-05
2.46572e-05
2.46574e-05
2.46584e-05
2.46575e-05
2.46579e-05
2.46578e-05
2.46585e-05
2.46588e-05
2.46609e-05
2.46598e-05
2.46598e-05
2.46594e-05
2.46595e-05
2.46591e-05
2.46589e-05
2.46592e-05
2.40288e-05
2.40292e-05
2.40286e-05
2.40285e-05
2.40278e-05
2.4028e-05
2.40268e-05
2.40267e-05
2.40264e-05
2.40258e-05
2.40247e-05
2.40251e-05
2.40247e-05
2.40248e-05
2.40247e-05
2.40248e-05
2.40254e-05
2.40251e-05
2.40247e-05
2.4024e-05
2.40249e-05
2.4025e-05
2.40248e-05
2.40241e-05
2.40243e-05
2.4024e-05
2.40239e-05
2.40241e-05
2.40241e-05
2.40242e-05
2.40256e-05
2.40255e-05
2.40258e-05
2.40248e-05
2.40251e-05
2.40247e-05
2.40243e-05
2.40228e-05
2.40225e-05
2.40223e-05
2.40214e-05
2.40227e-05
2.40227e-05
2.40232e-05
2.40232e-05
2.40234e-05
2.40246e-05
2.4024e-05
2.40243e-05
2.40241e-05
2.40244e-05
2.40244e-05
2.4026e-05
2.40254e-05
2.40255e-05
2.40255e-05
2.40257e-05
2.40255e-05
2.40252e-05
2.40254e-05
2.33628e-05
2.33628e-05
2.33623e-05
2.3362e-05
2.33613e-05
2.33615e-05
2.33607e-05
2.33606e-05
2.33605e-05
2.33602e-05
2.33596e-05
2.33598e-05
2.33594e-05
2.33593e-05
2.33589e-05
2.3359e-05
2.33595e-05
2.33594e-05
2.33591e-05
2.33584e-05
2.33589e-05
2.33592e-05
2.33591e-05
2.33587e-05
2.33589e-05
2.33586e-05
2.33584e-05
2.33585e-05
2.33585e-05
2.33584e-05
2.33593e-05
2.33593e-05
2.33596e-05
2.3359e-05
2.33594e-05
2.33592e-05
2.3359e-05
2.3358e-05
2.33578e-05
2.33575e-05
2.33566e-05
2.33574e-05
2.33574e-05
2.33576e-05
2.33576e-05
2.33578e-05
2.33587e-05
2.33584e-05
2.33586e-05
2.33584e-05
2.33584e-05
2.33584e-05
2.33596e-05
2.33591e-05
2.33591e-05
2.33593e-05
2.33596e-05
2.33596e-05
2.33594e-05
2.33596e-05
2.26707e-05
2.26706e-05
2.26701e-05
2.26698e-05
2.2669e-05
2.26692e-05
2.26685e-05
2.26685e-05
2.26684e-05
2.26684e-05
2.26682e-05
2.26683e-05
2.2668e-05
2.26677e-05
2.26672e-05
2.26673e-05
2.26677e-05
2.26676e-05
2.26673e-05
2.26667e-05
2.26671e-05
2.26674e-05
2.26674e-05
2.26671e-05
2.26673e-05
2.26671e-05
2.26669e-05
2.2667e-05
2.26668e-05
2.26666e-05
2.26673e-05
2.26673e-05
2.26675e-05
2.26671e-05
2.26675e-05
2.26674e-05
2.26674e-05
2.26669e-05
2.26667e-05
2.26664e-05
2.26656e-05
2.26662e-05
2.26662e-05
2.26662e-05
2.26661e-05
2.26662e-05
2.26669e-05
2.26667e-05
2.26669e-05
2.26667e-05
2.26666e-05
2.26665e-05
2.26674e-05
2.2667e-05
2.2667e-05
2.26671e-05
2.26675e-05
2.26675e-05
2.26675e-05
2.26676e-05
2.19566e-05
2.19565e-05
2.1956e-05
2.19557e-05
2.1955e-05
2.19549e-05
2.19545e-05
2.19544e-05
2.19545e-05
2.19545e-05
2.19544e-05
2.19546e-05
2.19544e-05
2.1954e-05
2.19536e-05
2.19536e-05
2.19539e-05
2.19538e-05
2.19536e-05
2.19531e-05
2.19534e-05
2.19536e-05
2.19536e-05
2.19535e-05
2.19537e-05
2.19535e-05
2.19533e-05
2.19534e-05
2.19532e-05
2.19529e-05
2.19534e-05
2.19534e-05
2.19536e-05
2.19533e-05
2.19536e-05
2.19536e-05
2.19537e-05
2.19533e-05
2.19532e-05
2.19531e-05
2.19525e-05
2.19529e-05
2.19529e-05
2.19528e-05
2.19526e-05
2.19526e-05
2.19532e-05
2.19531e-05
2.19532e-05
2.19531e-05
2.19529e-05
2.19528e-05
2.19534e-05
2.19532e-05
2.1953e-05
2.19532e-05
2.19535e-05
2.19535e-05
2.19535e-05
2.19536e-05
2.12236e-05
2.12235e-05
2.12231e-05
2.12228e-05
2.12221e-05
2.1222e-05
2.12216e-05
2.12216e-05
2.12217e-05
2.12217e-05
2.12217e-05
2.12218e-05
2.12217e-05
2.12214e-05
2.1221e-05
2.1221e-05
2.12213e-05
2.12212e-05
2.1221e-05
2.12206e-05
2.12209e-05
2.1221e-05
2.1221e-05
2.12209e-05
2.12211e-05
2.1221e-05
2.12208e-05
2.12208e-05
2.12207e-05
2.12204e-05
2.12208e-05
2.12207e-05
2.12209e-05
2.12206e-05
2.12209e-05
2.12209e-05
2.1221e-05
2.12207e-05
2.12208e-05
2.12207e-05
2.12203e-05
2.12206e-05
2.12206e-05
2.12204e-05
2.12202e-05
2.12202e-05
2.12207e-05
2.12206e-05
2.12207e-05
2.12206e-05
2.12204e-05
2.12202e-05
2.12207e-05
2.12206e-05
2.12204e-05
2.12205e-05
2.12207e-05
2.12207e-05
2.12207e-05
2.12208e-05
2.04745e-05
2.04744e-05
2.04741e-05
2.04737e-05
2.04731e-05
2.0473e-05
2.04726e-05
2.04726e-05
2.04727e-05
2.04727e-05
2.04727e-05
2.04728e-05
2.04728e-05
2.04726e-05
2.04722e-05
2.04721e-05
2.04724e-05
2.04724e-05
2.04722e-05
2.04718e-05
2.04721e-05
2.04721e-05
2.04721e-05
2.04721e-05
2.04722e-05
2.04722e-05
2.0472e-05
2.04721e-05
2.04719e-05
2.04717e-05
2.04719e-05
2.04719e-05
2.0472e-05
2.04718e-05
2.0472e-05
2.0472e-05
2.04721e-05
2.0472e-05
2.0472e-05
2.0472e-05
2.04718e-05
2.0472e-05
2.04719e-05
2.04718e-05
2.04715e-05
2.04715e-05
2.04719e-05
2.04719e-05
2.04719e-05
2.04718e-05
2.04717e-05
2.04715e-05
2.04719e-05
2.04718e-05
2.04716e-05
2.04717e-05
2.04718e-05
2.04718e-05
2.04718e-05
2.04718e-05
1.97117e-05
1.97116e-05
1.97113e-05
1.9711e-05
1.97104e-05
1.97104e-05
1.971e-05
1.97099e-05
1.971e-05
1.971e-05
1.971e-05
1.97102e-05
1.97101e-05
1.971e-05
1.97097e-05
1.97096e-05
1.97099e-05
1.97098e-05
1.97097e-05
1.97094e-05
1.97096e-05
1.97096e-05
1.97096e-05
1.97096e-05
1.97097e-05
1.97097e-05
1.97095e-05
1.97096e-05
1.97095e-05
1.97092e-05
1.97094e-05
1.97094e-05
1.97095e-05
1.97093e-05
1.97094e-05
1.97094e-05
1.97095e-05
1.97094e-05
1.97095e-05
1.97095e-05
1.97093e-05
1.97095e-05
1.97095e-05
1.97094e-05
1.97092e-05
1.97091e-05
1.97094e-05
1.97094e-05
1.97095e-05
1.97094e-05
1.97093e-05
1.97091e-05
1.97094e-05
1.97093e-05
1.97091e-05
1.97092e-05
1.97093e-05
1.97093e-05
1.97093e-05
1.97093e-05
1.89378e-05
1.89377e-05
1.89375e-05
1.89372e-05
1.89367e-05
1.89366e-05
1.89363e-05
1.89362e-05
1.89363e-05
1.89363e-05
1.89363e-05
1.89364e-05
1.89364e-05
1.89363e-05
1.8936e-05
1.89359e-05
1.89361e-05
1.89361e-05
1.8936e-05
1.89358e-05
1.89359e-05
1.8936e-05
1.8936e-05
1.89359e-05
1.8936e-05
1.8936e-05
1.89359e-05
1.89359e-05
1.89357e-05
1.89355e-05
1.89357e-05
1.89357e-05
1.89358e-05
1.89356e-05
1.89357e-05
1.89357e-05
1.89358e-05
1.89358e-05
1.89357e-05
1.89358e-05
1.89357e-05
1.89359e-05
1.89358e-05
1.89358e-05
1.89356e-05
1.89355e-05
1.89358e-05
1.89358e-05
1.89358e-05
1.89358e-05
1.89357e-05
1.89355e-05
1.89358e-05
1.89357e-05
1.89355e-05
1.89355e-05
1.89356e-05
1.89357e-05
1.89357e-05
1.89357e-05
1.81553e-05
1.81553e-05
1.81551e-05
1.81548e-05
1.81544e-05
1.81543e-05
1.8154e-05
1.81539e-05
1.8154e-05
1.8154e-05
1.81539e-05
1.81541e-05
1.81541e-05
1.8154e-05
1.81538e-05
1.81537e-05
1.81539e-05
1.81538e-05
1.81538e-05
1.81536e-05
1.81537e-05
1.81537e-05
1.81537e-05
1.81537e-05
1.81538e-05
1.81538e-05
1.81537e-05
1.81536e-05
1.81534e-05
1.81533e-05
1.81534e-05
1.81534e-05
1.81535e-05
1.81534e-05
1.81535e-05
1.81535e-05
1.81535e-05
1.81535e-05
1.81535e-05
1.81535e-05
1.81535e-05
1.81536e-05
1.81536e-05
1.81536e-05
1.81535e-05
1.81534e-05
1.81536e-05
1.81536e-05
1.81537e-05
1.81536e-05
1.81535e-05
1.81533e-05
1.81535e-05
1.81535e-05
1.81534e-05
1.81534e-05
1.81534e-05
1.81535e-05
1.81535e-05
1.81535e-05
1.73671e-05
1.73671e-05
1.73669e-05
1.73667e-05
1.73663e-05
1.73662e-05
1.7366e-05
1.73659e-05
1.73659e-05
1.73659e-05
1.73659e-05
1.7366e-05
1.7366e-05
1.73659e-05
1.73658e-05
1.73657e-05
1.73658e-05
1.73658e-05
1.73658e-05
1.73656e-05
1.73657e-05
1.73657e-05
1.73657e-05
1.73657e-05
1.73658e-05
1.73658e-05
1.73657e-05
1.73656e-05
1.73655e-05
1.73653e-05
1.73654e-05
1.73654e-05
1.73655e-05
1.73654e-05
1.73655e-05
1.73655e-05
1.73655e-05
1.73655e-05
1.73655e-05
1.73656e-05
1.73655e-05
1.73656e-05
1.73656e-05
1.73656e-05
1.73655e-05
1.73655e-05
1.73657e-05
1.73657e-05
1.73657e-05
1.73656e-05
1.73655e-05
1.73654e-05
1.73656e-05
1.73655e-05
1.73655e-05
1.73654e-05
1.73655e-05
1.73655e-05
1.73655e-05
1.73655e-05
1.65763e-05
1.65762e-05
1.65761e-05
1.65759e-05
1.65756e-05
1.65755e-05
1.65753e-05
1.65752e-05
1.65753e-05
1.65753e-05
1.65753e-05
1.65753e-05
1.65753e-05
1.65753e-05
1.65752e-05
1.65751e-05
1.65752e-05
1.65752e-05
1.65751e-05
1.6575e-05
1.65751e-05
1.65751e-05
1.65751e-05
1.65751e-05
1.65752e-05
1.65752e-05
1.65751e-05
1.6575e-05
1.65749e-05
1.65747e-05
1.65748e-05
1.65748e-05
1.65749e-05
1.65748e-05
1.65748e-05
1.65748e-05
1.65749e-05
1.65749e-05
1.65749e-05
1.65749e-05
1.65749e-05
1.6575e-05
1.6575e-05
1.6575e-05
1.6575e-05
1.6575e-05
1.65751e-05
1.65751e-05
1.65751e-05
1.6575e-05
1.65749e-05
1.65748e-05
1.6575e-05
1.6575e-05
1.65749e-05
1.65748e-05
1.65749e-05
1.65749e-05
1.65749e-05
1.6575e-05
1.57866e-05
1.57865e-05
1.57864e-05
1.57863e-05
1.5786e-05
1.5786e-05
1.57858e-05
1.57857e-05
1.57858e-05
1.57858e-05
1.57858e-05
1.57858e-05
1.57858e-05
1.57858e-05
1.57857e-05
1.57856e-05
1.57857e-05
1.57857e-05
1.57856e-05
1.57856e-05
1.57856e-05
1.57856e-05
1.57856e-05
1.57856e-05
1.57857e-05
1.57857e-05
1.57856e-05
1.57856e-05
1.57854e-05
1.57853e-05
1.57854e-05
1.57854e-05
1.57854e-05
1.57854e-05
1.57853e-05
1.57854e-05
1.57854e-05
1.57854e-05
1.57854e-05
1.57855e-05
1.57854e-05
1.57855e-05
1.57855e-05
1.57855e-05
1.57855e-05
1.57855e-05
1.57856e-05
1.57856e-05
1.57856e-05
1.57855e-05
1.57855e-05
1.57854e-05
1.57855e-05
1.57855e-05
1.57854e-05
1.57855e-05
1.57855e-05
1.57855e-05
1.57855e-05
1.57855e-05
1.50029e-05
1.50029e-05
1.50028e-05
1.50027e-05
1.50025e-05
1.50024e-05
1.50023e-05
1.50022e-05
1.50023e-05
1.50023e-05
1.50023e-05
1.50023e-05
1.50023e-05
1.50023e-05
1.50022e-05
1.50022e-05
1.50022e-05
1.50022e-05
1.50022e-05
1.50021e-05
1.50021e-05
1.50022e-05
1.50022e-05
1.50022e-05
1.50022e-05
1.50022e-05
1.50021e-05
1.50021e-05
1.5002e-05
1.50019e-05
1.50019e-05
1.50019e-05
1.5002e-05
1.50019e-05
1.50019e-05
1.50019e-05
1.5002e-05
1.5002e-05
1.5002e-05
1.5002e-05
1.5002e-05
1.5002e-05
1.5002e-05
1.5002e-05
1.5002e-05
1.50021e-05
1.50021e-05
1.50021e-05
1.50021e-05
1.50021e-05
1.50021e-05
1.5002e-05
1.50021e-05
1.50021e-05
1.5002e-05
1.5002e-05
1.5002e-05
1.5002e-05
1.5002e-05
1.50021e-05
1.42321e-05
1.42321e-05
1.42321e-05
1.4232e-05
1.42318e-05
1.42318e-05
1.42317e-05
1.42316e-05
1.42317e-05
1.42317e-05
1.42317e-05
1.42317e-05
1.42317e-05
1.42317e-05
1.42317e-05
1.42316e-05
1.42316e-05
1.42316e-05
1.42316e-05
1.42316e-05
1.42316e-05
1.42316e-05
1.42316e-05
1.42316e-05
1.42316e-05
1.42316e-05
1.42316e-05
1.42316e-05
1.42315e-05
1.42314e-05
1.42314e-05
1.42314e-05
1.42314e-05
1.42314e-05
1.42314e-05
1.42314e-05
1.42314e-05
1.42314e-05
1.42314e-05
1.42315e-05
1.42315e-05
1.42315e-05
1.42315e-05
1.42315e-05
1.42315e-05
1.42315e-05
1.42316e-05
1.42316e-05
1.42316e-05
1.42316e-05
1.42315e-05
1.42315e-05
1.42315e-05
1.42315e-05
1.42315e-05
1.42315e-05
1.42315e-05
1.42315e-05
1.42315e-05
1.42315e-05
1.34848e-05
1.34848e-05
1.34848e-05
1.34847e-05
1.34846e-05
1.34846e-05
1.34846e-05
1.34845e-05
1.34845e-05
1.34846e-05
1.34846e-05
1.34846e-05
1.34846e-05
1.34846e-05
1.34846e-05
1.34845e-05
1.34845e-05
1.34845e-05
1.34845e-05
1.34845e-05
1.34845e-05
1.34845e-05
1.34845e-05
1.34845e-05
1.34845e-05
1.34845e-05
1.34845e-05
1.34845e-05
1.34844e-05
1.34844e-05
1.34844e-05
1.34844e-05
1.34844e-05
1.34843e-05
1.34843e-05
1.34844e-05
1.34844e-05
1.34844e-05
1.34844e-05
1.34844e-05
1.34844e-05
1.34844e-05
1.34844e-05
1.34844e-05
1.34844e-05
1.34844e-05
1.34845e-05
1.34845e-05
1.34845e-05
1.34845e-05
1.34845e-05
1.34844e-05
1.34845e-05
1.34845e-05
1.34845e-05
1.34844e-05
1.34845e-05
1.34845e-05
1.34845e-05
1.34845e-05
9.43303e-06
9.39663e-06
9.40021e-06
9.39399e-06
9.39569e-06
9.39428e-06
9.43133e-06
9.43038e-06
9.40267e-06
9.39767e-06
9.43436e-06
9.39733e-06
9.435e-06
9.43213e-06
9.40149e-06
9.39915e-06
9.43369e-06
9.39981e-06
9.3983e-06
9.43334e-06
9.42944e-06
9.4366e-06
9.39929e-06
9.39966e-06
9.39724e-06
9.39323e-06
9.39639e-06
9.3931e-06
9.4329e-06
9.3929e-06
9.43145e-06
9.39717e-06
9.39729e-06
9.4316e-06
9.4335e-06
9.39986e-06
9.40342e-06
9.39437e-06
9.43467e-06
9.39268e-06
9.43776e-06
9.39512e-06
9.43669e-06
9.39364e-06
9.39614e-06
9.39523e-06
9.39383e-06
9.39411e-06
9.39679e-06
9.39839e-06
9.42895e-06
9.43314e-06
9.39664e-06
9.43588e-06
9.39779e-06
9.40129e-06
9.4332e-06
9.43634e-06
9.4001e-06
9.43506e-06
1.95347e-05
1.95527e-05
1.95684e-05
1.95663e-05
1.95647e-05
1.9565e-05
1.95446e-05
1.95264e-05
1.95554e-05
1.95671e-05
1.95437e-05
1.95597e-05
1.95459e-05
1.95314e-05
1.95562e-05
1.95683e-05
1.95432e-05
1.95602e-05
1.95692e-05
1.95476e-05
1.95296e-05
1.95312e-05
1.95555e-05
1.9566e-05
1.95683e-05
1.95648e-05
1.95654e-05
1.95639e-05
1.95426e-05
1.95552e-05
1.9537e-05
1.95539e-05
1.95659e-05
1.95429e-05
1.95307e-05
1.95523e-05
1.95718e-05
1.95668e-05
1.95445e-05
1.95553e-05
1.95427e-05
1.95563e-05
1.9544e-05
1.95551e-05
1.95622e-05
1.95634e-05
1.95628e-05
1.95631e-05
1.95645e-05
1.95705e-05
1.95437e-05
1.95306e-05
1.95543e-05
1.9542e-05
1.95553e-05
1.95697e-05
1.9546e-05
1.95361e-05
1.95599e-05
1.95449e-05
2.3907e-05
2.39265e-05
2.39458e-05
2.39517e-05
2.39493e-05
2.39501e-05
2.39268e-05
2.38983e-05
2.39233e-05
2.39464e-05
2.39191e-05
2.39373e-05
2.39219e-05
2.39027e-05
2.39257e-05
2.39476e-05
2.39191e-05
2.39354e-05
2.39506e-05
2.39279e-05
2.39051e-05
2.38968e-05
2.39256e-05
2.39426e-05
2.39503e-05
2.39509e-05
2.39496e-05
2.39495e-05
2.39207e-05
2.39364e-05
2.39127e-05
2.39285e-05
2.39462e-05
2.39221e-05
2.39007e-05
2.39214e-05
2.39464e-05
2.3951e-05
2.39218e-05
2.39364e-05
2.39147e-05
2.39338e-05
2.39161e-05
2.39338e-05
2.39426e-05
2.39462e-05
2.39468e-05
2.39476e-05
2.39467e-05
2.39531e-05
2.39274e-05
2.39018e-05
2.39287e-05
2.39134e-05
2.39292e-05
2.39477e-05
2.39245e-05
2.39055e-05
2.39334e-05
2.39184e-05
2.57699e-05
2.57818e-05
2.57974e-05
2.58092e-05
2.58083e-05
2.58092e-05
2.57942e-05
2.57651e-05
2.57759e-05
2.5799e-05
2.57807e-05
2.5793e-05
2.57838e-05
2.57661e-05
2.57777e-05
2.58006e-05
2.57812e-05
2.57897e-05
2.5805e-05
2.57917e-05
2.57732e-05
2.57573e-05
2.57768e-05
2.57941e-05
2.58043e-05
2.58099e-05
2.58085e-05
2.58094e-05
2.57858e-05
2.57962e-05
2.57775e-05
2.57849e-05
2.5801e-05
2.57867e-05
2.57646e-05
2.57747e-05
2.57945e-05
2.58075e-05
2.57851e-05
2.57955e-05
2.57763e-05
2.57901e-05
2.57761e-05
2.57901e-05
2.57985e-05
2.58037e-05
2.58052e-05
2.5807e-05
2.58047e-05
2.58093e-05
2.57948e-05
2.5767e-05
2.57843e-05
2.57734e-05
2.57832e-05
2.58003e-05
2.57875e-05
2.5767e-05
2.57864e-05
2.57779e-05
2.64234e-05
2.64293e-05
2.64384e-05
2.64515e-05
2.64529e-05
2.64545e-05
2.64465e-05
2.6425e-05
2.64252e-05
2.64394e-05
2.64306e-05
2.64381e-05
2.64334e-05
2.64214e-05
2.64247e-05
2.64408e-05
2.64314e-05
2.6435e-05
2.64462e-05
2.64408e-05
2.64306e-05
2.64129e-05
2.64223e-05
2.64352e-05
2.64447e-05
2.64537e-05
2.64534e-05
2.64553e-05
2.64391e-05
2.64445e-05
2.6432e-05
2.64337e-05
2.64437e-05
2.64375e-05
2.64211e-05
2.64235e-05
2.64328e-05
2.64492e-05
2.64356e-05
2.64427e-05
2.64284e-05
2.64367e-05
2.64265e-05
2.64357e-05
2.64423e-05
2.6448e-05
2.64499e-05
2.64528e-05
2.64506e-05
2.64525e-05
2.6446e-05
2.64248e-05
2.64322e-05
2.64245e-05
2.64293e-05
2.64412e-05
2.64364e-05
2.64211e-05
2.64312e-05
2.64266e-05
2.6473e-05
2.64754e-05
2.64793e-05
2.64892e-05
2.64927e-05
2.64952e-05
2.64916e-05
2.64799e-05
2.64729e-05
2.64804e-05
2.64764e-05
2.64809e-05
2.64786e-05
2.64723e-05
2.64711e-05
2.64801e-05
2.64768e-05
2.64783e-05
2.64852e-05
2.64837e-05
2.648e-05
2.64668e-05
2.64692e-05
2.64758e-05
2.64827e-05
2.64923e-05
2.64933e-05
2.64966e-05
2.64865e-05
2.6489e-05
2.64816e-05
2.64801e-05
2.64849e-05
2.64828e-05
2.64734e-05
2.64717e-05
2.64739e-05
2.64865e-05
2.64803e-05
2.64859e-05
2.64764e-05
2.6481e-05
2.64736e-05
2.64791e-05
2.64834e-05
2.64887e-05
2.64907e-05
2.64942e-05
2.64928e-05
2.64928e-05
2.64905e-05
2.64773e-05
2.64787e-05
2.64727e-05
2.64746e-05
2.64807e-05
2.648e-05
2.64711e-05
2.6475e-05
2.64725e-05
2.62096e-05
2.62111e-05
2.6212e-05
2.62175e-05
2.62216e-05
2.62247e-05
2.62235e-05
2.62191e-05
2.62107e-05
2.62134e-05
2.62112e-05
2.62138e-05
2.62123e-05
2.62101e-05
2.62073e-05
2.62115e-05
2.62109e-05
2.62116e-05
2.62153e-05
2.62151e-05
2.6215e-05
2.62078e-05
2.62068e-05
2.62088e-05
2.62126e-05
2.62204e-05
2.62221e-05
2.62262e-05
2.62208e-05
2.6222e-05
2.62181e-05
2.62157e-05
2.62171e-05
2.62165e-05
2.62121e-05
2.62096e-05
2.62077e-05
2.62155e-05
2.62131e-05
2.62179e-05
2.62121e-05
2.62149e-05
2.62096e-05
2.62127e-05
2.62149e-05
2.6219e-05
2.6221e-05
2.62244e-05
2.62242e-05
2.62232e-05
2.62225e-05
2.62157e-05
2.62148e-05
2.62095e-05
2.62101e-05
2.62119e-05
2.62127e-05
2.62082e-05
2.62093e-05
2.62075e-05
2.57775e-05
2.57785e-05
2.57782e-05
2.57807e-05
2.57838e-05
2.5787e-05
2.57867e-05
2.57859e-05
2.57806e-05
2.57803e-05
2.57783e-05
2.57797e-05
2.57783e-05
2.57781e-05
2.57761e-05
2.57772e-05
2.57772e-05
2.57775e-05
2.57793e-05
2.57793e-05
2.57808e-05
2.57777e-05
2.57757e-05
2.5776e-05
2.57775e-05
2.57822e-05
2.57841e-05
2.57882e-05
2.57859e-05
2.57868e-05
2.57849e-05
2.57831e-05
2.57826e-05
2.57823e-05
2.57805e-05
2.5779e-05
2.57753e-05
2.57795e-05
2.57785e-05
2.57823e-05
2.57791e-05
2.57811e-05
2.57775e-05
2.57791e-05
2.57801e-05
2.57826e-05
2.57844e-05
2.5787e-05
2.57878e-05
2.57867e-05
2.57866e-05
2.57838e-05
2.57826e-05
2.5778e-05
2.57782e-05
2.57777e-05
2.57783e-05
2.57762e-05
2.57762e-05
2.57747e-05
2.52483e-05
2.52489e-05
2.52481e-05
2.52491e-05
2.52507e-05
2.52535e-05
2.52535e-05
2.52543e-05
2.52518e-05
2.52508e-05
2.52484e-05
2.52493e-05
2.5248e-05
2.52486e-05
2.52475e-05
2.52469e-05
2.5247e-05
2.52471e-05
2.52478e-05
2.52477e-05
2.52495e-05
2.52485e-05
2.52471e-05
2.52467e-05
2.52472e-05
2.52495e-05
2.52509e-05
2.52542e-05
2.52535e-05
2.52546e-05
2.52537e-05
2.52531e-05
2.52517e-05
2.52516e-05
2.52508e-05
2.52502e-05
2.52469e-05
2.52487e-05
2.52479e-05
2.52507e-05
2.52489e-05
2.52505e-05
2.52481e-05
2.52491e-05
2.52494e-05
2.52506e-05
2.52521e-05
2.52536e-05
2.5255e-05
2.52541e-05
2.52542e-05
2.52534e-05
2.52526e-05
2.52492e-05
2.52492e-05
2.52479e-05
2.5248e-05
2.52469e-05
2.52466e-05
2.52451e-05
2.46579e-05
2.46582e-05
2.46574e-05
2.46576e-05
2.46582e-05
2.466e-05
2.466e-05
2.46615e-05
2.46606e-05
2.46597e-05
2.46577e-05
2.46582e-05
2.46571e-05
2.46577e-05
2.46573e-05
2.46562e-05
2.46561e-05
2.4656e-05
2.46562e-05
2.46559e-05
2.46573e-05
2.46572e-05
2.46567e-05
2.46562e-05
2.46564e-05
2.46573e-05
2.46581e-05
2.46604e-05
2.46604e-05
2.46615e-05
2.46612e-05
2.46613e-05
2.46603e-05
2.46601e-05
2.46596e-05
2.46596e-05
2.46572e-05
2.46578e-05
2.4657e-05
2.46588e-05
2.46577e-05
2.46589e-05
2.46575e-05
2.46581e-05
2.46582e-05
2.46586e-05
2.46597e-05
2.46604e-05
2.46618e-05
2.46613e-05
2.46613e-05
2.46612e-05
2.4661e-05
2.46588e-05
2.46588e-05
2.46575e-05
2.46571e-05
2.46561e-05
2.46559e-05
2.46546e-05
2.40251e-05
2.40252e-05
2.40244e-05
2.40242e-05
2.40244e-05
2.40252e-05
2.40252e-05
2.40266e-05
2.40263e-05
2.40258e-05
2.40245e-05
2.40248e-05
2.40239e-05
2.40243e-05
2.40242e-05
2.40233e-05
2.4023e-05
2.40228e-05
2.40226e-05
2.40221e-05
2.40232e-05
2.40233e-05
2.40233e-05
2.40232e-05
2.40232e-05
2.40235e-05
2.40239e-05
2.40252e-05
2.40253e-05
2.40265e-05
2.40265e-05
2.40269e-05
2.40263e-05
2.40261e-05
2.40259e-05
2.40262e-05
2.40246e-05
2.40247e-05
2.40239e-05
2.4025e-05
2.40243e-05
2.40252e-05
2.40243e-05
2.40248e-05
2.40248e-05
2.40249e-05
2.40256e-05
2.40259e-05
2.40269e-05
2.40266e-05
2.40265e-05
2.40268e-05
2.40268e-05
2.40255e-05
2.40257e-05
2.40247e-05
2.4024e-05
2.40231e-05
2.40229e-05
2.40219e-05
2.336e-05
2.336e-05
2.33593e-05
2.3359e-05
2.33587e-05
2.33591e-05
2.3359e-05
2.336e-05
2.336e-05
2.33597e-05
2.33589e-05
2.33592e-05
2.33585e-05
2.33588e-05
2.33588e-05
2.33581e-05
2.33578e-05
2.33575e-05
2.33572e-05
2.33566e-05
2.33573e-05
2.33575e-05
2.33577e-05
2.33577e-05
2.33578e-05
2.33578e-05
2.33581e-05
2.33587e-05
2.33588e-05
2.33598e-05
2.33598e-05
2.33604e-05
2.336e-05
2.336e-05
2.336e-05
2.33604e-05
2.33593e-05
2.33592e-05
2.33586e-05
2.33593e-05
2.33588e-05
2.33595e-05
2.33588e-05
2.33592e-05
2.33592e-05
2.33593e-05
2.33597e-05
2.33598e-05
2.33604e-05
2.33602e-05
2.336e-05
2.33603e-05
2.33606e-05
2.33598e-05
2.33601e-05
2.33594e-05
2.33587e-05
2.3358e-05
2.33577e-05
2.33569e-05
2.26687e-05
2.26687e-05
2.26681e-05
2.26676e-05
2.26672e-05
2.26673e-05
2.26671e-05
2.26678e-05
2.26678e-05
2.26676e-05
2.26671e-05
2.26674e-05
2.26669e-05
2.26671e-05
2.26671e-05
2.26666e-05
2.26664e-05
2.2666e-05
2.26657e-05
2.26651e-05
2.26657e-05
2.26657e-05
2.2666e-05
2.2666e-05
2.26661e-05
2.26662e-05
2.26663e-05
2.26667e-05
2.26667e-05
2.26674e-05
2.26674e-05
2.2668e-05
2.26678e-05
2.26679e-05
2.26679e-05
2.26683e-05
2.26676e-05
2.26675e-05
2.2667e-05
2.26675e-05
2.26672e-05
2.26677e-05
2.26673e-05
2.26675e-05
2.26676e-05
2.26676e-05
2.26678e-05
2.26679e-05
2.26682e-05
2.26681e-05
2.26678e-05
2.2668e-05
2.26684e-05
2.26679e-05
2.26682e-05
2.26678e-05
2.26672e-05
2.26666e-05
2.26664e-05
2.26657e-05
2.19552e-05
2.19552e-05
2.19547e-05
2.19542e-05
2.19537e-05
2.19536e-05
2.19533e-05
2.19538e-05
2.19538e-05
2.19536e-05
2.19533e-05
2.19535e-05
2.19532e-05
2.19533e-05
2.19534e-05
2.1953e-05
2.19529e-05
2.19525e-05
2.19522e-05
2.19517e-05
2.19521e-05
2.19521e-05
2.19523e-05
2.19523e-05
2.19524e-05
2.19525e-05
2.19525e-05
2.19528e-05
2.19528e-05
2.19533e-05
2.19533e-05
2.19538e-05
2.19537e-05
2.19537e-05
2.19538e-05
2.19542e-05
2.19537e-05
2.19536e-05
2.19533e-05
2.19537e-05
2.19535e-05
2.19539e-05
2.19536e-05
2.19538e-05
2.19539e-05
2.19539e-05
2.1954e-05
2.1954e-05
2.19543e-05
2.19541e-05
2.19538e-05
2.1954e-05
2.19543e-05
2.1954e-05
2.19543e-05
2.1954e-05
2.19535e-05
2.19531e-05
2.19529e-05
2.19524e-05
2.12227e-05
2.12227e-05
2.12223e-05
2.12218e-05
2.12213e-05
2.12211e-05
2.12207e-05
2.1221e-05
2.1221e-05
2.12209e-05
2.12206e-05
2.12208e-05
2.12206e-05
2.12206e-05
2.12208e-05
2.12205e-05
2.12203e-05
2.122e-05
2.12198e-05
2.12193e-05
2.12196e-05
2.12197e-05
2.12198e-05
2.12197e-05
2.12199e-05
2.12199e-05
2.12199e-05
2.12202e-05
2.12201e-05
2.12206e-05
2.12205e-05
2.12209e-05
2.12208e-05
2.12208e-05
2.12209e-05
2.12212e-05
2.12209e-05
2.12209e-05
2.12206e-05
2.1221e-05
2.12208e-05
2.12212e-05
2.1221e-05
2.12212e-05
2.12212e-05
2.12212e-05
2.12213e-05
2.12213e-05
2.12215e-05
2.12214e-05
2.12211e-05
2.12212e-05
2.12215e-05
2.12212e-05
2.12215e-05
2.12213e-05
2.12209e-05
2.12206e-05
2.12205e-05
2.12201e-05
2.04739e-05
2.04739e-05
2.04736e-05
2.04731e-05
2.04726e-05
2.04725e-05
2.0472e-05
2.04722e-05
2.04722e-05
2.04721e-05
2.04718e-05
2.04719e-05
2.04717e-05
2.04717e-05
2.04719e-05
2.04717e-05
2.04716e-05
2.04713e-05
2.04711e-05
2.04707e-05
2.04709e-05
2.0471e-05
2.0471e-05
2.0471e-05
2.04711e-05
2.04711e-05
2.04711e-05
2.04713e-05
2.04713e-05
2.04716e-05
2.04716e-05
2.04719e-05
2.04718e-05
2.04718e-05
2.04719e-05
2.04721e-05
2.04719e-05
2.04719e-05
2.04716e-05
2.0472e-05
2.04719e-05
2.04722e-05
2.04721e-05
2.04723e-05
2.04723e-05
2.04723e-05
2.04724e-05