/*--------------------------------*- C++ -*----------------------------------*\
| =========                 |                                                 |
| \\      /  F ield         | OpenFOAM: The Open Source CFD Toolbox           |
|  \\    /   O peration     | Version:  2312                                  |
|   \\  /    A nd           | Website:  www.openfoam.com                      |
|    \\/     M anipulation  |                                                 |
\*---------------------------------------------------------------------------*/
FoamFile
{
    version     2.0;
    format      ascii;
    arch        "LSB;label=32;scalar=64";
    class       volScalarField;
    location    "600";
    object      nut;
}
// * * * * * * * * * * * * * * * * * * * * * * * * * * * * * * * * * * * * * //

dimensions      [0 2 -1 0 0 0 0];

internalField   nonuniform List<scalar> 
144000
(
8.60737e-06
8.60665e-06
8.60853e-06
8.60647e-06
8.62392e-06
8.60699e-06
8.62505e-06
8.62269e-06
8.62447e-06
8.6086e-06
8.60782e-06
8.6074e-06
8.60882e-06
8.60768e-06
8.62366e-06
8.62318e-06
8.60757e-06
8.60842e-06
8.60808e-06
8.62361e-06
8.62277e-06
8.60873e-06
8.60809e-06
8.62484e-06
8.60858e-06
8.60729e-06
8.62358e-06
8.60812e-06
8.6072e-06
8.62244e-06
8.60525e-06
8.62497e-06
8.60848e-06
8.62521e-06
8.62314e-06
8.62558e-06
8.60985e-06
8.62572e-06
8.60941e-06
8.60878e-06
8.62497e-06
8.60634e-06
8.60906e-06
8.60788e-06
8.62493e-06
8.62349e-06
8.60789e-06
8.60995e-06
8.60766e-06
8.6087e-06
8.60637e-06
8.62245e-06
8.60682e-06
8.60984e-06
8.62312e-06
8.62415e-06
8.60747e-06
8.60876e-06
8.6069e-06
8.60643e-06
1.24204e-05
1.24198e-05
1.24215e-05
1.24209e-05
1.24131e-05
1.2418e-05
1.2414e-05
1.24097e-05
1.24094e-05
1.24172e-05
1.24202e-05
1.24201e-05
1.24213e-05
1.24212e-05
1.24143e-05
1.24101e-05
1.24165e-05
1.24201e-05
1.24216e-05
1.24143e-05
1.24085e-05
1.24163e-05
1.24206e-05
1.24135e-05
1.24187e-05
1.24209e-05
1.24132e-05
1.24185e-05
1.24207e-05
1.24126e-05
1.24165e-05
1.2412e-05
1.24185e-05
1.2414e-05
1.241e-05
1.241e-05
1.24187e-05
1.24137e-05
1.24186e-05
1.24213e-05
1.24145e-05
1.24173e-05
1.24208e-05
1.2421e-05
1.24149e-05
1.24105e-05
1.24164e-05
1.24215e-05
1.24211e-05
1.24221e-05
1.24214e-05
1.24124e-05
1.24164e-05
1.2422e-05
1.2414e-05
1.24105e-05
1.24166e-05
1.24201e-05
1.24205e-05
1.242e-05
1.37418e-05
1.37412e-05
1.37421e-05
1.37426e-05
1.37336e-05
1.37383e-05
1.37335e-05
1.37294e-05
1.37271e-05
1.3735e-05
1.37402e-05
1.37406e-05
1.37416e-05
1.37422e-05
1.37353e-05
1.37295e-05
1.37355e-05
1.37395e-05
1.37423e-05
1.37355e-05
1.37278e-05
1.37341e-05
1.37404e-05
1.37329e-05
1.37377e-05
1.37419e-05
1.37335e-05
1.3738e-05
1.37418e-05
1.37336e-05
1.37376e-05
1.37309e-05
1.37375e-05
1.37332e-05
1.37293e-05
1.37272e-05
1.37363e-05
1.3732e-05
1.37369e-05
1.37412e-05
1.37342e-05
1.37377e-05
1.37406e-05
1.37418e-05
1.37351e-05
1.37298e-05
1.3735e-05
1.37405e-05
1.37418e-05
1.37427e-05
1.37434e-05
1.37339e-05
1.37365e-05
1.37415e-05
1.37349e-05
1.37294e-05
1.37357e-05
1.37394e-05
1.37416e-05
1.37414e-05
1.42653e-05
1.42647e-05
1.42648e-05
1.4266e-05
1.42592e-05
1.42617e-05
1.42582e-05
1.42552e-05
1.42517e-05
1.42566e-05
1.42621e-05
1.42634e-05
1.4264e-05
1.42651e-05
1.42607e-05
1.4255e-05
1.42584e-05
1.42614e-05
1.42646e-05
1.42609e-05
1.42538e-05
1.42566e-05
1.42623e-05
1.42573e-05
1.42599e-05
1.42644e-05
1.42586e-05
1.42608e-05
1.42646e-05
1.42592e-05
1.42618e-05
1.4256e-05
1.426e-05
1.42574e-05
1.42547e-05
1.42515e-05
1.42577e-05
1.42555e-05
1.42587e-05
1.42631e-05
1.42586e-05
1.4261e-05
1.42628e-05
1.42646e-05
1.42601e-05
1.42551e-05
1.42578e-05
1.42619e-05
1.42643e-05
1.4265e-05
1.42668e-05
1.42601e-05
1.42605e-05
1.42633e-05
1.426e-05
1.42545e-05
1.42585e-05
1.42613e-05
1.42643e-05
1.42645e-05
1.44427e-05
1.44424e-05
1.44419e-05
1.44431e-05
1.44387e-05
1.44397e-05
1.44373e-05
1.44355e-05
1.44319e-05
1.44341e-05
1.44384e-05
1.44402e-05
1.44407e-05
1.44419e-05
1.44397e-05
1.44351e-05
1.44365e-05
1.44382e-05
1.4441e-05
1.44394e-05
1.44347e-05
1.44352e-05
1.44386e-05
1.4436e-05
1.44372e-05
1.44408e-05
1.44377e-05
1.44385e-05
1.44413e-05
1.44384e-05
1.44401e-05
1.44358e-05
1.44376e-05
1.4436e-05
1.44346e-05
1.44314e-05
1.44348e-05
1.44338e-05
1.44356e-05
1.44393e-05
1.4437e-05
1.44387e-05
1.44396e-05
1.44414e-05
1.44389e-05
1.44351e-05
1.4436e-05
1.44382e-05
1.44407e-05
1.44413e-05
1.44434e-05
1.44399e-05
1.44392e-05
1.44401e-05
1.44388e-05
1.44347e-05
1.44365e-05
1.44381e-05
1.44409e-05
1.44414e-05
1.44539e-05
1.44539e-05
1.44533e-05
1.44542e-05
1.44517e-05
1.44519e-05
1.44502e-05
1.44493e-05
1.44465e-05
1.4447e-05
1.44492e-05
1.44513e-05
1.44516e-05
1.44528e-05
1.44519e-05
1.4449e-05
1.44493e-05
1.44499e-05
1.44517e-05
1.44513e-05
1.4449e-05
1.44482e-05
1.445e-05
1.44488e-05
1.44491e-05
1.44515e-05
1.44503e-05
1.44505e-05
1.44522e-05
1.44509e-05
1.44523e-05
1.44495e-05
1.44499e-05
1.44488e-05
1.44481e-05
1.44457e-05
1.44471e-05
1.44465e-05
1.44474e-05
1.445e-05
1.44492e-05
1.44505e-05
1.44509e-05
1.44524e-05
1.44512e-05
1.44487e-05
1.44489e-05
1.44495e-05
1.44515e-05
1.4452e-05
1.44539e-05
1.44525e-05
1.44518e-05
1.44517e-05
1.44512e-05
1.44486e-05
1.44492e-05
1.44498e-05
1.44517e-05
1.44523e-05
1.43801e-05
1.43805e-05
1.43799e-05
1.43805e-05
1.43791e-05
1.43791e-05
1.43778e-05
1.43773e-05
1.43756e-05
1.43752e-05
1.4376e-05
1.43776e-05
1.43779e-05
1.43789e-05
1.43786e-05
1.43772e-05
1.43771e-05
1.43771e-05
1.43779e-05
1.43779e-05
1.43773e-05
1.43763e-05
1.43769e-05
1.43764e-05
1.43764e-05
1.43777e-05
1.43775e-05
1.43775e-05
1.43785e-05
1.4378e-05
1.43792e-05
1.43776e-05
1.43775e-05
1.43764e-05
1.43762e-05
1.43746e-05
1.43749e-05
1.43743e-05
1.43748e-05
1.43763e-05
1.43761e-05
1.43772e-05
1.43774e-05
1.43785e-05
1.43781e-05
1.43768e-05
1.43767e-05
1.43767e-05
1.43777e-05
1.43781e-05
1.43796e-05
1.43793e-05
1.43791e-05
1.43785e-05
1.43783e-05
1.43768e-05
1.4377e-05
1.4377e-05
1.4378e-05
1.43785e-05
1.42599e-05
1.42604e-05
1.426e-05
1.42603e-05
1.42595e-05
1.42595e-05
1.42585e-05
1.42583e-05
1.42574e-05
1.42566e-05
1.42568e-05
1.42577e-05
1.42579e-05
1.42586e-05
1.42586e-05
1.42581e-05
1.4258e-05
1.42577e-05
1.4258e-05
1.42581e-05
1.42581e-05
1.42575e-05
1.42575e-05
1.42572e-05
1.42571e-05
1.42577e-05
1.42578e-05
1.42578e-05
1.42584e-05
1.42583e-05
1.42592e-05
1.42585e-05
1.42583e-05
1.42573e-05
1.42573e-05
1.42564e-05
1.42563e-05
1.42556e-05
1.42558e-05
1.42565e-05
1.42565e-05
1.42574e-05
1.42575e-05
1.42583e-05
1.42582e-05
1.42576e-05
1.42577e-05
1.42574e-05
1.42579e-05
1.4258e-05
1.42589e-05
1.42591e-05
1.42594e-05
1.42588e-05
1.42587e-05
1.42579e-05
1.42579e-05
1.42577e-05
1.42581e-05
1.42585e-05
1.41119e-05
1.41124e-05
1.41121e-05
1.41122e-05
1.41118e-05
1.41118e-05
1.41112e-05
1.4111e-05
1.41106e-05
1.411e-05
1.41098e-05
1.41102e-05
1.41102e-05
1.41106e-05
1.41107e-05
1.41106e-05
1.41106e-05
1.41104e-05
1.41104e-05
1.41104e-05
1.41106e-05
1.41104e-05
1.41102e-05
1.41099e-05
1.41099e-05
1.411e-05
1.41102e-05
1.41103e-05
1.41106e-05
1.41106e-05
1.41113e-05
1.4111e-05
1.41109e-05
1.41102e-05
1.41102e-05
1.41097e-05
1.41095e-05
1.41088e-05
1.41089e-05
1.41091e-05
1.41091e-05
1.41098e-05
1.41098e-05
1.41103e-05
1.41103e-05
1.41102e-05
1.41104e-05
1.41101e-05
1.41103e-05
1.41103e-05
1.41108e-05
1.41109e-05
1.41116e-05
1.41111e-05
1.4111e-05
1.41107e-05
1.41107e-05
1.41105e-05
1.41106e-05
1.41107e-05
1.39455e-05
1.39458e-05
1.39456e-05
1.39456e-05
1.39453e-05
1.39454e-05
1.39449e-05
1.39448e-05
1.39447e-05
1.39443e-05
1.39439e-05
1.39441e-05
1.39441e-05
1.39442e-05
1.39442e-05
1.39443e-05
1.39444e-05
1.39443e-05
1.39442e-05
1.3944e-05
1.39443e-05
1.39443e-05
1.39442e-05
1.39439e-05
1.39439e-05
1.39439e-05
1.3944e-05
1.3944e-05
1.39441e-05
1.39442e-05
1.39447e-05
1.39446e-05
1.39446e-05
1.39442e-05
1.39442e-05
1.3944e-05
1.39438e-05
1.39432e-05
1.39432e-05
1.39432e-05
1.3943e-05
1.39435e-05
1.39435e-05
1.39438e-05
1.39439e-05
1.39439e-05
1.39442e-05
1.3944e-05
1.39441e-05
1.3944e-05
1.39442e-05
1.39443e-05
1.39449e-05
1.39446e-05
1.39446e-05
1.39445e-05
1.39445e-05
1.39444e-05
1.39443e-05
1.39444e-05
1.37651e-05
1.37652e-05
1.3765e-05
1.3765e-05
1.37648e-05
1.37649e-05
1.37645e-05
1.37645e-05
1.37644e-05
1.37642e-05
1.37639e-05
1.3764e-05
1.37639e-05
1.37639e-05
1.37639e-05
1.37639e-05
1.37641e-05
1.3764e-05
1.37639e-05
1.37637e-05
1.37639e-05
1.3764e-05
1.37639e-05
1.37637e-05
1.37638e-05
1.37637e-05
1.37637e-05
1.37637e-05
1.37637e-05
1.37638e-05
1.37642e-05
1.37641e-05
1.37642e-05
1.37639e-05
1.3764e-05
1.37639e-05
1.37638e-05
1.37634e-05
1.37633e-05
1.37632e-05
1.3763e-05
1.37633e-05
1.37633e-05
1.37635e-05
1.37635e-05
1.37635e-05
1.37639e-05
1.37637e-05
1.37638e-05
1.37637e-05
1.37638e-05
1.37638e-05
1.37643e-05
1.37641e-05
1.37641e-05
1.37641e-05
1.37642e-05
1.37641e-05
1.37641e-05
1.37641e-05
1.3573e-05
1.3573e-05
1.35729e-05
1.35728e-05
1.35726e-05
1.35726e-05
1.35724e-05
1.35724e-05
1.35723e-05
1.35723e-05
1.35721e-05
1.35721e-05
1.3572e-05
1.3572e-05
1.35719e-05
1.35719e-05
1.35721e-05
1.3572e-05
1.35719e-05
1.35717e-05
1.35719e-05
1.3572e-05
1.35719e-05
1.35718e-05
1.35719e-05
1.35718e-05
1.35717e-05
1.35718e-05
1.35718e-05
1.35717e-05
1.3572e-05
1.3572e-05
1.35721e-05
1.35719e-05
1.3572e-05
1.3572e-05
1.35719e-05
1.35716e-05
1.35716e-05
1.35715e-05
1.35712e-05
1.35715e-05
1.35714e-05
1.35715e-05
1.35715e-05
1.35715e-05
1.35718e-05
1.35717e-05
1.35718e-05
1.35717e-05
1.35717e-05
1.35717e-05
1.35721e-05
1.35719e-05
1.35719e-05
1.3572e-05
1.35721e-05
1.35721e-05
1.3572e-05
1.35721e-05
1.33705e-05
1.33705e-05
1.33703e-05
1.33702e-05
1.337e-05
1.337e-05
1.33699e-05
1.33698e-05
1.33698e-05
1.33698e-05
1.33697e-05
1.33698e-05
1.33697e-05
1.33696e-05
1.33695e-05
1.33695e-05
1.33696e-05
1.33696e-05
1.33695e-05
1.33693e-05
1.33695e-05
1.33695e-05
1.33695e-05
1.33694e-05
1.33695e-05
1.33694e-05
1.33694e-05
1.33694e-05
1.33694e-05
1.33693e-05
1.33695e-05
1.33695e-05
1.33696e-05
1.33694e-05
1.33696e-05
1.33695e-05
1.33695e-05
1.33694e-05
1.33693e-05
1.33692e-05
1.3369e-05
1.33692e-05
1.33692e-05
1.33692e-05
1.33691e-05
1.33692e-05
1.33694e-05
1.33693e-05
1.33694e-05
1.33693e-05
1.33693e-05
1.33693e-05
1.33695e-05
1.33694e-05
1.33694e-05
1.33694e-05
1.33696e-05
1.33696e-05
1.33696e-05
1.33696e-05
1.31583e-05
1.31583e-05
1.31581e-05
1.3158e-05
1.31578e-05
1.31578e-05
1.31576e-05
1.31576e-05
1.31577e-05
1.31577e-05
1.31576e-05
1.31577e-05
1.31576e-05
1.31575e-05
1.31574e-05
1.31574e-05
1.31575e-05
1.31575e-05
1.31574e-05
1.31572e-05
1.31573e-05
1.31574e-05
1.31574e-05
1.31573e-05
1.31574e-05
1.31574e-05
1.31573e-05
1.31573e-05
1.31573e-05
1.31572e-05
1.31573e-05
1.31573e-05
1.31574e-05
1.31573e-05
1.31574e-05
1.31574e-05
1.31574e-05
1.31573e-05
1.31573e-05
1.31572e-05
1.31571e-05
1.31572e-05
1.31572e-05
1.31571e-05
1.31571e-05
1.31571e-05
1.31573e-05
1.31572e-05
1.31573e-05
1.31572e-05
1.31572e-05
1.31571e-05
1.31573e-05
1.31573e-05
1.31572e-05
1.31573e-05
1.31573e-05
1.31573e-05
1.31574e-05
1.31574e-05
1.29368e-05
1.29368e-05
1.29367e-05
1.29366e-05
1.29364e-05
1.29363e-05
1.29362e-05
1.29362e-05
1.29362e-05
1.29362e-05
1.29362e-05
1.29363e-05
1.29362e-05
1.29362e-05
1.2936e-05
1.2936e-05
1.29361e-05
1.29361e-05
1.2936e-05
1.29359e-05
1.2936e-05
1.2936e-05
1.2936e-05
1.2936e-05
1.29361e-05
1.2936e-05
1.2936e-05
1.2936e-05
1.29359e-05
1.29359e-05
1.2936e-05
1.2936e-05
1.2936e-05
1.29359e-05
1.2936e-05
1.2936e-05
1.2936e-05
1.2936e-05
1.2936e-05
1.2936e-05
1.29358e-05
1.29359e-05
1.29359e-05
1.29359e-05
1.29358e-05
1.29358e-05
1.29359e-05
1.29359e-05
1.29359e-05
1.29359e-05
1.29358e-05
1.29358e-05
1.2936e-05
1.29359e-05
1.29358e-05
1.29359e-05
1.29359e-05
1.29359e-05
1.29359e-05
1.2936e-05
1.27065e-05
1.27065e-05
1.27064e-05
1.27063e-05
1.27061e-05
1.27061e-05
1.27059e-05
1.27059e-05
1.2706e-05
1.2706e-05
1.2706e-05
1.2706e-05
1.2706e-05
1.27059e-05
1.27058e-05
1.27058e-05
1.27059e-05
1.27059e-05
1.27058e-05
1.27057e-05
1.27058e-05
1.27058e-05
1.27058e-05
1.27058e-05
1.27058e-05
1.27058e-05
1.27057e-05
1.27058e-05
1.27057e-05
1.27056e-05
1.27057e-05
1.27057e-05
1.27058e-05
1.27057e-05
1.27057e-05
1.27057e-05
1.27058e-05
1.27057e-05
1.27058e-05
1.27058e-05
1.27057e-05
1.27057e-05
1.27057e-05
1.27057e-05
1.27056e-05
1.27056e-05
1.27057e-05
1.27057e-05
1.27057e-05
1.27057e-05
1.27056e-05
1.27056e-05
1.27057e-05
1.27057e-05
1.27056e-05
1.27056e-05
1.27057e-05
1.27057e-05
1.27057e-05
1.27057e-05
1.24676e-05
1.24676e-05
1.24675e-05
1.24674e-05
1.24672e-05
1.24672e-05
1.24671e-05
1.24671e-05
1.24671e-05
1.24671e-05
1.24671e-05
1.24672e-05
1.24671e-05
1.24671e-05
1.2467e-05
1.2467e-05
1.24671e-05
1.2467e-05
1.2467e-05
1.24669e-05
1.2467e-05
1.2467e-05
1.2467e-05
1.2467e-05
1.2467e-05
1.2467e-05
1.2467e-05
1.2467e-05
1.24669e-05
1.24668e-05
1.24669e-05
1.24669e-05
1.24669e-05
1.24669e-05
1.24669e-05
1.24669e-05
1.24669e-05
1.24669e-05
1.24669e-05
1.24669e-05
1.24669e-05
1.2467e-05
1.24669e-05
1.24669e-05
1.24668e-05
1.24668e-05
1.24669e-05
1.24669e-05
1.24669e-05
1.24669e-05
1.24669e-05
1.24668e-05
1.24669e-05
1.24669e-05
1.24668e-05
1.24668e-05
1.24669e-05
1.24669e-05
1.24669e-05
1.24669e-05
1.22205e-05
1.22205e-05
1.22204e-05
1.22203e-05
1.22201e-05
1.22201e-05
1.222e-05
1.222e-05
1.222e-05
1.222e-05
1.222e-05
1.222e-05
1.222e-05
1.222e-05
1.22199e-05
1.22199e-05
1.222e-05
1.222e-05
1.22199e-05
1.22199e-05
1.22199e-05
1.22199e-05
1.22199e-05
1.22199e-05
1.22199e-05
1.22199e-05
1.22199e-05
1.22199e-05
1.22198e-05
1.22198e-05
1.22198e-05
1.22198e-05
1.22198e-05
1.22198e-05
1.22198e-05
1.22198e-05
1.22199e-05
1.22198e-05
1.22198e-05
1.22199e-05
1.22198e-05
1.22199e-05
1.22199e-05
1.22198e-05
1.22198e-05
1.22198e-05
1.22199e-05
1.22199e-05
1.22199e-05
1.22199e-05
1.22198e-05
1.22198e-05
1.22198e-05
1.22198e-05
1.22198e-05
1.22198e-05
1.22198e-05
1.22198e-05
1.22198e-05
1.22198e-05
1.19654e-05
1.19654e-05
1.19653e-05
1.19653e-05
1.19651e-05
1.19651e-05
1.1965e-05
1.1965e-05
1.1965e-05
1.1965e-05
1.1965e-05
1.1965e-05
1.1965e-05
1.1965e-05
1.19649e-05
1.19649e-05
1.1965e-05
1.19649e-05
1.19649e-05
1.19649e-05
1.19649e-05
1.19649e-05
1.19649e-05
1.19649e-05
1.19649e-05
1.19649e-05
1.19649e-05
1.19649e-05
1.19648e-05
1.19648e-05
1.19648e-05
1.19648e-05
1.19648e-05
1.19648e-05
1.19648e-05
1.19648e-05
1.19648e-05
1.19648e-05
1.19648e-05
1.19648e-05
1.19648e-05
1.19649e-05
1.19649e-05
1.19649e-05
1.19648e-05
1.19648e-05
1.19649e-05
1.19649e-05
1.19649e-05
1.19649e-05
1.19648e-05
1.19648e-05
1.19649e-05
1.19648e-05
1.19648e-05
1.19648e-05
1.19648e-05
1.19648e-05
1.19648e-05
1.19648e-05
1.17029e-05
1.17029e-05
1.17028e-05
1.17027e-05
1.17026e-05
1.17026e-05
1.17025e-05
1.17025e-05
1.17025e-05
1.17025e-05
1.17025e-05
1.17025e-05
1.17025e-05
1.17025e-05
1.17024e-05
1.17024e-05
1.17024e-05
1.17024e-05
1.17024e-05
1.17024e-05
1.17024e-05
1.17024e-05
1.17024e-05
1.17024e-05
1.17024e-05
1.17024e-05
1.17024e-05
1.17024e-05
1.17023e-05
1.17023e-05
1.17023e-05
1.17023e-05
1.17023e-05
1.17023e-05
1.17023e-05
1.17023e-05
1.17023e-05
1.17023e-05
1.17023e-05
1.17024e-05
1.17023e-05
1.17024e-05
1.17024e-05
1.17024e-05
1.17023e-05
1.17024e-05
1.17024e-05
1.17024e-05
1.17024e-05
1.17024e-05
1.17023e-05
1.17023e-05
1.17024e-05
1.17024e-05
1.17023e-05
1.17023e-05
1.17023e-05
1.17023e-05
1.17024e-05
1.17023e-05
1.14334e-05
1.14334e-05
1.14333e-05
1.14333e-05
1.14332e-05
1.14331e-05
1.14331e-05
1.1433e-05
1.1433e-05
1.1433e-05
1.1433e-05
1.14331e-05
1.14331e-05
1.14331e-05
1.1433e-05
1.1433e-05
1.1433e-05
1.1433e-05
1.1433e-05
1.1433e-05
1.1433e-05
1.1433e-05
1.1433e-05
1.1433e-05
1.1433e-05
1.1433e-05
1.1433e-05
1.1433e-05
1.14329e-05
1.14329e-05
1.14329e-05
1.14329e-05
1.14329e-05
1.14329e-05
1.14329e-05
1.14329e-05
1.14329e-05
1.14329e-05
1.14329e-05
1.14329e-05
1.14329e-05
1.1433e-05
1.14329e-05
1.1433e-05
1.1433e-05
1.1433e-05
1.1433e-05
1.1433e-05
1.1433e-05
1.1433e-05
1.14329e-05
1.14329e-05
1.14329e-05
1.14329e-05
1.14329e-05
1.14329e-05
1.14329e-05
1.14329e-05
1.14329e-05
1.14329e-05
1.11578e-05
1.11578e-05
1.11578e-05
1.11577e-05
1.11576e-05
1.11576e-05
1.11575e-05
1.11575e-05
1.11575e-05
1.11575e-05
1.11575e-05
1.11575e-05
1.11575e-05
1.11575e-05
1.11575e-05
1.11575e-05
1.11575e-05
1.11575e-05
1.11575e-05
1.11574e-05
1.11575e-05
1.11575e-05
1.11575e-05
1.11575e-05
1.11575e-05
1.11575e-05
1.11575e-05
1.11574e-05
1.11574e-05
1.11573e-05
1.11574e-05
1.11574e-05
1.11574e-05
1.11574e-05
1.11574e-05
1.11574e-05
1.11574e-05
1.11574e-05
1.11574e-05
1.11574e-05
1.11574e-05
1.11574e-05
1.11574e-05
1.11574e-05
1.11574e-05
1.11574e-05
1.11575e-05
1.11575e-05
1.11575e-05
1.11574e-05
1.11574e-05
1.11574e-05
1.11574e-05
1.11574e-05
1.11574e-05
1.11574e-05
1.11574e-05
1.11574e-05
1.11574e-05
1.11574e-05
1.08774e-05
1.08774e-05
1.08774e-05
1.08773e-05
1.08773e-05
1.08772e-05
1.08772e-05
1.08772e-05
1.08772e-05
1.08772e-05
1.08772e-05
1.08772e-05
1.08772e-05
1.08772e-05
1.08772e-05
1.08771e-05
1.08772e-05
1.08772e-05
1.08771e-05
1.08771e-05
1.08771e-05
1.08771e-05
1.08771e-05
1.08771e-05
1.08772e-05
1.08772e-05
1.08771e-05
1.08771e-05
1.08771e-05
1.0877e-05
1.08771e-05
1.08771e-05
1.08771e-05
1.08771e-05
1.08771e-05
1.08771e-05
1.08771e-05
1.08771e-05
1.08771e-05
1.08771e-05
1.08771e-05
1.08771e-05
1.08771e-05
1.08771e-05
1.08771e-05
1.08771e-05
1.08771e-05
1.08771e-05
1.08771e-05
1.08771e-05
1.08771e-05
1.08771e-05
1.08771e-05
1.08771e-05
1.08771e-05
1.08771e-05
1.08771e-05
1.08771e-05
1.08771e-05
1.08771e-05
1.05944e-05
1.05944e-05
1.05944e-05
1.05943e-05
1.05943e-05
1.05943e-05
1.05942e-05
1.05942e-05
1.05942e-05
1.05942e-05
1.05942e-05
1.05942e-05
1.05942e-05
1.05942e-05
1.05942e-05
1.05942e-05
1.05942e-05
1.05942e-05
1.05942e-05
1.05942e-05
1.05942e-05
1.05942e-05
1.05942e-05
1.05942e-05
1.05942e-05
1.05942e-05
1.05942e-05
1.05942e-05
1.05942e-05
1.05941e-05
1.05941e-05
1.05941e-05
1.05941e-05
1.05941e-05
1.05941e-05
1.05941e-05
1.05941e-05
1.05941e-05
1.05941e-05
1.05942e-05
1.05941e-05
1.05942e-05
1.05942e-05
1.05942e-05
1.05942e-05
1.05942e-05
1.05942e-05
1.05942e-05
1.05942e-05
1.05942e-05
1.05942e-05
1.05942e-05
1.05942e-05
1.05942e-05
1.05942e-05
1.05942e-05
1.05942e-05
1.05942e-05
1.05942e-05
1.05942e-05
1.03126e-05
1.03126e-05
1.03126e-05
1.03126e-05
1.03125e-05
1.03125e-05
1.03125e-05
1.03125e-05
1.03125e-05
1.03125e-05
1.03125e-05
1.03125e-05
1.03125e-05
1.03125e-05
1.03125e-05
1.03125e-05
1.03125e-05
1.03125e-05
1.03125e-05
1.03125e-05
1.03125e-05
1.03125e-05
1.03125e-05
1.03125e-05
1.03125e-05
1.03125e-05
1.03125e-05
1.03125e-05
1.03124e-05
1.03124e-05
1.03124e-05
1.03124e-05
1.03124e-05
1.03124e-05
1.03124e-05
1.03124e-05
1.03124e-05
1.03124e-05
1.03124e-05
1.03124e-05
1.03124e-05
1.03124e-05
1.03124e-05
1.03124e-05
1.03124e-05
1.03124e-05
1.03125e-05
1.03125e-05
1.03125e-05
1.03125e-05
1.03125e-05
1.03124e-05
1.03125e-05
1.03125e-05
1.03124e-05
1.03124e-05
1.03125e-05
1.03125e-05
1.03125e-05
1.03125e-05
8.62428e-06
8.60763e-06
8.60927e-06
8.60642e-06
8.6072e-06
8.60656e-06
8.62351e-06
8.62307e-06
8.61039e-06
8.60811e-06
8.62489e-06
8.60795e-06
8.62519e-06
8.62387e-06
8.60986e-06
8.60878e-06
8.62459e-06
8.60908e-06
8.6084e-06
8.62443e-06
8.62264e-06
8.62591e-06
8.60885e-06
8.60902e-06
8.60791e-06
8.60607e-06
8.60752e-06
8.60601e-06
8.62422e-06
8.60592e-06
8.62356e-06
8.60787e-06
8.60793e-06
8.62363e-06
8.6245e-06
8.60911e-06
8.61074e-06
8.60659e-06
8.62503e-06
8.60582e-06
8.62645e-06
8.60694e-06
8.62596e-06
8.60626e-06
8.60741e-06
8.60699e-06
8.60635e-06
8.60647e-06
8.6077e-06
8.60844e-06
8.62242e-06
8.62434e-06
8.60763e-06
8.62559e-06
8.60816e-06
8.60976e-06
8.62436e-06
8.6258e-06
8.60922e-06
8.62521e-06
1.24109e-05
1.24167e-05
1.24216e-05
1.2421e-05
1.24205e-05
1.24206e-05
1.24141e-05
1.24083e-05
1.24175e-05
1.24212e-05
1.24138e-05
1.24189e-05
1.24145e-05
1.24099e-05
1.24178e-05
1.24216e-05
1.24136e-05
1.24191e-05
1.24219e-05
1.2415e-05
1.24093e-05
1.24098e-05
1.24176e-05
1.24209e-05
1.24216e-05
1.24205e-05
1.24207e-05
1.24202e-05
1.24134e-05
1.24174e-05
1.24117e-05
1.2417e-05
1.24209e-05
1.24136e-05
1.24097e-05
1.24165e-05
1.24227e-05
1.24211e-05
1.2414e-05
1.24175e-05
1.24135e-05
1.24178e-05
1.24139e-05
1.24174e-05
1.24197e-05
1.24201e-05
1.24199e-05
1.242e-05
1.24204e-05
1.24223e-05
1.24138e-05
1.24096e-05
1.24172e-05
1.24133e-05
1.24175e-05
1.2422e-05
1.24145e-05
1.24114e-05
1.24189e-05
1.24142e-05
1.37299e-05
1.37355e-05
1.3741e-05
1.37427e-05
1.3742e-05
1.37422e-05
1.37356e-05
1.37274e-05
1.37345e-05
1.37412e-05
1.37333e-05
1.37386e-05
1.37341e-05
1.37286e-05
1.37352e-05
1.37415e-05
1.37333e-05
1.3738e-05
1.37424e-05
1.37359e-05
1.37293e-05
1.37269e-05
1.37352e-05
1.37401e-05
1.37423e-05
1.37425e-05
1.37421e-05
1.37421e-05
1.37338e-05
1.37383e-05
1.37315e-05
1.37361e-05
1.37411e-05
1.37342e-05
1.37281e-05
1.3734e-05
1.37412e-05
1.37425e-05
1.37341e-05
1.37383e-05
1.37321e-05
1.37376e-05
1.37325e-05
1.37376e-05
1.37401e-05
1.37411e-05
1.37413e-05
1.37415e-05
1.37413e-05
1.37431e-05
1.37357e-05
1.37284e-05
1.37361e-05
1.37317e-05
1.37362e-05
1.37416e-05
1.37349e-05
1.37294e-05
1.37374e-05
1.37331e-05
1.42548e-05
1.42581e-05
1.42624e-05
1.42657e-05
1.42654e-05
1.42657e-05
1.42616e-05
1.42535e-05
1.42565e-05
1.42629e-05
1.42578e-05
1.42612e-05
1.42587e-05
1.42538e-05
1.4257e-05
1.42633e-05
1.4258e-05
1.42603e-05
1.42645e-05
1.42609e-05
1.42557e-05
1.42513e-05
1.42567e-05
1.42615e-05
1.42643e-05
1.42659e-05
1.42655e-05
1.42658e-05
1.42592e-05
1.42621e-05
1.42569e-05
1.4259e-05
1.42634e-05
1.42595e-05
1.42533e-05
1.42561e-05
1.42616e-05
1.42652e-05
1.4259e-05
1.42619e-05
1.42566e-05
1.42604e-05
1.42565e-05
1.42604e-05
1.42627e-05
1.42642e-05
1.42646e-05
1.42651e-05
1.42645e-05
1.42657e-05
1.42617e-05
1.4254e-05
1.42588e-05
1.42558e-05
1.42585e-05
1.42632e-05
1.42597e-05
1.4254e-05
1.42594e-05
1.4257e-05
1.44345e-05
1.44361e-05
1.44386e-05
1.44421e-05
1.44425e-05
1.4443e-05
1.44408e-05
1.44349e-05
1.4435e-05
1.44389e-05
1.44364e-05
1.44385e-05
1.44372e-05
1.44339e-05
1.44348e-05
1.44392e-05
1.44367e-05
1.44376e-05
1.44407e-05
1.44392e-05
1.44364e-05
1.44316e-05
1.44342e-05
1.44377e-05
1.44403e-05
1.44427e-05
1.44427e-05
1.44432e-05
1.44388e-05
1.44402e-05
1.44368e-05
1.44373e-05
1.444e-05
1.44383e-05
1.44339e-05
1.44345e-05
1.4437e-05
1.44415e-05
1.44378e-05
1.44398e-05
1.44359e-05
1.44381e-05
1.44353e-05
1.44378e-05
1.44396e-05
1.44412e-05
1.44417e-05
1.44425e-05
1.44419e-05
1.44424e-05
1.44407e-05
1.44349e-05
1.44369e-05
1.44348e-05
1.44361e-05
1.44393e-05
1.4438e-05
1.44338e-05
1.44366e-05
1.44353e-05
1.4448e-05
1.44487e-05
1.44498e-05
1.44525e-05
1.44534e-05
1.44541e-05
1.44531e-05
1.44499e-05
1.4448e-05
1.44501e-05
1.4449e-05
1.44502e-05
1.44496e-05
1.44478e-05
1.44475e-05
1.445e-05
1.44491e-05
1.44495e-05
1.44514e-05
1.4451e-05
1.445e-05
1.44464e-05
1.4447e-05
1.44488e-05
1.44507e-05
1.44533e-05
1.44536e-05
1.44545e-05
1.44517e-05
1.44524e-05
1.44504e-05
1.445e-05
1.44513e-05
1.44507e-05
1.44482e-05
1.44477e-05
1.44483e-05
1.44517e-05
1.445e-05
1.44516e-05
1.4449e-05
1.44502e-05
1.44482e-05
1.44497e-05
1.44509e-05
1.44523e-05
1.44529e-05
1.44538e-05
1.44535e-05
1.44534e-05
1.44528e-05
1.44492e-05
1.44496e-05
1.4448e-05
1.44485e-05
1.44502e-05
1.44499e-05
1.44475e-05
1.44486e-05
1.44479e-05
1.4376e-05
1.43764e-05
1.43767e-05
1.43782e-05
1.43793e-05
1.43802e-05
1.43798e-05
1.43786e-05
1.43763e-05
1.43771e-05
1.43764e-05
1.43772e-05
1.43768e-05
1.43762e-05
1.43754e-05
1.43766e-05
1.43764e-05
1.43766e-05
1.43776e-05
1.43775e-05
1.43775e-05
1.43755e-05
1.43752e-05
1.43758e-05
1.43768e-05
1.4379e-05
1.43795e-05
1.43806e-05
1.43791e-05
1.43794e-05
1.43784e-05
1.43777e-05
1.43781e-05
1.43779e-05
1.43767e-05
1.4376e-05
1.43755e-05
1.43776e-05
1.4377e-05
1.43783e-05
1.43767e-05
1.43775e-05
1.4376e-05
1.43769e-05
1.43775e-05
1.43786e-05
1.43791e-05
1.43801e-05
1.438e-05
1.43797e-05
1.43796e-05
1.43777e-05
1.43775e-05
1.4376e-05
1.43762e-05
1.43767e-05
1.43769e-05
1.43756e-05
1.43759e-05
1.43754e-05
1.42571e-05
1.42573e-05
1.42573e-05
1.42579e-05
1.42588e-05
1.42597e-05
1.42596e-05
1.42594e-05
1.42579e-05
1.42578e-05
1.42573e-05
1.42577e-05
1.42573e-05
1.42572e-05
1.42567e-05
1.4257e-05
1.4257e-05
1.42571e-05
1.42575e-05
1.42575e-05
1.4258e-05
1.42571e-05
1.42566e-05
1.42566e-05
1.42571e-05
1.42584e-05
1.42589e-05
1.426e-05
1.42594e-05
1.42596e-05
1.42591e-05
1.42586e-05
1.42585e-05
1.42584e-05
1.42579e-05
1.42575e-05
1.42564e-05
1.42576e-05
1.42573e-05
1.42584e-05
1.42575e-05
1.42581e-05
1.42571e-05
1.42575e-05
1.42578e-05
1.42585e-05
1.4259e-05
1.42597e-05
1.42599e-05
1.42596e-05
1.42596e-05
1.42588e-05
1.42585e-05
1.42572e-05
1.42572e-05
1.42571e-05
1.42573e-05
1.42567e-05
1.42567e-05
1.42563e-05
1.411e-05
1.41102e-05
1.41099e-05
1.41102e-05
1.41107e-05
1.41114e-05
1.41114e-05
1.41117e-05
1.4111e-05
1.41107e-05
1.411e-05
1.41103e-05
1.41099e-05
1.41101e-05
1.41098e-05
1.41096e-05
1.41096e-05
1.41096e-05
1.41098e-05
1.41098e-05
1.41103e-05
1.411e-05
1.41097e-05
1.41095e-05
1.41097e-05
1.41103e-05
1.41107e-05
1.41116e-05
1.41114e-05
1.41117e-05
1.41115e-05
1.41113e-05
1.41109e-05
1.41109e-05
1.41107e-05
1.41105e-05
1.41096e-05
1.41101e-05
1.41099e-05
1.41106e-05
1.41101e-05
1.41106e-05
1.41099e-05
1.41102e-05
1.41103e-05
1.41106e-05
1.4111e-05
1.41115e-05
1.41119e-05
1.41116e-05
1.41116e-05
1.41114e-05
1.41112e-05
1.41102e-05
1.41102e-05
1.41099e-05
1.41099e-05
1.41096e-05
1.41095e-05
1.41091e-05
1.39441e-05
1.39442e-05
1.39439e-05
1.3944e-05
1.39442e-05
1.39447e-05
1.39447e-05
1.39451e-05
1.39448e-05
1.39446e-05
1.3944e-05
1.39442e-05
1.39438e-05
1.3944e-05
1.39439e-05
1.39436e-05
1.39436e-05
1.39435e-05
1.39436e-05
1.39435e-05
1.39439e-05
1.39439e-05
1.39437e-05
1.39436e-05
1.39436e-05
1.39439e-05
1.39441e-05
1.39448e-05
1.39448e-05
1.39451e-05
1.3945e-05
1.3945e-05
1.39448e-05
1.39447e-05
1.39445e-05
1.39446e-05
1.39439e-05
1.3944e-05
1.39438e-05
1.39443e-05
1.3944e-05
1.39444e-05
1.39439e-05
1.39441e-05
1.39441e-05
1.39443e-05
1.39446e-05
1.39448e-05
1.39452e-05
1.3945e-05
1.3945e-05
1.3945e-05
1.39449e-05
1.39443e-05
1.39443e-05
1.3944e-05
1.39438e-05
1.39436e-05
1.39435e-05
1.39431e-05
1.3764e-05
1.3764e-05
1.37638e-05
1.37638e-05
1.37638e-05
1.3764e-05
1.3764e-05
1.37644e-05
1.37644e-05
1.37642e-05
1.37638e-05
1.37639e-05
1.37637e-05
1.37638e-05
1.37638e-05
1.37635e-05
1.37634e-05
1.37634e-05
1.37633e-05
1.37632e-05
1.37635e-05
1.37635e-05
1.37635e-05
1.37635e-05
1.37635e-05
1.37636e-05
1.37637e-05
1.3764e-05
1.37641e-05
1.37644e-05
1.37644e-05
1.37645e-05
1.37644e-05
1.37643e-05
1.37643e-05
1.37643e-05
1.37639e-05
1.37639e-05
1.37637e-05
1.3764e-05
1.37638e-05
1.3764e-05
1.37638e-05
1.37639e-05
1.37639e-05
1.3764e-05
1.37642e-05
1.37642e-05
1.37645e-05
1.37644e-05
1.37644e-05
1.37645e-05
1.37645e-05
1.37641e-05
1.37642e-05
1.37639e-05
1.37637e-05
1.37635e-05
1.37634e-05
1.37631e-05
1.35722e-05
1.35722e-05
1.3572e-05
1.35719e-05
1.35718e-05
1.35719e-05
1.35719e-05
1.35722e-05
1.35722e-05
1.35721e-05
1.35719e-05
1.3572e-05
1.35718e-05
1.35718e-05
1.35718e-05
1.35716e-05
1.35716e-05
1.35715e-05
1.35714e-05
1.35712e-05
1.35714e-05
1.35715e-05
1.35715e-05
1.35715e-05
1.35716e-05
1.35716e-05
1.35716e-05
1.35718e-05
1.35718e-05
1.35721e-05
1.35721e-05
1.35723e-05
1.35722e-05
1.35722e-05
1.35722e-05
1.35723e-05
1.3572e-05
1.3572e-05
1.35718e-05
1.3572e-05
1.35718e-05
1.3572e-05
1.35719e-05
1.3572e-05
1.3572e-05
1.3572e-05
1.35721e-05
1.35721e-05
1.35723e-05
1.35723e-05
1.35722e-05
1.35723e-05
1.35724e-05
1.35721e-05
1.35722e-05
1.3572e-05
1.35718e-05
1.35716e-05
1.35715e-05
1.35713e-05
1.33699e-05
1.33699e-05
1.33697e-05
1.33696e-05
1.33695e-05
1.33695e-05
1.33694e-05
1.33696e-05
1.33696e-05
1.33696e-05
1.33694e-05
1.33695e-05
1.33694e-05
1.33694e-05
1.33694e-05
1.33693e-05
1.33692e-05
1.33691e-05
1.3369e-05
1.33688e-05
1.3369e-05
1.3369e-05
1.33691e-05
1.33691e-05
1.33692e-05
1.33692e-05
1.33692e-05
1.33693e-05
1.33693e-05
1.33695e-05
1.33695e-05
1.33697e-05
1.33696e-05
1.33697e-05
1.33697e-05
1.33698e-05
1.33696e-05
1.33696e-05
1.33694e-05
1.33696e-05
1.33695e-05
1.33696e-05
1.33695e-05
1.33696e-05
1.33696e-05
1.33696e-05
1.33697e-05
1.33697e-05
1.33698e-05
1.33697e-05
1.33696e-05
1.33697e-05
1.33698e-05
1.33697e-05
1.33698e-05
1.33696e-05
1.33695e-05
1.33693e-05
1.33692e-05
1.3369e-05
1.31579e-05
1.31579e-05
1.31577e-05
1.31576e-05
1.31574e-05
1.31574e-05
1.31573e-05
1.31574e-05
1.31574e-05
1.31574e-05
1.31573e-05
1.31574e-05
1.31573e-05
1.31573e-05
1.31573e-05
1.31572e-05
1.31572e-05
1.31571e-05
1.3157e-05
1.31568e-05
1.31569e-05
1.31569e-05
1.3157e-05
1.3157e-05
1.3157e-05
1.3157e-05
1.31571e-05
1.31571e-05
1.31571e-05
1.31573e-05
1.31573e-05
1.31575e-05
1.31574e-05
1.31574e-05
1.31575e-05
1.31576e-05
1.31574e-05
1.31574e-05
1.31573e-05
1.31574e-05
1.31573e-05
1.31575e-05
1.31574e-05
1.31575e-05
1.31575e-05
1.31575e-05
1.31575e-05
1.31575e-05
1.31576e-05
1.31575e-05
1.31575e-05
1.31575e-05
1.31576e-05
1.31575e-05
1.31576e-05
1.31575e-05
1.31574e-05
1.31572e-05
1.31572e-05
1.3157e-05
1.29366e-05
1.29366e-05
1.29364e-05
1.29363e-05
1.29361e-05
1.29361e-05
1.2936e-05
1.29361e-05
1.2936e-05
1.2936e-05
1.29359e-05
1.2936e-05
1.29359e-05
1.29359e-05
1.2936e-05
1.29359e-05
1.29358e-05
1.29357e-05
1.29357e-05
1.29355e-05
1.29356e-05
1.29356e-05
1.29357e-05
1.29357e-05
1.29357e-05
1.29357e-05
1.29357e-05
1.29358e-05
1.29358e-05
1.29359e-05
1.29359e-05
1.2936e-05
1.2936e-05
1.2936e-05
1.2936e-05
1.29361e-05
1.2936e-05
1.2936e-05
1.29359e-05
1.2936e-05
1.2936e-05
1.29361e-05
1.2936e-05
1.29361e-05
1.29361e-05
1.29361e-05
1.29361e-05
1.29361e-05
1.29362e-05
1.29361e-05
1.29361e-05
1.29361e-05
1.29362e-05
1.29361e-05
1.29362e-05
1.29361e-05
1.2936e-05
1.29359e-05
1.29359e-05
1.29358e-05
1.27063e-05
1.27063e-05
1.27062e-05
1.27061e-05
1.27059e-05
1.27059e-05
1.27058e-05
1.27058e-05
1.27058e-05
1.27058e-05
1.27057e-05
1.27057e-05
1.27057e-05
1.27057e-05
1.27057e-05
1.27057e-05
1.27056e-05
1.27055e-05
1.27055e-05
1.27053e-05
1.27054e-05
1.27054e-05
1.27054e-05
1.27054e-05
1.27055e-05
1.27055e-05
1.27055e-05
1.27055e-05
1.27055e-05
1.27056e-05
1.27056e-05
1.27057e-05
1.27057e-05
1.27057e-05
1.27057e-05
1.27058e-05
1.27057e-05
1.27057e-05
1.27056e-05
1.27057e-05
1.27057e-05
1.27058e-05
1.27058e-05
1.27058e-05
1.27058e-05
1.27058e-05
1.27059e-05
1.27059e-05
1.27059e-05
1.27059e-05