/*--------------------------------*- C++ -*----------------------------------*\
| =========                 |                                                 |
| \\      /  F ield         | OpenFOAM: The Open Source CFD Toolbox           |
|  \\    /   O peration     | Version:  2312                                  |
|   \\  /    A nd           | Website:  www.openfoam.com                      |
|    \\/     M anipulation  |                                                 |
\*---------------------------------------------------------------------------*/
FoamFile
{
    version     2.0;
    format      ascii;
    arch        "LSB;label=32;scalar=64";
    class       volScalarField;
    location    "600";
    object      p;
}
// * * * * * * * * * * * * * * * * * * * * * * * * * * * * * * * * * * * * * //

dimensions      [0 2 -2 0 0 0 0];

internalField   nonuniform List<scalar> 
144000
(
-1.76102e-09
-1.99184e-08
-1.12941e-07
-1.46874e-07
3.97042e-08
-2.00996e-08
-5.02733e-08
1.41849e-07
1.7035e-07
3.96841e-08
-1.13208e-08
-7.15194e-09
-7.30764e-08
-1.13031e-07
-2.71472e-08
1.32553e-07
5.35937e-08
-8.08861e-08
-1.52357e-07
4.36501e-09
2.47019e-07
1.16044e-07
-8.67124e-08
4.47611e-08
3.96826e-08
-1.33444e-07
4.04115e-08
-1.33185e-08
-1.37663e-07
7.25889e-08
8.04593e-08
8.13578e-08
9.77375e-09
6.15462e-09
1.90594e-07
2.06773e-07
1.21788e-08
3.37213e-08
1.18906e-07
-8.71743e-08
8.84571e-08
1.41122e-07
-3.65455e-09
-4.57962e-08
4.60673e-09
2.02323e-07
1.04035e-07
-7.0008e-08
-6.59567e-08
-1.09655e-07
-1.41614e-07
1.03115e-07
7.18687e-08
-1.77903e-07
-3.74623e-08
1.40332e-07
5.54904e-08
-3.30645e-08
-3.40342e-08
-2.38975e-08
-1.68693e-09
-1.94569e-08
-1.11702e-07
-1.34663e-07
3.82293e-08
-1.93471e-08
-3.84456e-08
1.39947e-07
1.56661e-07
2.80033e-08
-9.92542e-09
-6.6207e-09
-7.2222e-08
-9.92062e-08
-1.66956e-08
1.1744e-07
4.16452e-08
-7.86316e-08
-1.38608e-07
1.40765e-08
2.31369e-07
1.05759e-07
-7.18462e-08
4.31332e-08
2.82062e-08
-1.19208e-07
3.87088e-08
-2.5104e-08
-1.24302e-07
7.14883e-08
8.02794e-08
8.12291e-08
1.04607e-08
1.8302e-08
1.88574e-07
1.94246e-07
1.38953e-08
3.24233e-08
1.07504e-07
-7.3101e-08
8.66852e-08
1.28611e-07
-1.91031e-09
-3.14548e-08
1.49541e-08
1.87266e-07
9.25807e-08
-6.86369e-08
-6.54577e-08
-1.08381e-07
-1.29307e-07
1.00842e-07
6.03236e-08
-1.62958e-07
-2.7064e-08
1.24974e-07
4.35638e-08
-3.19292e-08
-3.35113e-08
-2.39904e-08
-1.89472e-09
-1.89826e-08
-1.09444e-07
-1.30504e-07
3.59335e-08
-1.79009e-08
-3.46189e-08
1.36468e-07
1.50547e-07
2.49482e-08
-7.75959e-09
-5.87963e-09
-7.07583e-08
-9.27209e-08
-1.50899e-08
1.09083e-07
3.80725e-08
-7.45645e-08
-1.31911e-07
1.46375e-08
2.22249e-07
1.04183e-07
-6.4875e-08
4.00752e-08
2.54606e-08
-1.12941e-07
3.58608e-08
-2.81037e-08
-1.18657e-07
6.98417e-08
7.97355e-08
8.11096e-08
1.18589e-08
2.23952e-08
1.84909e-07
1.89534e-07
1.65788e-08
3.05504e-08
1.04707e-07
-6.67236e-08
8.34972e-08
1.2404e-07
1.28961e-09
-2.44756e-08
1.64064e-08
1.78895e-07
8.94362e-08
-6.63945e-08
-6.47597e-08
-1.05859e-07
-1.25253e-07
9.68664e-08
5.73118e-08
-1.55202e-07
-2.5322e-08
1.16888e-07
3.99459e-08
-3.01102e-08
-3.26012e-08
-2.40679e-08
-2.26989e-09
-1.87952e-08
-1.06372e-07
-1.27248e-07
3.29214e-08
-1.58862e-08
-3.20567e-08
1.31224e-07
1.45148e-07
2.39691e-08
-5.27789e-09
-5.00466e-09
-6.86439e-08
-8.72702e-08
-1.56627e-08
1.00632e-07
3.61173e-08
-6.95255e-08
-1.25275e-07
1.31567e-08
2.12653e-07
1.044e-07
-5.83771e-08
3.62215e-08
2.44458e-08
-1.07274e-07
3.19636e-08
-2.88928e-08
-1.13579e-07
6.7606e-08
7.90278e-08
8.09374e-08
1.43194e-08
2.52085e-08
1.79723e-07
1.8555e-07
1.94921e-08
2.85656e-08
1.0333e-07
-6.05384e-08
7.92221e-08
1.20587e-07
5.33619e-09
-1.82302e-08
1.59368e-08
1.7018e-07
8.78421e-08
-6.34216e-08
-6.41512e-08
-1.02401e-07
-1.22018e-07
9.12676e-08
5.57453e-08
-1.47326e-07
-2.58176e-08
1.09022e-07
3.7995e-08
-2.79455e-08
-3.15487e-08
-2.39527e-08
-2.72557e-09
-1.88549e-08
-1.02526e-07
-1.23439e-07
2.95563e-08
-1.34802e-08
-2.93967e-08
1.24799e-07
1.39175e-07
2.33473e-08
-2.64061e-09
-3.88527e-09
-6.59092e-08
-8.13552e-08
-1.67439e-08
9.1034e-08
3.41663e-08
-6.38062e-08
-1.17406e-07
1.14113e-08
2.01635e-07
1.04618e-07
-5.11988e-08
3.17773e-08
2.35643e-08
-1.00983e-07
2.72825e-08
-2.8968e-08
-1.07876e-07
6.48855e-08
7.81997e-08
8.06956e-08
1.77299e-08
2.807e-08
1.73196e-07
1.80813e-07
2.31845e-08
2.65177e-08
1.01856e-07
-5.33475e-08
7.41154e-08
1.16732e-07
9.87232e-09
-1.13889e-08
1.52819e-08
1.60055e-07
8.61831e-08
-5.98198e-08
-6.35822e-08
-9.80978e-08
-1.18129e-07
8.41069e-08
5.41514e-08
-1.37894e-07
-2.69208e-08
9.99659e-08
3.60802e-08
-2.55916e-08
-3.03785e-08
-2.3613e-08
-3.21635e-09
-1.90616e-08
-9.80358e-08
-1.19163e-07
2.57109e-08
-1.08659e-08
-2.67178e-08
1.17609e-07
1.32826e-07
2.2859e-08
-7.00975e-11
-2.47069e-09
-6.26666e-08
-7.49199e-08
-1.80593e-08
8.14602e-08
3.21464e-08
-5.77023e-08
-1.08668e-07
9.67891e-09
1.89713e-07
1.04669e-07
-4.36272e-08
2.70141e-08
2.26942e-08
-9.42918e-08
2.22081e-08
-2.84363e-08
-1.01763e-07
6.18281e-08
7.72675e-08
8.04056e-08
2.14581e-08
3.08942e-08
1.65874e-07
1.75373e-07
2.76078e-08
2.44691e-08
1.00221e-07
-4.53829e-08
6.85115e-08
1.12526e-07
1.44921e-08
-4.14536e-09
1.47041e-08
1.48931e-07
8.43471e-08
-5.57692e-08
-6.29983e-08
-9.3137e-08
-1.13668e-07
7.59995e-08
5.25128e-08
-1.27673e-07
-2.83746e-08
9.01542e-08
3.40587e-08
-2.32047e-08
-2.90803e-08
-2.30839e-08
-3.72069e-09
-1.93281e-08
-9.31018e-08
-1.14618e-07
2.15141e-08
-8.17779e-09
-2.4141e-08
1.09947e-07
1.26356e-07
2.24874e-08
2.20596e-09
-8.12464e-10
-5.90796e-08
-6.85696e-08
-1.95062e-08
7.16778e-08
3.00554e-08
-5.1516e-08
-9.95278e-08
8.08728e-09
1.77408e-07
1.04334e-07
-3.60115e-08
2.22243e-08
2.18175e-08
-8.74923e-08
1.70661e-08
-2.73319e-08
-9.54585e-08
5.85428e-08
7.62254e-08
8.00881e-08
2.53889e-08
3.35774e-08
1.58152e-07
1.69399e-07
3.25109e-08
2.25554e-08
9.84361e-08
-3.68636e-08
6.27037e-08
1.08197e-07
1.90278e-08
3.1611e-09
1.43333e-08
1.37343e-07
8.23539e-08
-5.14282e-08
-6.23806e-08
-8.77964e-08
-1.08826e-07
6.7421e-08
5.08517e-08
-1.1727e-07
-2.99994e-08
8.0381e-08
3.19553e-08
-2.09056e-08
-2.77053e-08
-2.24485e-08
-4.23742e-09
-1.95927e-08
-8.79218e-08
-1.09902e-07
1.71752e-08
-5.55064e-09
-2.16608e-08
1.02032e-07
1.19841e-07
2.22282e-08
4.06265e-09
9.88883e-10
-5.53051e-08
-6.25551e-08
-2.0891e-08
6.20521e-08
2.7868e-08
-4.5469e-08
-9.02903e-08
6.73771e-09
1.65062e-07
1.03541e-07
-2.85412e-08
1.76334e-08
2.08676e-08
-8.07198e-08
1.20727e-08
-2.5769e-08
-8.9032e-08
5.51079e-08
7.50476e-08
7.97421e-08
2.94623e-08
3.61622e-08
1.50281e-07
1.63003e-07
3.76367e-08
2.09076e-08
9.64436e-08
-2.79337e-08
5.72915e-08
1.03813e-07
2.32969e-08
1.02689e-08
1.4297e-08
1.25689e-07
8.01665e-08
-4.68871e-08
-6.16974e-08
-8.2342e-08
-1.03717e-07
5.86396e-08
4.91024e-08
-1.06984e-07
-3.16742e-08
7.09137e-08
2.97677e-08
-1.87524e-08
-2.63092e-08
-2.17965e-08
-4.77687e-09
-1.98182e-08
-8.26486e-08
-1.0508e-07
1.2847e-08
-3.05822e-09
-1.92433e-08
9.40219e-08
1.13305e-07
2.20876e-08
5.47377e-09
2.84548e-09
-5.14452e-08
-5.69339e-08
-2.20675e-08
5.28457e-08
2.57152e-08
-3.96919e-08
-8.11505e-08
5.67106e-09
1.52953e-07
1.02286e-07
-2.1373e-08
1.33831e-08
1.98021e-08
-7.40179e-08
7.35578e-09
-2.38756e-08
-8.25327e-08
5.15967e-08
7.37093e-08
7.93402e-08
3.36072e-08
3.87264e-08
1.42405e-07
1.56306e-07
4.277e-08
1.95744e-08
9.41677e-08
-1.88627e-08
5.1961e-08
9.94036e-08
2.71554e-08
1.68237e-08
1.46613e-08
1.14263e-07
7.77516e-08
-4.22016e-08
-6.08947e-08
-7.69677e-08
-9.84319e-08
4.99057e-08
4.71934e-08
-9.69943e-08
-3.31511e-08
6.18086e-08
2.75166e-08
-1.6761e-08
-2.49216e-08
-2.11811e-08
-5.34536e-09
-1.99828e-08
-7.73947e-08
-1.00208e-07
8.62585e-09
-7.60959e-10
-1.68701e-08
8.60468e-08
1.06813e-07
2.20676e-08
6.47149e-09
4.69231e-09
-4.75543e-08
-5.17316e-08
-2.29602e-08
4.42222e-08
2.36127e-08
-3.42685e-08
-7.22523e-08
4.89442e-09
1.41269e-07
1.00581e-07
-1.45767e-08
9.55883e-09
1.86421e-08
-6.74435e-08
2.99524e-09
-2.17754e-08
-7.60429e-08
4.80929e-08
7.2203e-08
7.88444e-08
3.77289e-08
4.11857e-08
1.34687e-07
1.49435e-07
4.77408e-08
1.86291e-08
9.15873e-08
-1.0294e-08
4.70698e-08
9.50176e-08
3.05279e-08
2.27006e-08
1.54316e-08
1.03293e-07
7.50972e-08
-3.74291e-08
-5.99141e-08
-7.17984e-08
-9.30515e-08
4.14037e-08
4.50692e-08
-8.74267e-08
-3.43652e-08
5.29677e-08
2.52536e-08
-1.49327e-08
-2.35537e-08
-2.06128e-08
-5.94006e-09
-2.00723e-08
-7.22436e-08
-9.53352e-08
4.57607e-09
1.28755e-09
-1.45379e-08
7.82379e-08
1.00429e-07
2.21559e-08
7.11283e-09
6.47088e-09
-4.36617e-08
-4.69591e-08
-2.3537e-08
3.62695e-08
2.15393e-08
-2.92542e-08
-6.37298e-08
4.40446e-09
1.30135e-07
9.84455e-08
-8.20894e-09
6.22892e-09
1.74225e-08
-6.10582e-08
-9.48995e-10
-1.9582e-08
-6.96338e-08
4.46843e-08
7.05428e-08
7.82226e-08
4.17161e-08
4.34898e-08
1.2733e-07
1.42499e-07
5.24188e-08
1.81776e-08
8.87236e-08
-1.8065e-09
4.27476e-08
9.07079e-08
3.34e-08
2.78299e-08
1.65732e-08
9.29604e-08
7.21983e-08
-3.2638e-08
-5.87044e-08
-6.69181e-08
-8.76487e-08
3.32848e-08
4.26954e-08
-7.83768e-08
-3.52979e-08
4.5117e-08
2.30208e-08
-1.32609e-08
-2.2209e-08
-2.00813e-08
-6.55098e-09
-2.00767e-08
-6.72554e-08
-9.04987e-08
7.44714e-10
3.04291e-09
-1.22515e-08
7.07169e-08
9.41726e-08
2.2324e-08
7.44605e-09
8.12469e-09
-3.9788e-08
-4.26101e-08
-2.37927e-08
2.90317e-08
1.94816e-08
-2.46836e-08
-5.56671e-08
4.19312e-09
1.19632e-07
9.59105e-08
-2.31104e-09
3.44005e-09
1.61485e-08
-5.49223e-08
-4.41334e-09
-1.7387e-08
-6.33482e-08
4.14331e-08
6.87611e-08
7.74554e-08
4.54731e-08
4.56445e-08
1.20438e-07
1.35581e-07
5.67033e-08
1.8254e-08
8.56041e-08
6.32785e-09
3.90918e-08
8.65215e-08
3.57869e-08
3.21833e-08
1.80304e-08
8.33801e-08
6.90554e-08
-2.79056e-08
-5.72258e-08
-6.23843e-08
-8.2289e-08
2.56752e-08
4.00618e-08
-6.99161e-08
-3.5939e-08
3.75762e-08
2.08244e-08
-1.17467e-08
-2.08905e-08
-1.95751e-08
-7.16419e-09
-1.99907e-08
-6.24707e-08
-8.57241e-08
-2.83128e-09
4.47363e-09
-1.00205e-08
6.35747e-08
8.81513e-08
2.25429e-08
7.51908e-09
9.5998e-09
-3.59537e-08
-3.86616e-08
-2.37397e-08
2.25276e-08
1.74388e-08
-2.05715e-08
-4.81166e-08
4.24276e-09
1.09812e-07
9.30232e-08
3.09076e-09
1.2111e-09
1.48193e-08
-4.90701e-08
-7.34299e-09
-1.52553e-08
-5.72179e-08
3.8361e-08
6.69025e-08
7.6537e-08
4.8935e-08
4.76521e-08
1.1406e-07
1.28757e-07
6.05237e-08
1.88413e-08
8.22678e-08
1.39721e-08
3.61578e-08
8.24958e-08
3.77163e-08
3.57655e-08
1.97316e-08
7.46253e-08
6.56817e-08
-2.33098e-08
-5.54538e-08
-5.82275e-08
-7.70301e-08
1.86667e-08
3.71808e-08
-6.2094e-08
-3.62764e-08
3.07633e-08
1.86479e-08
-1.0416e-08
-1.96062e-08
-1.90883e-08
-7.7666e-09
-1.98169e-08
-5.79155e-08
-8.10272e-08
-6.12124e-09
5.5658e-09
-7.86032e-09
5.68642e-08
8.21074e-08
2.27915e-08
7.3935e-09
1.08478e-08
-3.21831e-08
-3.50768e-08
-2.33971e-08
1.67568e-08
1.54155e-08
-1.69226e-08
-4.11091e-08
4.52346e-09
1.007e-07
8.9842e-08
7.98207e-09
-4.63231e-10
1.34443e-08
-4.35252e-08
-9.74002e-09
-1.32255e-08
-5.12696e-08
3.55061e-08
6.50115e-08
7.54725e-08
5.20582e-08
4.95064e-08
1.0821e-07
1.22092e-07
6.38641e-08
1.9955e-08
7.8775e-08
2.10407e-08
3.39535e-08
7.86554e-08
3.92478e-08
3.86088e-08
2.15923e-08
6.67399e-08
6.21069e-08
-1.89235e-08
-5.33831e-08
-5.44559e-08
-7.19196e-08
1.2318e-08
3.40847e-08
-5.49422e-08
-3.63161e-08
2.41943e-08
1.64761e-08
-9.33794e-09
-1.83746e-08
-1.86248e-08
-8.35079e-09
-1.95698e-08
-5.36124e-08
-7.6417e-08
-9.0984e-09
6.32695e-09
-5.79226e-09
5.06229e-08
7.61654e-08
2.305e-08
7.12316e-09
1.18334e-08
-2.85046e-08
-3.18164e-08
-2.27757e-08
1.17026e-08
1.34192e-08
-1.37376e-08
-3.4653e-08
4.9956e-09
9.22997e-08
8.64313e-08
1.23573e-08
-1.60651e-09
1.20454e-08
-3.83167e-08
-1.16218e-08
-1.13172e-08
-4.55247e-08
3.29056e-08
6.31241e-08
7.42729e-08
5.48185e-08
5.1207e-08
1.0288e-07
1.15645e-07
6.63126e-08
2.13081e-08
7.51987e-08
2.74648e-08
3.24494e-08
7.5006e-08
4.046e-08
4.07837e-08
2.35232e-08
5.97385e-08
5.83757e-08
-1.48113e-08
-5.10303e-08
-5.1064e-08
-6.69938e-08
6.66066e-09
3.08228e-08
-4.84782e-08
-3.60639e-08
1.83511e-08
1.43294e-08
-8.46726e-09
-1.72234e-08
-1.81908e-08
-8.91436e-09
-1.92762e-08
-4.95797e-08
-7.18977e-08
-1.17412e-08
6.77908e-09
-3.84118e-09
4.48782e-08
7.03488e-08
2.32922e-08
6.7594e-09
1.25447e-08
-2.49509e-08
-2.88198e-08
-2.18944e-08
7.33931e-09
1.14631e-08
-1.09825e-08
-2.87467e-08
5.61657e-09
8.4606e-08
8.28556e-08
1.62184e-08
-2.25537e-09
1.06524e-08
-3.34635e-08
-1.30088e-08
-9.54035e-09
-4.00012e-08
3.05858e-08
6.12689e-08
7.29534e-08
5.72051e-08
5.27614e-08
9.8048e-08
1.09473e-07
6.821e-08
2.30539e-08
7.16126e-08
3.31941e-08
3.15922e-08
7.15696e-08
4.14163e-08
4.2358e-08
2.54411e-08
5.35757e-08
5.45432e-08
-1.10281e-08
-4.84302e-08
-4.80192e-08
-6.22789e-08
1.70305e-09
2.74587e-08
-4.27041e-08
-3.55426e-08
1.30868e-08
1.22184e-08
-7.78676e-09
-1.61773e-08
-1.77804e-08
-9.44154e-09
-1.89688e-08
-4.5834e-08
-6.7474e-08
-1.40382e-08
6.94761e-09
-2.03036e-09
3.96491e-08
6.46776e-08
2.34863e-08
6.35167e-09
1.29762e-08
-2.15567e-08
-2.60585e-08
-2.07897e-08
3.63866e-09
9.56657e-09
-8.62986e-09
-2.33918e-08
6.34578e-09
7.76025e-08
7.9176e-08
1.95748e-08
-2.45485e-09
9.30133e-09
-2.89775e-08
-1.39285e-08
-7.90246e-09
-3.47148e-08
2.85622e-08
5.94688e-08
7.15326e-08
5.92143e-08
5.41507e-08
9.36849e-08
1.03631e-07
6.95411e-08
2.50696e-08
6.8084e-08
3.81973e-08
3.13127e-08
6.83642e-08
4.2163e-08
4.34065e-08
2.72753e-08
4.83193e-08
5.06748e-08
-7.61586e-09
-4.56296e-08
-4.52843e-08
-5.77943e-08
-2.56627e-09
2.40656e-08
-3.75778e-08
-3.47907e-08
8.38933e-09
1.01517e-08
-7.29226e-09
-1.52486e-08
-1.7353e-08
-9.93284e-09
-1.86747e-08
-4.23727e-08
-6.31553e-08
-1.59896e-08
6.85715e-09
-3.78285e-10
3.49471e-08
5.91754e-08
2.35974e-08
5.94431e-09
1.31329e-08
-1.83558e-08
-2.35064e-08
-1.96177e-08
5.70708e-10
7.7528e-09
-6.64245e-09
-1.85845e-08
7.14592e-09
7.12609e-08
7.54487e-08
2.24431e-08
-2.2563e-09
8.03295e-09
-2.4862e-08
-1.44181e-08
-6.41135e-09
-2.96787e-08
2.6843e-08
5.77426e-08
7.00319e-08
6.08494e-08
5.53636e-08
8.97487e-08
9.8162e-08
7.03302e-08
2.72737e-08
6.46729e-08
4.24637e-08
3.15294e-08
6.53878e-08
4.27487e-08
4.401e-08
2.89667e-08
4.38023e-08
4.68417e-08
-4.58833e-09
-4.26807e-08
-4.28071e-08
-5.35557e-08
-6.17549e-09
2.07133e-08
-3.30653e-08
-3.38529e-08
4.22794e-09
8.13628e-09
-6.98013e-09
-1.44387e-08
-1.69069e-08
-1.03944e-08
-1.84109e-08
-3.91897e-08
-5.89548e-08
-1.76048e-08
6.53336e-09
1.09976e-09
3.07711e-08
5.38809e-08
2.359e-08
5.57319e-09
1.3036e-08
-1.53771e-08
-2.11402e-08
-1.82777e-08
-1.89903e-09
6.04496e-09
-4.98393e-09
-1.43136e-08
7.98248e-09
6.55442e-08
7.17251e-08
2.48469e-08
-1.71568e-09
6.81923e-09
-2.11127e-08
-1.45188e-08
-5.05973e-09
-2.49045e-08
2.54276e-08
5.61044e-08
6.84743e-08
6.212e-08
5.65245e-08
8.61999e-08
9.31001e-08
7.06188e-08
2.95917e-08
6.14302e-08
4.59997e-08
3.2155e-08
6.26423e-08
4.32137e-08
4.42493e-08
3.04707e-08
4.00204e-08
4.31115e-08
-1.96027e-09
-3.96345e-08
-4.05324e-08
-4.95748e-08
-9.16722e-09
1.74593e-08
-2.91373e-08
-3.27705e-08
5.63181e-10
6.17985e-09
-6.83471e-09
-1.37426e-08
-1.6423e-08
-1.08191e-08
-1.81867e-08
-3.62797e-08
-5.48876e-08
-1.88976e-08
6.01087e-09
2.39106e-09
2.71022e-08
4.88273e-08
2.34422e-08
5.26318e-09
1.27101e-08
-1.26445e-08
-1.89423e-08
-1.68312e-08
-3.80996e-09
4.4634e-09
-3.62029e-09
-1.05584e-08
8.82352e-09
6.0409e-08
6.80501e-08
2.68152e-08
-8.86743e-10
5.73958e-09
-1.77201e-08
-1.42726e-08
-3.83196e-09
-2.04024e-08
2.43063e-08
5.45636e-08
6.68842e-08
6.30377e-08
5.7487e-08
8.3005e-08
8.84623e-08
7.04574e-08
3.19534e-08
5.83984e-08
4.88274e-08
3.31044e-08
6.01363e-08
4.35865e-08
4.42009e-08
3.17585e-08
3.6908e-08
3.9541e-08
2.64123e-10
-3.65404e-08
-3.84108e-08
-4.58575e-08
-1.15965e-08
1.43425e-08
-2.5748e-08
-3.15754e-08
-2.64999e-09
4.28869e-09
-6.83337e-09
-1.31543e-08
-1.58977e-08
-1.12016e-08
-1.80045e-08
-3.36363e-08
-5.09687e-08
-1.98838e-08
5.32767e-09
3.48693e-09
2.39169e-08
4.40742e-08
2.31451e-08
5.0265e-09
1.21853e-08
-1.01746e-08
-1.69004e-08
-1.53148e-08
-5.20495e-09
3.02651e-09
-2.51666e-09
-7.28954e-09
9.64132e-09
5.58051e-08
6.4462e-08
2.83811e-08
1.74209e-10
4.8152e-09
-1.46693e-08
-1.3722e-08
-2.74697e-09
-1.61806e-08
2.34598e-08
5.31263e-08
6.52897e-08
6.36223e-08
5.82686e-08
8.01278e-08
8.42531e-08
6.99025e-08
3.42787e-08
5.56108e-08
5.09824e-08
3.42965e-08
5.78717e-08
4.38861e-08
4.39374e-08
3.28177e-08
3.43809e-08
3.61786e-08
2.09994e-09
-3.34467e-08
-3.64015e-08
-4.24046e-08
-1.35265e-08
1.13802e-08
-2.28411e-08
-3.02923e-08
-5.45533e-09
2.46341e-09
-6.95149e-09
-1.26713e-08
-1.53383e-08
-1.15335e-08
-1.78595e-08
-3.12507e-08
-4.72119e-08
-2.05824e-08
4.52121e-09
4.38482e-09
2.1185e-08
3.95952e-08
2.26942e-08
4.86514e-09
1.14975e-08
-7.97577e-09
-1.50054e-08
-1.37654e-08
-6.13195e-09
1.75418e-09
-1.63679e-09
-4.46727e-09
1.04196e-08
5.16761e-08
6.09906e-08
2.95804e-08
1.40919e-09
4.06031e-09
-1.19406e-08
-1.29086e-08
-1.74749e-09
-1.22433e-08
2.28592e-08
5.17897e-08
6.37232e-08
6.39038e-08
5.88782e-08
7.75294e-08
8.04712e-08
6.90166e-08
3.65148e-08
5.30901e-08
5.25105e-08
3.56533e-08
5.58419e-08
4.41208e-08
4.35265e-08
3.36464e-08
3.23593e-08
3.30637e-08
3.57971e-09
-3.03979e-08
-3.44723e-08
-3.92127e-08
-1.50211e-08
8.6001e-09
-2.03605e-08
-2.89512e-08
-7.88596e-09
7.08421e-10
-7.1662e-09
-1.22958e-08
-1.47603e-08
-1.18041e-08
-1.77427e-08
-2.91116e-08
-4.36288e-08
-2.10157e-08
3.5904e-09
5.08784e-09
1.8871e-08
3.54399e-08
2.20915e-08
4.77471e-09
1.06866e-08
-6.04733e-09
-1.32511e-08
-1.22229e-08
-6.6547e-09
6.69236e-10
-9.43584e-10
-2.04558e-09
1.11515e-08
4.79632e-08
5.76579e-08
3.04526e-08
2.77013e-09
3.47946e-09
-9.51017e-09
-1.18744e-08
-8.19443e-10
-8.58996e-09
2.24685e-08
5.05345e-08
6.22176e-08
6.39198e-08
5.93236e-08
7.51711e-08
7.7087e-08
6.78659e-08
3.86144e-08
5.08502e-08
5.3469e-08
3.70989e-08
5.40336e-08
4.42888e-08
4.30268e-08
3.4252e-08
3.07635e-08
3.02239e-08
4.73241e-09
-2.74314e-08
-3.25996e-08
-3.62737e-08
-1.61414e-08
6.0165e-09
-1.82527e-08
-2.75825e-08
-9.97041e-09
-9.66654e-10
-7.45482e-09
-1.20306e-08
-1.41881e-08
-1.20058e-08
-1.76438e-08
-2.72059e-08
-4.0228e-08
-2.1209e-08
2.6957e-09
5.60584e-09
1.69342e-08
3.16177e-08
2.13473e-08
4.747e-09
9.79201e-09
-4.38197e-09
-1.16349e-08
-1.07151e-08
-6.84605e-09
-2.06061e-10
-4.03649e-10
1.99412e-11
1.1825e-08
4.46116e-08
5.44794e-08
3.10392e-08
4.21172e-09
3.07283e-09
-7.35109e-09
-1.0661e-08
5.44859e-11
-5.21474e-09
2.22526e-08
4.93499e-08
6.07967e-08
6.37144e-08
5.96143e-08
7.30165e-08
7.40794e-08
6.65147e-08
4.05408e-08
4.88971e-08
5.39322e-08
3.85609e-08
5.243e-08
4.43964e-08
4.24848e-08
3.46511e-08
2.95192e-08
2.76721e-08
5.59342e-09
-2.45762e-08
-3.07682e-08
-3.35733e-08
-1.69442e-08
3.63407e-09
-1.64655e-08
-2.62079e-08
-1.17361e-08
-2.55796e-09
-7.79096e-09
-1.18717e-08
-1.36495e-08
-1.21366e-08
-1.75528e-08
-2.55203e-08
-3.70144e-08
-2.11923e-08
1.69025e-09
5.95437e-09
1.53317e-08
2.81298e-08
2.04788e-08
4.7738e-09
8.84755e-09
-2.96406e-09
-1.01577e-08
-9.29959e-09
-6.76119e-09
-8.58888e-10
2.7785e-11
1.76797e-09
1.24289e-08
4.15723e-08
5.14642e-08
3.13824e-08
5.69686e-09
2.83502e-09
-5.43512e-09
-9.30809e-09
8.88875e-10
-2.10633e-09
2.21819e-08
4.82294e-08
5.94703e-08
6.33302e-08
5.97627e-08
7.10322e-08
7.14165e-08
6.50198e-08
4.22706e-08
4.72296e-08
5.39673e-08
3.99785e-08
5.10137e-08
4.44487e-08
4.19331e-08
3.48674e-08
2.85604e-08
2.54088e-08
6.20205e-09
-2.18536e-08
-2.8971e-08
-3.10951e-08
-1.74773e-08
1.45569e-09
-1.49498e-08
-2.48416e-08
-1.32121e-08
-4.06873e-09
-8.11325e-09
-1.17944e-08
-1.31698e-08
1.62934e-07
6.16909e-08
-1.14064e-07
-8.43539e-08
-4.21844e-08
-1.29437e-07
-9.10336e-09
2.26271e-07
2.78286e-08
-1.55977e-07
3.92824e-08
-2.57006e-08
-6.07025e-08
1.70342e-07
1.8258e-08
-1.47492e-07
3.77207e-08
4.36064e-09
-1.75463e-07
3.34447e-09
2.06026e-07
2.08095e-07
5.66328e-08
-3.40181e-08
-4.22776e-08
-4.37928e-08
-1.73895e-08
-1.04681e-07
3.11926e-08
5.60374e-08
9.18364e-08
1.20866e-07
-8.49844e-08
7.59223e-08
2.51963e-07
1.02872e-07
-8.21127e-08
-6.34132e-08
1.08999e-07
6.55222e-08
9.96648e-08
6.17825e-08
3.97876e-08
1.27281e-07
1.91755e-08
2.57127e-08
9.0543e-09
-2.20131e-08
-7.22439e-08
-1.98558e-07
-5.30899e-08
1.87374e-07
-2.63344e-08
-3.25287e-09
4.11925e-08
-1.64944e-07
-4.26477e-08
1.18467e-07
-5.81188e-08
-7.43986e-08
1.48144e-07
5.06621e-08
-1.12451e-07
-8.43058e-08
-4.11531e-08
-1.15718e-07
4.37277e-10
2.10765e-07
1.76106e-08
-1.4186e-07
3.84422e-08
-2.45606e-08
-4.9617e-08
1.55233e-07
7.65014e-09
-1.33267e-07
3.60215e-08
-7.10292e-09
-1.60932e-07
1.39432e-08
2.03661e-07
1.94603e-07
4.55938e-08
-3.26023e-08
-4.14684e-08
-4.38315e-08
-1.62745e-08
-9.19622e-08
2.97329e-08
5.58608e-08
9.03269e-08
1.09197e-07
-6.98689e-08
8.58444e-08
2.37055e-07
9.15075e-08
-7.97871e-08
-5.07881e-08
1.08184e-07
6.53666e-08
9.93937e-08
6.23832e-08
3.87073e-08
1.1493e-07
2.02046e-08
2.61128e-08
9.50734e-09
-2.17067e-08
-7.10652e-08
-1.84869e-07
-4.39375e-08
1.72988e-07
-2.52959e-08
-4.38282e-09
2.96255e-08
-1.49961e-07
-3.23906e-08
1.04196e-07
-5.59998e-08
-6.31695e-08
1.40037e-07
4.80496e-08
-1.09792e-07
-8.41324e-08
-3.9245e-08
-1.09123e-07
9.00238e-10
2.02126e-07
1.63028e-08
-1.35718e-07
3.70807e-08
-2.25991e-08
-4.70308e-08
1.47548e-07
6.20454e-09
-1.27028e-07
3.303e-08
-9.86297e-09
-1.52947e-07
1.63947e-08
1.99494e-07
1.8811e-07
4.2909e-08
-3.01325e-08
-4.03266e-08
-4.42346e-08
-1.42304e-08
-8.71944e-08
2.77367e-08
5.55336e-08
8.77955e-08
1.06267e-07
-6.1874e-08
8.6976e-08
2.28673e-07
8.85354e-08
-7.56955e-08
-4.62773e-08
1.0681e-07
6.46706e-08
9.90366e-08
6.31689e-08
3.67736e-08
1.10535e-07
2.18566e-08
2.65359e-08
9.94624e-09
-2.15069e-08
-6.87907e-08
-1.78324e-07
-4.39384e-08
1.66344e-07
-2.36766e-08
-6.11559e-09
2.68837e-08
-1.41935e-07
-3.1058e-08
9.747e-08
-5.23902e-08
-6.03108e-08
1.31588e-07
4.6984e-08
-1.06221e-07
-8.38235e-08
-3.71446e-08
-1.02854e-07
-7.19838e-10
1.92971e-07
1.73013e-08
-1.30057e-07
3.49011e-08
-1.99717e-08
-4.60153e-08
1.39714e-07
7.10901e-09
-1.2113e-07
2.89722e-08
-1.07997e-08
-1.44777e-07
1.71427e-08
1.93937e-07
1.82014e-07
4.19919e-08
-2.73108e-08
-3.89234e-08
-4.42358e-08
-1.18443e-08
-8.33566e-08
2.54063e-08
5.53053e-08
8.47652e-08
1.0479e-07
-5.38464e-08
8.5806e-08
2.20166e-07
8.72734e-08
-7.01475e-08
-4.29354e-08
1.04856e-07
6.39269e-08
9.821e-08
6.39913e-08
3.4729e-08
1.07045e-07
2.40222e-08
2.68782e-08
1.0318e-08
-2.14798e-08
-6.60621e-08
-1.71869e-07
-4.62492e-08
1.59775e-07
-2.13393e-08
-8.34278e-09
2.56799e-08
-1.33769e-07
-3.19897e-08
9.0985e-08
-4.78723e-08
-5.8826e-08
1.21712e-07
4.58435e-08
-1.01802e-07
-8.33211e-08
-3.48888e-08
-9.55556e-08
-2.66598e-09
1.82272e-07
1.8837e-08
-1.23724e-07
3.20473e-08
-1.67428e-08
-4.5059e-08
1.30438e-07
8.66859e-09
-1.14352e-07
2.41089e-08
-1.13933e-08
-1.35381e-07
1.77489e-08
1.87142e-07
1.74961e-07
4.11858e-08
-2.43283e-08
-3.7124e-08
-4.39402e-08
-9.22997e-09
-7.8955e-08
2.27621e-08
5.51604e-08
8.13347e-08
1.03157e-07
-4.48498e-08
8.40485e-08
2.10605e-07
8.6027e-08
-6.35383e-08
-3.92969e-08
1.02413e-07
6.32021e-08
9.68514e-08
6.50039e-08
3.26471e-08
1.03131e-07
2.65787e-08
2.71965e-08
1.07203e-08
-2.1488e-08
-6.30104e-08
-1.64185e-07
-4.90634e-08
1.5206e-07
-1.84e-08
-1.15714e-08
2.45008e-08
-1.24027e-07
-3.32868e-08
8.35106e-08
-4.26786e-08
-5.7196e-08
1.10842e-07
4.45281e-08
-9.67203e-08
-8.26274e-08
-3.25568e-08
-8.74555e-08
-4.65026e-09
1.70412e-07
2.06523e-08
-1.16961e-07
2.86614e-08
-1.30833e-08
-4.41094e-08
1.1992e-07
1.06598e-08
-1.06929e-07
1.87963e-08
-1.17113e-08
-1.25171e-07
1.82377e-08
1.79451e-07
1.67125e-07
4.03355e-08
-2.13749e-08
-3.49128e-08
-4.33792e-08
-6.50935e-09
-7.39846e-08
1.99129e-08
5.50643e-08
7.76728e-08
1.01292e-07
-3.52318e-08
8.19393e-08
2.00344e-07
8.47138e-08
-5.62762e-08
-3.54398e-08
9.96294e-08
6.24814e-08
9.49731e-08
6.62562e-08
3.06112e-08
9.88493e-08
2.9324e-08
2.75228e-08
1.12066e-08
-2.14314e-08
-5.97449e-08
-1.55505e-07
-5.21183e-08
1.43388e-07
-1.50306e-08
-1.51462e-08
2.32591e-08
-1.13241e-07
-3.47087e-08
7.53279e-08
-3.71144e-08
-5.5382e-08
9.95037e-08
4.30551e-08
-9.11966e-08
-8.17729e-08
-3.03286e-08
-7.90514e-08
-6.511e-09
1.58008e-07
2.26942e-08
-1.10018e-07
2.48476e-08
-9.23892e-09
-4.31522e-08
1.09107e-07
1.29605e-08
-9.91868e-08
1.33696e-08
-1.17632e-08
-1.14693e-07
1.84988e-08
1.71255e-07
1.59133e-07
3.95436e-08
-1.86461e-08
-3.23862e-08
-4.26151e-08
-3.89625e-09
-6.8573e-08
1.70093e-08
5.50041e-08
7.40308e-08
9.92533e-08
-2.55244e-08
7.95363e-08
1.89911e-07
8.35029e-08
-4.87297e-08
-3.16547e-08
9.65968e-08
6.17546e-08
9.26401e-08
6.76498e-08
2.88025e-08
9.43397e-08
3.20499e-08
2.78501e-08
1.17724e-08
-2.12607e-08
-5.64135e-08
-1.46195e-07
-5.52342e-08
1.34069e-07
-1.13371e-08
-1.86936e-08
2.18783e-08
-1.02305e-07
-3.60581e-08
6.68348e-08
-3.15469e-08
-5.34269e-08
8.80661e-08
4.13717e-08
-8.54e-08
-8.07623e-08
-2.83732e-08
-7.05565e-08
-8.1133e-09
1.45533e-07
2.49022e-08
-1.03005e-07
2.07119e-08
-5.4415e-09
-4.20888e-08
9.83809e-08
1.54322e-08
-9.13605e-08
8.09145e-09
-1.16433e-08
-1.04341e-07
1.85337e-08
1.62837e-07
1.51306e-07
3.88125e-08
-1.62483e-08
-2.9656e-08
-4.1711e-08
-1.6122e-09
-6.28189e-08
1.41673e-08
5.49637e-08
7.06348e-08
9.70644e-08
-1.60894e-08
7.68866e-08
1.79666e-07
8.26483e-08
-4.1134e-08
-2.80005e-08
9.33486e-08
6.10312e-08
8.98914e-08
6.91054e-08
2.73958e-08
8.96809e-08
3.46043e-08
2.81628e-08
1.2383e-08
-2.09625e-08
-5.31601e-08
-1.3652e-07
-5.8174e-08
1.24341e-07
-7.40575e-09
-2.20203e-08
2.02342e-08
-9.15969e-08
-3.71249e-08
5.82868e-08
-2.62514e-08
-5.13024e-08
7.67985e-08
3.94219e-08
-7.94524e-08
-7.95655e-08
-2.67913e-08
-6.2194e-08
-9.40352e-09
1.33339e-07
2.72003e-08
-9.59556e-08
1.637e-08
-1.86546e-09
-4.08475e-08
8.78855e-08
1.78383e-08
-8.36156e-08
3.15141e-09
-1.14343e-08
-9.43893e-08
1.83798e-08
1.54357e-07
1.43787e-07
3.81511e-08
-1.42006e-08
-2.67969e-08
-4.06851e-08
3.06079e-10
-5.68416e-08
1.14644e-08
5.4909e-08
6.76266e-08
9.47625e-08
-7.13888e-09
7.40132e-08
1.69793e-07
8.19435e-08
-3.35831e-08
-2.43652e-08
8.99302e-08
6.04106e-08
8.67703e-08
7.0531e-08
2.65049e-08
8.49518e-08
3.69023e-08
2.84606e-08
1.29947e-08
-2.0538e-08
-5.01071e-08
-1.26693e-07
-6.07451e-08
1.14325e-07
-3.33548e-09
-2.49659e-08
1.8275e-08
-8.12846e-08
-3.77966e-08
4.98721e-08
-2.14185e-08
-4.89834e-08
6.59196e-08
3.71781e-08
-7.34584e-08
-7.81395e-08
-2.56186e-08
-5.41841e-08
-1.03767e-08
1.21517e-07
2.94896e-08
-8.88724e-08
1.1948e-08
1.36512e-09
-3.93966e-08
7.77148e-08
2.00239e-08
-7.60436e-08
-1.32324e-09
-1.1175e-08
-8.48746e-08
1.80557e-08
1.45902e-07
1.36602e-07
3.75913e-08
-1.24778e-08
-2.38932e-08
-3.95112e-08
1.81081e-09
-5.07667e-08
8.97544e-09
5.47902e-08
6.50669e-08
9.23975e-08
1.22803e-09
7.10816e-08
1.60351e-07
8.13207e-08
-2.61166e-08
-2.07852e-08
8.63724e-08
5.988e-08
8.33654e-08
7.18161e-08
2.60891e-08
8.02433e-08
3.89034e-08
2.87366e-08
1.35718e-08
-1.99851e-08
-4.73048e-08
-1.16902e-07
-6.28157e-08
1.04164e-07
7.56632e-10
-2.73982e-08
1.6015e-08
-7.1423e-08
-3.8044e-08
4.17435e-08
-1.71624e-08
-4.64725e-08
5.56054e-08
3.46363e-08
-6.75186e-08
-7.64431e-08
-2.4845e-08
-4.66882e-08
-1.10136e-08
1.10182e-07
3.16568e-08
-8.17554e-08
7.57163e-09
4.16054e-09
-3.77275e-08
6.79539e-08
2.18937e-08
-6.86895e-08
-5.25439e-09
-1.08818e-08
-7.58364e-08
1.7565e-08
1.37538e-07
1.29749e-07
3.71594e-08
-1.1052e-08
-2.10349e-08
-3.81482e-08
2.89358e-09
-4.46999e-08
6.76e-09
5.45498e-08
6.29629e-08
9.00093e-08
8.97372e-09
6.82176e-08
1.5135e-07
8.07608e-08
-1.87931e-08
-1.73098e-08
8.27166e-08
5.94463e-08
7.97534e-08
7.28518e-08
2.62175e-08
7.5648e-08
4.05874e-08
2.89669e-08
1.40954e-08
-1.92954e-08
-4.47829e-08
-1.07316e-07
-6.42967e-08
9.39457e-08
4.74437e-09
-2.9229e-08
1.35002e-08
-6.27756e-08
-3.78786e-08
3.39995e-08
-1.3544e-08
-4.37919e-08
4.59841e-08
3.18095e-08
-6.17302e-08
-7.44593e-08
-2.44306e-08
-3.98035e-08
-1.13093e-08
9.9357e-08
3.35859e-08
-7.46192e-08
3.35515e-09
6.46125e-09
-3.58449e-08
5.86805e-08
2.33803e-08
-6.15838e-08
-8.59757e-09
-1.05551e-08
-6.73314e-08
1.69275e-08
1.29325e-07
1.23238e-07
3.68532e-08
-9.89308e-09
-1.82824e-08
-3.6566e-08
3.57278e-09
-3.87284e-08
4.85639e-09
5.41455e-08
6.12887e-08
8.76228e-08
1.60806e-08
6.5486e-08
1.42794e-07
8.02387e-08
-1.16812e-08
-1.39192e-08
7.90245e-08
5.91086e-08
7.60149e-08
7.35476e-08
2.68233e-08
7.1249e-08
4.1945e-08
2.91487e-08
1.45603e-08
-1.84622e-08
-4.25602e-08
-9.80705e-08
-6.51352e-08
8.37537e-08
8.50518e-09
-3.0413e-08
1.08008e-08
-5.46434e-08
-3.73216e-08
2.67297e-08
-1.05865e-08
-4.09787e-08
3.71506e-08
2.8728e-08
-5.61824e-08
-7.21881e-08
-2.43198e-08
-3.35858e-08
-1.12695e-08
8.91418e-08
3.50908e-08
-6.75018e-08
-6.05905e-10
8.23776e-09
-3.3765e-08
4.99545e-08
2.44411e-08
-5.47595e-08
-1.13338e-08
-1.01964e-08
-5.93916e-08
1.6191e-08
1.21311e-07
1.17047e-07
3.66445e-08
-8.9511e-09
-1.56824e-08
-3.47568e-08
3.88123e-09
-3.29296e-08
3.29249e-09
5.35622e-08
5.99975e-08
8.52564e-08
2.25373e-08
6.29387e-08
1.34686e-07
7.9721e-08
-4.81132e-09
-1.05839e-08
7.53503e-08
5.88554e-08
7.22359e-08
7.38418e-08
2.78441e-08
6.71109e-08
4.29784e-08
2.92873e-08
1.49656e-08
-1.74859e-08
-4.06214e-08
-8.92696e-08
-6.53107e-08
7.36826e-08
1.19266e-08
-3.09498e-08
7.98658e-09
-4.74902e-08
-3.64026e-08
2.00258e-08
-8.28302e-09
-3.8081e-08
2.91577e-08
2.54392e-08
-5.09485e-08
-6.96456e-08
-2.44517e-08
-2.80677e-08
-1.09183e-08
7.95893e-08
3.63717e-08
-6.04588e-08
-4.24093e-09
9.48784e-09
-3.15152e-08
4.18481e-08
2.50625e-08
-4.82498e-08
-1.34653e-08
-9.81079e-09
-5.2022e-08
1.5416e-08
1.13543e-07
1.11143e-07
3.65197e-08
-8.16124e-09
-1.32763e-08
-3.27319e-08
3.8951e-09
-2.7377e-08
2.0872e-09
5.2787e-08
5.90331e-08
8.29272e-08
2.83467e-08
6.06207e-08
1.2703e-07
7.91782e-08
1.29941e-09
-7.32203e-09
7.17346e-08
5.86644e-08
6.85048e-08
7.37079e-08
2.91851e-08
6.32755e-08
4.37003e-08
2.93873e-08
1.5313e-08
-1.63745e-08
-3.89338e-08
-8.10082e-08
-6.48288e-08
6.38251e-08
1.49094e-08
-3.08743e-08
5.1318e-09
-4.08416e-08
-3.51573e-08
1.3997e-08
-6.60136e-09
-3.51565e-08
2.20216e-08
2.20036e-08
-4.60801e-08
-6.68614e-08
-2.47734e-08
-2.32683e-08
-1.02914e-08
7.07361e-08
3.7259e-08
-5.35515e-08
-7.47841e-09
1.02307e-08
-2.91341e-08
3.43851e-08
2.52197e-08
-4.20829e-08
-1.50109e-08
-9.40344e-09
-4.52196e-08