/*--------------------------------*- C++ -*----------------------------------*\
| =========                 |                                                 |
| \\      /  F ield         | OpenFOAM: The Open Source CFD Toolbox           |
|  \\    /   O peration     | Version:  2312                                  |
|   \\  /    A nd           | Website:  www.openfoam.com                      |
|    \\/     M anipulation  |                                                 |
\*---------------------------------------------------------------------------*/
FoamFile
{
    version     2.0;
    format      ascii;
    arch        "LSB;label=32;scalar=64";
    class       volScalarField;
    location    "600";
    object      pMean;
}
// * * * * * * * * * * * * * * * * * * * * * * * * * * * * * * * * * * * * * //

dimensions      [0 2 -2 0 0 0 0];

internalField   nonuniform List<scalar> 
144000
(
1.57413e-08
-1.81343e-08
-1.69718e-07
-2.18357e-07
7.63507e-08
-1.56121e-08
-6.77487e-08
2.28075e-07
2.72365e-07
6.83633e-08
-1.80856e-08
-5.09798e-09
-1.04127e-07
-1.77164e-07
-3.78814e-08
2.15429e-07
8.95399e-08
-1.28372e-07
-2.38282e-07
1.70829e-08
4.01437e-07
1.87075e-07
-1.44362e-07
6.6191e-08
6.06069e-08
-2.1554e-07
5.82016e-08
-1.80948e-08
-2.18845e-07
1.05143e-07
1.24442e-07
1.2329e-07
9.70113e-09
-1.21902e-09
2.8311e-07
3.06229e-07
-4.34427e-10
3.79859e-08
1.72078e-07
-1.41233e-07
1.2471e-07
2.07639e-07
-1.75692e-08
-8.65937e-08
3.55869e-09
3.08301e-07
1.59534e-07
-1.1002e-07
-1.12211e-07
-1.76464e-07
-2.15663e-07
1.67443e-07
1.23913e-07
-2.72059e-07
-5.81031e-08
2.30527e-07
1.01827e-07
-3.99265e-08
-4.95185e-08
-2.77307e-08
1.59141e-08
-1.76338e-08
-1.67558e-07
-1.99762e-07
7.37902e-08
-1.41988e-08
-4.96606e-08
2.24695e-07
2.5139e-07
5.07832e-08
-1.5884e-08
-4.2393e-09
-1.02643e-07
-1.55995e-07
-2.22121e-08
1.92174e-07
7.13932e-08
-1.24551e-07
-2.16955e-07
3.16077e-08
3.77105e-07
1.71643e-07
-1.21522e-07
6.33415e-08
4.32616e-08
-1.93753e-07
5.5238e-08
-3.5748e-08
-1.98496e-07
1.03205e-07
1.24235e-07
1.23153e-07
1.10019e-08
1.73021e-08
2.79577e-07
2.87147e-07
2.5465e-09
3.5839e-08
1.54841e-07
-1.19696e-07
1.21524e-07
1.8852e-07
-1.45506e-08
-6.44119e-08
1.91284e-08
2.84934e-07
1.4233e-07
-1.0777e-07
-1.11581e-07
-1.74209e-07
-1.96905e-07
1.63389e-07
1.06583e-07
-2.48929e-07
-4.25235e-08
2.06904e-07
8.38328e-08
-3.80788e-08
-4.88777e-08
-2.77317e-08
1.5615e-08
-1.72535e-08
-1.632e-07
-1.93189e-07
6.9162e-08
-1.13185e-08
-4.3629e-08
2.17593e-07
2.41117e-07
4.6919e-08
-1.17602e-08
-2.93572e-09
-9.97698e-08
-1.45289e-07
-2.09143e-08
1.77754e-07
6.61372e-08
-1.16763e-07
-2.05154e-07
3.12075e-08
3.60647e-07
1.7017e-07
-1.09407e-07
5.73154e-08
3.94672e-08
-1.83034e-07
4.94175e-08
-3.96447e-08
-1.8896e-07
9.99404e-08
1.23215e-07
1.22828e-07
1.39999e-08
2.37214e-08
2.72212e-07
2.79545e-07
7.59788e-09
3.23921e-08
1.50888e-07
-1.0878e-07
1.15262e-07
1.81113e-07
-8.37675e-09
-5.2577e-08
2.02843e-08
2.70076e-07
1.37919e-07
-1.0333e-07
-1.10435e-07
-1.69336e-07
-1.90327e-07
1.55292e-07
1.02229e-07
-2.35096e-07
-4.09147e-08
1.92799e-07
7.86749e-08
-3.44817e-08
-4.71414e-08
-2.75959e-08
1.50228e-08
-1.72951e-08
-1.57359e-07
-1.87933e-07
6.31892e-08
-7.51165e-09
-3.95523e-08
2.07562e-07
2.31706e-07
4.63404e-08
-6.95566e-09
-1.30101e-09
-9.56858e-08
-1.35963e-07
-2.31259e-08
1.62966e-07
6.32662e-08
-1.07145e-07
-1.93049e-07
2.74779e-08
3.42969e-07
1.71487e-07
-9.76684e-08
4.98324e-08
3.83833e-08
-1.72948e-07
4.17168e-08
-3.99749e-08
-1.80035e-07
9.56012e-08
1.21759e-07
1.22329e-07
1.89717e-08
2.8145e-08
2.61949e-07
2.72825e-07
1.37767e-08
2.87533e-08
1.49087e-07
-9.78272e-08
1.07223e-07
1.75289e-07
-7.86611e-10
-4.16683e-08
1.84268e-08
2.54292e-07
1.35745e-07
-9.74086e-08
-1.09214e-07
-1.62779e-07
-1.8487e-07
1.44141e-07
1.0003e-07
-2.20615e-07
-4.28845e-08
1.78525e-07
7.60078e-08
-3.01288e-08
-4.49801e-08
-2.71241e-08
1.42682e-08
-1.76188e-08
-1.50211e-07
-1.81601e-07
5.65441e-08
-3.1829e-09
-3.51871e-08
1.95702e-07
2.21199e-07
4.60342e-08
-2.04596e-09
8.02736e-10
-9.0541e-08
-1.25495e-07
-2.57838e-08
1.46465e-07
6.00746e-08
-9.65692e-08
-1.78888e-07
2.36255e-08
3.22964e-07
1.72471e-07
-8.46696e-08
4.15569e-08
3.72613e-08
-1.61672e-07
3.29498e-08
-3.93016e-08
-1.699e-07
9.04773e-08
1.19981e-07
1.21688e-07
2.50982e-08
3.27509e-08
2.49813e-07
2.64589e-07
2.12313e-08
2.51148e-08
1.46796e-07
-8.50673e-08
9.81667e-08
1.6861e-07
7.31159e-09
-2.97362e-08
1.6686e-08
2.36171e-07
1.33064e-07
-9.04574e-08
-1.07877e-07
-1.5487e-07
-1.78124e-07
1.3063e-07
9.74259e-08
-2.0367e-07
-4.55226e-08
1.62083e-07
7.30648e-08
-2.55567e-08
-4.25142e-08
-2.62974e-08
1.33965e-08
-1.80378e-08
-1.41994e-07
-1.74346e-07
4.91527e-08
1.34746e-09
-3.0636e-08
1.82687e-07
2.09934e-07
4.56511e-08
2.50573e-09
3.38835e-09
-8.45689e-08
-1.14165e-07
-2.84418e-08
1.28987e-07
5.64864e-08
-8.56116e-08
-1.63331e-07
2.01227e-08
3.01283e-07
1.72651e-07
-7.09398e-08
3.30268e-08
3.58663e-08
-1.49619e-07
2.38287e-08
-3.7835e-08
-1.58894e-07
8.48203e-08
1.17914e-07
1.20944e-07
3.16684e-08
3.74405e-08
2.36663e-07
2.54928e-07
2.97214e-08
2.16335e-08
1.43865e-07
-7.09262e-08
8.86515e-08
1.61227e-07
1.53423e-08
-1.71848e-08
1.55106e-08
2.16521e-07
1.29707e-07
-8.28327e-08
-1.06356e-07
-1.46012e-07
-1.70247e-07
1.15937e-07
9.43854e-08
-1.85522e-07
-4.83469e-08
1.44726e-07
6.96439e-08
-2.10909e-08
-3.9769e-08
-2.52029e-08
1.24137e-08
-1.8429e-08
-1.3307e-07
-1.66547e-07
4.12923e-08
5.83832e-09
-2.61128e-08
1.69033e-07
1.98335e-07
4.52778e-08
6.36069e-09
6.28209e-09
-7.80785e-08
-1.03032e-07
-3.09597e-08
1.11491e-07
5.25711e-08
-7.47402e-08
-1.47239e-07
1.70872e-08
2.79177e-07
1.71863e-07
-5.71159e-08
2.47356e-08
3.42e-08
-1.37302e-07
1.48795e-08
-3.56236e-08
-1.47407e-07
7.88295e-08
1.15543e-07
1.20113e-07
3.84787e-08
4.20363e-08
2.23096e-07
2.44208e-07
3.87646e-08
1.8582e-08
1.40353e-07
-5.58782e-08
7.91803e-08
1.53554e-07
2.30272e-08
-4.66474e-09
1.50208e-08
1.96375e-07
1.25784e-07
-7.47894e-08
-1.04604e-07
-1.36719e-07
-1.61647e-07
1.00672e-07
9.10122e-08
-1.67177e-07
-5.10972e-08
1.27566e-07
6.58648e-08
-1.69173e-08
-3.68674e-08
-2.39864e-08
1.13011e-08
-1.8734e-08
-1.23794e-07
-1.58409e-07
3.33234e-08
1.00665e-08
-2.16413e-08
1.55142e-07
1.86584e-07
4.49921e-08
9.39669e-09
9.27377e-09
-7.13494e-08
-9.24852e-08
-3.3078e-08
9.46775e-08
4.8518e-08
-6.42936e-08
-1.31187e-07
1.46108e-08
2.57201e-07
1.70067e-07
-4.35945e-08
1.70678e-08
3.22115e-08
-1.2498e-07
6.4538e-09
-3.28639e-08
-1.35644e-07
7.26923e-08
1.12843e-07
1.19165e-07
4.53898e-08
4.65637e-08
2.09537e-07
2.32734e-07
4.78867e-08
1.61994e-08
1.36227e-07
-4.0552e-08
7.02356e-08
1.45767e-07
3.00549e-08
7.13272e-09
1.53254e-08
1.765e-07
1.21304e-07
-6.65032e-08
-1.02535e-07
-1.27432e-07
-1.52609e-07
8.5371e-08
8.72456e-08
-1.49196e-07
-5.34642e-08
1.11013e-07
6.17972e-08
-1.312e-08
-3.39107e-08
-2.27574e-08
1.00417e-08
-1.89224e-08
-1.14436e-07
-1.50051e-07
2.55149e-08
1.38721e-08
-1.72033e-08
1.41343e-07
1.74824e-07
4.48246e-08
1.16485e-08
1.22073e-08
-6.45596e-08
-8.26542e-08
-3.46086e-08
7.89807e-08
4.44855e-08
-5.4496e-08
-1.15537e-07
1.27301e-08
2.35857e-07
1.67274e-07
-3.06907e-08
1.0276e-08
2.99045e-08
-1.12826e-07
-1.21756e-09
-2.97968e-08
-1.23805e-07
6.65967e-08
1.09823e-07
1.18041e-07
5.22355e-08
5.10081e-08
1.96293e-07
2.2081e-07
5.66898e-08
1.46011e-08
1.31446e-07
-2.54391e-08
6.21863e-08
1.37971e-07
3.62204e-08
1.77774e-08
1.64398e-08
1.57442e-07
1.16258e-07
-5.81278e-08
-1.00038e-07
-1.1845e-07
-1.43346e-07
7.04998e-08
8.30027e-08
-1.31937e-07
-5.5205e-08
9.52319e-08
5.75277e-08
-9.72671e-09
-3.0961e-08
-2.15706e-08
8.63844e-09
-1.89857e-08
-1.05195e-07
-1.4156e-07
1.80508e-08
1.71475e-08
-1.28094e-08
1.27924e-07
1.63213e-07
4.47627e-08
1.32189e-08
1.49661e-08
-5.78058e-08
-7.35904e-08
-3.54736e-08
6.46276e-08
4.04902e-08
-4.54815e-08
-1.00536e-07
1.14408e-08
2.15487e-07
1.63525e-07
-1.85561e-08
4.51165e-09
2.73574e-08
-1.01024e-07
-7.97786e-09
-2.66398e-08
-1.12097e-07
6.07163e-08
1.06532e-07
1.16686e-07
5.88224e-08
5.52408e-08
1.83668e-07
2.08715e-07
6.48632e-08
1.39311e-08
1.26063e-07
-1.08653e-08
5.52537e-08
1.30284e-07
4.14486e-08
2.7074e-08
1.82804e-08
1.39599e-07
1.10673e-07
-4.98258e-08
-9.70306e-08
-1.09947e-07
-1.34032e-07
5.64097e-08
7.82441e-08
-1.15665e-07
-5.62669e-08
8.03164e-08
5.31554e-08
-6.74254e-09
-2.8057e-08
-2.04374e-08
7.12097e-09
-1.8935e-08
-9.62222e-08
-1.33017e-07
1.106e-08
1.98078e-08
-8.49434e-09
1.15135e-07
1.51854e-07
4.47718e-08
1.422e-08
1.74458e-08
-5.11535e-08
-6.53079e-08
-3.56753e-08
5.1727e-08
3.65334e-08
-3.73211e-08
-8.64077e-08
1.0711e-08
1.96309e-07
1.58902e-07
-7.32251e-09
-1.27498e-10
2.46493e-08
-8.9705e-08
-1.37241e-08
-2.3558e-08
-1.00673e-07
5.51928e-08
1.0305e-07
1.15065e-07
6.49579e-08
5.9183e-08
1.71921e-07
1.96677e-07
7.2179e-08
1.42511e-08
1.20207e-07
2.87444e-09
4.9593e-08
1.22826e-07
4.57552e-08
3.49447e-08
2.07058e-08
1.23224e-07
1.04607e-07
-4.17692e-08
-9.34802e-08
-1.02028e-07
-1.24809e-07
4.33641e-08
7.29854e-08
-1.00574e-07
-5.66506e-08
6.64828e-08
4.87422e-08
-4.18368e-09
-2.52311e-08
-1.93351e-08
5.5317e-09
-1.87928e-08
-8.76306e-08
-1.24488e-07
4.6369e-09
2.18026e-08
-4.30682e-09
1.03162e-07
1.40788e-07
4.48073e-08
1.47599e-08
1.95561e-08
-4.46628e-08
-5.77853e-08
-3.52574e-08
4.0323e-08
3.26386e-08
-3.00604e-08
-7.32894e-08
1.04899e-08
1.78461e-07
1.53526e-07
2.91054e-09
-3.61025e-09
2.18333e-08
-7.89959e-08
-1.83726e-08
-2.06554e-08
-8.96309e-08
5.01236e-08
9.94662e-08
1.13171e-07
7.05009e-08
6.28177e-08
1.61179e-07
1.84883e-07
7.84783e-08
1.55134e-08
1.14015e-07
1.55332e-08
4.52767e-08
1.157e-07
4.9207e-08
4.14036e-08
2.35483e-08
1.08469e-07
9.81426e-08
-3.41185e-08
-8.93945e-08
-9.47451e-08
-1.15801e-07
3.15422e-08
6.72915e-08
-8.67873e-08
-5.63752e-08
5.38279e-08
4.43116e-08
-2.08014e-09
-2.25234e-08
-1.82457e-08
3.91644e-09
-1.85911e-08
-7.95013e-08
-1.16026e-07
-1.14783e-09
2.31214e-08
-3.02269e-10
9.21235e-08
1.30034e-07
4.48277e-08
1.49464e-08
2.12312e-08
-3.8396e-08
-5.09728e-08
-3.42826e-08
3.04086e-08
2.8841e-08
-2.36902e-08
-6.1251e-08
1.07096e-08
1.6202e-07
1.47538e-07
1.20797e-08
-5.96576e-09
1.89665e-08
-6.89859e-08
-2.19215e-08
-1.7981e-08
-7.90454e-08
4.55775e-08
9.58667e-08
1.11022e-07
7.53657e-08
6.61345e-08
1.51473e-07
1.73491e-07
8.36658e-08
1.76023e-08
1.07634e-07
2.69373e-08
4.22864e-08
1.08975e-07
5.18987e-08
4.65275e-08
2.66304e-08
9.54008e-08
9.13924e-08
-2.70064e-08
-8.48211e-08
-8.81045e-08
-1.07103e-07
2.10424e-08
6.12684e-08
-7.43773e-08
-5.54839e-08
4.23951e-08
3.98786e-08
-4.40796e-10
-1.99858e-08
-1.7167e-08
2.31633e-09
-1.83697e-08
-7.18957e-08
-1.07677e-07
-6.2424e-09
2.37965e-08
3.45928e-09
8.20828e-08
1.19624e-07
4.47934e-08
1.48808e-08
2.24376e-08
-3.24151e-08
-4.48038e-08
-3.28161e-08
2.19369e-08
2.51741e-08
-1.81857e-08
-5.03172e-08
1.12897e-08
1.47008e-07
1.41092e-07
2.0156e-08
-7.26804e-09
1.61216e-08
-5.97396e-08
-2.44278e-08
-1.55467e-08
-6.8972e-08
4.16055e-08
9.23243e-08
1.08651e-07
7.9515e-08
6.91235e-08
1.42772e-07
1.62634e-07
8.77081e-08
2.03747e-08
1.01223e-07
3.69876e-08
4.05258e-08
1.02689e-07
5.3963e-08
5.04426e-08
2.97814e-08
8.4018e-08
8.44912e-08
-2.0533e-08
-7.9841e-08
-8.20821e-08
-9.87896e-08
1.18969e-08
5.50483e-08
-6.33649e-08
-5.40432e-08
3.21917e-08
3.54909e-08
7.54095e-10
-1.7674e-08
-1.6104e-08
7.66251e-10
-1.8169e-08
-6.48577e-08
-9.94846e-08
-1.06143e-08
2.38953e-08
6.91699e-09
7.30641e-08
1.09608e-07
4.46631e-08
1.46551e-08
2.31738e-08
-2.67808e-08
-3.91999e-08
-3.09129e-08
1.48338e-08
2.1668e-08
-1.35118e-08
-4.04787e-08
1.21465e-08
1.33414e-07
1.3434e-07
2.71399e-08
-7.62425e-09
1.33805e-08
-5.12936e-08
-2.59734e-08
-1.33426e-08
-5.94541e-08
3.82314e-08
8.88951e-08
1.06097e-07
8.29453e-08
7.17889e-08
1.35012e-07
1.5242e-07
9.06279e-08
2.36788e-08
9.49359e-08
4.56322e-08
3.98482e-08
9.68763e-08
5.55261e-08
5.32957e-08
3.2851e-08
7.42632e-08
7.7581e-08
-1.4767e-08
-7.45587e-08
-7.66206e-08
-9.09127e-08
4.0847e-09
4.87759e-08
-5.37202e-08
-5.21387e-08
2.31975e-08
3.11984e-08
1.54871e-09
-1.56321e-08
-1.50517e-08
-7.02754e-10
-1.8021e-08
-5.84137e-08
-9.14963e-08
-1.42539e-08
2.34955e-08
1.00164e-08
6.50628e-08
1.00052e-07
4.43983e-08
1.435e-08
2.34623e-08
-2.15484e-08
-3.40961e-08
-2.86663e-08
9.00979e-09
1.83573e-08
-9.59187e-09
-3.17096e-08
1.32001e-08
1.2119e-07
1.27424e-07
3.30575e-08
-7.159e-09
1.08242e-08
-4.366e-08
-2.66515e-08
-1.1352e-08
-5.05234e-08
3.54543e-08
8.56214e-08
1.03408e-07
8.56738e-08
7.41307e-08
1.28113e-07
1.4293e-07
9.24928e-08
2.73482e-08
8.89102e-08
5.28671e-08
4.00794e-08
9.15618e-08
5.66874e-08
5.52397e-08
3.57169e-08
6.60386e-08
7.08014e-08
-9.7445e-09
-6.90872e-08
-7.16418e-08
-8.35069e-08
-2.45667e-09
4.25939e-08
-4.53749e-08
-4.9871e-08
1.53652e-08
2.70354e-08
1.98405e-09
-1.38813e-08
-1.39956e-08
-2.06331e-09
-1.79414e-08
-5.25672e-08
-8.37612e-08
-1.71764e-08
2.26766e-08
1.27173e-08
5.8052e-08
9.10124e-08
4.39629e-08
1.40299e-08
2.33414e-08
-1.67631e-08
-2.94438e-08
-2.61654e-08
4.36629e-09
1.52812e-08
-6.35141e-09
-2.39706e-08
1.43778e-08
1.10263e-07
1.2047e-07
3.7956e-08
-6.00259e-09
8.52561e-09
-3.68265e-08
-2.65673e-08
-9.5527e-09
-4.2199e-08
3.32533e-08
8.25332e-08
1.00635e-07
8.7732e-08
7.61436e-08
1.2199e-07
1.34215e-07
9.34029e-08
3.12175e-08
8.32583e-08
5.87304e-08
4.10353e-08
8.67527e-08
5.7533e-08
5.64299e-08
3.82893e-08
5.92127e-08
6.42803e-08
-5.46808e-09
-6.35362e-08
-6.70613e-08
-7.65935e-08
-7.82024e-09
3.66249e-08
-3.82277e-08
-4.73437e-08
8.61998e-09
2.30264e-08
2.09449e-09
-1.24208e-08
-1.2937e-08
-3.29867e-09
-1.79284e-08
-4.73071e-08
-7.63294e-08
-1.94188e-08
2.15122e-08
1.49979e-08
5.19857e-08
8.25478e-08
4.33283e-08
1.37421e-08
2.28645e-08
-1.24564e-08
-2.5204e-08
-2.34863e-08
7.9717e-10
1.24795e-08
-3.7067e-09
-1.72094e-08
1.56143e-08
1.00541e-07
1.13589e-07
4.19001e-08
-4.30035e-09
6.54309e-09
-3.07601e-08
-2.58323e-08
-7.91934e-09
-3.44903e-08
3.15913e-08
7.96484e-08
9.78294e-08
8.91636e-08
7.78359e-08
1.16555e-07
1.263e-07
9.34789e-08
3.51417e-08
7.80633e-08
6.32953e-08
4.25309e-08
8.24419e-08
5.81368e-08
5.70167e-08
4.05072e-08
5.36337e-08
5.81281e-08
-1.91536e-09
-5.80048e-08
-6.27968e-08
-7.01821e-08
-1.21199e-08
3.0958e-08
-3.21817e-08
-4.46493e-08
2.87328e-09
1.9191e-08
1.92256e-09
-1.12335e-08
-1.18871e-08
-4.39535e-09
-1.79665e-08
-4.26144e-08
-6.92471e-08
-2.10317e-08
2.0079e-08
1.68524e-08
4.67995e-08
7.46922e-08
4.24748e-08
1.35204e-08
2.20969e-08
-8.64441e-09
-2.13487e-08
-2.07117e-08
-1.8086e-09
9.98806e-09
-1.57227e-09
-1.13622e-08
1.68542e-08
9.19181e-08
1.06872e-07
4.49683e-08
-2.17842e-09
4.91182e-09
-2.54128e-08
-2.45568e-08
-6.41579e-09
-2.73965e-08
3.04177e-08
7.69731e-08
9.50407e-08
9.00218e-08
7.9214e-08
1.11727e-07
1.19182e-07
9.28526e-08
3.89921e-08
7.33824e-08
6.66598e-08
4.43903e-08
7.86236e-08
5.85553e-08
5.71386e-08
4.23371e-08
4.91403e-08
5.24295e-08
9.56528e-10
-5.25801e-08
-5.87798e-08
-6.42717e-08
-1.54797e-08
2.56543e-08
-2.71251e-08
-4.18633e-08
-1.96952e-09
1.5546e-08
1.52072e-09
-1.02948e-08
-1.08589e-08
-5.3438e-09
-1.80316e-08
-3.84627e-08
-6.25544e-08
-2.20721e-08
1.84562e-08
1.82874e-08
4.24142e-08
6.74631e-08
4.13992e-08
1.33844e-08
2.11084e-08
-5.32708e-09
-1.7857e-08
-1.79178e-08
-3.56632e-09
7.83825e-09
1.33595e-10
-6.35431e-09
1.80533e-08
8.42833e-08
1.0039e-07
4.72473e-08
2.39535e-10
3.65567e-09
-2.07264e-08
-2.28458e-08
-5.00801e-09
-2.09075e-08
2.96707e-08
7.45019e-08
9.23173e-08
9.03677e-08
8.02849e-08
1.07428e-07
1.12836e-07
9.16594e-08
4.26567e-08
6.9249e-08
6.89429e-08
4.64616e-08
7.52819e-08
5.88273e-08
5.69204e-08
4.3775e-08
4.55748e-08
4.72439e-08
3.20999e-09
-4.73364e-08
-5.49591e-08
-5.88515e-08
-1.80253e-08
2.07488e-08
-2.29362e-08
-3.90471e-08
-6.00239e-09
1.21037e-08
9.42855e-10
-9.57914e-09
-9.88135e-09
-6.14031e-09
-1.80955e-08
-3.48184e-08
-5.62819e-08
-2.26006e-08
1.67178e-08
1.93205e-08
3.87406e-08
6.08731e-08
4.01204e-08
1.33347e-08
1.99681e-08
-2.49033e-09
-1.47097e-08
-1.5172e-08
-4.59526e-09
6.05313e-09
1.48637e-09
-2.1045e-09
1.91805e-08
7.7525e-08
9.41953e-08
4.88276e-08
2.83463e-09
2.7856e-09
-1.66362e-08
-2.07971e-08
-3.66408e-09
-1.50054e-08
2.9283e-08
7.22199e-08
8.97015e-08
9.02701e-08
8.10636e-08
1.03585e-07
1.07222e-07
9.00327e-08
4.60539e-08
6.56739e-08
7.02766e-08
4.86041e-08
7.23856e-08
5.89768e-08
5.64718e-08
4.48364e-08
4.27816e-08
4.26051e-08
4.92105e-09
-4.23331e-08
-5.1299e-08
-5.3901e-08
-1.98779e-08
1.62625e-08
-1.94957e-08
-3.62557e-08
-9.31011e-09
8.87495e-09
2.39025e-10
-9.06269e-09
-8.98912e-09
-6.78656e-09
-1.81307e-08
-3.16432e-08
-5.04521e-08
-2.26806e-08
1.49295e-08
1.99786e-08
3.56849e-08
5.49249e-08
3.86651e-08
1.33602e-08
1.87421e-08
-1.07565e-10
-1.18879e-08
-1.25341e-08
-5.01768e-09
4.64559e-09
2.55862e-09
1.47141e-09
2.02147e-08
7.15363e-08
8.83225e-08
4.98026e-08
5.51615e-09
2.29395e-09
-1.3074e-08
-1.85002e-08
-2.3545e-09
-9.66505e-09
2.9187e-08
7.0106e-08
8.72263e-08
8.98039e-08
8.15701e-08
1.00127e-07
1.02281e-07
8.80975e-08
4.91247e-08
6.26508e-08
7.08011e-08
5.07002e-08
6.9892e-08
5.90152e-08
5.58846e-08
4.5552e-08
4.06181e-08
3.85233e-08
6.16907e-09
-3.76134e-08
-4.77771e-08
-4.93931e-08
-2.11498e-08
1.2203e-08
-1.66951e-08
-3.35348e-08
-1.19668e-08
5.87314e-09
-5.46121e-10
-8.71937e-09
-8.21576e-09
-7.29094e-09
-1.81137e-08
-2.88939e-08
-4.50766e-08
-2.23783e-08
1.31468e-08
2.02963e-08
3.31538e-08
4.96048e-08
3.70683e-08
1.34466e-08
1.7485e-08
1.85716e-09
-9.37224e-09
-1.00544e-08
-4.9529e-09
3.6193e-09
3.41967e-09
4.45577e-09
2.11396e-08
6.62199e-08
8.27922e-08
5.02658e-08
8.20481e-09
2.15837e-09
-9.9711e-09
-1.60346e-08
-1.05683e-09
-4.8545e-09
2.93206e-08
6.81387e-08
8.49101e-08
8.90449e-08
8.18285e-08
9.69934e-08
9.79472e-08
8.59666e-08
5.18316e-08
6.01565e-08
7.06597e-08
5.26511e-08
6.77545e-08
5.8955e-08
5.52294e-08
4.59624e-08
3.89558e-08
3.49882e-08
7.0349e-09
-3.32051e-08
-4.4382e-08
-4.52958e-08
-2.19412e-08
8.56322e-09
-1.4434e-08
-3.09179e-08
-1.4043e-08
3.10528e-09
-1.37294e-09
-8.5183e-09
-7.58796e-09
-7.66736e-09
-1.8027e-08
-2.65276e-08
-4.0157e-08
-2.17608e-08
1.14104e-08
2.03158e-08
3.1057e-08
4.48858e-08
3.53706e-08
1.35777e-08
1.62415e-08
3.44807e-09
-7.14084e-09
-7.77024e-09
-4.50618e-09
2.9606e-09
4.13076e-09
6.92571e-09
2.19441e-08
6.14892e-08
7.76109e-08
5.03067e-08
1.08375e-08
2.34714e-09
-7.25951e-09
-1.34707e-08
2.45641e-10
-5.35559e-10
2.96308e-08
6.63017e-08
8.27563e-08
8.80642e-08
8.1867e-08
9.41278e-08
9.41507e-08
8.37368e-08
5.41599e-08
5.81533e-08
6.99899e-08
5.43832e-08
6.5926e-08
5.88104e-08
5.45549e-08
4.61143e-08
3.76844e-08
3.19743e-08
7.59799e-09
-2.91221e-08
-4.11106e-08
-4.15747e-08
-2.2339e-08
5.3276e-09
-1.26224e-08
-2.84246e-08
-1.56084e-08
5.71514e-10
-2.20702e-09
-8.42375e-09
-7.12271e-09
-7.93276e-09
-1.7858e-08
-2.45028e-08
-3.56853e-08
-2.08916e-08
9.74974e-09
2.00823e-08
2.93116e-08
4.07304e-08
3.36134e-08
1.37424e-08
1.50443e-08
4.70953e-09
-5.16817e-09
-5.70563e-09
-3.76894e-09
2.63751e-09
4.74531e-09
8.95273e-09
2.26269e-08
5.72686e-08
7.27728e-08
5.00071e-08
1.33695e-08
2.82241e-09
-4.87757e-09
-1.08683e-08
1.56068e-09
3.33552e-09
3.00738e-08
6.45785e-08
8.07572e-08
8.6923e-08
8.17185e-08
9.1484e-08
9.08202e-08
8.14868e-08
5.61134e-08
5.65931e-08
6.89127e-08
5.5849e-08
6.43603e-08
5.85913e-08
5.38893e-08
4.6057e-08
3.67127e-08
2.94454e-08
7.93152e-09
-2.53663e-08
-3.79651e-08
-3.81935e-08
-2.24161e-08
2.47094e-09
-1.11811e-08
-2.60628e-08
-1.67289e-08
-1.73281e-09
-3.02153e-09
-8.40222e-09
-6.82733e-09
2.69198e-07
1.11104e-07
-1.7115e-07
-1.29612e-07
-6.13025e-08
-1.93426e-07
1.83599e-09
3.80121e-07
6.4929e-08
-2.45528e-07
5.73403e-08
-3.2978e-08
-8.76306e-08
2.7591e-07
4.30256e-08
-2.2508e-07
6.31924e-08
9.93439e-09
-2.81479e-07
6.88918e-09
3.38836e-07
3.39113e-07
8.32311e-08
-6.5814e-08
-7.47564e-08
-7.47956e-08
-3.52903e-08
-1.66403e-07
4.53664e-08
8.85039e-08
1.45229e-07
1.79948e-07
-1.51241e-07
1.04237e-07
3.97744e-07
1.60345e-07
-1.48958e-07
-1.2222e-07
1.55083e-07
9.09288e-08
1.43096e-07
8.63573e-08
5.46987e-08
1.83254e-07
2.2448e-08
3.51136e-08
6.54952e-09
-4.34761e-08
-1.20309e-07
-3.14335e-07
-7.85727e-08
3.08235e-07
-2.43998e-08
-2.00398e-09
6.99887e-08
-2.47795e-07
-5.6569e-08
1.99362e-07
-8.41693e-08
-1.04947e-07
2.46276e-07
9.43231e-08
-1.68538e-07
-1.29685e-07
-5.96062e-08
-1.72164e-07
1.61558e-08
3.5619e-07
4.97615e-08
-2.24015e-07
5.57976e-08
-3.09251e-08
-7.08538e-08
2.52597e-07
2.73033e-08
-2.03334e-07
6.01674e-08
-7.42237e-09
-2.58952e-07
2.29706e-08
3.34817e-07
3.18364e-07
6.6532e-08
-6.35424e-08
-7.3536e-08
-7.50456e-08
-3.3367e-08
-1.46962e-07
4.29926e-08
8.82904e-08
1.42685e-07
1.62303e-07
-1.27876e-07
1.1917e-07
3.74679e-07
1.43175e-07
-1.45025e-07
-1.03092e-07
1.53617e-07
9.07314e-08
1.42651e-07
8.74017e-08
5.28469e-08
1.64329e-07
2.41381e-08
3.56678e-08
7.18405e-09
-4.30611e-08
-1.1823e-07
-2.93106e-07
-6.49711e-08
2.86124e-07
-2.25414e-08
-3.91734e-09
5.25143e-08
-2.24595e-07
-4.12912e-08
1.77368e-07
-8.05163e-08
-8.78302e-08
2.32039e-07
9.058e-08
-1.63369e-07
-1.29343e-07
-5.62276e-08
-1.60842e-07
1.56129e-08
3.40595e-07
4.90558e-08
-2.13378e-07
5.28249e-08
-2.70635e-08
-6.72556e-08
2.38888e-07
2.62801e-08
-1.92496e-07
5.40954e-08
-1.1198e-08
-2.44846e-07
2.61988e-08
3.26559e-07
3.07316e-07
6.31562e-08
-5.88966e-08
-7.14237e-08
-7.56366e-08
-2.95621e-08
-1.39313e-07
3.91543e-08
8.77605e-08
1.37875e-07
1.58137e-07
-1.1367e-07
1.19752e-07
3.59876e-07
1.39008e-07
-1.3682e-07
-9.59269e-08
1.50683e-07
8.95637e-08
1.41803e-07
8.8809e-08
4.93285e-08
1.57254e-07
2.73944e-08
3.63669e-08
7.8918e-09
-4.28473e-08
-1.14063e-07
-2.81658e-07
-6.65234e-08
2.74406e-07
-1.91443e-08
-7.22941e-09
4.86377e-08
-2.10436e-07
-4.05614e-08
1.65667e-07
-7.35551e-08
-8.34658e-08
2.16878e-07
8.91799e-08
-1.56352e-07
-1.28618e-07
-5.25309e-08
-1.49755e-07
1.16172e-08
3.23512e-07
5.20839e-08
-2.03028e-07
4.83985e-08
-2.20594e-08
-6.60566e-08
2.24479e-07
2.89818e-08
-1.818e-07
4.6152e-08
-1.19835e-08
-2.3005e-07
2.65942e-08
3.15482e-07
2.96524e-07
6.26829e-08
-5.34905e-08
-6.86279e-08
-7.55383e-08
-2.51933e-08
-1.32922e-07
3.45911e-08
8.72528e-08
1.3211e-07
1.56222e-07
-9.90533e-08
1.16502e-07
3.44372e-07
1.37512e-07
-1.25834e-07
-9.03922e-08
1.46639e-07
8.8268e-08
1.40011e-07
9.03006e-08
4.56466e-08
1.51589e-07
3.15516e-08
3.70076e-08
8.60202e-09
-4.28155e-08
-1.09117e-07
-2.69948e-07
-7.18084e-08
2.62256e-07
-1.43946e-08
-1.14914e-08
4.70816e-08
-1.95534e-07
-4.31212e-08
1.53971e-07
-6.48992e-08
-8.11295e-08
1.99341e-07
8.73614e-08
-1.47867e-07
-1.27451e-07
-4.86884e-08
-1.36872e-07
7.3866e-09
3.03615e-07
5.56931e-08
-1.91275e-07
4.2858e-08
-1.61957e-08
-6.46514e-08
2.07286e-07
3.23975e-08
-1.69478e-07
3.71043e-08
-1.23201e-08
-2.13121e-07
2.67945e-08
3.0229e-07
2.83984e-07
6.22185e-08
-4.79471e-08
-6.50619e-08
-7.48097e-08
-2.05722e-08
-1.25304e-07
2.95493e-08
8.67448e-08
1.25782e-07
1.53809e-07
-8.27303e-08
1.12466e-07
3.26911e-07
1.35857e-07
-1.13124e-07
-8.41301e-08
1.41816e-07
8.70277e-08
1.37201e-07
9.20908e-08
4.20633e-08
1.45064e-07
3.61785e-08
3.76309e-08
9.46073e-09
-4.27086e-08
-1.03711e-07
-2.56008e-07
-7.7602e-08
2.47855e-07
-8.68116e-09
-1.70593e-08
4.52148e-08
-1.77932e-07
-4.59067e-08
1.40534e-07
-5.52909e-08
-7.82904e-08
1.80185e-07
8.49372e-08
-1.38297e-07
-1.25856e-07
-4.4913e-08
-1.22679e-07
3.46926e-09
2.81779e-07
5.94478e-08
-1.78553e-07
3.64639e-08
-9.85723e-09
-6.29122e-08
1.88221e-07
3.61149e-08
-1.55973e-07
2.76008e-08
-1.23568e-08
-1.94883e-07
2.68387e-08
2.8768e-07
2.70315e-07
6.1619e-08
-4.26623e-08
-6.08057e-08
-7.35359e-08
-1.59584e-08
-1.16475e-07
2.42735e-08
8.61934e-08
1.19262e-07
1.50783e-07
-6.54711e-08
1.08049e-07
3.08247e-07
1.33969e-07
-9.94495e-08
-7.74428e-08
1.36465e-07
8.59029e-08
1.33484e-07
9.41792e-08
3.87774e-08
1.37776e-07
4.08863e-08
3.82638e-08
1.05215e-08
-4.23614e-08
-9.80566e-08
-2.40295e-07
-8.33703e-08
2.31461e-07
-2.32136e-09
-2.28066e-08
4.28314e-08
-1.5909e-07
-4.84388e-08
1.25907e-07
-4.5396e-08
-7.48867e-08
1.60402e-07
8.19584e-08
-1.28042e-07
-1.23863e-07
-4.15131e-08
-1.08081e-07
6.89455e-11
2.59107e-07
6.33054e-08
-1.65304e-07
2.9448e-08
-3.52096e-09
-6.08536e-08
1.68852e-07
3.99393e-08
-1.41927e-07
1.81948e-08
-1.21015e-08
-1.76298e-07
2.65352e-08
2.72297e-07
2.56503e-07
6.1054e-08
-3.79001e-08
-5.608e-08
-7.18482e-08
-1.17437e-08
-1.06766e-07
1.9041e-08
8.55771e-08
1.1299e-07
1.47325e-07
-4.8228e-08
1.03301e-07
2.89317e-07
1.32195e-07
-8.53845e-08
-7.0769e-08
1.30699e-07
8.48608e-08
1.29e-07
9.63767e-08
3.60964e-08
1.30054e-07
4.53391e-08
3.8878e-08
1.17287e-08
-4.17128e-08
-9.24053e-08
-2.23524e-07
-8.87903e-08
2.13857e-07
4.46569e-09
-2.8143e-08
3.9865e-08
-1.40361e-07
-5.04452e-08
1.10845e-07
-3.57926e-08
-7.10234e-08
1.40715e-07
7.83696e-08
-1.17425e-07
-1.21442e-07
-3.87378e-08
-9.35818e-08
-2.66939e-09
2.36541e-07
6.71339e-08
-1.51753e-07
2.20838e-08
2.39795e-09
-5.83824e-08
1.49808e-07
4.3599e-08
-1.27823e-07
9.33575e-09
-1.16911e-08
-1.58043e-07
2.59049e-08
2.56571e-07
2.43004e-07
6.05889e-08
-3.37441e-08
-5.10931e-08
-6.98411e-08
-8.21025e-09
-9.64781e-08
1.40762e-08
8.48555e-08
1.07315e-07
1.43546e-07
-3.16331e-08
9.83139e-08
2.70728e-07
1.30701e-07
-7.12863e-08
-6.41542e-08
1.24566e-07
8.3968e-08
1.23847e-07
9.84948e-08
3.42705e-08
1.22134e-07
4.93143e-08
3.94402e-08
1.29874e-08
-4.07505e-08
-8.70014e-08
-2.0626e-07
-9.34725e-08
1.95451e-07
1.14457e-08
-3.27038e-08
3.62457e-08
-1.22391e-07
-5.16788e-08
9.58494e-08
-2.69369e-08
-6.66968e-08
1.21646e-07
7.41275e-08
-1.06703e-07
-1.18516e-07
-3.66823e-08
-7.96446e-08
-4.69813e-09
2.14529e-07
7.07269e-08
-1.38014e-07
1.46695e-08
7.6106e-09
-5.54414e-08
1.31401e-07
4.67279e-08
-1.13982e-07
1.3523e-09
-1.12462e-08
-1.40511e-07
2.50399e-08
2.4076e-07
2.29964e-07
6.02719e-08
-3.01547e-08
-4.60133e-08
-6.7519e-08
-5.41709e-09
-8.59009e-08
9.55206e-09
8.39605e-08
1.02412e-07
1.39545e-07
-1.60412e-08
9.32776e-08
2.52784e-07
1.29269e-07
-5.73351e-08
-5.74472e-08
1.18167e-07
8.32236e-08
1.18164e-07
1.00335e-07
3.34232e-08
1.14224e-07
5.27004e-08
3.99384e-08
1.42181e-08
-3.94685e-08
-8.20055e-08
-1.88974e-07
-9.71108e-08
1.76591e-07
1.8346e-08
-3.62227e-08
3.20237e-08
-1.05523e-07
-5.20335e-08
8.13246e-08
-1.91387e-08
-6.19355e-08
1.03567e-07
6.92456e-08
-9.61008e-08
-1.15013e-07
-3.53185e-08
-6.66451e-08
-6.0131e-09
1.93389e-07
7.38535e-08
-1.24164e-07
7.49187e-09
1.19427e-08
-5.20443e-08
1.13867e-07
4.9101e-08
-1.00585e-07
-5.54654e-09
-1.08203e-08
-1.23848e-07
2.40138e-08
2.25048e-07
2.17429e-07
6.01345e-08
-2.70419e-08
-4.10136e-08
-6.48298e-08
-3.38024e-09
-7.53007e-08
5.60724e-09
8.28039e-08
9.83149e-08
1.35419e-07
-1.62468e-09
8.84579e-08
2.35603e-07
1.27791e-07
-4.36772e-08
-5.07163e-08
1.11622e-07
8.26044e-08
1.12149e-07
1.01701e-07
3.35548e-08
1.06519e-07
5.54548e-08
4.03417e-08
1.53719e-08
-3.78613e-08
-7.74721e-08
-1.72062e-07
-9.95146e-08
1.57601e-07
2.48695e-08
-3.85496e-08
2.73436e-08
-9.00009e-08
-5.15167e-08
6.75369e-08
-1.25743e-08
-5.68337e-08
8.67886e-08
6.378e-08
-8.5827e-08
-1.10903e-07
-3.45564e-08
-5.48239e-08
-6.62241e-09
1.73344e-07
7.63153e-08
-1.10312e-07
7.98448e-10
1.53011e-08
-4.82536e-08
9.73935e-08
5.06183e-08
-8.77505e-08
-1.12488e-08
-1.04243e-08
-1.08162e-07
2.28849e-08
2.09602e-07
2.05409e-07
6.01663e-08
-2.43211e-08
-3.62368e-08
-6.17354e-08
-2.04182e-09
-6.48971e-08
2.33626e-09
8.13202e-08
9.4971e-08
1.31243e-07
1.15277e-08
8.4047e-08
2.1926e-07
1.26214e-07
-3.04843e-08
-4.3994e-08
1.05046e-07
8.2088e-08
1.05977e-07
1.02433e-07
3.45193e-08
9.91857e-08
5.75711e-08
4.06415e-08
1.64223e-08
-3.59353e-08
-7.34084e-08
-1.55841e-07
-1.00597e-07
1.38738e-07
3.07408e-08
-3.9639e-08
2.23872e-08
-7.60033e-08
-5.0192e-08
5.47092e-08
-7.3117e-09
-5.15087e-08
7.14973e-08
5.78257e-08
-7.60698e-08
-1.06212e-07
-3.42661e-08
-4.43094e-08
-6.56814e-09
1.54557e-07
7.79856e-08
-9.66057e-08
-5.21373e-09
1.76613e-08
-4.41519e-08
8.21536e-08
5.12484e-08
-7.5581e-08
-1.57149e-08
-1.00306e-08
-9.35631e-08
2.17316e-08
1.94575e-07
1.93886e-07
6.03198e-08
-2.19052e-08
-3.17715e-08
-5.82412e-08
-1.31868e-09
-5.48697e-08
-2.08161e-10
7.94893e-08
9.22802e-08
1.27066e-07
2.33764e-08
8.01495e-08
2.03817e-07
1.24498e-07
-1.79244e-08
-3.72666e-08
9.8565e-08
8.16448e-08
9.98181e-08
1.02439e-07
3.61513e-08
9.23534e-08
5.90688e-08
4.08462e-08
1.7357e-08
-3.37155e-08
-6.97806e-08
-1.40545e-07
-1.00358e-07
1.20265e-07
3.57395e-08
-3.95335e-08
1.73364e-08
-6.3645e-08
-4.81561e-08
4.30322e-08
-3.33641e-09
-4.60897e-08
5.78052e-08
5.15114e-08
-6.69819e-08
-1.01003e-07
-3.43068e-08
-3.51555e-08
-5.92898e-09
1.3715e-07
7.88119e-08
-8.32221e-08
-1.04003e-08
1.90657e-08
-3.98334e-08
6.82645e-08
5.10073e-08
-6.41698e-08
-1.89653e-08
-9.63036e-09
-8.01169e-08
2.0641e-08
1.80098e-07
1.82827e-07
6.0543e-08
-1.96845e-08
-2.76759e-08
-5.43909e-08
-1.07947e-09
-4.53711e-08
-2.00225e-09
7.7325e-08
9.01213e-08
1.22935e-07
3.39201e-08
7.68202e-08
1.89322e-07
1.22611e-07
-6.13122e-09
-3.05168e-08
9.22893e-08
8.12308e-08
9.38374e-08
1.01701e-07
3.82795e-08
8.61049e-08
5.99893e-08
4.09666e-08
1.81687e-08
-3.12447e-08
-6.65173e-08
-1.26361e-07
-9.88704e-08
1.02443e-07
3.97057e-08
-3.83447e-08
1.23615e-08
-5.29664e-08
-4.55331e-08
3.26308e-08
-5.6721e-10
-4.07133e-08
4.57447e-08
4.49842e-08
-5.86748e-08
-9.53652e-08
-3.4544e-08
-2.73646e-08
-4.80379e-09
1.21207e-07
7.87865e-08
-7.03323e-08
-1.46625e-08
1.96004e-08
-3.54016e-08
5.57852e-08
4.99381e-08
-5.3591e-08
-2.10657e-08
-9.21061e-09
-6.78433e-08
1.96815e-08
1.66275e-07
1.722e-07
6.07915e-08
-1.75569e-08
-2.39839e-08
-5.02551e-08
-1.1854e-09
-3.65264e-08
-3.04894e-09
7.48643e-08
8.83692e-08
1.18897e-07
4.31902e-08
7.40804e-08
1.75807e-07
1.20535e-07
4.80116e-09
-2.37429e-08
8.63077e-08
8.07919e-08
8.81782e-08
1.00263e-07
4.07e-08
8.04837e-08
6.03892e-08
4.10115e-08
1.88522e-08
-2.85789e-08
-6.352e-08
-1.13404e-07
-9.62605e-08
8.55229e-08
4.25416e-08
-3.62239e-08
7.61726e-09
-4.39323e-08
-4.24695e-08
2.3559e-08
1.13232e-09
-3.55116e-08
3.52921e-08
3.83959e-08
-5.12241e-08
-8.94134e-08
-3.4859e-08
-2.09021e-08
-3.30195e-09
1.0677e-07
7.79361e-08
-5.8091e-08
-1.79433e-08
1.93839e-08
-3.09595e-08
4.47273e-08
4.80953e-08
-4.38983e-08
-2.21137e-08
-8.75e-09
-5.67276e-08
1.88961e-08
1.53176e-07
1.61984e-07
6.10266e-08
-1.54293e-08