/*--------------------------------*- C++ -*----------------------------------*\
| =========                 |                                                 |
| \\      /  F ield         | OpenFOAM: The Open Source CFD Toolbox           |
|  \\    /   O peration     | Version:  2312                                  |
|   \\  /    A nd           | Website:  www.openfoam.com                      |
|    \\/     M anipulation  |                                                 |
\*---------------------------------------------------------------------------*/
FoamFile
{
    version     2.0;
    format      ascii;
    arch        "LSB;label=32;scalar=64";
    class       volScalarField;
    location    "600";
    object      pPrime2Mean;
}
// * * * * * * * * * * * * * * * * * * * * * * * * * * * * * * * * * * * * * //

dimensions      [0 4 -4 0 0 0 0];

internalField   nonuniform List<scalar> 
144000
(
8.36599e-16
6.66716e-16
8.97219e-15
2.10837e-14
7.54382e-15
7.72206e-16
8.68417e-15
1.33088e-14
2.25669e-14
8.96097e-15
4.66862e-15
1.02142e-15
2.84433e-15
1.58686e-14
9.92876e-15
1.84344e-14
5.91284e-15
8.40914e-15
2.97295e-14
2.25412e-14
5.84225e-14
2.16669e-14
1.8608e-14
4.42368e-16
7.77146e-15
2.10545e-14
3.1287e-15
2.0792e-15
2.21984e-14
5.47616e-15
5.26398e-15
3.06084e-15
6.62464e-16
5.96581e-15
1.14911e-14
2.05119e-14
6.72782e-15
3.0892e-16
1.10422e-14
1.13143e-14
1.44866e-15
1.3398e-14
5.978e-15
1.16322e-14
3.26226e-15
2.65807e-14
2.10544e-14
1.38153e-14
9.21469e-15
1.07564e-14
1.64202e-14
1.30957e-14
1.19674e-14
2.25529e-14
9.70643e-15
2.39644e-14
1.19727e-14
2.56244e-15
2.31387e-15
3.03173e-16
8.13786e-16
6.32266e-16
8.54073e-15
1.62388e-14
6.83698e-15
8.2749e-16
5.99229e-15
1.24554e-14
1.72386e-14
6.0641e-15
4.31472e-15
1.0217e-15
2.69081e-15
1.13877e-14
6.93497e-15
1.36878e-14
3.2502e-15
7.76644e-15
2.31581e-14
1.90221e-14
4.89277e-14
1.63747e-14
1.4097e-14
3.50272e-16
5.34769e-15
1.60007e-14
2.60986e-15
1.1797e-15
1.72351e-14
5.02716e-15
5.12098e-15
2.97234e-15
6.05514e-16
3.47648e-15
1.07206e-14
1.57355e-14
6.02293e-15
3.42024e-16
7.8627e-15
8.08515e-15
1.31295e-15
9.67392e-15
5.41574e-15
8.05297e-15
1.68393e-15
2.03883e-14
1.59254e-14
1.28782e-14
9.10611e-15
1.02873e-14
1.22526e-14
1.18627e-14
8.22318e-15
1.70433e-14
6.45821e-15
1.83774e-14
8.05765e-15
2.2658e-15
2.21869e-15
2.85527e-16
7.59176e-16
5.82616e-16
7.45725e-15
1.33068e-14
5.43043e-15
9.27203e-16
4.23065e-15
1.03046e-14
1.3776e-14
4.0599e-15
3.21499e-15
9.21145e-16
2.31989e-15
8.59426e-15
4.69182e-15
9.58533e-15
2.02611e-15
5.9059e-15
1.83654e-14
1.45375e-14
3.93771e-14
1.31561e-14
1.06742e-14
2.85811e-16
3.63152e-15
1.27164e-14
1.76582e-15
8.60531e-16
1.40699e-14
4.32952e-15
4.70728e-15
2.74415e-15
4.60006e-16
2.14164e-15
8.81806e-15
1.30101e-14
4.68565e-15
4.43888e-16
5.83484e-15
6.15565e-15
1.06239e-15
7.50195e-15
4.18759e-15
5.74176e-15
7.62876e-16
1.54187e-14
1.24938e-14
1.07695e-14
8.57427e-15
9.01966e-15
9.90471e-15
8.99501e-15
6.41461e-15
1.27448e-14
4.40259e-15
1.35927e-14
6.15609e-15
1.59481e-15
1.80793e-15
2.62742e-16
6.8056e-16
4.97951e-16
6.34045e-15
1.11716e-14
4.1227e-15
1.01741e-15
3.02925e-15
8.18538e-15
1.12473e-14
2.72779e-15
2.19704e-15
7.69502e-16
1.92522e-15
6.66162e-15
3.19036e-15
6.56674e-15
1.39322e-15
4.27291e-15
1.46708e-14
1.07237e-14
3.15617e-14
1.10542e-14
7.94091e-15
4.37915e-16
2.43286e-15
1.02506e-14
1.17657e-15
7.80488e-16
1.17258e-14
3.63249e-15
4.23891e-15
2.52817e-15
3.53443e-16
1.35942e-15
7.02429e-15
1.10335e-14
3.44056e-15
5.9632e-16
4.4373e-15
4.68025e-15
9.28527e-16
6.03631e-15
3.1246e-15
4.18036e-15
3.89006e-16
1.16808e-14
9.99862e-15
8.61371e-15
7.87277e-15
7.73984e-15
8.24871e-15
6.34729e-15
5.308e-15
9.49758e-15
3.14052e-15
9.91225e-15
5.01465e-15
1.01094e-15
1.34802e-15
2.36636e-16
5.93127e-16
4.01393e-16
5.27598e-15
9.40348e-15
3.12859e-15
1.0676e-15
2.20098e-15
6.40129e-15
9.1742e-15
1.88693e-15
1.48916e-15
6.25514e-16
1.55813e-15
5.11266e-15
2.30194e-15
4.35392e-15
1.00207e-15
3.09789e-15
1.15648e-14
8.0107e-15
2.50711e-14
9.57928e-15
5.78158e-15
6.61583e-16
1.65233e-15
8.19924e-15
9.01909e-16
7.84257e-16
9.74586e-15
3.04117e-15
3.77557e-15
2.34214e-15
2.86652e-16
8.66077e-16
5.59478e-15
9.31319e-15
2.50244e-15
7.45407e-16
3.46208e-15
3.45427e-15
8.59195e-16
4.90791e-15
2.40864e-15
3.09061e-15
3.5085e-16
8.74742e-15
8.08354e-15
6.86039e-15
7.13766e-15
6.57969e-15
6.86382e-15
4.31036e-15
4.44774e-15
6.96421e-15
2.3941e-15
7.05785e-15
4.13803e-15
6.54595e-16
9.7385e-16
2.10392e-16
5.08188e-16
3.10536e-16
4.27647e-15
7.89352e-15
2.38455e-15
1.08039e-15
1.63364e-15
4.91222e-15
7.42063e-15
1.35928e-15
1.01751e-15
4.97678e-16
1.22495e-15
3.86327e-15
1.78408e-15
2.74996e-15
7.39842e-16
2.26141e-15
8.97377e-15
6.09619e-15
1.95394e-14
8.43382e-15
4.05208e-15
8.68136e-16
1.14892e-15
6.45387e-15
8.26986e-16
7.91682e-16
8.03681e-15
2.55601e-15
3.32711e-15
2.16843e-15
2.54532e-16
5.54746e-16
4.44365e-15
7.7702e-15
1.82504e-15
8.60655e-16
2.75707e-15
2.43048e-15
8.15848e-16
4.02166e-15
1.93862e-15
2.30279e-15
4.43615e-16
6.46074e-15
6.59592e-15
5.47229e-15
6.40413e-15
5.5395e-15
5.66981e-15
2.79717e-15
3.71916e-15
4.96477e-15
1.94016e-15
4.85636e-15
3.41061e-15
4.66443e-16
6.79479e-16
1.84804e-16
4.31716e-16
2.3237e-16
3.37979e-15
6.59349e-15
1.83277e-15
1.06947e-15
1.24094e-15
3.68317e-15
5.9352e-15
1.02026e-15
7.01616e-16
3.9224e-16
9.33604e-16
2.8822e-15
1.4627e-15
1.64758e-15
5.57056e-16
1.6655e-15
6.87451e-15
4.70041e-15
1.49913e-14
7.46591e-15
2.73166e-15
1.02817e-15
8.16663e-16
4.99044e-15
8.56634e-16
7.79402e-16
6.57096e-15
2.16082e-15
2.90116e-15
2.00121e-15
2.55084e-16
3.59907e-16
3.50819e-15
6.39448e-15
1.35552e-15
9.32226e-16
2.21907e-15
1.63512e-15
7.90135e-16
3.31795e-15
1.6247e-15
1.7567e-15
5.65682e-16
4.7545e-15
5.41833e-15
4.36916e-15
5.69214e-15
4.63461e-15
4.64139e-15
1.6969e-15
3.07902e-15
3.44391e-15
1.64168e-15
3.2199e-15
2.7927e-15
3.77724e-16
4.60144e-16
1.6095e-16
3.6435e-16
1.70126e-16
2.61484e-15
5.47406e-15
1.43798e-15
1.04042e-15
9.66445e-16
2.70006e-15
4.68893e-15
7.98399e-16
4.90717e-16
3.10411e-16
6.90808e-16
2.13036e-15
1.24193e-15
9.44382e-16
4.28969e-16
1.24587e-15
5.21585e-15
3.6667e-15
1.13474e-14
6.59291e-15
1.78145e-15
1.12748e-15
5.986e-16
3.78807e-15
9.30505e-16
7.50826e-16
5.32777e-15
1.84493e-15
2.50654e-15
1.8379e-15
2.83631e-16
2.42961e-16
2.75931e-15
5.19394e-15
1.05472e-15
9.54418e-16
1.79253e-15
1.06987e-15
7.75263e-16
2.75329e-15
1.41574e-15
1.41287e-15
6.7483e-16
3.53849e-15
4.47193e-15
3.50332e-15
5.0116e-15
3.8727e-15
3.7649e-15
9.41903e-16
2.50777e-15
2.33253e-15
1.42008e-15
2.04412e-15
2.26124e-15
3.42898e-16
3.06012e-16
1.40473e-16
3.04491e-16
1.22573e-16
1.98435e-15
4.50971e-15
1.16707e-15
9.94842e-16
7.74769e-16
1.94322e-15
3.66036e-15
6.50577e-16
3.49774e-16
2.49362e-16
4.96872e-16
1.56604e-15
1.0708e-15
5.28986e-16
3.3813e-16
9.54489e-16
3.93417e-15
2.89154e-15
8.49095e-15
5.77155e-15
1.13461e-15
1.16034e-15
4.60813e-16
2.82987e-15
1.00769e-15
7.14716e-16
4.28958e-15
1.59627e-15
2.15072e-15
1.6762e-15
3.31445e-16
1.78924e-16
2.17277e-15
4.17423e-15
8.8138e-16
9.26727e-16
1.44972e-15
7.0934e-16
7.61852e-16
2.29896e-15
1.27486e-15
1.20386e-15
7.57952e-16
2.70949e-15
3.7044e-15
2.83459e-15
4.36649e-15
3.24495e-15
3.02828e-15
4.65229e-16
1.99724e-15
1.5501e-15
1.23585e-15
1.2336e-15
1.80385e-15
3.33007e-16
2.04357e-16
1.22208e-16
2.50607e-16
8.77931e-17
1.47923e-15
3.67983e-15
9.86551e-16
9.35867e-16
6.42617e-16
1.38252e-15
2.82262e-15
5.48977e-16
2.54625e-16
2.04718e-16
3.47122e-16
1.14719e-15
9.24238e-16
3.06744e-16
2.73961e-16
7.54081e-16
2.9638e-15
2.30276e-15
6.29606e-15
4.98841e-15
7.22978e-16
1.13035e-15
3.80292e-16
2.08486e-15
1.06167e-15
6.77236e-16
3.43553e-15
1.40038e-15
1.83722e-15
1.51595e-15
3.87924e-16
1.50046e-16
1.72248e-15
3.33017e-15
7.93679e-16
8.58738e-16
1.17686e-15
5.07519e-16
7.40271e-16
1.9341e-15
1.17617e-15
1.08467e-15
8.16091e-16
2.16223e-15
3.08105e-15
2.3259e-15
3.76191e-15
2.73282e-15
2.41832e-15
1.96662e-16
1.5472e-15
1.02116e-15
1.06936e-15
7.03207e-16
1.41369e-15
3.29827e-16
1.42109e-16
1.04809e-16
2.02536e-16
6.44087e-17
1.08707e-15
2.97084e-15
8.66718e-16
8.65512e-16
5.53738e-16
9.80175e-16
2.14709e-15
4.75858e-16
1.89518e-16
1.71979e-16
2.35629e-16
8.38703e-16
7.91786e-16
2.04625e-16
2.30192e-16
6.16105e-16
2.24154e-15
1.85063e-15
4.63849e-15
4.24906e-15
4.83013e-16
1.04843e-15
3.39914e-16
1.51741e-15
1.07918e-15
6.4136e-16
2.74299e-15
1.24307e-15
1.56647e-15
1.35876e-15
4.42927e-16
1.43858e-16
1.37976e-15
2.64716e-15
7.55151e-16
7.66286e-16
9.6546e-16
4.17309e-16
7.0762e-16
1.6433e-15
1.1028e-15
1.01942e-15
8.54877e-16
1.80907e-15
2.57858e-15
1.94292e-15
3.20586e-15
2.31703e-15
1.92086e-15
7.01304e-17
1.1611e-15
6.77393e-16
9.12761e-16
3.74543e-16
1.08573e-15
3.22893e-16
1.07825e-16
8.90154e-17
1.60691e-16
5.06297e-17
7.91609e-16
2.37181e-15
7.84628e-16
7.8707e-16
4.95857e-16
6.98319e-16
1.60898e-15
4.19983e-16
1.44324e-16
1.47279e-16
1.56283e-16
6.12536e-16
6.70296e-16
1.71096e-16
2.02358e-16
5.20313e-16
1.71117e-15
1.50018e-15
3.4052e-15
3.56568e-15
3.59587e-16
9.30274e-16
3.26104e-16
1.09653e-15
1.05853e-15
6.0837e-16
2.18889e-15
1.11235e-15
1.33574e-15
1.20727e-15
4.88667e-16
1.51426e-16
1.1204e-15
2.10584e-15
7.37769e-16
6.65689e-16
8.07206e-16
3.96757e-16
6.66067e-16
1.41287e-15
1.04395e-15
9.80242e-16
8.80036e-16
1.58264e-15
2.17968e-15
1.65565e-15
2.70664e-15
1.9798e-15
1.52091e-15
3.09775e-17
8.41943e-16
4.61699e-16
7.65206e-16
1.86392e-16
8.15571e-16
3.0816e-16
9.21988e-17
7.57082e-17
1.25255e-16
4.41963e-17
5.74756e-16
1.87212e-15
7.23629e-16
7.04812e-16
4.5898e-16
5.04564e-16
1.18733e-15
3.74081e-16
1.12332e-16
1.27875e-16
1.02899e-16
4.47241e-16
5.59595e-16
1.71123e-16
1.86618e-16
4.5238e-16
1.3253e-15
1.22637e-15
2.49939e-15
2.9495e-15
3.08321e-16
7.91955e-16
3.27767e-16
7.92079e-16
1.00504e-15
5.78035e-16
1.75084e-15
9.99175e-16
1.14076e-15
1.06421e-15
5.2027e-16
1.6622e-16
9.23919e-16
1.68414e-15
7.23389e-16
5.70457e-16
6.92796e-16
4.11722e-16
6.2052e-16
1.2302e-15
9.93721e-16
9.53202e-16
8.95398e-16
1.43377e-15
1.86901e-15
1.4391e-15
2.27006e-15
1.70449e-15
1.20362e-15
3.86488e-17
5.89633e-16
3.30545e-16
6.29159e-16
8.97315e-17
5.98658e-16
2.85673e-16
8.78566e-17
6.50821e-17
9.60686e-17
4.27683e-17
4.1925e-16
1.46159e-15
6.72175e-16
6.23226e-16
4.34855e-16
3.73437e-16
8.65008e-16
3.33518e-16
8.92676e-17
1.12156e-16
6.94071e-17
3.26964e-16
4.60542e-16
1.83009e-16
1.79508e-16
4.02432e-16
1.04563e-15
1.01105e-15
1.84119e-15
2.40761e-15
2.96139e-16
6.47996e-16
3.35774e-16
5.77254e-16
9.26828e-16
5.50042e-16
1.40829e-15
8.9768e-16
9.76943e-16
9.31921e-16
5.35854e-16
1.83837e-16
7.7414e-16
1.35986e-15
7.0262e-16
4.89186e-16
6.1241e-16
4.38053e-16
5.76602e-16
1.0851e-15
9.48768e-16
9.30357e-16
9.03032e-16
1.32959e-15
1.6315e-15
1.27405e-15
1.89758e-15
1.47701e-15
9.55056e-16
6.60835e-17
3.99374e-16
2.51582e-16
5.0781e-16
4.99822e-17
4.29054e-16
2.57274e-16
8.91906e-17
5.71253e-17
7.27077e-17
4.43838e-17
3.09957e-16
1.13041e-15
6.23366e-16
5.46128e-16
4.16987e-16
2.85905e-16
6.24517e-16
2.95649e-16
7.24137e-17
9.92066e-17
5.0217e-17
2.40072e-16
3.74346e-16
1.94706e-16
1.77917e-16
3.64084e-16
8.42447e-16
8.40797e-16
1.36653e-15
1.94215e-15
3.00336e-16
5.10675e-16
3.4313e-16
4.2922e-16
8.33026e-16
5.23652e-16
1.14269e-15
8.04697e-16
8.3976e-16
8.12016e-16
5.3577e-16
2.01172e-16
6.58521e-16
1.11255e-15
6.73857e-16
4.26505e-16
5.56463e-16
4.60975e-16
5.38925e-16
9.69259e-16
9.07136e-16
9.07537e-16
9.03957e-16
1.24982e-15
1.45199e-15
1.14621e-15
1.58685e-15
1.28577e-15
7.62618e-16
9.72005e-17
2.63036e-16
2.0278e-16
4.03517e-16
4.14423e-17
2.99669e-16
2.25126e-16
9.22518e-17
5.15536e-17
5.47099e-17
4.75815e-17
2.34491e-16
8.68709e-16
5.73835e-16
4.76051e-16
4.00642e-16
2.28221e-16
4.48846e-16
2.59409e-16
6.00049e-17
8.85034e-17
4.05935e-17
1.78072e-16
3.01682e-16
2.00692e-16
1.79269e-16
3.33338e-16
6.93288e-16
7.05524e-16
1.02548e-15
1.55091e-15
3.06883e-16
3.88255e-16
3.45092e-16
3.29491e-16
7.32632e-16
4.98208e-16
9.37729e-16
7.18951e-16
7.24983e-16
7.05383e-16
5.21972e-16
2.16163e-16
5.68301e-16
9.24352e-16
6.37591e-16
3.82849e-16
5.16737e-16
4.73734e-16
5.09605e-16
8.75683e-16
8.67884e-16
8.8347e-16
8.98753e-16
1.18218e-15
1.31613e-15
1.04532e-15
1.33264e-15
1.12215e-15
6.15316e-16
1.23832e-16
1.70469e-16
1.70316e-16
3.16956e-16
4.80436e-17
2.03562e-16
1.9176e-16
9.45817e-17
4.78254e-17
4.14615e-17
5.13265e-17
1.83274e-16
6.66342e-16
5.22709e-16
4.14328e-16
3.83026e-16
1.90751e-16
3.2352e-16
2.24747e-16
5.08949e-17
7.97522e-17
3.68783e-17
1.34516e-16
2.42236e-16
1.99614e-16
1.81441e-16
3.0766e-16
5.82004e-16
5.97522e-16
7.80386e-16
1.22847e-15
3.08355e-16
2.85142e-16
3.39244e-16
2.6373e-16
6.33093e-16
4.7244e-16
7.7977e-16
6.40234e-16
6.28796e-16
6.1223e-16
4.97326e-16
2.27716e-16
4.97032e-16
7.80598e-16
5.96473e-16
3.55552e-16
4.86684e-16
4.75089e-16
4.88751e-16
7.99041e-16
8.30561e-16
8.57916e-16
8.88093e-16
1.12186e-15
1.21141e-15
9.64292e-16
1.128e-15
9.80604e-16
5.03732e-16
1.42933e-16
1.11256e-16
1.46527e-16
2.47186e-16
5.98063e-17
1.34279e-16
1.59553e-16
9.49311e-17
4.53661e-17
3.22652e-17
5.49112e-17
1.49032e-16
5.13188e-16
4.70686e-16
3.61316e-16
3.62796e-16
1.66893e-16
2.35826e-16
1.92211e-16
4.4344e-17
7.26914e-17
3.64487e-17
1.04526e-16
1.95325e-16
1.92371e-16
1.82825e-16
2.85549e-16
4.9725e-16
5.10844e-16
6.03594e-16
9.67335e-16
3.01912e-16
2.03286e-16
3.24982e-16
2.21179e-16
5.39837e-16
4.45917e-16
6.57619e-16
5.68718e-16
5.47865e-16
5.32146e-16
4.65141e-16
2.35468e-16
4.40064e-16
6.69992e-16
5.53498e-16
3.40661e-16
4.61913e-16
4.66888e-16
4.75064e-16
7.35637e-16
7.94903e-16
8.31228e-16
8.72815e-16
1.06564e-15
1.1279e-15
8.9798e-16
9.65426e-16
8.57773e-16
4.19924e-16
1.5439e-16
7.60615e-17
1.27279e-16
1.92282e-16
7.11146e-17
8.61119e-17
1.30211e-16
9.29451e-17
4.36081e-17
2.62574e-17
5.78388e-17
1.26305e-16
3.9962e-16
4.19251e-16
3.16664e-16
3.398e-16
1.52114e-16
1.75288e-16
1.62531e-16
3.98295e-17
6.69979e-17
3.75652e-17
8.44672e-17
1.59261e-16
1.80918e-16
1.82228e-16
2.661e-16
4.31225e-16
4.40854e-16
4.75214e-16
7.59007e-16
2.87672e-16
1.41552e-16
3.03177e-16
1.94036e-16
4.56315e-16
4.184e-16
5.62382e-16
5.04542e-16
4.79351e-16
4.64233e-16
4.28656e-16
2.39079e-16
3.9392e-16
5.83985e-16
5.11309e-16
3.34006e-16
4.39743e-16
4.52189e-16
4.66396e-16
6.827e-16
7.60833e-16
8.0395e-16
8.53415e-16
1.01248e-15
1.05825e-15
8.4278e-16
8.37511e-16
7.51514e-16
3.57405e-16
1.59404e-16
5.7491e-17
1.10603e-16
1.50008e-16
7.92293e-17
5.41436e-17
1.0465e-16
8.88389e-17
4.20021e-17
2.25698e-17
5.97684e-17
1.11135e-16
3.16963e-16
3.70058e-16
2.79537e-16
3.14599e-16
1.43204e-16
1.34031e-16
1.36301e-16
3.69056e-17
6.22976e-17
3.92169e-17
7.15166e-17
1.32535e-16
1.67362e-16
1.79207e-16
2.48604e-16
3.78629e-16
3.83973e-16
3.81167e-16
5.94852e-16
2.67328e-16
9.75067e-17
2.75565e-16
1.76746e-16
3.84231e-16
3.9e-16
4.87228e-16
4.47616e-16
4.20905e-16
4.0721e-16
3.90749e-16
2.39204e-16
3.5595e-16
5.16281e-16
4.7175e-16
3.3192e-16
4.18759e-16
4.34168e-16
4.60437e-16
6.38118e-16
7.28293e-16
7.76535e-16
8.30906e-16
9.62096e-16
9.9751e-16
7.96049e-16
7.37475e-16
6.6022e-16
3.11003e-16
1.59563e-16
4.97372e-17
9.57702e-17
1.18188e-16
8.3191e-17
3.42209e-17
8.31633e-17
8.31571e-17
4.01695e-17
2.04412e-17
6.05096e-17
1.00769e-16
2.57631e-16
3.24539e-16
2.48848e-16
2.88151e-16
1.37851e-16
1.06126e-16
1.13861e-16
3.51899e-17
5.82913e-17
4.08892e-17
6.35441e-17
1.13406e-16
1.53351e-16
1.73858e-16
2.32659e-16
3.35889e-16
3.37392e-16
3.11606e-16
4.66786e-16
2.43118e-16
6.79286e-17
2.44468e-16
1.6542e-16
3.23944e-16
3.61133e-16
4.27004e-16
3.97585e-16
3.70681e-16
3.59518e-16
3.53614e-16
2.36289e-16
3.24182e-16
4.62266e-16
4.35824e-16
3.31572e-16
3.98692e-16
4.15399e-16
4.55061e-16
6.00291e-16
6.97227e-16
7.49346e-16
8.06171e-16
9.14517e-16
9.42521e-16
7.55706e-16
6.59346e-16
5.82487e-16
2.76544e-16
1.56421e-16
4.84964e-17
8.27096e-17
9.46822e-17
8.31057e-17
2.29318e-17
6.55982e-17
7.65377e-17
3.79471e-17
1.92772e-17
6.00622e-17
9.33737e-17
2.15378e-16
2.83694e-16
2.23462e-16
2.61539e-16
1.34369e-16
8.7622e-17
9.52672e-17
3.43679e-17
5.47839e-17
4.24017e-17
5.89311e-17
1.0007e-16
1.40059e-16
1.66728e-16
2.17932e-16
3.00568e-16
2.98886e-16
2.59656e-16
3.67687e-16
2.17207e-16
4.95661e-17
2.12151e-16
1.57379e-16
2.74832e-16
3.32216e-16
3.77882e-16
3.53902e-16
3.27341e-16
3.19468e-16
3.18731e-16
2.30945e-16
2.97187e-16
4.18506e-16
4.03877e-16
3.3103e-16
3.79805e-16
3.97616e-16
4.4868e-16
5.68044e-16
6.67625e-16
7.22673e-16
7.7999e-16
8.69783e-16
8.91465e-16
7.2002e-16
5.98147e-16
5.16968e-16
2.50835e-16
1.51294e-16
5.0776e-17
7.14141e-17
7.75313e-17
7.97006e-17
1.75532e-17
5.15653e-17
6.94747e-17
3.53749e-17
1.8673e-17
5.85733e-17
8.77697e-17
1.85208e-16
2.48041e-16
2.02384e-16
2.35729e-16
1.31562e-16
7.55173e-17
8.03546e-17
3.41905e-17
5.16257e-17
4.37228e-17
5.64854e-17
9.099e-17
1.2821e-16
1.58524e-16
2.04259e-16
2.70929e-16
2.66744e-16
2.20457e-16
2.91502e-16
1.91376e-16
3.93836e-17
1.80574e-16
1.50906e-16
2.35676e-16
3.03859e-16
3.37082e-16
3.15916e-16
2.89857e-16
2.85441e-16
2.8694e-16
2.23855e-16
2.73934e-16
3.82501e-16
3.75855e-16
3.2921e-16
3.62584e-16
3.81672e-16
4.4053e-16
5.40395e-16
6.39574e-16
6.96678e-16
7.52997e-16
8.27821e-16
8.43414e-16
6.87647e-16
5.49835e-16
4.62316e-16
2.31518e-16
1.45185e-16
5.46082e-17
6.1996e-17
6.50463e-17
7.39681e-17
1.59386e-17
4.05516e-17
6.232e-17
3.26308e-17
1.83826e-17
5.62486e-17
8.32387e-17
1.63338e-16
2.17664e-16
1.84484e-16
2.11487e-16
1.28632e-16
6.78404e-17
6.87541e-17
3.44463e-17
4.87606e-17
4.48786e-17
5.53728e-17
8.49495e-17
1.18195e-16
1.49995e-16
1.91576e-16
2.45762e-16
2.3969e-16
1.90556e-16
2.33189e-16
1.66934e-16
3.48242e-17
1.51318e-16
1.44939e-16
2.04975e-16
2.76681e-16
3.02593e-16
2.82953e-16
2.57304e-16
2.56111e-16
2.58535e-16
2.15686e-16
2.53707e-16
3.52352e-16
3.51454e-16
3.25686e-16
3.47401e-16
3.67734e-16
4.3049e-16
5.16528e-16
6.13075e-16
6.71458e-16
7.25762e-16
7.88491e-16
7.97988e-16
6.57592e-16
5.11224e-16
4.17045e-16
2.16838e-16
1.38813e-16
5.8843e-17
5.44363e-17
5.59145e-17
6.6905e-17
1.65454e-17
3.20299e-17
5.53646e-17
2.99658e-17
1.82738e-17
5.3324e-17
7.93588e-17
1.47027e-16
1.92312e-16
1.69391e-16
1.8933e-16
1.25118e-16
6.32423e-17
5.99846e-17
3.49928e-17
4.61774e-17
4.58962e-17
5.50915e-17
8.09841e-17
1.10138e-16
1.41728e-16
1.7983e-16
2.24191e-16
2.16766e-16
1.67486e-16
1.88686e-16
1.44714e-16
3.38864e-17
1.25442e-16
1.38907e-16
1.81163e-16
2.51191e-16
2.72998e-16
2.54365e-16
2.28919e-16
2.30472e-16
2.33484e-16
2.07003e-16
2.36049e-16
3.26683e-16
3.30263e-16
3.20461e-16
3.34357e-16
3.55612e-16
4.18912e-16
4.95722e-16
5.8809e-16
6.4706e-16
6.98737e-16
7.51659e-16
7.55122e-16
6.29119e-16
4.79866e-16
3.79761e-16
2.05524e-16
1.3267e-16
6.28307e-17
4.86427e-17
4.91708e-17
5.9344e-17
1.82196e-17
2.55052e-17
4.88302e-17
2.761e-17
2.83073e-14
1.57019e-14
1.32053e-14
6.28722e-15
2.43262e-15
1.99434e-14
2.29537e-14
6.0227e-14
1.70878e-14
2.76651e-14
9.64672e-16
8.89728e-16
9.65427e-15
2.68274e-14
8.05438e-15
1.95586e-14
2.01925e-15
2.50854e-15
3.76189e-14
2.14332e-14
4.0785e-14
4.17004e-14
1.78147e-14
1.19559e-14
7.21387e-15
2.94389e-15
1.82685e-15
1.72048e-14
7.6943e-15
3.51244e-15
6.97059e-15
7.7717e-15
2.24851e-14
1.20592e-14
4.71608e-14
2.06341e-14
2.77822e-14
1.79059e-14
1.99087e-15
8.0178e-16
2.36463e-15
2.99787e-15
8.11503e-16
1.27812e-14
4.04134e-15
3.99636e-15
4.69172e-15
3.66668e-15
6.70121e-15
3.41911e-14
2.36215e-14
4.02952e-14
1.42429e-15
1.43997e-16
5.95838e-15
2.00169e-14
8.2008e-15
1.91938e-14
3.75038e-15
7.12589e-15
2.20606e-14
1.13177e-14
1.23403e-14
6.26906e-15
2.3709e-15
1.4871e-14
1.92823e-14
5.04971e-14
1.24715e-14
2.19516e-14
8.80526e-16
7.89183e-16
6.82819e-15
2.07899e-14
5.11454e-15
1.47366e-14
1.64419e-15
1.46125e-15
3.01685e-14
1.73378e-14
3.877e-14
3.41097e-14
1.41154e-14
1.12898e-14
6.94139e-15
2.94992e-15
1.71399e-15
1.28543e-14
7.03019e-15
3.49025e-15
6.5013e-15
5.06702e-15
1.66291e-14
9.27505e-15
3.85914e-14
1.54556e-14
2.57258e-14
1.3373e-14
1.85973e-15
7.84663e-16
2.31006e-15
2.85667e-15
8.56539e-16
9.45233e-15
3.75913e-15
3.88074e-15
4.54341e-15
3.69028e-15
6.44248e-15
2.7405e-14
1.90264e-14
3.3071e-14
1.24393e-15
1.25242e-16
3.7529e-15
1.47504e-14
5.49671e-15
1.42611e-14
3.13605e-15
4.36812e-15
1.7184e-14
8.45471e-15
1.01474e-14
6.03237e-15
2.12603e-15
1.14514e-14
1.44856e-14
4.06117e-14
9.1336e-15
1.77976e-14
8.90642e-16
5.61248e-16
4.94161e-15
1.56598e-14
3.27077e-15
1.14341e-14
1.02228e-15
8.11691e-16
2.42138e-14
1.34805e-14
3.32693e-14
2.85696e-14
1.06142e-14
9.35276e-15
6.16049e-15
2.94638e-15
1.39384e-15
1.02693e-14
5.79601e-15
3.35341e-15
5.29608e-15
3.80267e-15
1.18382e-14
6.37649e-15
3.09882e-14
1.19407e-14
2.06501e-14
1.0993e-14
1.57519e-15
6.92048e-16
2.19211e-15
2.62229e-15
9.25527e-16
7.30319e-15
3.18413e-15
3.57526e-15
4.23925e-15
3.72063e-15
5.77992e-15
2.26381e-14
1.40134e-14
2.73678e-14
1.14421e-15
1.17282e-16
2.49139e-15
1.05089e-14
3.48456e-15
1.08034e-14
1.99388e-15
2.91931e-15
1.32658e-14
6.46311e-15
7.92375e-15
5.6908e-15
1.89512e-15
8.94524e-15
1.0403e-14
3.24259e-14
6.88789e-15
1.43376e-14
9.35725e-16
3.9255e-16
3.63695e-15
1.17056e-14
2.20202e-15
8.87475e-15
6.36573e-16
4.29959e-16
1.94165e-14
1.02783e-14
2.76428e-14
2.4166e-14
7.79899e-15
7.42814e-15
5.27904e-15
2.88655e-15
1.14127e-15
8.4e-15
4.63043e-15
3.13635e-15
4.20453e-15
3.11379e-15
8.28758e-15
4.1373e-15
2.47495e-14
9.4128e-15
1.57526e-14
9.40695e-15
1.32518e-15
6.13424e-16
2.02462e-15
2.37884e-15
1.02635e-15
5.77579e-15
2.64591e-15
3.20387e-15
3.88127e-15
3.68897e-15
5.09656e-15
1.88263e-14
1.00313e-14
2.24004e-14
1.15134e-15
1.51936e-16
1.70957e-15
7.3877e-15
2.19669e-15
8.15513e-15
1.14542e-15
2.04727e-15
9.98965e-15
5.02496e-15
6.05732e-15
5.28255e-15
1.69027e-15
6.88411e-15
7.52926e-15
2.54937e-14
5.47541e-15
1.1339e-14
9.79851e-16
2.77201e-16
2.74766e-15
8.52126e-15
1.63468e-15
6.77195e-15
4.78049e-16
2.59544e-16
1.53457e-14
7.84426e-15
2.2727e-14
2.03341e-14
5.76553e-15
5.91561e-15
4.46098e-15
2.76379e-15
9.5867e-16
6.84801e-15
3.73414e-15
2.88518e-15
3.38509e-15
2.66824e-15
5.61305e-15
2.68268e-15
1.9561e-14
7.51846e-15
1.18474e-14
8.08743e-15
1.13496e-15
5.61902e-16
1.82207e-15
2.17455e-15
1.09502e-15
4.62946e-15
2.25972e-15
2.86377e-15
3.52568e-15
3.58041e-15
4.49546e-15
1.54422e-14
7.41447e-15
1.79169e-14
1.24078e-15
1.98076e-16
1.21874e-15
5.02738e-15
1.47486e-15
6.02709e-15
6.55106e-16
1.46835e-15
7.26143e-15
3.95697e-15
4.5197e-15
4.82696e-15
1.51008e-15
5.19843e-15
5.54262e-15
1.96184e-14
4.59347e-15
8.74475e-15
1.01939e-15
1.95662e-16
2.12347e-15
5.96996e-15
1.33732e-15
5.02051e-15
4.44246e-16
2.00079e-16
1.19146e-14
6.0413e-15
1.84819e-14
1.70155e-14
4.3237e-15
4.74595e-15
3.71961e-15
2.59296e-15
8.21199e-16
5.51865e-15
3.06056e-15
2.61399e-15
2.75883e-15
2.33783e-15
3.60998e-15
1.76547e-15
1.52464e-14
6.10603e-15
8.7822e-15
6.93306e-15
9.91583e-16
5.32404e-16
1.60877e-15
2.00712e-15
1.12473e-15
3.75484e-15
1.9889e-15
2.56222e-15
3.18304e-15
3.40927e-15
3.97313e-15
1.24157e-14
5.75464e-15
1.38622e-14
1.37001e-15
2.38662e-16
8.87569e-16
3.2733e-15
1.06556e-15
4.29446e-15
3.93937e-16
1.06385e-15
5.10312e-15
3.12904e-15
3.27945e-15
4.34303e-15
1.36058e-15
3.86717e-15
4.13512e-15
1.47773e-14
4.02674e-15
6.55095e-15
1.05582e-15
1.45114e-16
1.66008e-15
4.02759e-15
1.17152e-15
3.61514e-15
4.74857e-16
1.89905e-16
9.10339e-15
4.69152e-15
1.48427e-14
1.41907e-14
3.28666e-15
3.82698e-15
3.07023e-15
2.39228e-15
7.20708e-16
4.38315e-15
2.55372e-15
2.33711e-15
2.27588e-15
2.0673e-15
2.17771e-15
1.17709e-15
1.17313e-14
5.04428e-15
6.38691e-15
5.91628e-15
8.82851e-16
5.18928e-16
1.40298e-15
1.86859e-15
1.12432e-15
3.07909e-15
1.79201e-15
2.29828e-15
2.86372e-15
3.19256e-15
3.52294e-15
9.78656e-15
4.67563e-15
1.03496e-14
1.50715e-15
2.69488e-16
6.42021e-16
2.04358e-15
8.11461e-16
2.94238e-15
2.7289e-16
7.66537e-16
3.47536e-15
2.46294e-15
2.31274e-15
3.84556e-15
1.24205e-15
2.85634e-15
3.12496e-15
1.09398e-14
3.63702e-15
4.74612e-15
1.08743e-15
1.20314e-16
1.29983e-15
2.61213e-15
1.06046e-15
2.53116e-15
5.34078e-16
2.02971e-16
6.86094e-15
3.67302e-15
1.17684e-14
1.17936e-14
2.53617e-15
3.09827e-15
2.5222e-15
2.1739e-15
6.50351e-16
3.43109e-15
2.17089e-15
2.06496e-15
1.90698e-15
1.83216e-15
1.21215e-15
7.98922e-16
8.92642e-15
4.22811e-15
4.55592e-15
5.01105e-15
8.0157e-16
5.15913e-16
1.21684e-15
1.74988e-15
1.10091e-15
2.55622e-15
1.64393e-15
2.07031e-15
2.57415e-15
2.9489e-15
3.14137e-15
7.57953e-15
3.94016e-15
7.42364e-15
1.62608e-15
2.86173e-16
4.52013e-16
1.22915e-15
6.36207e-16
1.93498e-15
2.33019e-16
5.41581e-16
2.29772e-15
1.91445e-15
1.58446e-15
3.34452e-15
1.14939e-15
2.11485e-15
2.39311e-15
7.96596e-15
3.32879e-15
3.30153e-15
1.10745e-15
1.12379e-16
1.01073e-15
1.62341e-15
9.62474e-16
1.7247e-15
5.94067e-16
2.25624e-16
5.11241e-15
2.90129e-15
9.21049e-15
9.75867e-15
1.99356e-15
2.51349e-15
2.07287e-15
1.94405e-15
6.03537e-16
2.65341e-15
1.87571e-15
1.80407e-15
1.6243e-15
1.62096e-15
6.04893e-16
5.57441e-16
6.72664e-15
3.58398e-15
3.19616e-15
4.20248e-15
7.44638e-16
5.18873e-16
1.05733e-15
1.64047e-15
1.0622e-15
2.15353e-15
1.52726e-15
1.87471e-15
2.31569e-15
2.68993e-15
2.81955e-15
5.78898e-15
3.39389e-15
5.08792e-15
1.70319e-15
2.86716e-16
3.07348e-16
7.14004e-16
5.01996e-16
1.21653e-15
2.30767e-16
3.7233e-16
1.47326e-15
1.45998e-15
1.05304e-15
2.84973e-15
1.0736e-15
1.5854e-15
1.85619e-15
5.71335e-15
3.04223e-15
2.18849e-15
1.10658e-15
1.13774e-16
7.76249e-16
9.6896e-16
8.58134e-16
1.14608e-15
6.35337e-16
2.50135e-16
3.78005e-15
2.31287e-15
7.11728e-15
8.03327e-15
1.6015e-15
2.03768e-15
1.7113e-15
1.70883e-15
5.7329e-16
2.03602e-15
1.63942e-15
1.55851e-15
1.40441e-15
1.42896e-15
2.58977e-16
4.01897e-16
5.02423e-15
3.06096e-15
2.2192e-15
3.4797e-15
7.09716e-16
5.24939e-16
9.27306e-16
1.53254e-15
1.01653e-15
1.84475e-15
1.43011e-15
1.70719e-15
2.08717e-15
2.4274e-15
2.54726e-15
4.38108e-15
2.94152e-15
3.31076e-15
1.71979e-15
2.74092e-16
2.0328e-16
4.03995e-16
3.9135e-16
7.29226e-16
2.36617e-16
2.49028e-16
9.18607e-16
1.08634e-15
6.79469e-16
2.37572e-15
1.00744e-15
1.21458e-15
1.45711e-15
4.04454e-15
2.74939e-15
1.37148e-15
1.07686e-15
1.18757e-16
5.87889e-16
5.60865e-16
7.43517e-16
7.47286e-16
6.48032e-16
2.72666e-16
2.78604e-15
1.86023e-15
5.43434e-15
6.57214e-15
1.3174e-15
1.64552e-15
1.42386e-15
1.47692e-15
5.53348e-16
1.55918e-15
1.44064e-15
1.33279e-15
1.22906e-15
1.25466e-15
9.31623e-17
2.99118e-16
3.72685e-15
2.62472e-15
1.54348e-15
2.83891e-15
6.92059e-16
5.31738e-16
8.25398e-16
1.42269e-15
9.70175e-16
1.60807e-15
1.34502e-15
1.56376e-15
1.88644e-15
2.17209e-15
2.31137e-15
3.30292e-15
2.53359e-15
2.02398e-15
1.66738e-15
2.53689e-16
1.34523e-16
2.2815e-16
2.97764e-16
4.16504e-16
2.35296e-16
1.63155e-16
5.57374e-16
7.85603e-16
4.2762e-16
1.9382e-15
9.45116e-16
9.56356e-16
1.15784e-15
2.83701e-15
2.44305e-15
8.0626e-16
1.01486e-15
1.25024e-16
4.39899e-16
3.2526e-16
6.23471e-16
4.84787e-16
6.30951e-16
2.91215e-16
2.05824e-15
1.50843e-15
4.10525e-15
5.3376e-15
1.10968e-15
1.31923e-15
1.19681e-15
1.25727e-15
5.38129e-16
1.20009e-15
1.26529e-15
1.13046e-15
1.0849e-15
1.09778e-15
4.2382e-17
2.28535e-16
2.75305e-15
2.25303e-15
1.09608e-15
2.28038e-15
6.85472e-16
5.3747e-16
7.48053e-16
1.31135e-15
9.27332e-16
1.42571e-15
1.26779e-15
1.44039e-15
1.71086e-15
1.93259e-15
2.10026e-15
2.49607e-15
2.15159e-15
1.14754e-15
1.54914e-15
2.3218e-16
9.42561e-17
1.32632e-16
2.19909e-16
2.27303e-16
2.22504e-16
1.07197e-16
3.2982e-16
5.5098e-16
2.64968e-16
1.54915e-15
8.82748e-16
7.75286e-16
9.32552e-16
1.98114e-15
2.12764e-15
4.44574e-16
9.22337e-16
1.31729e-16
3.26986e-16
2.02196e-16
5.05875e-16
3.21399e-16
5.88972e-16
3.04779e-16
1.53436e-15
1.23219e-15
3.07326e-15
4.2993e-15
9.54919e-16
1.04612e-15
1.01749e-15
1.05712e-15
5.2382e-16
9.35291e-16
1.10585e-15
9.54125e-16
9.62381e-16
9.58445e-16
5.82406e-17
1.78258e-16
2.03214e-15
1.93194e-15
8.14517e-16
1.80434e-15
6.83772e-16
5.40651e-16
6.9026e-16
1.20196e-15
8.8967e-16
1.28303e-15
1.1962e-15
1.33364e-15
1.55759e-15
1.71451e-15
1.90513e-15
1.90658e-15
1.79453e-15
5.94031e-16
1.37733e-15
2.14617e-16
7.46209e-17
8.30169e-17
1.5798e-16
1.19799e-16
2.00203e-16
7.40664e-17
1.91411e-16
3.74646e-16
1.6454e-16
1.21438e-15
8.17932e-16
6.45522e-16
7.62737e-16
1.38546e-15
1.81278e-15
2.36197e-16
8.06079e-16
1.38992e-16
2.43737e-16
1.46683e-16
3.98473e-16
2.26491e-16
5.30147e-16
3.13005e-16
1.16218e-15
1.01341e-15
2.28416e-15
3.43259e-15
8.35792e-16
8.17546e-16
8.74914e-16
8.81185e-16
5.07902e-16
7.42858e-16
9.59311e-16
8.04182e-16
8.54813e-16
8.36341e-16
1.06843e-16
1.42106e-16
1.50519e-15
1.65269e-15
6.48122e-16
1.40957e-15
6.81539e-16
5.40186e-16
6.4709e-16
1.09801e-15
8.56987e-16
1.1693e-15
1.12949e-15
1.24059e-15
1.42379e-15
1.52089e-15
1.72047e-15
1.48105e-15
1.46934e-15
2.78129e-16
1.17118e-15
2.03668e-16
6.76936e-17
5.66402e-17
1.11529e-16
6.29099e-17
1.72758e-16
5.70695e-17
1.0984e-16
2.47745e-16
1.05515e-16
9.36227e-16
7.49842e-16
5.49662e-16
6.34552e-16
9.77172e-16
1.51117e-15
1.35451e-16
6.76236e-16
1.46582e-16
1.8459e-16
1.27563e-16
3.07388e-16
1.75964e-16
4.63251e-16
3.1574e-16
8.99916e-16
8.39086e-16
1.68949e-15
2.71577e-15
7.39783e-16
6.27805e-16
7.59785e-16
7.31132e-16
4.88479e-16
6.03804e-16
8.25587e-16
6.79462e-16
7.57889e-16
7.30341e-16
1.65847e-16
1.17135e-16
1.12448e-15
1.40975e-15
5.5541e-16
1.09181e-15
6.74694e-16
5.35906e-16
6.14168e-16
1.00215e-15
8.28229e-16
1.07657e-15
1.06739e-15
1.1588e-15
1.30682e-15
1.35237e-15
1.54384e-15
1.17761e-15
1.18352e-15
1.23441e-16
9.52008e-16
1.99315e-16
6.68646e-17
4.25401e-17
7.87775e-17
3.55104e-17
1.44486e-16
5.023e-17
6.31795e-17
1.61001e-16
7.26534e-17
7.12371e-16
6.79099e-16
4.76311e-16
5.37349e-16
7.0038e-16
1.23377e-15
1.0383e-16
5.43866e-16
1.53826e-16
1.44089e-16
1.24686e-16
2.35917e-16
1.51982e-16
3.96106e-16
3.13236e-16
7.15658e-16
6.99701e-16
1.24751e-15
2.12921e-15
6.58191e-16
4.72549e-16
6.64396e-16
6.06499e-16
4.64579e-16
5.03123e-16
7.05834e-16
5.77349e-16
6.69162e-16
6.38764e-16
2.21707e-16
1.01868e-16
8.51916e-16
1.19976e-15
5.07865e-16
8.44996e-16
6.60866e-16
5.2824e-16
5.8812e-16
9.16326e-16
8.01761e-16
9.98984e-16
1.00967e-15
1.08627e-15