/*--------------------------------*- C++ -*----------------------------------*\
| =========                 |                                                 |
| \\      /  F ield         | OpenFOAM: The Open Source CFD Toolbox           |
|  \\    /   O peration     | Version:  2312                                  |
|   \\  /    A nd           | Website:  www.openfoam.com                      |
|    \\/     M anipulation  |                                                 |
\*---------------------------------------------------------------------------*/
FoamFile
{
    version     2.0;
    format      ascii;
    arch        "LSB;label=32;scalar=64";
    class       volScalarField;
    location    "600";
    object      pPrime2Mean;
}
// * * * * * * * * * * * * * * * * * * * * * * * * * * * * * * * * * * * * * //

dimensions      [0 4 -4 0 0 0 0];

internalField   nonuniform List<scalar> 
144000
(
7.91769e-18
6.90587e-18
9.09403e-18
1.02787e-17
7.62587e-18
5.0196e-18
3.93307e-18
3.45254e-18
3.15875e-18
2.9353e-18
2.77186e-18
2.52186e-18
2.33678e-18
2.15469e-18
2.0428e-18
1.92483e-18
1.883e-18
1.76938e-18
1.72826e-18
1.65005e-18
1.61442e-18
1.52676e-18
1.51014e-18
1.43738e-18
1.44177e-18
1.3661e-18
1.38071e-18
1.31416e-18
1.30795e-18
1.26564e-18
1.25445e-18
1.21823e-18
1.21634e-18
1.16128e-18
1.18292e-18
1.12441e-18
1.13169e-18
1.11123e-18
1.08219e-18
1.07356e-18
1.07998e-18
1.01181e-18
1.07877e-18
1.00796e-18
1.01048e-18
1.04479e-18
9.56235e-19
9.98931e-19
1.06344e-18
8.60186e-19
1.15338e-18
9.9273e-19
9.29516e-19
1.41936e-18
9.77442e-19
1.24877e-18
2.45836e-18
1.48506e-18
3.67544e-18
8.16828e-18
8.32606e-18
7.03214e-18
9.31943e-18
1.04507e-17
7.69986e-18
5.05365e-18
3.95376e-18
3.46664e-18
3.16745e-18
2.9417e-18
2.77696e-18
2.52547e-18
2.33892e-18
2.15658e-18
2.04401e-18
1.92587e-18
1.8842e-18
1.7703e-18
1.72882e-18
1.65093e-18
1.61496e-18
1.52734e-18
1.51041e-18
1.43794e-18
1.4422e-18
1.36644e-18
1.38107e-18
1.31475e-18
1.30794e-18
1.26631e-18
1.25453e-18
1.21865e-18
1.2168e-18
1.16131e-18
1.18348e-18
1.12485e-18
1.13158e-18
1.11236e-18
1.08207e-18
1.07403e-18
1.08115e-18
1.01151e-18
1.08003e-18
1.00925e-18
1.01011e-18
1.04777e-18
9.5683e-19
9.99764e-19
1.06914e-18
8.59418e-19
1.15942e-18
1.00126e-18
9.30046e-19
1.43801e-18
9.93619e-19
1.25888e-18
2.51786e-18
1.54896e-18
3.82637e-18
8.25656e-18
8.62952e-18
7.13165e-18
9.34631e-18
1.05246e-17
7.68456e-18
5.03639e-18
3.95021e-18
3.46917e-18
3.17071e-18
2.94547e-18
2.78094e-18
2.52832e-18
2.34077e-18
2.1581e-18
2.04516e-18
1.92663e-18
1.88591e-18
1.77118e-18
1.72959e-18
1.65191e-18
1.61581e-18
1.52783e-18
1.51096e-18
1.43835e-18
1.44307e-18
1.36658e-18
1.38187e-18
1.31534e-18
1.30809e-18
1.26709e-18
1.25477e-18
1.21909e-18
1.21769e-18
1.16115e-18
1.18453e-18
1.12533e-18
1.13161e-18
1.11397e-18
1.08211e-18
1.0746e-18
1.08325e-18
1.01081e-18
1.08238e-18
1.01101e-18
1.00999e-18
1.05227e-18
9.58047e-19
1.00112e-18
1.07773e-18
8.58994e-19
1.16742e-18
1.0146e-18
9.30791e-19
1.46062e-18
1.01866e-18
1.26095e-18
2.57005e-18
1.62592e-18
3.94863e-18
8.37525e-18
8.61173e-18
6.93176e-18
9.04018e-18
1.03308e-17
7.51627e-18
4.93041e-18
3.89851e-18
3.44452e-18
3.15878e-18
2.93951e-18
2.77816e-18
2.52656e-18
2.33952e-18
2.15744e-18
2.04467e-18
1.92621e-18
1.88698e-18
1.77146e-18
1.72988e-18
1.6526e-18
1.61643e-18
1.52812e-18
1.51132e-18
1.43861e-18
1.44393e-18
1.3666e-18
1.38275e-18
1.31593e-18
1.30813e-18
1.268e-18
1.25497e-18
1.21956e-18
1.2188e-18
1.1609e-18
1.18578e-18
1.1259e-18
1.13161e-18
1.11596e-18
1.08222e-18
1.07524e-18
1.08596e-18
1.00986e-18
1.08536e-18
1.01318e-18
1.00997e-18
1.05768e-18
9.59731e-19
1.00255e-18
1.08762e-18
8.5946e-19
1.17401e-18
1.03175e-18
9.28933e-19
1.47827e-18
1.04997e-18
1.23677e-18
2.60125e-18
1.67477e-18
3.88592e-18
8.29532e-18
8.27178e-18
6.39273e-18
8.43737e-18
9.84162e-18
7.1965e-18
4.74007e-18
3.79982e-18
3.39186e-18
3.12833e-18
2.91975e-18
2.76499e-18
2.51748e-18
2.33309e-18
2.15299e-18
2.04128e-18
1.92366e-18
1.88641e-18
1.77039e-18
1.72902e-18
1.65251e-18
1.61634e-18
1.52796e-18
1.51113e-18
1.4385e-18
1.44448e-18
1.36639e-18
1.38348e-18
1.31642e-18
1.30794e-18
1.26889e-18
1.25502e-18
1.22e-18
1.21999e-18
1.16057e-18
1.18702e-18
1.12654e-18
1.13149e-18
1.11818e-18
1.08239e-18
1.07583e-18
1.08896e-18
1.00879e-18
1.08855e-18
1.01563e-18
1.00995e-18
1.06332e-18
9.61736e-19
1.0036e-18
1.09767e-18
8.60511e-19
1.17782e-18
1.05042e-18
9.24053e-19
1.48765e-18
1.08392e-18
1.18637e-18
2.61854e-18
1.68524e-18
3.66985e-18
8.01315e-18
7.78427e-18
5.74376e-18
7.70533e-18
9.20975e-18
6.80858e-18
4.50774e-18
3.6717e-18
3.31994e-18
3.08327e-18
2.88782e-18
2.74144e-18
2.50077e-18
2.32086e-18
2.14413e-18
2.03448e-18
1.91846e-18
1.8836e-18
1.76755e-18
1.72664e-18
1.65119e-18
1.61517e-18
1.52713e-18
1.51018e-18
1.43781e-18
1.44451e-18
1.3658e-18
1.38386e-18
1.31663e-18
1.30744e-18
1.26963e-18
1.25483e-18
1.22029e-18
1.22111e-18
1.16016e-18
1.18806e-18
1.12722e-18
1.1312e-18
1.12045e-18
1.08257e-18
1.07629e-18
1.09199e-18
1.00765e-18
1.09161e-18
1.0182e-18
1.00975e-18
1.0688e-18
9.63753e-19
1.00406e-18
1.10701e-18
8.61557e-19
1.17917e-18
1.0678e-18
9.17772e-19
1.48861e-18
1.11715e-18
1.12231e-18
2.62774e-18
1.66857e-18
3.43468e-18
7.7064e-18
7.30763e-18
5.23837e-18
6.99898e-18
8.55631e-18
6.40612e-18
4.26255e-18
3.53039e-18
3.23634e-18
3.02799e-18
2.84656e-18
2.70979e-18
2.47749e-18
2.30345e-18
2.13115e-18
2.02443e-18
1.91067e-18
1.87842e-18
1.76281e-18
1.72261e-18
1.64847e-18
1.61273e-18
1.52548e-18
1.50831e-18
1.4364e-18
1.44389e-18
1.36474e-18
1.38373e-18
1.31647e-18
1.30653e-18
1.27008e-18
1.25434e-18
1.22035e-18
1.22203e-18
1.15966e-18
1.18876e-18
1.12785e-18
1.13068e-18
1.12261e-18
1.08273e-18
1.07654e-18
1.09481e-18
1.00649e-18
1.09427e-18
1.02074e-18
1.00934e-18
1.07374e-18
9.65564e-19
1.00391e-18
1.1151e-18
8.6234e-19
1.17876e-18
1.08216e-18
9.11974e-19
1.48228e-18
1.14714e-18
1.05656e-18
2.62745e-18
1.62943e-18
3.27255e-18
7.51507e-18
6.90167e-18
5.01821e-18
6.37415e-18
7.94383e-18
6.0125e-18
4.01899e-18
3.3825e-18
3.14526e-18
2.96579e-18
2.79909e-18
2.67221e-18
2.44933e-18
2.28194e-18
2.11471e-18
2.01147e-18
1.9005e-18
1.87102e-18
1.75634e-18
1.71704e-18
1.64436e-18
1.60901e-18
1.52298e-18
1.50551e-18
1.43422e-18
1.44255e-18
1.36321e-18
1.38299e-18
1.31589e-18
1.30518e-18
1.27017e-18
1.2535e-18
1.22015e-18
1.22264e-18
1.15906e-18
1.18904e-18
1.12837e-18
1.12993e-18
1.12451e-18
1.08283e-18
1.07655e-18
1.09726e-18
1.00536e-18
1.09638e-18
1.02307e-18
1.00877e-18
1.07793e-18
9.67085e-19
1.00326e-18
1.1217e-18
8.62796e-19
1.17727e-18
1.09282e-18
9.07628e-19
1.47029e-18
1.17314e-18
9.94063e-19
2.61593e-18
1.57375e-18
3.20453e-18
7.49684e-18
6.59555e-18
5.13935e-18
5.84192e-18
7.40216e-18
5.635e-18
3.78183e-18
3.23172e-18
3.04918e-18
2.89878e-18
2.74713e-18
2.63042e-18
2.41763e-18
2.25734e-18
2.09556e-18
1.99605e-18
1.8883e-18
1.86166e-18
1.7484e-18
1.71017e-18
1.63904e-18
1.60413e-18
1.51968e-18
1.50185e-18
1.43133e-18
1.4405e-18
1.36127e-18
1.38162e-18
1.3149e-18
1.3034e-18
1.26988e-18
1.2523e-18
1.21967e-18
1.22287e-18
1.15837e-18
1.18888e-18
1.12874e-18
1.12897e-18
1.12607e-18
1.08285e-18
1.07633e-18
1.09923e-18
1.00432e-18
1.09794e-18
1.0251e-18
1.00811e-18
1.08131e-18
9.68314e-19
1.00231e-18
1.12685e-18
8.62985e-19
1.17528e-18
1.10001e-18
9.04992e-19
1.45465e-18
1.19513e-18
9.37567e-19
2.59475e-18
1.51208e-18
3.2254e-18
7.64464e-18
6.40586e-18
5.57225e-18
5.40207e-18
6.93878e-18
5.28074e-18
3.55392e-18
3.08073e-18
2.95004e-18
2.8286e-18
2.69213e-18
2.58562e-18
2.3835e-18
2.23057e-18
2.07435e-18
1.97867e-18
1.87441e-18
1.85059e-18
1.73927e-18
1.70222e-18
1.63271e-18
1.5983e-18
1.5157e-18
1.49747e-18
1.42779e-18
1.43777e-18
1.359e-18
1.37962e-18
1.31358e-18
1.30124e-18
1.26924e-18
1.25077e-18
1.21895e-18
1.22272e-18
1.15763e-18
1.1883e-18
1.12894e-18
1.12786e-18
1.12728e-18
1.08281e-18
1.07594e-18
1.10072e-18
1.00342e-18
1.09901e-18
1.02682e-18
1.00747e-18
1.08398e-18
9.69317e-19
1.00118e-18
1.13084e-18
8.62976e-19
1.17307e-18
1.10442e-18
9.03812e-19
1.43673e-18
1.21312e-18
8.89049e-19
2.5627e-18
1.4549e-18
3.31272e-18
7.89383e-18
6.33125e-18
6.19974e-18
5.05325e-18
6.55062e-18
4.95555e-18
3.33779e-18
2.93215e-18
2.8495e-18
2.75669e-18
2.6352e-18
2.5387e-18
2.34765e-18
2.20237e-18
2.05175e-18
1.95988e-18
1.85923e-18
1.83807e-18
1.72914e-18
1.69343e-18
1.6256e-18
1.59175e-18
1.51117e-18
1.4925e-18
1.42374e-18
1.4344e-18
1.35652e-18
1.37707e-18
1.31197e-18
1.2988e-18
1.26828e-18
1.24897e-18
1.21802e-18
1.2222e-18
1.15687e-18
1.18737e-18
1.12898e-18
1.12664e-18
1.12815e-18
1.08271e-18
1.07543e-18
1.10177e-18
1.00267e-18
1.09966e-18
1.0283e-18
1.00683e-18
1.08608e-18
9.70201e-19
9.99841e-19
1.13394e-18
8.62851e-19
1.17047e-18
1.10684e-18
9.0344e-19
1.41718e-18
1.22702e-18
8.47956e-19
2.51687e-18
1.40748e-18
3.42841e-18
8.14156e-18
6.34083e-18
6.82874e-18
4.78848e-18
6.21364e-18
4.66461e-18
3.13576e-18
2.78843e-18
2.74918e-18
2.68441e-18
2.57733e-18
2.49033e-18
2.3106e-18
2.17331e-18
2.02838e-18
1.94025e-18
1.84316e-18
1.82437e-18
1.71822e-18
1.68396e-18
1.61789e-18
1.58467e-18
1.50625e-18
1.48711e-18
1.41932e-18
1.43047e-18
1.35391e-18
1.37402e-18
1.31014e-18
1.29616e-18
1.26706e-18
1.24696e-18
1.21693e-18
1.22135e-18
1.15609e-18
1.18614e-18
1.12889e-18
1.12535e-18
1.12873e-18
1.08258e-18
1.07479e-18
1.10245e-18
1.00211e-18
1.09988e-18
1.02963e-18
1.00615e-18
1.08762e-18
9.71067e-19
9.98102e-19
1.13625e-18
8.62685e-19
1.16694e-18
1.10788e-18
9.03032e-19
1.39592e-18
1.23632e-18
8.13102e-19
2.45405e-18
1.37209e-18
3.52013e-18
8.26868e-18
6.38502e-18
7.276e-18
4.59124e-18
5.89859e-18
4.41008e-18
2.94962e-18
2.65169e-18
2.65043e-18
2.61289e-18
2.51949e-18
2.44116e-18
2.27284e-18
2.14381e-18
2.0047e-18
1.92022e-18
1.82663e-18
1.80982e-18
1.70674e-18
1.67395e-18
1.60968e-18
1.57725e-18
1.50108e-18
1.48144e-18
1.41471e-18
1.42604e-18
1.35123e-18
1.37055e-18
1.30812e-18
1.29341e-18
1.26566e-18
1.24481e-18
1.21572e-18
1.22022e-18
1.15534e-18
1.18464e-18
1.12871e-18
1.12402e-18
1.12902e-18
1.08246e-18
1.07403e-18
1.10277e-18
1.00175e-18
1.09961e-18
1.03086e-18
1.00534e-18
1.08852e-18
9.71975e-19
9.95777e-19
1.13759e-18
8.62583e-19
1.16177e-18
1.10775e-18
9.0187e-19
1.37274e-18
1.24019e-18
7.83681e-19
2.3728e-18
1.34795e-18
3.53938e-18
8.18231e-18
6.39943e-18
7.41711e-18
4.4334e-18
5.57856e-18
4.18952e-18
2.78071e-18
2.52368e-18
2.55449e-18
2.54305e-18
2.46259e-18
2.39188e-18
2.2348e-18
2.11421e-18
1.98106e-18
1.90022e-18
1.81004e-18
1.79475e-18
1.69487e-18
1.66356e-18
1.60109e-18
1.5696e-18
1.49577e-18
1.47561e-18
1.41003e-18
1.42123e-18
1.34855e-18
1.36674e-18
1.30594e-18
1.2906e-18
1.26412e-18
1.24255e-18
1.21444e-18
1.21886e-18
1.1546e-18
1.1829e-18
1.12843e-18
1.12265e-18
1.12902e-18
1.08236e-18
1.07313e-18
1.1027e-18
1.0016e-18
1.09876e-18
1.03195e-18
1.00434e-18
1.08863e-18
9.72895e-19
9.92762e-19
1.13769e-18
8.6265e-19
1.1545e-18
1.10648e-18
8.9952e-19
1.34758e-18
1.23812e-18
7.59422e-19
2.27517e-18
1.33245e-18
3.45884e-18
7.84577e-18
6.33053e-18
7.20246e-18
4.28201e-18
5.23685e-18
3.99794e-18
2.62995e-18
2.40564e-18
2.46228e-18
2.47557e-18
2.40738e-18
2.34316e-18
2.1969e-18
2.08477e-18
1.95766e-18
1.88048e-18
1.79369e-18
1.77945e-18
1.68284e-18
1.65295e-18
1.59222e-18
1.56179e-18
1.49042e-18
1.4697e-18
1.4054e-18
1.41614e-18
1.3459e-18
1.36266e-18
1.3036e-18
1.28777e-18
1.26246e-18
1.24023e-18
1.21312e-18
1.21729e-18
1.15391e-18
1.18093e-18
1.12806e-18
1.12126e-18
1.1287e-18
1.08226e-18
1.07211e-18
1.10221e-18
1.00166e-18
1.09728e-18
1.03286e-18
1.00317e-18
1.08787e-18
9.73748e-19
9.89133e-19
1.13635e-18
8.62996e-19
1.14504e-18
1.10411e-18
8.95856e-19
1.32086e-18
1.23014e-18
7.40523e-19
2.16494e-18
1.32247e-18
3.27315e-18
7.27833e-18
6.14589e-18
6.6642e-18
4.10892e-18
4.8693e-18
3.8276e-18
2.49787e-18
2.29838e-18
2.37447e-18
2.41079e-18
2.35439e-18
2.29556e-18
2.15955e-18
2.05571e-18
1.93468e-18
1.86118e-18
1.77781e-18
1.76415e-18
1.67085e-18
1.64227e-18
1.58317e-18
1.55388e-18
1.48508e-18
1.46378e-18
1.40092e-18
1.41086e-18
1.34334e-18
1.3584e-18
1.30113e-18
1.28498e-18
1.26071e-18
1.23786e-18
1.2118e-18
1.21557e-18
1.15328e-18
1.17879e-18
1.1276e-18
1.11987e-18
1.12808e-18
1.08215e-18
1.07101e-18
1.10128e-18
1.00196e-18
1.09521e-18
1.03355e-18
1.00186e-18
1.08629e-18
9.74444e-19
9.85099e-19
1.13349e-18
8.63725e-19
1.1336e-18
1.10078e-18
8.91027e-19
1.29338e-18
1.21688e-18
7.27362e-19
2.04718e-18
1.31458e-18
2.99931e-18
6.53961e-18
5.83324e-18
5.88785e-18
3.89269e-18
4.48276e-18
3.67021e-18
2.38432e-18
2.20215e-18
2.29151e-18
2.34879e-18
2.30389e-18
2.24956e-18
2.1231e-18
2.02721e-18
1.91219e-18
1.84241e-18
1.7625e-18
1.74905e-18
1.65905e-18
1.63165e-18
1.57405e-18
1.54592e-18
1.47981e-18
1.45787e-18
1.39661e-18
1.4055e-18
1.34088e-18
1.35405e-18
1.29854e-18
1.28224e-18
1.25889e-18
1.23546e-18
1.21052e-18
1.2137e-18
1.15272e-18
1.17651e-18
1.12704e-18
1.11849e-18
1.1272e-18
1.08199e-18
1.0699e-18
1.09992e-18
1.00249e-18
1.09265e-18
1.034e-18
1.00048e-18
1.08403e-18
9.74907e-19
9.8092e-19
1.12924e-18
8.6492e-19
1.12066e-18
1.09676e-18
8.85346e-19
1.26613e-18
1.19941e-18
7.20305e-19
1.92706e-18
1.30595e-18
2.66725e-18
5.71264e-18
5.4086e-18
4.98472e-18
3.62558e-18
4.09057e-18
3.51864e-18
2.28847e-18
2.11683e-18
2.2137e-18
2.28953e-18
2.25597e-18
2.20545e-18
2.08784e-18
1.99944e-18
1.89029e-18
1.8242e-18
1.74783e-18
1.73425e-18
1.64756e-18
1.62124e-18
1.56497e-18
1.53796e-18
1.47463e-18
1.45202e-18
1.39252e-18
1.40013e-18
1.33856e-18
1.34967e-18
1.29586e-18
1.27959e-18
1.25701e-18
1.23303e-18
1.20932e-18
1.21174e-18
1.15224e-18
1.17416e-18
1.1264e-18
1.11714e-18
1.1261e-18
1.08177e-18
1.06884e-18
1.09818e-18
1.00324e-18
1.08974e-18
1.03421e-18
9.99066e-19
1.08128e-18
9.75095e-19
9.76856e-19
1.12379e-18
8.66624e-19
1.10676e-18
1.09233e-18
8.79207e-19
1.24e-18
1.179e-18
7.19222e-19
1.80916e-18
1.29474e-18
2.31467e-18
4.87462e-18
4.90413e-18
4.06927e-18
3.3117e-18
3.70744e-18
3.36765e-18
2.20888e-18
2.04205e-18
2.14119e-18
2.23287e-18
2.21056e-18
2.1634e-18
2.05396e-18
1.97252e-18
1.86901e-18
1.80656e-18
1.73382e-18
1.71985e-18
1.63644e-18
1.61111e-18
1.55601e-18
1.53003e-18
1.46958e-18
1.44622e-18
1.38862e-18
1.39479e-18
1.33637e-18
1.34533e-18
1.29314e-18
1.27704e-18
1.25512e-18
1.23057e-18
1.20821e-18
1.2097e-18
1.15184e-18
1.17179e-18
1.1257e-18
1.11583e-18
1.12486e-18
1.08145e-18
1.06788e-18
1.09612e-18
1.00419e-18
1.0866e-18
1.03425e-18
9.97673e-19
1.07826e-18
9.74994e-19
9.73113e-19
1.11743e-18
8.6884e-19
1.09244e-18
1.08775e-18
8.72978e-19
1.21569e-18
1.15689e-18
7.23554e-19
1.69687e-18
1.27989e-18
1.97762e-18
4.08925e-18
4.36265e-18
3.22942e-18
2.96606e-18
3.34606e-18
3.2143e-18
2.14359e-18
1.97724e-18
2.07399e-18
2.17865e-18
2.16746e-18
2.12347e-18
2.02161e-18
1.94652e-18
1.84837e-18
1.78946e-18
1.72044e-18
1.70588e-18
1.62572e-18
1.60131e-18
1.54725e-18
1.52219e-18
1.46468e-18
1.4405e-18
1.38491e-18
1.38953e-18
1.33431e-18
1.34108e-18
1.2904e-18
1.27462e-18
1.25323e-18
1.22809e-18
1.2072e-18
1.20761e-18
1.15154e-18
1.16946e-18
1.12496e-18
1.11457e-18
1.12356e-18
1.08105e-18
1.06706e-18
1.09384e-18
1.00533e-18
1.08336e-18
1.03416e-18
9.96329e-19
1.07517e-18
9.74618e-19
9.69829e-19
1.11045e-18
8.71527e-19
1.07818e-18
1.08324e-18
8.66997e-19
1.1936e-18
1.1341e-18
7.32388e-19
1.59253e-18
1.26105e-18
1.68442e-18
3.39726e-18
3.82385e-18
2.51971e-18
2.60864e-18
3.01637e-18
3.05786e-18
2.09028e-18
1.92167e-18
2.01203e-18
2.12674e-18
2.12644e-18
2.08558e-18
1.99082e-18
1.92149e-18
1.82839e-18
1.77289e-18
1.70765e-18
1.69236e-18
1.61541e-18
1.59187e-18
1.53874e-18
1.51447e-18
1.45994e-18
1.43487e-18
1.38138e-18
1.38439e-18
1.33236e-18
1.33696e-18
1.28768e-18
1.27232e-18
1.25138e-18
1.2256e-18
1.2063e-18
1.20552e-18
1.15132e-18
1.16719e-18
1.12421e-18
1.11337e-18
1.12225e-18
1.08057e-18
1.0664e-18
1.0914e-18
1.00663e-18
1.08011e-18
1.03399e-18
9.95059e-19
1.07217e-18
9.73997e-19
9.67081e-19
1.10312e-18
8.74613e-19
1.06437e-18
1.07891e-18
8.61521e-19
1.17384e-18
1.11149e-18
7.44602e-19
1.49735e-18
1.23864e-18
1.45107e-18
2.81674e-18
3.32323e-18
1.96349e-18
2.26295e-18
2.7214e-18
2.89955e-18
2.04659e-18
1.87458e-18
1.95515e-18
2.07702e-18
2.08724e-18
2.04963e-18
1.9616e-18
1.89744e-18
1.80905e-18
1.75683e-18
1.69541e-18
1.67928e-18
1.60552e-18
1.5828e-18
1.53051e-18
1.50688e-18
1.45538e-18
1.42935e-18
1.378e-18
1.37937e-18
1.33052e-18
1.33297e-18
1.285e-18
1.27017e-18
1.24959e-18
1.22311e-18
1.20549e-18
1.20343e-18
1.15118e-18
1.16501e-18
1.12348e-18
1.11224e-18
1.12098e-18
1.08002e-18
1.0659e-18
1.08887e-18
1.00807e-18
1.07691e-18
1.0338e-18
9.93881e-19
1.06937e-18
9.73176e-19
9.64893e-19
1.09567e-18
8.78e-19
1.05129e-18
1.07483e-18
8.56743e-19
1.15636e-18
1.08966e-18
7.59036e-19
1.41185e-18
1.21341e-18
1.28395e-18
2.34734e-18
2.88719e-18
1.5604e-18
1.95169e-18
2.46155e-18
2.74199e-18
2.0103e-18
1.83518e-18
1.90318e-18
2.02947e-18
2.04965e-18
2.01547e-18
1.93391e-18
1.87436e-18
1.79035e-18
1.74125e-18
1.68367e-18
1.66664e-18
1.59602e-18
1.57409e-18
1.52257e-18
1.49945e-18
1.45101e-18
1.42395e-18
1.37474e-18
1.3745e-18
1.32877e-18
1.32914e-18
1.2824e-18
1.26815e-18
1.24788e-18
1.22064e-18
1.20478e-18
1.20138e-18
1.15111e-18
1.16292e-18
1.12277e-18
1.11117e-18
1.11979e-18
1.07942e-18
1.06556e-18
1.08631e-18
1.00962e-18
1.07384e-18
1.03359e-18
9.92812e-19
1.06682e-18
9.72202e-19
9.6325e-19
1.08828e-18
8.81586e-19
1.03914e-18
1.07098e-18
8.52786e-19
1.14097e-18
1.06906e-18
7.74663e-19
1.33601e-18
1.18608e-18
1.18073e-18
1.97808e-18
2.53305e-18
1.29071e-18
1.6945e-18
2.23442e-18
2.58838e-18
1.97972e-18
1.80275e-18
1.85595e-18
1.98412e-18
2.0135e-18
1.98295e-18
1.90768e-18
1.85224e-18
1.77225e-18
1.72614e-18
1.67237e-18
1.6544e-18
1.58691e-18
1.56574e-18
1.51492e-18
1.49219e-18
1.44681e-18
1.41867e-18
1.37159e-18
1.36979e-18
1.3271e-18
1.32545e-18
1.27987e-18
1.26628e-18
1.24625e-18
1.2182e-18
1.20416e-18
1.19937e-18
1.15111e-18
1.16093e-18
1.1221e-18
1.11017e-18
1.1187e-18
1.07878e-18
1.06537e-18
1.08376e-18
1.01126e-18
1.07091e-18
1.03338e-18
9.91867e-19
1.06457e-18
9.71126e-19
9.62112e-19
1.0811e-18
8.85272e-19
1.02808e-18
1.06732e-18
8.49731e-19
1.12745e-18
1.04996e-18
7.9062e-19
1.26951e-18
1.15708e-18
1.13321e-18
1.69052e-18
2.26898e-18
1.12339e-18
1.50513e-18
2.0364e-18
2.44144e-18
1.95348e-18
1.77666e-18
1.81327e-18
1.94098e-18
1.97865e-18
1.9519e-18
1.88282e-18
1.83103e-18
1.75472e-18
1.71146e-18
1.66147e-18
1.64254e-18
1.57816e-18
1.55771e-18
1.50754e-18
1.48511e-18
1.44279e-18
1.41353e-18
1.36854e-18
1.36522e-18
1.32549e-18
1.3219e-18
1.27743e-18
1.26456e-18
1.24471e-18
1.21579e-18
1.2036e-18
1.19741e-18
1.15119e-18
1.15905e-18
1.12146e-18
1.10924e-18
1.11771e-18
1.07811e-18
1.06533e-18
1.08127e-18
1.01298e-18
1.06815e-18
1.03317e-18
9.91063e-19
1.06262e-18
9.69992e-19
9.61428e-19
1.07426e-18
8.88962e-19
1.01818e-18
1.06377e-18
8.47606e-19
1.11555e-18
1.03257e-18
8.06231e-19
1.21188e-18
1.12685e-18
1.12887e-18
1.46399e-18
7.95384e-18
6.92468e-18
9.10822e-18
1.0296e-17
7.63924e-18
5.02531e-18
3.93613e-18
3.4553e-18
3.16146e-18
2.93724e-18
2.7731e-18
2.5227e-18
2.33726e-18
2.15482e-18
2.04269e-18
1.92459e-18
1.88289e-18
1.76957e-18
1.72857e-18
1.6504e-18
1.61478e-18
1.52715e-18
1.51052e-18
1.43763e-18
1.44202e-18
1.36619e-18
1.38086e-18
1.31428e-18
1.30806e-18
1.26564e-18
1.25444e-18
1.2181e-18
1.2162e-18
1.16102e-18
1.18268e-18
1.12416e-18
1.13152e-18
1.11102e-18
1.08203e-18
1.0734e-18
1.07992e-18
1.01163e-18
1.07882e-18
1.00773e-18
1.01037e-18
1.04462e-18
9.55994e-19
9.98705e-19
1.06365e-18
8.59605e-19
1.15418e-18
9.9273e-19
9.29635e-19
1.4212e-18
9.79485e-19
1.24828e-18
2.46922e-18
1.48747e-18
3.67595e-18
8.20685e-18
8.36471e-18
7.05095e-18
9.33236e-18
1.04688e-17
7.71288e-18
5.05919e-18
3.9567e-18
3.46939e-18
3.17012e-18
2.94359e-18
2.77816e-18
2.52627e-18
2.33937e-18
2.15668e-18
2.04387e-18
1.92559e-18
1.88408e-18
1.77048e-18
1.72913e-18
1.65128e-18
1.61532e-18
1.52773e-18
1.51079e-18
1.43818e-18
1.44244e-18
1.36653e-18
1.38122e-18
1.31488e-18
1.30806e-18
1.26631e-18
1.25452e-18
1.21852e-18
1.21665e-18
1.16104e-18
1.18323e-18
1.1246e-18
1.1314e-18
1.11215e-18
1.08191e-18
1.07388e-18
1.08109e-18
1.01133e-18
1.08008e-18
1.00902e-18
1.01e-18
1.0476e-18
9.56583e-19
9.99534e-19
1.06937e-18
8.58817e-19
1.16024e-18
1.00129e-18
9.30132e-19
1.43988e-18
9.95744e-19
1.25832e-18
2.52892e-18
1.55196e-18
3.82721e-18
8.29515e-18
8.66631e-18
7.15747e-18
9.35868e-18
1.05441e-17
7.69711e-18
5.04137e-18
3.95304e-18
3.4717e-18
3.17337e-18
2.94734e-18
2.7821e-18
2.52906e-18
2.34117e-18
2.15816e-18
2.04499e-18
1.92631e-18
1.88576e-18
1.77134e-18
1.7299e-18
1.65223e-18
1.61617e-18
1.52821e-18
1.51134e-18
1.43858e-18
1.44331e-18
1.36666e-18
1.38202e-18
1.31547e-18
1.30822e-18
1.26709e-18
1.25477e-18
1.21896e-18
1.21755e-18
1.16088e-18
1.18428e-18
1.12508e-18
1.13144e-18
1.11376e-18
1.08196e-18
1.07445e-18
1.0832e-18
1.01063e-18
1.08243e-18
1.01077e-18
1.00988e-18
1.05211e-18
9.57796e-19
1.00088e-18
1.07797e-18
8.58372e-19
1.16825e-18
1.01466e-18
9.30833e-19
1.46258e-18
1.02085e-18
1.26032e-18
2.5815e-18
1.6296e-18
3.94891e-18
8.41974e-18
8.64538e-18
6.96378e-18
9.05259e-18
1.03507e-17
7.52807e-18
4.93451e-18
3.90124e-18
3.44725e-18
3.16148e-18
2.94138e-18
2.77927e-18
2.52723e-18
2.33985e-18
2.15743e-18
2.04443e-18
1.92581e-18
1.88678e-18
1.77159e-18
1.73017e-18
1.65291e-18
1.61677e-18
1.5285e-18
1.5117e-18
1.43883e-18
1.44417e-18
1.36667e-18
1.3829e-18
1.31608e-18
1.30828e-18
1.26801e-18
1.25498e-18
1.21944e-18
1.21866e-18
1.16063e-18
1.18554e-18
1.12565e-18
1.13144e-18
1.11575e-18
1.08207e-18
1.07509e-18
1.08592e-18
1.00968e-18
1.08543e-18
1.01294e-18
1.00986e-18
1.05751e-18
9.59475e-19
1.0023e-18
1.08786e-18
8.58839e-19
1.17483e-18
1.03184e-18
9.28943e-19
1.48024e-18
1.05218e-18
1.23599e-18
2.61251e-18
1.67888e-18
3.88745e-18
8.34386e-18
8.30443e-18
6.42821e-18
8.44514e-18
9.85892e-18
7.20722e-18
4.74341e-18
3.80204e-18
3.39468e-18
3.13118e-18
2.92162e-18
2.76602e-18
2.51803e-18
2.33333e-18
2.15289e-18
2.04097e-18
1.92317e-18
1.88613e-18
1.77048e-18
1.72929e-18
1.65278e-18
1.61666e-18
1.52834e-18
1.51151e-18
1.43872e-18
1.44472e-18
1.36644e-18
1.38362e-18
1.31657e-18
1.3081e-18
1.26891e-18
1.25504e-18
1.21987e-18
1.21986e-18
1.16031e-18
1.18678e-18
1.12629e-18
1.13132e-18
1.11797e-18
1.08223e-18
1.07569e-18
1.08893e-18
1.00861e-18
1.08862e-18
1.01538e-18
1.00983e-18
1.06316e-18
9.6148e-19
1.00334e-18
1.09791e-18
8.59914e-19
1.1786e-18
1.05054e-18
9.24105e-19
1.48951e-18
1.08619e-18
1.18525e-18
2.62911e-18
1.68983e-18
3.67303e-18
8.06116e-18
7.81559e-18
5.77443e-18
7.71347e-18
9.22421e-18
6.81722e-18
4.50989e-18
3.67368e-18
3.32293e-18
3.08628e-18
2.88975e-18
2.74243e-18
2.50119e-18
2.321e-18
2.14394e-18
2.03409e-18
1.91788e-18
1.88323e-18
1.76758e-18
1.72688e-18
1.65143e-18
1.61547e-18
1.5275e-18
1.51056e-18
1.43802e-18
1.44475e-18
1.36583e-18
1.38399e-18
1.31678e-18
1.30761e-18
1.26966e-18
1.25486e-18
1.22017e-18
1.22098e-18
1.15991e-18
1.18783e-18
1.12697e-18
1.13103e-18
1.12023e-18
1.08241e-18
1.07615e-18
1.09197e-18
1.00747e-18
1.09169e-18
1.01796e-18
1.00963e-18
1.06864e-18
9.635e-19
1.0038e-18
1.10723e-18
8.60993e-19
1.1799e-18
1.06794e-18
9.17853e-19
1.49035e-18
1.11948e-18
1.12175e-18
2.63744e-18
1.67374e-18
3.43994e-18
7.75057e-18
7.33779e-18
5.26389e-18
7.00506e-18
8.56697e-18
6.41292e-18
4.264e-18
3.53226e-18
3.2395e-18
3.03123e-18
2.84859e-18
2.71066e-18
2.47781e-18
2.30349e-18
2.13087e-18
2.02396e-18
1.90999e-18
1.87795e-18
1.76276e-18
1.72281e-18
1.64866e-18
1.61299e-18
1.52583e-18
1.5087e-18
1.4366e-18
1.44412e-18
1.36476e-18
1.38384e-18
1.31662e-18
1.30672e-18
1.27012e-18
1.25438e-18
1.22023e-18
1.2219e-18
1.15941e-18
1.18854e-18
1.1276e-18
1.13051e-18
1.12239e-18
1.08257e-18
1.0764e-18
1.0948e-18
1.00632e-18
1.09437e-18
1.0205e-18
1.00921e-18
1.07359e-18
9.65319e-19
1.00365e-18
1.1153e-18
8.61812e-19
1.17943e-18
1.0823e-18
9.12072e-19
1.48388e-18
1.14944e-18
1.05621e-18
2.63629e-18
1.63478e-18
3.27995e-18
7.55421e-18
6.93004e-18
5.03877e-18
6.3782e-18
7.95182e-18
6.01805e-18
4.01992e-18
3.38421e-18
3.14857e-18
2.96919e-18
2.80112e-18
2.67303e-18
2.44955e-18
2.28186e-18
2.11436e-18
2.01094e-18
1.89975e-18
1.87047e-18
1.75622e-18
1.7172e-18
1.64451e-18
1.60923e-18
1.5233e-18
1.5059e-18
1.43442e-18
1.44277e-18
1.36321e-18
1.38308e-18
1.31604e-18
1.30538e-18
1.27023e-18
1.25355e-18
1.22003e-18
1.2225e-18
1.15881e-18
1.18883e-18
1.12813e-18
1.12977e-18
1.12428e-18
1.08266e-18
1.07641e-18
1.09726e-18
1.00521e-18
1.09649e-18
1.02285e-18
1.00863e-18
1.07778e-18
9.66846e-19
1.003e-18
1.12187e-18
8.62305e-19
1.17788e-18
1.09297e-18
9.07728e-19
1.47177e-18
1.17537e-18
9.93938e-19
2.62371e-18
1.57901e-18
3.21362e-18
7.5312e-18
6.62212e-18
5.15611e-18
5.84454e-18
7.40831e-18
5.63958e-18
3.78241e-18
3.23336e-18
3.05262e-18
2.90229e-18
2.7492e-18
2.63123e-18
2.4178e-18
2.2572e-18
2.09515e-18
1.99546e-18
1.88747e-18
1.86103e-18
1.74822e-18
1.71028e-18
1.63914e-18
1.60431e-18
1.51999e-18
1.50224e-18
1.43153e-18
1.44071e-18
1.36124e-18
1.38168e-18
1.31505e-18
1.30361e-18
1.26996e-18
1.25236e-18
1.21956e-18
1.22274e-18
1.15812e-18
1.18867e-18
1.1285e-18
1.12881e-18
1.12584e-18
1.08268e-18
1.07619e-18
1.09924e-18
1.00418e-18
1.09806e-18
1.02489e-18
1.00797e-18
1.08116e-18
9.68077e-19
1.00206e-18
1.127e-18
8.62527e-19
1.17582e-18
1.10016e-18
9.05069e-19
1.45602e-18
1.19725e-18
9.377e-19
2.60174e-18
1.51704e-18
3.23573e-18
7.67464e-18
6.43079e-18
5.5866e-18
5.40366e-18
6.94344e-18
5.28443e-18
3.55423e-18
3.08228e-18
2.95354e-18
2.83221e-18
2.69426e-18
2.58643e-18
2.38361e-18
2.23038e-18
2.07388e-18
1.97804e-18
1.87353e-18
1.84988e-18
1.73902e-18
1.7023e-18
1.63277e-18
1.59844e-18
1.51598e-18
1.49785e-18
1.42799e-18
1.43797e-18
1.35896e-18
1.37966e-18
1.31372e-18
1.30146e-18
1.26933e-18
1.25085e-18
1.21885e-18
1.22259e-18
1.15739e-18
1.1881e-18
1.1287e-18
1.1277e-18
1.12705e-18
1.08262e-18
1.0758e-18
1.10074e-18
1.00329e-18
1.09914e-18
1.02663e-18
1.00732e-18
1.08383e-18
9.69082e-19
1.00093e-18
1.13096e-18
8.6255e-19
1.17355e-18
1.10456e-18
9.03862e-19
1.438e-18
1.21508e-18
8.89286e-19
2.5689e-18
1.45944e-18
3.32382e-18
7.92067e-18
6.35481e-18
6.21262e-18
5.05409e-18
6.55404e-18
4.95842e-18
3.33786e-18
2.93359e-18
2.853e-18
2.76038e-18
2.63739e-18
2.5395e-18
2.34771e-18
2.20213e-18
2.05125e-18
1.95923e-18
1.85831e-18
1.8373e-18
1.72884e-18
1.69347e-18
1.62563e-18
1.59185e-18
1.51143e-18
1.49288e-18
1.42394e-18
1.43459e-18
1.35647e-18
1.37708e-18
1.3121e-18
1.29902e-18
1.26837e-18
1.24906e-18
1.21793e-18
1.22208e-18
1.15663e-18
1.18717e-18
1.12875e-18
1.12649e-18
1.12793e-18
1.08251e-18
1.07528e-18
1.1018e-18
1.00257e-18
1.0998e-18
1.02813e-18
1.00669e-18
1.08594e-18
9.69966e-19
9.99593e-19
1.13404e-18
8.62453e-19
1.17089e-18
1.10697e-18
9.03459e-19
1.41837e-18
1.2288e-18
8.48269e-19
2.5224e-18
1.41162e-18
3.43981e-18
8.16577e-18
6.36311e-18
6.84112e-18
4.78891e-18
6.21609e-18
4.66674e-18
3.13562e-18
2.78975e-18
2.75268e-18
2.68817e-18
2.57956e-18
2.49114e-18
2.31063e-18
2.17303e-18
2.02785e-18
1.93957e-18
1.84221e-18
1.82356e-18
1.71786e-18
1.68396e-18
1.61788e-18
1.58474e-18
1.50648e-18
1.48748e-18
1.41952e-18
1.43065e-18
1.35384e-18
1.37401e-18
1.31026e-18
1.29639e-18
1.26717e-18
1.24706e-18
1.21685e-18
1.22123e-18
1.15586e-18
1.18594e-18
1.12867e-18
1.1252e-18
1.1285e-18
1.08239e-18
1.07465e-18
1.10249e-18
1.00202e-18
1.10002e-18
1.02948e-18
1.006e-18
1.08749e-18
9.70833e-19
9.97856e-19
1.13632e-18
8.62312e-19
1.16729e-18
1.10802e-18
9.03012e-19
1.39702e-18
1.23793e-18
8.13474e-19
2.45889e-18
1.37587e-18
3.53127e-18
8.29092e-18
6.40606e-18
7.28836e-18
4.59158e-18
5.90026e-18
4.4115e-18
2.94932e-18
2.65289e-18
2.6539e-18
2.61668e-18
2.52175e-18
2.44197e-18
2.27283e-18
2.14351e-18
2.00416e-18
1.91953e-18
1.82566e-18
1.80897e-18
1.70633e-18
1.67392e-18
1.60965e-18
1.57728e-18
1.50129e-18
1.4818e-18
1.4149e-18
1.42622e-18
1.35115e-18
1.37052e-18
1.30823e-18
1.29363e-18
1.26578e-18
1.24491e-18
1.21565e-18
1.2201e-18
1.1551e-18
1.18444e-18
1.12849e-18
1.12387e-18
1.1288e-18
1.08226e-18
1.07389e-18
1.10281e-18
1.00168e-18
1.09976e-18
1.03072e-18
1.00518e-18
1.08838e-18
9.71741e-19
9.95532e-19
1.13763e-18
8.62232e-19
1.16205e-18
1.10787e-18
9.01806e-19
1.37375e-18
1.24162e-18
7.84067e-19
2.37707e-18
1.35142e-18
3.54979e-18
8.20286e-18
6.41934e-18
7.42952e-18
4.43391e-18
5.57954e-18
4.19034e-18
2.78027e-18
2.52475e-18
2.55789e-18
2.54684e-18
2.46486e-18
2.39269e-18
2.23477e-18
2.11389e-18
1.9805e-18
1.89952e-18
1.80905e-18
1.79387e-18
1.69444e-18
1.6635e-18
1.60103e-18
1.5696e-18
1.49596e-18
1.47596e-18
1.41022e-18
1.4214e-18
1.34846e-18
1.36669e-18
1.30603e-18
1.29082e-18
1.26425e-18
1.24267e-18
1.21437e-18
1.21874e-18
1.15438e-18
1.1827e-18
1.12822e-18
1.12251e-18
1.12879e-18
1.08215e-18
1.07298e-18
1.10274e-18
1.00154e-18
1.09891e-18
1.03183e-18
1.00419e-18
1.0885e-18
9.72658e-19
9.92515e-19
1.1377e-18
8.62318e-19
1.15473e-18
1.10659e-18
8.99413e-19
1.34849e-18
1.23939e-18
7.59801e-19
2.27891e-18
1.33559e-18
3.46835e-18
7.86464e-18
6.34926e-18
7.2146e-18
4.28294e-18
5.23719e-18
3.99817e-18
2.6294e-18
2.40661e-18
2.46559e-18
2.47932e-18
2.40965e-18
2.34396e-18
2.19685e-18
2.08443e-18
1.9571e-18
1.87978e-18
1.7927e-18
1.77855e-18
1.68237e-18
1.65286e-18
1.59213e-18
1.56176e-18
1.49059e-18
1.47004e-18
1.4056e-18
1.4163e-18
1.34581e-18
1.3626e-18
1.30368e-18
1.28799e-18
1.2626e-18
1.24035e-18
1.21306e-18
1.21718e-18
1.15369e-18
1.18074e-18
1.12785e-18
1.12112e-18
1.12848e-18
1.08206e-18
1.07196e-18
1.10225e-18
1.00162e-18
1.09743e-18
1.03276e-18
1.00301e-18
1.08774e-18
9.73511e-19
9.88882e-19
1.13633e-18
8.62677e-19
1.14521e-18
1.10419e-18
8.95709e-19
1.32167e-18
1.23128e-18
7.4086e-19
2.16824e-18
1.32528e-18
3.28157e-18
7.29543e-18
6.16324e-18
6.67569e-18
4.11032e-18
4.86907e-18
3.82732e-18
2.49724e-18
2.29925e-18
2.37766e-18
2.41447e-18
2.35664e-18
2.29635e-18
2.15948e-18
2.05535e-18
1.93411e-18
1.86048e-18
1.77682e-18
1.76323e-18
1.67035e-18
1.64215e-18
1.58306e-18
1.55383e-18
1.48523e-18
1.4641e-18
1.40111e-18
1.41102e-18
1.34324e-18
1.35832e-18
1.30119e-18
1.28519e-18
1.26085e-18
1.23799e-18
1.21175e-18
1.21546e-18
1.15306e-18
1.17859e-18
1.12739e-18
1.11972e-18
1.12787e-18
1.08194e-18
1.07086e-18
1.10131e-18
1.00192e-18
1.09536e-18
1.03347e-18
1.00171e-18
1.08616e-18
9.74207e-19