/*--------------------------------*- C++ -*----------------------------------*\
| =========                 |                                                 |
| \\      /  F ield         | OpenFOAM: The Open Source CFD Toolbox           |
|  \\    /   O peration     | Version:  2312                                  |
|   \\  /    A nd           | Website:  www.openfoam.com                      |
|    \\/     M anipulation  |                                                 |
\*---------------------------------------------------------------------------*/
FoamFile
{
    version     2.0;
    format      ascii;
    arch        "LSB;label=32;scalar=64";
    class       volScalarField;
    location    "100";
    object      nut;
}
// * * * * * * * * * * * * * * * * * * * * * * * * * * * * * * * * * * * * * //

dimensions      [0 2 -1 0 0 0 0];

internalField   nonuniform List<scalar> 
144000
(
3.85673e-23
3.77182e-22
6.90593e-24
1.68309e-22
9.26705e-24
1.75902e-23
4.48289e-24
2.96287e-27
5.93978e-26
2.0541e-26
4.57815e-27
5.45643e-28
4.22852e-30
2.84478e-30
1.7891e-29
1.78238e-31
1.52132e-31
2.68316e-30
1.69718e-30
1.6504e-32
3.57725e-31
1.38937e-30
8.58397e-31
9.96788e-33
5.16018e-31
7.50409e-31
1.61922e-33
6.59708e-31
1.14654e-31
8.60987e-32
9.0422e-33
1.2661e-30
8.69668e-30
5.96387e-31
3.68091e-32
2.86875e-30
4.88577e-30
3.57966e-30
1.99781e-32
7.37921e-31
1.06486e-29
3.4789e-29
7.65595e-29
2.01435e-28
1.43772e-27
1.42756e-26
1.33919e-25
9.83637e-25
5.55262e-24
2.38467e-23
6.95109e-23
1.1578e-22
6.63863e-23
2.64091e-25
1.59434e-22
1.00504e-21
9.25917e-22
2.45064e-23
3.09695e-22
3.27954e-22
1.11859e-24
7.32363e-22
1.41461e-23
2.10619e-22
2.07851e-23
2.58315e-23
2.23634e-24
6.08404e-25
4.01921e-25
2.47066e-26
2.46634e-28
1.8576e-28
8.2454e-28
3.76766e-28
2.03689e-28
1.16798e-29
4.4451e-30
3.69731e-30
1.4724e-30
3.26156e-31
4.21482e-31
2.75972e-30
1.20379e-30
9.03896e-32
5.35071e-31
1.14902e-30
1.56893e-32
9.2532e-31
2.34233e-31
1.46418e-31
1.74411e-32
1.90568e-30
1.2256e-29
1.90736e-30
9.88707e-33
4.24242e-30
5.95796e-30
6.89277e-30
6.00632e-32
6.11839e-31
1.78825e-29
4.76067e-29
1.5649e-28
3.1692e-28
2.58779e-27
2.5645e-26
2.41484e-25
1.72351e-24
9.93334e-24
4.25646e-23
1.26199e-22
2.13037e-22
1.30932e-22
2.52996e-24
2.10176e-22
1.64521e-21
1.71043e-21
1.8992e-22
8.39329e-23
1.13473e-21
7.60163e-25
1.22163e-21
4.64908e-23
3.04319e-22
9.94245e-23
7.27992e-23
4.95852e-24
4.394e-24
1.78716e-24
1.11417e-25
1.11017e-27
1.7144e-27
3.87617e-27
1.80856e-27
5.3908e-28
5.66789e-29
2.24503e-29
6.83391e-30
1.56572e-30
1.14659e-30
9.32548e-31
2.57812e-30
2.50258e-30
2.244e-31
4.92868e-31
1.62935e-30
3.35045e-32
1.06032e-30
5.44578e-31
3.46151e-31
8.36768e-32
4.0262e-30
1.77234e-29
2.5405e-30
5.96658e-33
6.52523e-30
7.65765e-30
9.80464e-30
1.08062e-31
7.21756e-31
2.704e-29
6.39405e-29
2.26357e-28
4.98407e-28
3.65387e-27
3.6186e-26
3.47949e-25
2.47054e-24
1.42419e-23
6.11438e-23
1.82095e-22
3.11493e-22
1.99817e-22
7.74985e-24
2.8601e-22
2.30364e-21
2.84816e-21
3.71561e-22
1.4246e-22
1.86342e-21
8.77008e-24
2.72976e-21
1.50087e-22
5.40783e-22
3.27457e-22
1.84012e-22
9.94238e-24
1.57031e-23
6.07785e-24
4.15948e-25
4.50838e-27
7.79199e-27
1.46318e-26
6.85079e-27
1.61131e-27
2.2412e-28
7.91181e-29
9.84717e-30
2.37334e-30
2.60171e-30
1.87063e-30
3.22605e-30
3.76312e-30
4.67312e-31
6.0219e-31
2.5271e-30
6.16696e-32
1.56485e-30
8.60472e-31
5.88915e-31
2.26101e-31
5.84425e-30
2.30993e-29
3.34764e-30
2.24814e-32
1.08694e-29
9.68914e-30
1.40084e-29
1.08155e-31
1.57171e-30
4.12964e-29
8.04492e-29
3.03287e-28
6.05054e-28
4.68781e-27
4.66722e-26
4.53087e-25
3.16438e-24
1.81507e-23
7.67467e-23
2.24888e-22
3.74278e-22
2.30557e-22
1.14973e-23
4.32398e-22
2.92011e-21
3.48446e-21
5.41644e-22
2.29933e-22
3.98615e-21
4.45862e-23
5.28847e-21
4.58239e-22
7.43244e-22
7.26709e-22
3.71911e-22
1.22031e-23
3.66504e-23
1.58972e-23
1.20527e-24
9.4737e-27
2.06111e-26
4.24531e-26
2.03647e-26
4.62454e-27
6.9295e-28
2.25165e-28
1.79617e-29
3.9323e-30
5.37965e-30
3.79134e-30
4.31022e-30
5.03431e-30
8.61131e-31
8.14171e-31
3.72079e-30
1.20214e-31
2.2433e-30
1.16217e-30
7.87128e-31
4.33661e-31
8.07339e-30
3.19928e-29
4.86035e-30
1.28025e-31
1.685e-29
1.36839e-29
1.97693e-29
1.33329e-31
3.4144e-30
5.90693e-29
1.08539e-28
3.88921e-28
7.28901e-28
6.10167e-27
6.16298e-26
5.94083e-25
4.12509e-24
2.35857e-23
9.86226e-23
2.8463e-22
4.60777e-22
2.69929e-22
1.66563e-23
6.35896e-22
3.77382e-21
4.20566e-21
6.40096e-22
5.16041e-22
7.17912e-21
2.55073e-22
7.59453e-21
1.18653e-21
8.10405e-22
1.28553e-21
6.44098e-22
1.35047e-23
6.64431e-23
3.38207e-23
2.94609e-24
2.11781e-26
4.56054e-26
1.04715e-25
5.19319e-26
1.20122e-26
1.88101e-27
5.4939e-28
4.01352e-29
7.36161e-30
1.00793e-29
6.80029e-30
5.80253e-30
6.38119e-30
1.23727e-30
1.09904e-30
5.17274e-30
2.40192e-31
3.1879e-30
1.58028e-30
1.11685e-30
7.05775e-31
1.14241e-29
4.58214e-29
6.73058e-30
5.20197e-31
2.56163e-29
2.06913e-29
2.69872e-29
2.30755e-31
6.86549e-30
8.12738e-29
1.46529e-28
4.80968e-28
8.79151e-28
7.90822e-27
7.98024e-26
7.66874e-25
5.34611e-24
3.06257e-23
1.2754e-22
3.64985e-22
5.79097e-22
3.24799e-22
2.36289e-23
9.02845e-22
4.72335e-21
4.7816e-21
6.16966e-22
1.02436e-21
8.82319e-21
9.04362e-22
7.96675e-21
2.4459e-21
7.45408e-22
1.98458e-21
9.90426e-22
1.58636e-23
1.08082e-22
6.33906e-23
6.28617e-24
4.6203e-26
9.69831e-26
2.41875e-25
1.23798e-25
2.9594e-26
4.87744e-27
1.26776e-27
9.53332e-29
1.46109e-29
1.76195e-29
1.16429e-29
7.50937e-30
7.76081e-30
1.37206e-30
1.27852e-30
6.81378e-30
4.62803e-31
4.02531e-30
2.12384e-30
1.6766e-30
1.08765e-30
1.70475e-29
6.68007e-29
9.0224e-30
1.45165e-30
3.85376e-29
3.11616e-29
3.54362e-29
4.38077e-31
1.14007e-29
1.06579e-28
1.96042e-28
5.84152e-28
1.06972e-27
1.00391e-26
9.91242e-26
9.56811e-25
6.76063e-24
3.90742e-23
1.63122e-22
4.65852e-22
7.29708e-22
3.95879e-22
2.86455e-23
1.15662e-21
5.38572e-21
4.92446e-21
6.19513e-22
1.48353e-21
7.69968e-21
2.44283e-21
7.39543e-21
4.74373e-21
5.87968e-22
3.07762e-21
1.42837e-21
2.08965e-23
1.76692e-22
1.13919e-22
1.24766e-23
9.21655e-26
2.1198e-25
5.53004e-25
2.91376e-25
7.20473e-26
1.25829e-26
2.94248e-27
2.28576e-28
3.28789e-29
3.01825e-29
1.90474e-29
1.013e-29
9.43487e-30
1.30504e-30
1.35377e-30
9.00635e-30
8.39282e-31
4.80476e-30
2.94024e-30
2.60282e-30
1.64693e-30
2.53182e-29
9.5567e-29
1.2019e-29
3.10098e-30
5.75529e-29
4.56016e-29
4.60542e-29
7.49366e-31
1.60556e-29
1.37855e-28
2.62192e-28
7.09616e-28
1.31047e-27
1.24328e-26
1.18073e-25
1.14993e-24
8.33274e-24
4.87501e-23
2.05388e-22
5.88697e-22
9.26079e-22
4.9545e-22
2.49108e-23
1.3394e-21
5.99137e-21
4.98223e-21
7.90484e-22
2.24355e-21
5.21807e-21
6.29549e-21
5.39864e-21
9.57961e-21
4.14238e-22
5.16171e-21
2.08959e-21
2.98913e-23
3.03565e-22
2.09625e-22
2.502e-23
1.86374e-25
4.67177e-25
1.27038e-24
6.93424e-25
1.77708e-25
3.2999e-26
7.15563e-27
5.5748e-28
8.49044e-29
5.47479e-29
3.08321e-29
1.54678e-29
1.15276e-29
1.28668e-30
1.48633e-30
1.21944e-29
1.62665e-30
5.64195e-30
4.0515e-30
4.11641e-30
2.47293e-30
3.82756e-29
1.37665e-28
1.62507e-29
5.7831e-30
8.54357e-29
6.57277e-29
6.06987e-29
1.01487e-30
1.99218e-29
1.79127e-28
3.5651e-28
8.68412e-28
1.69165e-27
1.60781e-26
1.40551e-25
1.37294e-24
1.02323e-23
6.04998e-23
2.58798e-22
7.55774e-22
1.21466e-21
6.54571e-22
1.42634e-23
1.50487e-21
7.07344e-21
5.22587e-21
1.43657e-21
4.30334e-21
2.21599e-21
1.58035e-20
2.82104e-21
1.95224e-20
2.57108e-22
8.87276e-21
3.30533e-21
4.19806e-23
5.35413e-22
4.02315e-22
5.33738e-23
4.46202e-25
9.67327e-25
2.87885e-24
1.65943e-24
4.45347e-25
8.77368e-26
1.83534e-26
1.42619e-27
2.34941e-28
1.11428e-28
4.88071e-29
2.73538e-29
1.44833e-29
1.57399e-30
1.80368e-30
1.66721e-29
2.96685e-30
7.00179e-30
6.26482e-30
6.74837e-30
4.00062e-30
5.87743e-29
1.92726e-28
2.24216e-29
1.03151e-29
1.28744e-28
9.36099e-29
8.18699e-29
1.1733e-30
2.44706e-29
2.42657e-28
4.92938e-28
1.11059e-27
2.71178e-27
2.52077e-26
1.90025e-25
1.75919e-24
1.30649e-23
7.6807e-23
3.32904e-22
1.00702e-21
1.67944e-21
9.48183e-22
7.36244e-24
1.73864e-21
8.90857e-21
5.99119e-21
3.33366e-21
9.68545e-21
2.73383e-22
3.72787e-20
1.51415e-21
3.77541e-20
1.73511e-22
1.45459e-20
5.68927e-21
5.71008e-23
9.21189e-22
7.89524e-22
1.21357e-22
1.34968e-24
1.75209e-24
6.24609e-24
3.90469e-24
1.11627e-24
2.33417e-25
4.88494e-26
3.87428e-27
6.65052e-28
2.58568e-28
7.92236e-29
5.17722e-29
1.76965e-29
2.40057e-30
2.55997e-30
2.25318e-29
5.33174e-30
9.08715e-30
1.08144e-29
1.04103e-29
7.31416e-30
9.29626e-29
2.68754e-28
3.24606e-29
1.89508e-29
1.9626e-28
1.33604e-28
1.12516e-28
1.30964e-30
3.09525e-29
3.34954e-28
7.19754e-28
1.63459e-27
6.48923e-27
5.55208e-26
3.4445e-25
2.68377e-24
1.83279e-23
1.01715e-22
4.37831e-22
1.37622e-21
2.45965e-21
1.53409e-21
9.59106e-24
2.28389e-21
1.2663e-20
7.49293e-21
9.20348e-21
2.1285e-20
6.12736e-23
8.03328e-20
4.5419e-21
6.76179e-20
5.56764e-22
2.25223e-20
1.02513e-20
7.86498e-23
1.49493e-21
1.53681e-21
2.82981e-22
4.72873e-24
2.64521e-24
1.26762e-23
8.82721e-24
2.73324e-24
6.08126e-25
1.30696e-25
1.10011e-26
1.90411e-27
6.60872e-28
1.30919e-28
1.01467e-28
2.10141e-29
4.14437e-30
4.08012e-30
3.05837e-29
8.8497e-30
1.2946e-29
2.12872e-29
1.38894e-29
1.45825e-29
1.48033e-28
3.65944e-28
5.22811e-29
3.49712e-29
3.0251e-28
1.9065e-28
1.56425e-28
1.31411e-30
4.22512e-29
4.76662e-28
1.16603e-27
3.13182e-27
2.11189e-26
1.59056e-25
8.45562e-25
5.11249e-24
2.91345e-23
1.42107e-22
5.935e-22
1.96033e-21
3.84778e-21
2.67103e-21
2.11474e-23
3.69099e-21
2.08521e-20
9.56658e-21
2.57898e-20
4.28511e-20
5.23636e-21
1.53782e-19
2.44616e-20
1.14209e-19
3.30792e-21
3.28595e-20
1.85789e-20
1.28422e-22
2.25398e-21
2.89251e-21
6.4869e-22
1.67579e-23
3.21579e-24
2.38379e-23
1.89113e-23
6.41937e-24
1.52596e-24
3.42059e-25
3.15133e-26
5.45821e-27
1.7936e-27
2.32826e-28
2.00314e-28
2.33554e-29
7.48689e-30
7.57785e-30
4.21482e-29
1.59461e-29
1.99793e-29
4.36819e-29
1.45437e-29
2.80939e-29
2.40476e-28
5.03447e-28
9.84144e-29
6.21634e-29
4.67931e-28
2.7542e-28
2.21781e-28
1.26532e-30
6.15865e-29
6.94847e-28
2.21173e-27
7.85124e-27
7.34565e-26
4.89607e-25
2.367e-24
1.12595e-23
5.10719e-23
2.07938e-22
8.34595e-22
2.96832e-21
6.39896e-21
4.70575e-21
3.23016e-23
7.14904e-21
3.74523e-20
1.23505e-20
6.80268e-20
7.64199e-20
4.15719e-20
2.71978e-19
9.62036e-20
1.80086e-19
1.40408e-20
4.50742e-20
3.32723e-20
2.84244e-22
3.1672e-21
5.21241e-21
1.42691e-21
5.49532e-23
3.0127e-24
4.16105e-23
3.82583e-23
1.43256e-23
3.64672e-24
8.58907e-25
8.80522e-26
1.5392e-26
4.99661e-27
4.50588e-28
4.03999e-28
2.67262e-29
1.43235e-29
1.52305e-29
5.87783e-29
3.0148e-29
3.45697e-29
9.30411e-29
1.12849e-29
4.82049e-29
4.00055e-28
6.7277e-28
2.16694e-28
1.00768e-28
7.42077e-28
3.95028e-28
3.25065e-28
1.27753e-30
9.79889e-29
1.12291e-27
4.73184e-27
2.28182e-26
2.38342e-25
1.43113e-24
6.51186e-24
2.55991e-23
9.32068e-23
3.11822e-22
1.21462e-21
4.74864e-21
1.10288e-20
8.04418e-21
2.54707e-23
1.53593e-20
6.88478e-20
1.5917e-20
1.63159e-19
1.24551e-19
1.70419e-19
4.45644e-19
2.91093e-19
2.67082e-19
4.45545e-20
5.77828e-20
5.80471e-20
7.40655e-22
4.19426e-21
9.00354e-21
2.98521e-21
1.62049e-22
1.97951e-24
6.79827e-23
7.33522e-23
3.03561e-23
8.28256e-24
2.05379e-24
2.34942e-25
4.20491e-26
1.39415e-26
1.00124e-27
8.35459e-28
3.69201e-29
2.84576e-29
3.15369e-29
8.21976e-29
6.43416e-29
6.58534e-29
2.00875e-28
5.5321e-30
6.84944e-29
7.01193e-28
8.93084e-28
5.18989e-28
1.48134e-28
1.21146e-27
5.6991e-28
4.93784e-28
2.4441e-30
1.6799e-28
2.11974e-27
1.07558e-26
6.75568e-26
6.93782e-25
3.82709e-24
1.66038e-23
5.61084e-23
1.69405e-22
4.71482e-22
1.83249e-21
7.92667e-21
1.91659e-20
1.30672e-20
5.87457e-24
3.39238e-20
1.24853e-19
2.06316e-20
3.57255e-19
1.81532e-19
5.13679e-19
7.01805e-19
7.31695e-19
3.74337e-19
1.14455e-19
7.02651e-20
9.83097e-20
1.93603e-21
5.31554e-21
1.50154e-20
5.9503e-21
4.30821e-22
6.99483e-25
1.05139e-22
1.34314e-22
6.13499e-23
1.79267e-23
4.67487e-24
5.94027e-25
1.10223e-25
3.81448e-26
2.51005e-27
1.83017e-27
7.66784e-29
5.78562e-29
6.03514e-29
1.1687e-28
1.40751e-28
1.37573e-28
4.48048e-28
1.83843e-30
7.59154e-29
1.30757e-27
1.14344e-27
1.26241e-27
1.96876e-28
2.06838e-27
8.35595e-28
7.71594e-28
6.29646e-30
3.07821e-28
4.84912e-27
2.41963e-26
1.9171e-25
1.81449e-24
9.35218e-24
3.88575e-23
1.15869e-22
2.999e-22
7.14651e-22
2.87174e-21
1.36073e-20
3.301e-20
2.01045e-20
1.19293e-24
7.34874e-20
2.19457e-19
2.65148e-20
7.25911e-19
2.57034e-19
1.27251e-18
1.04903e-18
1.60514e-18
5.09563e-19
2.54863e-19
8.2534e-20
1.62097e-19
4.70758e-21
6.54437e-21
2.43924e-20
1.13799e-20
1.04863e-21
5.20671e-26
1.55663e-22
2.36997e-22
1.19112e-22
3.72327e-23
1.01869e-23
1.42506e-24
2.76296e-25
1.01379e-25
7.00494e-27
4.27658e-27
2.30445e-28
1.14298e-28
1.03758e-28
1.77894e-28
3.37647e-28
3.02157e-28
1.01945e-27
5.42901e-30
5.62377e-29
2.64672e-27
1.48552e-27
2.99253e-27
2.41396e-28
3.66946e-27
1.35257e-27
1.22849e-27
1.76867e-29
5.8027e-28
1.24346e-26
5.25135e-26
5.11286e-25
4.31807e-24
2.11412e-23
8.41678e-23
2.24906e-22
5.13688e-22
1.08495e-21
4.66291e-21
2.36706e-20
5.58876e-20
2.93783e-20
8.54007e-23
1.53889e-19
3.75273e-19
3.56369e-20
1.38269e-18
3.53644e-19
2.75165e-18
1.53294e-18
3.20442e-18
6.77569e-19
5.13299e-19
9.4426e-20
2.62048e-19
1.05848e-20
7.93696e-21
3.89557e-20
2.10706e-20
2.37855e-21
2.96829e-25
2.22952e-22
4.06717e-22
2.23981e-22
7.47776e-23
2.1405e-23
3.26749e-24
6.64973e-25
2.60526e-25
2.05511e-26
1.06885e-26
8.63569e-28
2.26237e-28
1.53182e-28
3.12463e-28
8.32545e-28
6.66167e-28
2.37466e-27
6.0516e-29
2.09979e-29
5.81625e-27
1.89837e-27
6.84545e-27
2.68517e-28
6.84855e-27
2.58567e-27
2.0148e-27
4.22483e-29
1.07623e-27
3.36617e-26
1.07429e-25
1.28647e-24
9.4958e-24
4.4829e-23
1.70857e-22
4.13395e-22
8.52055e-22
1.65715e-21
7.78906e-21
4.12407e-20
9.24798e-20
4.08625e-20
8.73244e-22
3.1126e-19
6.26769e-19
4.84525e-20
2.50089e-18
4.73046e-19
5.44508e-18
2.18009e-18
5.95208e-18
8.90646e-19
9.59335e-19
1.06655e-19
4.17459e-19
2.21482e-20
9.60373e-21
6.16445e-20
3.80999e-20
5.11288e-21
5.53501e-24
3.11366e-22
6.84228e-22
4.11118e-22
1.46414e-22
4.37335e-23
7.22383e-24
1.54749e-24
6.49191e-25
6.14504e-26
2.81187e-26
3.40812e-27
4.53149e-28
1.93714e-28
6.82676e-28
2.20251e-27
1.4266e-27
5.60518e-27
4.00426e-28
1.44982e-29
1.38395e-26
2.56535e-27
1.50427e-26
2.69072e-28
1.32633e-26
6.24433e-27
3.49748e-27
1.07929e-28
1.90068e-27
9.07045e-26
2.07813e-25
3.07754e-24
1.95668e-23
9.03858e-23
3.29016e-22
7.25084e-22
1.37431e-21
2.55792e-21
1.32895e-20
7.15168e-20
1.49786e-19
5.4362e-20
4.59344e-21
6.1036e-19
1.02656e-18
6.78537e-20
4.37068e-18
6.27161e-19
1.00871e-17
3.09466e-18
1.05632e-17
1.15538e-18
1.70108e-18
1.18266e-19
6.5759e-19
4.38116e-20
1.16611e-20
9.69831e-20
6.76268e-20
1.05398e-20
3.4549e-23
4.25211e-22
1.13296e-21
7.39631e-22
2.8068e-22
8.7298e-23
1.54966e-23
3.50179e-24
1.57032e-24
1.81257e-25
7.6555e-26
1.31836e-26
9.70898e-28
2.03182e-28
1.8306e-27
5.99546e-27
2.87491e-27
1.33083e-26
1.89527e-27
3.03724e-28
3.4967e-26
3.82438e-27
3.18079e-26
2.2774e-28
2.64303e-26
1.80132e-26
6.74338e-27
3.32753e-28
3.07639e-27
2.38367e-25
3.77488e-25
7.05919e-24
3.81234e-23
1.74748e-22
6.05367e-22
1.21972e-21
2.15767e-21
3.99945e-21
2.29269e-20
1.22801e-19
2.3729e-19
6.91617e-20
1.74239e-20
1.16341e-18
1.65209e-18
9.61849e-20
7.49759e-18
8.78998e-19
1.79243e-17
4.01661e-18
1.65135e-17
1.37481e-18
2.64128e-18
1.19211e-19
9.43014e-19
7.59203e-20
1.31784e-20
1.40154e-19
1.09068e-19
1.93947e-20
1.28982e-22
5.23388e-22
1.70633e-21
1.20619e-21
4.87611e-22
1.57675e-22
2.98917e-23
7.1409e-24
3.41517e-24
4.82038e-25
1.95149e-25
4.48422e-26
2.15166e-27
1.66192e-28
5.17776e-27
1.59313e-26
5.01058e-27
2.88955e-26
6.69193e-27
3.03933e-27
8.50885e-26
6.72982e-27
5.96259e-26
1.42411e-28
4.89056e-26
5.2986e-26
1.38872e-26
1.28162e-27
4.12924e-27
5.53827e-25
5.98053e-25
1.44045e-23
6.5168e-23
3.00739e-22
9.86517e-22
1.8176e-21
3.04257e-21
5.83514e-21
3.65835e-20
1.91724e-19
3.38626e-19
7.71787e-20
5.03027e-20
1.99193e-18
2.40289e-18
1.27589e-19
1.16273e-17
1.21292e-18
2.81492e-17
2.28246e-18
1.09681e-17
7.09839e-19
1.72048e-18
5.26819e-20
5.79704e-19
5.47338e-20
6.52381e-21
8.76262e-20
7.54657e-20
1.51096e-20
1.66834e-22
2.72717e-22
1.10208e-21
8.41371e-22
3.62414e-22
1.21702e-22
2.45243e-23
6.20752e-24
3.15443e-24
5.40348e-25
2.16146e-25
6.2844e-26
2.51724e-27
5.12433e-29
6.62704e-27
1.88851e-26
3.47568e-27
2.68217e-26
8.99084e-27
7.92345e-27
9.21287e-26
6.65941e-27
4.68472e-26
2.74731e-29
3.94661e-26
6.8683e-26
1.44263e-26
2.38278e-27
2.05494e-27
5.36531e-25
3.8695e-25
1.23941e-23
4.62177e-23
2.17907e-22
6.72646e-22
1.13073e-21
1.81194e-21
3.73863e-21
2.52658e-20
1.27878e-19
2.04662e-19
3.52813e-20
5.57088e-20
1.44666e-18
1.48818e-18
7.46899e-20
7.78784e-18
7.85934e-19
1.87896e-17
5.87548e-19
3.16543e-18
1.6325e-19
4.84197e-19
1.07114e-20
1.57103e-19
1.69602e-20
1.45425e-21
2.43336e-20
2.30552e-20
5.14849e-21
8.40315e-23
6.14685e-23
3.13586e-22
2.58216e-22
1.18656e-22
4.1346e-23
8.81815e-24
2.37076e-24
1.27709e-24
2.62647e-25
1.05696e-25
3.72211e-26
1.58344e-27
6.86979e-30
3.74777e-27
1.01138e-26
9.87015e-28
1.09386e-26
4.8688e-27
6.91132e-27
4.50554e-26
3.53978e-27
1.59072e-26
3.09203e-30
1.41616e-26
3.88692e-26
7.38759e-27
1.90251e-27
3.74855e-28
2.23251e-25
1.052e-25
4.63885e-24
1.3995e-23
6.84978e-23
1.97478e-22
3.00964e-22
4.66909e-22
1.07921e-21
7.72041e-21
3.73912e-20
5.36923e-20
6.71047e-21
2.511e-20
4.5815e-19
4.00804e-19
2.02471e-20
2.30496e-18
2.42326e-19
5.44287e-18
1.37279e-19
8.01121e-19
3.30736e-20
1.18172e-19
1.97943e-21
3.70671e-20
4.48733e-21
2.86898e-22
5.92195e-21
6.15406e-21
1.52312e-21
3.41531e-23
1.17464e-23
7.76281e-23
6.89466e-23
3.38572e-23
1.22364e-23
2.75424e-24
7.88435e-25
4.48893e-25
1.09268e-25
4.48786e-26
1.84394e-26
9.77962e-28
8.94606e-31
1.79592e-27
4.66624e-27
2.23074e-28
3.88037e-27
2.14813e-27
4.45849e-27
1.93964e-26
1.75798e-27
4.6211e-27
2.50835e-30
4.45153e-27
1.86763e-26
3.47499e-27
1.20412e-27
4.4745e-29
7.91467e-26
2.35821e-26
1.49806e-24
3.58031e-24
1.84713e-23
4.93688e-23
6.73936e-23
1.02524e-22
2.76605e-22
2.05734e-21
9.46253e-21
1.20597e-20
1.03192e-21
9.29057e-21
1.25096e-19
9.2756e-20
5.12735e-21
6.02144e-19
6.83385e-20
1.37611e-18
3.14683e-20
1.87036e-19
6.36268e-21
2.64076e-20
3.58673e-22
8.11387e-21
1.08292e-21
5.33263e-23
1.34614e-21
1.53366e-21
4.19146e-22
1.22917e-23
2.00687e-24
1.78311e-23
1.71044e-23
8.99806e-24
3.3723e-24
7.98855e-25
2.44284e-25
1.46519e-25
4.16169e-26
1.75772e-26
8.22461e-27
5.43529e-28
3.82448e-31
7.79829e-28
2.00781e-27
4.31624e-29
1.27601e-27
8.37562e-28
2.38741e-27
7.76941e-27
8.31384e-28
1.22013e-27
2.6784e-30
1.29951e-27
8.09758e-27
1.57068e-27
6.7559e-28
2.36688e-30
2.57442e-26
4.58517e-27
4.47194e-25
8.24564e-25
4.58239e-24
1.1198e-23
1.35412e-23
2.04503e-23
6.82039e-23
5.11406e-22
2.21984e-21
2.47413e-21
1.34323e-22
3.05855e-21
3.15109e-20
1.96504e-20
1.33425e-21
1.47065e-19
1.92781e-20
3.20272e-19
3.78886e-23
3.83784e-22
6.92075e-24
1.70466e-22
9.68417e-24
1.7377e-23
4.4843e-24
2.95205e-27
5.71295e-26
1.99729e-26
4.50944e-27
5.326e-28
3.83888e-30
2.93107e-30
1.88639e-29
2.64871e-31
2.35473e-31
3.73184e-30
1.22023e-30
8.66242e-32
5.25054e-31
9.31997e-31
9.55789e-31
2.84645e-33
4.90106e-31
9.57734e-31
1.61648e-33
5.80492e-31
7.88748e-32
9.5292e-32
1.8243e-32
1.18312e-30
7.55652e-30
5.90543e-31
9.09261e-32
2.84993e-30
5.78601e-30
3.72417e-30
5.09775e-32
6.84689e-31
9.37108e-30
3.3214e-29
7.27084e-29
1.91511e-28
1.41456e-27
1.41611e-26
1.34155e-25
9.84975e-25
5.57631e-24
2.39423e-23
6.9921e-23
1.16549e-22
6.70393e-23
2.73411e-25
1.59866e-22
1.01061e-21
9.32989e-22
2.50333e-23
3.08141e-22
3.35421e-22
1.19294e-24
7.49436e-22
1.42571e-23
2.15046e-22
2.14607e-23
2.55782e-23
2.2599e-24
6.02541e-25
3.96446e-25
2.42224e-26
2.33622e-28
1.83493e-28
8.27555e-28
3.87558e-28
2.08197e-28
1.28361e-29
4.73614e-30
5.07431e-30
1.18987e-30
5.74548e-31
5.51771e-31
2.01488e-30
1.24211e-30
5.03769e-32
5.53705e-31
1.61329e-30
2.12053e-32
7.41377e-31
1.59219e-31
1.9148e-31
2.85429e-32
1.60202e-30
1.06278e-29
1.80132e-30
3.47999e-32
4.46294e-30
7.55303e-30
7.41135e-30
1.40049e-31
5.36465e-31
1.49288e-29
4.47813e-29
1.4649e-28
2.99225e-28
2.54523e-27
2.54285e-26
2.41804e-25
1.72689e-24
9.9835e-24
4.27708e-23
1.27083e-22
2.14657e-22
1.32606e-22
2.59671e-24
2.1012e-22
1.65546e-21
1.72696e-21
1.94111e-22
8.33615e-23
1.1642e-21
8.35691e-25
1.25356e-21
4.70349e-23
3.1091e-22
1.01315e-22
7.22559e-23
5.00647e-24
4.37704e-24
1.77402e-24
1.10489e-25
1.06483e-27
1.67805e-27
3.87647e-27
1.83341e-27
5.51474e-28
5.85342e-29
2.30129e-29
9.12919e-30
1.29128e-30
1.65926e-30
1.103e-30
1.78786e-30
2.50022e-30
1.63131e-31
5.32748e-31
2.4003e-30
4.39756e-32
8.04974e-31
3.81483e-31
4.37859e-31
1.05451e-31
3.34996e-30
1.56834e-29
2.29535e-30
1.86761e-32
7.08044e-30
9.9989e-30
1.07709e-29
2.33682e-31
6.27541e-31
2.23104e-29
6.07226e-29
2.09984e-28
4.75193e-28
3.60455e-27
3.59364e-26
3.48787e-25
2.47806e-24
1.43292e-23
6.1497e-23
1.83593e-22
3.1423e-22
2.0283e-22
7.92885e-24
2.8615e-22
2.32432e-21
2.8824e-21
3.79207e-22
1.43701e-22
1.9104e-21
8.78845e-24
2.78348e-21
1.51941e-22
5.49307e-22
3.32617e-22
1.82751e-22
9.99007e-24
1.5674e-23
6.04981e-24
4.1387e-25
4.34552e-27
7.63025e-27
1.46096e-26
6.88873e-27
1.63515e-27
2.26212e-28
7.93774e-29
1.28803e-29
2.11256e-30
3.395e-30
2.09294e-30
2.23693e-30
3.71681e-30
4.22026e-31
6.38357e-31
3.54818e-30
7.46986e-32
1.16606e-30
6.33425e-31
7.28816e-31
2.42651e-31
4.95816e-30
2.0857e-29
2.91055e-30
5.50677e-32
1.18793e-29
1.24575e-29
1.52474e-29
2.09388e-31
1.40087e-30
3.47408e-29
7.73379e-29
2.82485e-28
5.88649e-28
4.6464e-27
4.65642e-26
4.54714e-25
3.18169e-24
1.82774e-23
7.73065e-23
2.27029e-22
3.78445e-22
2.34566e-22
1.1726e-23
4.3402e-22
2.95655e-21
3.53636e-21
5.49413e-22
2.36265e-22
4.06471e-21
4.51319e-23
5.34532e-21
4.64689e-22
7.48379e-22
7.36451e-22
3.69429e-22
1.21199e-23
3.65879e-23
1.58545e-23
1.20225e-24
9.14242e-27
2.02459e-26
4.23954e-26
2.04387e-26
4.67243e-27
6.97414e-28
2.23942e-28
2.24188e-29
3.68109e-30
6.47731e-30
4.07831e-30
3.11369e-30
4.95331e-30
8.63287e-31
8.32972e-31
4.88983e-30
1.45009e-31
1.60011e-30
9.11833e-31
1.00447e-30
4.25533e-31
7.1124e-30
2.92839e-29
4.12357e-30
2.1517e-31
1.83848e-29
1.65752e-29
2.11435e-29
2.09875e-31
3.03492e-30
5.10427e-29
1.0483e-28
3.6644e-28
7.22649e-28
6.07952e-27
6.17229e-26
5.97355e-25
4.15671e-24
2.37744e-23
9.94957e-23
2.87794e-22
4.67002e-22
2.75013e-22
1.69034e-23
6.41402e-22
3.83492e-21
4.27223e-21
6.43773e-22
5.31862e-22
7.2832e-21
2.59951e-22
7.62782e-21
1.20484e-21
8.06179e-22
1.29941e-21
6.40099e-22
1.31554e-23
6.63104e-23
3.37648e-23
2.94281e-24
2.04133e-26
4.48336e-26
1.04618e-25
5.20864e-26
1.211e-26
1.89123e-27
5.45892e-28
4.67577e-29
6.97594e-30
1.15765e-29
7.19526e-30
4.3302e-30
6.25465e-30
1.30975e-30
1.09629e-30
6.48671e-30
2.91176e-31
2.16307e-30
1.31048e-30
1.42288e-30
6.739e-31
1.04542e-29
4.23516e-29
5.73752e-30
6.95898e-31
2.76974e-29
2.3721e-29
2.85478e-29
2.97393e-31
6.05947e-30
7.27912e-29
1.4252e-28
4.601e-28
8.82533e-28
7.90362e-27
8.01179e-26
7.727e-25
5.39651e-24
3.09127e-23
1.28904e-22
3.69704e-22
5.87984e-22
3.30879e-22
2.38693e-23
9.16297e-22
4.81513e-21
4.85017e-21
6.11499e-22
1.05567e-21
8.91653e-21
9.17794e-22
7.99117e-21
2.4783e-21
7.31811e-22
1.99896e-21
9.84821e-22
1.51055e-23
1.07835e-22
6.33292e-23
6.28401e-24
4.44474e-26
9.53747e-26
2.41823e-25
1.24154e-25
2.97989e-26
4.90043e-27
1.26131e-27
1.04398e-28
1.39997e-29
1.94492e-29
1.22225e-29
5.68008e-30
7.58569e-30
1.49586e-30
1.31674e-30
8.34262e-30
5.34954e-31
2.58292e-30
1.85108e-30
2.08563e-30
1.03912e-30
1.60102e-29
6.2067e-29
7.91463e-30
1.78735e-30
4.13202e-29
3.47983e-29
3.73982e-29
4.93423e-31
1.00203e-29
9.88083e-29
1.91478e-28
5.65654e-28
1.07673e-27
1.00473e-26
9.96481e-26
9.66431e-25
6.83506e-24
3.95184e-23
1.6523e-22
4.72659e-22
7.41605e-22
4.02553e-22
2.88356e-23
1.18059e-21
5.49684e-21
4.97541e-21
6.0499e-22
1.52055e-21
7.75556e-21
2.47456e-21
7.43824e-21
4.81212e-21
5.6778e-22
3.0895e-21
1.42177e-21
1.95137e-23
1.76313e-22
1.13896e-22
1.24801e-23
8.85232e-26
2.08717e-25
5.53404e-25
2.92295e-25
7.25163e-26
1.26407e-26
2.93397e-27
2.40072e-28
3.11879e-29
3.21623e-29
1.96757e-29
7.91441e-30
9.17138e-30
1.46e-30
1.49862e-30
1.07939e-29
8.75961e-31
3.0497e-30
2.65761e-30
3.12698e-30
1.57544e-30
2.42419e-29
8.89723e-29
1.07779e-29
3.75702e-30
6.13495e-29
5.03455e-29
4.8045e-29
7.92773e-31
1.41103e-29
1.30036e-28
2.54675e-28
6.90854e-28
1.31596e-27
1.24667e-26
1.1889e-25
1.16493e-24
8.44051e-24
4.94203e-23
2.08479e-22
5.97757e-22
9.41171e-22
5.01946e-22
2.49355e-23
1.37385e-21
6.11417e-21
5.00815e-21
7.6436e-22
2.28486e-21
5.24099e-21
6.37443e-21
5.41811e-21
9.70356e-21
3.9326e-22
5.16623e-21
2.08475e-21
2.76616e-23
3.03037e-22
2.09802e-22
2.50544e-23
1.79612e-25
4.60945e-25
1.27255e-24
6.95989e-25
1.78888e-25
3.31628e-26
7.15129e-27
5.71666e-28
8.01886e-29
5.72874e-29
3.09475e-29
1.26687e-29
1.09824e-29
1.49464e-30
1.76081e-30
1.43734e-29
1.52974e-30
3.74386e-30
3.76656e-30
4.71385e-30
2.36247e-30
3.68433e-29
1.27393e-28
1.46324e-29
6.95132e-30
9.01941e-29
7.19055e-29
6.19097e-29
1.02552e-30
1.74381e-29
1.68879e-28
3.44593e-28
8.48014e-28
1.69499e-27
1.61505e-26
1.41921e-25
1.39589e-24
1.03925e-23
6.14972e-23
2.63172e-22
7.67953e-22
1.23295e-21
6.59919e-22
1.40065e-23
1.54921e-21
7.20692e-21
5.21677e-21
1.3939e-21
4.35224e-21
2.20931e-21
1.60002e-20
2.85475e-21
1.96937e-20
2.41053e-22
8.86361e-21
3.30802e-21
3.88738e-23
5.34806e-22
4.0314e-22
5.35192e-23
4.34843e-25
9.56711e-25
2.88629e-24
1.6666e-24
4.48448e-25
8.82232e-26
1.83837e-26
1.44577e-27
2.24733e-28
1.162e-28
4.75461e-29
2.31481e-29
1.33521e-29
1.87721e-30
2.2264e-30
1.93219e-29
2.66859e-30
5.02555e-30
5.9128e-30
7.42571e-30
3.82129e-30
5.64118e-29
1.75965e-28
2.02481e-29
1.20001e-29
1.33286e-28
1.01261e-28
8.20228e-29
1.12302e-30
2.12855e-29
2.27171e-28
4.78305e-28
1.08961e-27
2.72281e-27
2.53572e-26
1.92726e-25
1.79507e-24
1.33133e-23
7.82826e-23
3.39047e-22
1.02418e-21
1.70085e-21
9.51381e-22
6.80868e-24
1.79105e-21
9.04298e-21
5.9508e-21
3.27093e-21
9.78668e-21
2.71149e-22
3.77076e-20
1.59194e-21
3.79976e-20
1.64716e-22
1.45147e-20
5.70881e-21
5.32333e-23
9.2065e-22
7.91889e-22
1.21843e-22
1.33436e-24
1.73634e-24
6.26714e-24
3.92394e-24
1.12437e-24
2.34854e-25
4.90249e-26
3.91149e-27
6.46605e-28
2.68465e-28
7.62032e-29
4.44321e-29
1.58034e-29
2.8449e-30
3.19218e-30
2.55694e-29
4.80806e-30
6.94342e-30
1.02553e-29
1.13245e-29
6.95993e-30
8.92377e-29
2.42269e-28
3.00103e-29
2.0956e-29
1.98855e-28
1.43749e-28
1.12889e-28
1.12618e-30
2.68405e-29
3.131e-28
7.05254e-28
1.61378e-27
6.5305e-27
5.59154e-26
3.50525e-25
2.74329e-24
1.87214e-23
1.03839e-22
4.46128e-22
1.39852e-21
2.48463e-21
1.5338e-21
8.55009e-24
2.34598e-21
1.2793e-20
7.41335e-21
9.11541e-21
2.15128e-20
6.88285e-23
8.1186e-20
4.74659e-21
6.79849e-20
5.58099e-22
2.24837e-20
1.03028e-20
7.42473e-23
1.49458e-21
1.54248e-21
2.84423e-22
4.72409e-24
2.62386e-24
1.2728e-23
8.87608e-24
2.75361e-24
6.12168e-25
1.31365e-25
1.10997e-26
1.87498e-27
6.80281e-28
1.27596e-28
8.82323e-29
1.82295e-29
4.78165e-30
5.04772e-30
3.35464e-29
8.11878e-30
1.02529e-29
2.0228e-29
1.54922e-29
1.38053e-29
1.42978e-28
3.2833e-28
5.03584e-29
3.70868e-29
3.02588e-28
2.06545e-28
1.59377e-28
9.73353e-31
3.69122e-29
4.50295e-28
1.15065e-27
3.12012e-27
2.12593e-26
1.60307e-25
8.60362e-25
5.21871e-24
2.97764e-23
1.45132e-22
6.04582e-22
1.98826e-21
3.87815e-21
2.66667e-21
1.92988e-23
3.77219e-21
2.09892e-20
9.43743e-21
2.5696e-20
4.33053e-20
5.33591e-21
1.55486e-19
2.50413e-20
1.14825e-19
3.35635e-21
3.27998e-20
1.86942e-20
1.23885e-22
2.25368e-21
2.90466e-21
6.5247e-22
1.68295e-23
3.18758e-24
2.39481e-23
1.90254e-23
6.46834e-24
1.53682e-24
3.44172e-25
3.18124e-26
5.42133e-27
1.83075e-27
2.32141e-28
1.76487e-28
2.04293e-29
8.36012e-30
9.22875e-30
4.42435e-29
1.45386e-29
1.61395e-29
4.16142e-29
1.71283e-29
2.66822e-29
2.34583e-28
4.54715e-28
9.84295e-29
6.48039e-29
4.66023e-28
3.03967e-28
2.2889e-28
7.19802e-31
5.47006e-29
6.69192e-28
2.18587e-27
7.89602e-27
7.39109e-26
4.93637e-25
2.4035e-24
1.14601e-23
5.21552e-23
2.12283e-22
8.49756e-22
3.00528e-21
6.4374e-21
4.69714e-21
2.98506e-23
7.26847e-21
3.76247e-20
1.21798e-20
6.8106e-20
7.7311e-20
4.20477e-20
2.75175e-19
9.77269e-20
1.81161e-19
1.42306e-20
4.49223e-20
3.34969e-20
2.80753e-22
3.16651e-21
5.23613e-21
1.43588e-21
5.53154e-23
2.97717e-24
4.18172e-23
3.85023e-23
1.44381e-23
3.67418e-24
8.64799e-25
8.89416e-26
1.53826e-26
5.06751e-27
4.57537e-28
3.61841e-28
2.55534e-29
1.58403e-29
1.80089e-29
5.91262e-29
2.64301e-29
2.86337e-29
8.89683e-29
1.46375e-29
4.63382e-29
3.92947e-28
6.15765e-28
2.20242e-28
1.05223e-28
7.39908e-28
4.47148e-28
3.34383e-28
5.24415e-31
8.90562e-29
1.1082e-27
4.6681e-27
2.30964e-26
2.39706e-25
1.44301e-24
6.59788e-24
2.59861e-23
9.50539e-23
3.18055e-22
1.2356e-21
4.79921e-21
1.10801e-20
8.03164e-21
2.33489e-23
1.55475e-20
6.90849e-20
1.56939e-20
1.63711e-19
1.26152e-19
1.7191e-19
4.50753e-19
2.94837e-19
2.68741e-19
4.50958e-20
5.75757e-20
5.84291e-20
7.41895e-22
4.19214e-21
9.04655e-21
3.00482e-21
1.63274e-22
1.93994e-24
6.83337e-23
7.38362e-23
3.05995e-23
8.34799e-24
2.06884e-24
2.3729e-25
4.21446e-26
1.40847e-26
1.02846e-27
7.62899e-28
3.8876e-29
3.22005e-29
3.56848e-29
8.0267e-29
5.3465e-29
5.67456e-29
1.92748e-28
8.72925e-30
6.71998e-29
6.90881e-28
8.35391e-28
5.27321e-28
1.56624e-28
1.21093e-27
6.61884e-28
4.96594e-28
1.03848e-30
1.57246e-28
2.135e-27
1.06002e-26
6.85718e-26
6.97471e-25
3.8588e-24
1.67945e-23
5.68466e-23
1.72531e-22
4.80364e-22
1.86214e-21
7.99932e-21
1.92481e-20
1.30629e-20
5.02861e-24
3.42381e-20
1.25239e-19
2.03557e-20
3.58927e-19
1.83861e-19
5.17752e-19
7.10117e-19
7.39909e-19
3.76516e-19
1.15722e-19
7.00573e-20
9.89576e-20
1.95199e-21
5.3102e-21
1.50891e-20
5.99036e-21
4.34234e-22
6.66392e-25
1.05692e-22
1.3522e-22
6.18469e-23
1.80726e-23
4.7107e-24
5.99819e-25
1.10649e-25
3.84478e-26
2.58453e-27
1.70446e-27
8.21952e-29
6.84371e-29
6.58336e-29
1.12418e-28
1.11598e-28
1.24063e-28
4.30978e-28
4.15797e-30
7.6942e-29
1.28797e-27
1.09916e-27
1.27366e-27
2.11134e-28
2.07547e-27
9.8997e-28
7.48164e-28
3.2362e-30
2.98008e-28
4.93859e-27
2.38487e-26
1.94707e-25
1.82341e-24
9.42908e-24