/*--------------------------------*- C++ -*----------------------------------*\
| =========                 |                                                 |
| \\      /  F ield         | OpenFOAM: The Open Source CFD Toolbox           |
|  \\    /   O peration     | Version:  2312                                  |
|   \\  /    A nd           | Website:  www.openfoam.com                      |
|    \\/     M anipulation  |                                                 |
\*---------------------------------------------------------------------------*/
FoamFile
{
    version     2.0;
    format      ascii;
    arch        "LSB;label=32;scalar=64";
    class       volScalarField;
    location    "800";
    object      p;
}
// * * * * * * * * * * * * * * * * * * * * * * * * * * * * * * * * * * * * * //

dimensions      [0 2 -2 0 0 0 0];

internalField   nonuniform List<scalar> 
144000
(
1.38897e-10
1.23586e-10
-3.32052e-11
-1.65677e-10
-1.82218e-10
-1.60914e-10
-1.22046e-10
-1.01715e-10
-7.97703e-11
-7.55325e-11
-6.28478e-11
-6.33706e-11
-5.30017e-11
-5.51002e-11
-4.46051e-11
-4.64874e-11
-3.74897e-11
-4.10286e-11
-3.01791e-11
-3.21834e-11
-2.22014e-11
-2.62129e-11
-1.62764e-11
-2.01154e-11
-1.0219e-11
-1.39825e-11
-4.44538e-12
-9.22098e-12
4.96471e-13
-3.87393e-12
6.18413e-12
2.27394e-12
1.12672e-11
5.65485e-12
1.4876e-11
1.00518e-11
1.88045e-11
1.42137e-11
2.1999e-11
1.67334e-11
2.32173e-11
1.90202e-11
2.54038e-11
2.16809e-11
2.86416e-11
2.47921e-11
3.0861e-11
2.93535e-11
3.30843e-11
3.28772e-11
3.44102e-11
3.65001e-11
2.86915e-11
2.7077e-11
3.988e-12
1.81335e-12
-4.61947e-11
-1.03172e-10
-2.68022e-10
-3.6733e-11
1.47138e-10
1.28031e-10
-3.472e-11
-1.6756e-10
-1.83234e-10
-1.61242e-10
-1.22225e-10
-1.01795e-10
-7.99092e-11
-7.56143e-11
-6.2977e-11
-6.34267e-11
-5.31113e-11
-5.51401e-11
-4.46896e-11
-4.64992e-11
-3.75681e-11
-4.10452e-11
-3.02483e-11
-3.21773e-11
-2.22669e-11
-2.62101e-11
-1.63355e-11
-2.00968e-11
-1.02724e-11
-1.39596e-11
-4.50049e-12
-9.20076e-12
4.45353e-13
-3.8432e-12
6.13985e-12
2.31148e-12
1.12195e-11
5.68317e-12
1.48335e-11
1.00945e-11
1.87696e-11
1.4257e-11
2.19699e-11
1.67624e-11
2.31535e-11
1.89453e-11
2.53092e-11
2.17369e-11
2.86401e-11
2.48615e-11
3.08752e-11
2.94474e-11
3.31262e-11
3.29764e-11
3.45051e-11
3.66309e-11
2.88701e-11
2.72145e-11
4.32061e-12
2.17714e-12
-4.49505e-11
-1.02632e-10
-2.73775e-10
-4.04254e-11
1.572e-10
1.32832e-10
-3.64152e-11
-1.69866e-10
-1.84648e-10
-1.61863e-10
-1.22474e-10
-1.01956e-10
-8.0041e-11
-7.57651e-11
-6.31054e-11
-6.35557e-11
-5.32101e-11
-5.52444e-11
-4.47633e-11
-4.65631e-11
-3.7613e-11
-4.11171e-11
-3.02997e-11
-3.22245e-11
-2.23004e-11
-2.62603e-11
-1.63639e-11
-2.0123e-11
-1.02903e-11
-1.3983e-11
-4.51552e-12
-9.22795e-12
4.33759e-13
-3.85438e-12
6.13486e-12
2.30585e-12
1.12205e-11
5.66664e-12
1.48333e-11
1.01007e-11
1.87823e-11
1.42638e-11
2.1993e-11
1.67662e-11
2.31254e-11
1.87813e-11
2.52001e-11
2.17385e-11
2.87069e-11
2.49258e-11
3.09446e-11
2.95474e-11
3.32349e-11
3.30876e-11
3.46448e-11
3.67866e-11
2.9114e-11
2.74339e-11
4.72849e-12
2.59869e-12
-4.32469e-11
-1.00345e-10
-2.82705e-10
-4.4764e-11
1.68961e-10
1.37556e-10
-3.78977e-11
-1.72449e-10
-1.86723e-10
-1.62817e-10
-1.22816e-10
-1.02134e-10
-8.01708e-11
-7.59451e-11
-6.3258e-11
-6.37171e-11
-5.33276e-11
-5.53826e-11
-4.48559e-11
-4.66483e-11
-3.76523e-11
-4.12137e-11
-3.03655e-11
-3.22933e-11
-2.23302e-11
-2.63303e-11
-1.6394e-11
-2.01618e-11
-1.03021e-11
-1.40189e-11
-4.52e-12
-9.26911e-12
4.29367e-13
-3.87553e-12
6.14017e-12
2.29066e-12
1.12429e-11
5.63757e-12
1.4845e-11
1.00994e-11
1.88186e-11
1.42619e-11
2.20509e-11
1.67738e-11
2.31208e-11
1.85539e-11
2.50266e-11
2.16866e-11
2.88289e-11
2.50016e-11
3.10607e-11
2.96561e-11
3.34163e-11
3.32005e-11
3.48645e-11
3.69388e-11
2.95019e-11
2.76442e-11
5.34304e-12
2.97385e-12
-4.06037e-11
-9.67431e-11
-2.9428e-10
-4.93863e-11
1.80748e-10
1.41012e-10
-3.85278e-11
-1.74577e-10
-1.89302e-10
-1.64097e-10
-1.23237e-10
-1.02296e-10
-8.02931e-11
-7.61485e-11
-6.34502e-11
-6.39172e-11
-5.34801e-11
-5.55558e-11
-4.49832e-11
-4.67531e-11
-3.76995e-11
-4.13308e-11
-3.04597e-11
-3.23782e-11
-2.23668e-11
-2.64131e-11
-1.64392e-11
-2.02072e-11
-1.0319e-11
-1.40595e-11
-4.52398e-12
-9.31588e-12
4.19828e-13
-3.90015e-12
6.14537e-12
2.27413e-12
1.12778e-11
5.60392e-12
1.4858e-11
1.00954e-11
1.88716e-11
1.42552e-11
2.21424e-11
1.67909e-11
2.31462e-11
1.82837e-11
2.47496e-11
2.15646e-11
2.9004e-11
2.50905e-11
3.12193e-11
2.97631e-11
3.3674e-11
3.32948e-11
3.51743e-11
3.70524e-11
3.00614e-11
2.77825e-11
6.21963e-12
3.18748e-12
-3.69061e-11
-9.21261e-11
-3.07738e-10
-5.33758e-11
1.91343e-10
1.413e-10
-3.80365e-11
-1.75395e-10
-1.92091e-10
-1.6567e-10
-1.23707e-10
-1.02411e-10
-8.03899e-11
-7.63697e-11
-6.3685e-11
-6.41606e-11
-5.36737e-11
-5.57692e-11
-4.51521e-11
-4.68832e-11
-3.77593e-11
-4.14705e-11
-3.05867e-11
-3.24831e-11
-2.24129e-11
-2.65093e-11
-1.6503e-11
-2.02621e-11
-1.03432e-11
-1.41063e-11
-4.52905e-12
-9.36858e-12
4.02634e-13
-3.93031e-12
6.14907e-12
2.25477e-12
1.1325e-11
5.56532e-12
1.48714e-11
1.0084e-11
1.89432e-11
1.42382e-11
2.22744e-11
1.68166e-11
2.3219e-11
1.79663e-11
2.43351e-11
2.13489e-11
2.92358e-11
2.51878e-11
3.14211e-11
2.98521e-11
3.40128e-11
3.33489e-11
3.55847e-11
3.70909e-11
3.08137e-11
2.77898e-11
7.40624e-12
3.11924e-12
-3.20879e-11
-8.67467e-11
-3.22604e-10
-5.52045e-11
2.00353e-10
1.36296e-10
-3.66164e-11
-1.74085e-10
-1.94743e-10
-1.67486e-10
-1.242e-10
-1.02446e-10
-8.04402e-11
-7.65992e-11
-6.39601e-11
-6.44477e-11
-5.39108e-11
-5.60252e-11
-4.53664e-11
-4.70457e-11
-3.7836e-11
-4.16336e-11
-3.07489e-11
-3.26121e-11
-2.24714e-11
-2.66197e-11
-1.65878e-11
-2.03295e-11
-1.03761e-11
-1.4161e-11
-4.53663e-12
-9.42775e-12
3.76347e-13
-3.96837e-12
6.15084e-12
2.23018e-12
1.13838e-11
5.52127e-12
1.48854e-11
1.00603e-11
1.90359e-11
1.42052e-11
2.24541e-11
1.68485e-11
2.3368e-11
1.75963e-11
2.37371e-11
2.10163e-11
2.95289e-11
2.52883e-11
3.16688e-11
2.99057e-11
3.44384e-11
3.33415e-11
3.61105e-11
3.70169e-11
3.17838e-11
2.76037e-11
8.95846e-12
2.65737e-12
-2.60988e-11
-8.08304e-11
-3.38809e-10
-5.31528e-11
2.08075e-10
1.23978e-10
-3.48591e-11
-1.6991e-10
-1.96862e-10
-1.69485e-10
-1.2469e-10
-1.02365e-10
-8.04244e-11
-7.68257e-11
-6.42713e-11
-6.47765e-11
-5.41925e-11
-5.63238e-11
-4.5628e-11
-4.72432e-11
-3.79345e-11
-4.18195e-11
-3.09479e-11
-3.2768e-11
-2.2546e-11
-2.67443e-11
-1.66961e-11
-2.04116e-11
-1.04198e-11
-1.42244e-11
-4.54936e-12
-9.49321e-12
3.39319e-13
-4.01564e-12
6.1498e-12
2.19923e-12
1.1452e-11
5.47202e-12
1.48999e-11
1.00203e-11
1.91508e-11
1.41515e-11
2.26888e-11
1.68832e-11
2.36355e-11
1.71433e-11
2.28953e-11
2.05457e-11
2.98884e-11
2.5386e-11
3.1966e-11
2.99069e-11
3.49568e-11
3.32512e-11
3.67684e-11
3.67941e-11
3.29978e-11
2.71664e-11
1.09293e-11
1.71334e-12
-1.89374e-11
-7.45177e-11
-3.56581e-10
-4.56495e-11
2.15405e-10
1.02615e-10
-3.36753e-11
-1.62268e-10
-1.98024e-10
-1.71597e-10
-1.25166e-10
-1.02144e-10
-8.03242e-11
-7.70382e-11
-6.46137e-11
-6.51431e-11
-5.45186e-11
-5.66631e-11
-4.59373e-11
-4.74775e-11
-3.80593e-11
-4.20267e-11
-3.11838e-11
-3.29521e-11
-2.26407e-11
-2.68825e-11
-1.68293e-11
-2.05099e-11
-1.04763e-11
-1.42967e-11
-4.56999e-12
-9.56452e-12
2.90083e-13
-4.07294e-12
6.14487e-12
2.16124e-12
1.15267e-11
5.41801e-12
1.49152e-11
9.96105e-12
1.92884e-11
1.40729e-11
2.29865e-11
1.69158e-11
2.40822e-11
1.6564e-11
2.17275e-11
1.99199e-11
3.0321e-11
2.54742e-11
3.23175e-11
2.98402e-11
3.55741e-11
3.30583e-11
3.75743e-11
3.63934e-11
3.44779e-11
2.64334e-11
1.33553e-11
2.3824e-13
-1.06634e-11
-6.78514e-11
-3.76374e-10
-3.14478e-11
2.23553e-10
7.09318e-11
-3.41391e-11
-1.50718e-10
-1.978e-10
-1.73754e-10
-1.25627e-10
-1.01766e-10
-8.01247e-11
-7.72268e-11
-6.49827e-11
-6.55435e-11
-5.48881e-11
-5.70406e-11
-4.62932e-11
-4.77492e-11
-3.82146e-11
-4.22534e-11
-3.14558e-11
-3.31649e-11
-2.27591e-11
-2.70335e-11
-1.69882e-11
-2.06252e-11
-1.05473e-11
-1.43779e-11
-4.60128e-12
-9.64128e-12
2.27902e-13
-4.14073e-12
6.13509e-12
2.11596e-12
1.16047e-11
5.35954e-12
1.49315e-11
9.88024e-12
1.94483e-11
1.3965e-11
2.33546e-11
1.6943e-11
2.47889e-11
1.57934e-11
2.01323e-11
1.9129e-11
3.08341e-11
2.5546e-11
3.27283e-11
2.9692e-11
3.62944e-11
3.27465e-11
3.85398e-11
3.57841e-11
3.62367e-11
2.53788e-11
1.62483e-11
-1.77517e-12
-1.4207e-12
-6.07554e-11
-3.9865e-10
-9.79403e-12
2.33968e-10
2.82305e-11
-3.74561e-11
-1.35033e-10
-1.9577e-10
-1.75872e-10
-1.26087e-10
-1.01225e-10
-7.98157e-11
-7.73841e-11
-6.53745e-11
-6.59746e-11
-5.52999e-11
-5.74538e-11
-4.66946e-11
-4.80584e-11
-3.84039e-11
-4.24981e-11
-3.17623e-11
-3.34064e-11
-2.29044e-11
-2.71968e-11
-1.71729e-11
-2.07581e-11
-1.06346e-11
-1.44678e-11
-4.64537e-12
-9.72306e-12
1.5242e-13
-4.21932e-12
6.11947e-12
2.06339e-12
1.16832e-11
5.2969e-12
1.49493e-11
9.77662e-12
1.9629e-11
1.38249e-11
2.3799e-11
1.69629e-11
2.5869e-11
1.46935e-11
1.79818e-11
1.81679e-11
3.14324e-11
2.55929e-11
3.32022e-11
2.94528e-11
3.71189e-11
3.23052e-11
3.96703e-11
3.49585e-11
3.82722e-11
2.40005e-11
1.95892e-11
-4.28437e-12
8.59459e-12
-5.30794e-11
-4.23858e-10
1.95408e-11
2.48057e-10
-2.56051e-11
-4.4819e-11
-1.15214e-10
-1.91541e-10
-1.77844e-10
-1.26565e-10
-1.00526e-10
-7.93919e-11
-7.75044e-11
-6.57866e-11
-6.6434e-11
-5.57537e-11
-5.7901e-11
-4.71404e-11
-4.84044e-11
-3.86302e-11
-4.27598e-11
-3.21018e-11
-3.3676e-11
-2.30792e-11
-2.7372e-11
-1.73831e-11
-2.09088e-11
-1.07396e-11
-1.45661e-11
-4.70415e-12
-9.80967e-12
6.36365e-14
-4.30869e-12
6.09699e-12
2.00387e-12
1.17591e-11
5.23049e-12
1.49685e-11
9.65036e-12
1.98275e-11
1.3651e-11
2.43251e-11
1.6966e-11
2.75233e-11
1.31198e-11
1.50893e-11
1.70324e-11
3.21128e-11
2.5604e-11
3.37396e-11
2.91172e-11
3.80444e-11
3.17308e-11
4.09626e-11
3.39193e-11
4.05654e-11
2.23219e-11
2.33292e-11
-7.20302e-12
1.91304e-11
-4.46534e-11
-4.52255e-10
5.63092e-11
2.67202e-10
-9.01371e-11
-5.74004e-11
-9.15211e-11
-1.84766e-10
-1.79532e-10
-1.2708e-10
-9.96849e-11
-7.88528e-11
-7.75829e-11
-6.62165e-11
-6.69195e-11
-5.62491e-11
-5.83805e-11
-4.76294e-11
-4.87868e-11
-3.88961e-11
-4.30378e-11
-3.24723e-11
-3.39728e-11
-2.3286e-11
-2.75591e-11
-1.76181e-11
-2.10773e-11
-1.08638e-11
-1.46725e-11
-4.77888e-12
-9.90093e-12
-3.84396e-14
-4.40855e-12
6.06654e-12
1.93784e-12
1.183e-11
5.16105e-12
1.49886e-11
9.50319e-12
2.00391e-11
1.34429e-11
2.49337e-11
1.69447e-11
2.99868e-11
1.09358e-11
1.12505e-11
1.57576e-11
3.28765e-11
2.55727e-11
3.43385e-11
2.86859e-11
3.90605e-11
3.10279e-11
4.24026e-11
3.26839e-11
4.30799e-11
2.0392e-11
2.73907e-11
-1.04067e-11
2.99362e-11
-3.53586e-11
-4.83976e-10
9.98883e-11
2.92395e-10
-1.64312e-10
-7.61209e-11
-6.44593e-11
-1.75192e-10
-1.80773e-10
-1.2765e-10
-9.87326e-11
-7.82036e-11
-7.76154e-11
-6.66612e-11
-6.74291e-11
-5.67854e-11
-5.88904e-11
-4.81602e-11
-4.92043e-11
-3.9204e-11
-4.33319e-11
-3.28721e-11
-3.42957e-11
-2.35268e-11
-2.77584e-11
-1.7877e-11
-2.12632e-11
-1.10084e-11
-1.47867e-11
-4.87078e-12
-9.99677e-12
-1.53478e-13
-4.51812e-12
6.02698e-12
1.86592e-12
1.1893e-11
5.08969e-12
1.50082e-11
9.33949e-12
2.02554e-11
1.32089e-11
2.55978e-11
1.69607e-11
3.33995e-11
8.00465e-12
6.35344e-12
1.4446e-11
3.37447e-11
2.55087e-11
3.49987e-11
2.81682e-11
4.01522e-11
3.02127e-11
4.39652e-11
3.12857e-11
4.57619e-11
1.82831e-11
3.16718e-11
-1.37498e-11
4.0736e-11
-2.51022e-11
-5.18832e-10
1.49219e-10
3.24269e-10
-2.46423e-10
-1.01621e-10
-3.47932e-11
-1.6268e-10
-1.81381e-10
-1.28289e-10
-9.77136e-11
-7.74571e-11
-7.75991e-11
-6.71179e-11
-6.7961e-11
-5.73618e-11
-5.94294e-11
-4.87312e-11
-4.96556e-11
-3.95553e-11
-4.36421e-11
-3.32991e-11
-3.46435e-11
-2.38032e-11
-2.79704e-11
-1.81591e-11
-2.1466e-11
-1.11745e-11
-1.49088e-11
-4.98063e-12
-1.0097e-11
-2.81181e-13
-4.6365e-12
5.97687e-12
1.78896e-12
1.19455e-11
5.01809e-12
1.50245e-11
9.16567e-12
2.04647e-11
1.29666e-11
2.62569e-11
1.71831e-11
3.84674e-11
2.31143e-12
-3.31569e-13
1.30555e-11
3.46862e-11
2.5419e-11
3.57152e-11
2.75792e-11
4.12986e-11
2.93095e-11
4.56137e-11
2.97728e-11
4.85415e-11
1.60866e-11
3.60498e-11
-1.70681e-11
5.1276e-11
-1.38348e-11
-5.56402e-10
2.02814e-10
3.62908e-10
-3.34292e-10
-1.34161e-10
-3.48238e-12
-1.47215e-10
-1.81154e-10
-1.28995e-10
-9.66851e-11
-7.66346e-11
-7.75331e-11
-6.75838e-11
-6.8514e-11
-5.79781e-11
-5.99964e-11
-4.93415e-11
-5.01396e-11
-3.9951e-11
-4.39686e-11
-3.37518e-11
-3.50148e-11
-2.41163e-11
-2.81959e-11
-1.84635e-11
-2.1685e-11
-1.13633e-11
-1.50385e-11
-5.10912e-12
-1.02015e-11
-4.21296e-13
-4.76254e-12
5.91471e-12
1.70808e-12
1.1985e-11
4.9477e-12
1.50356e-11
8.98703e-12
2.06598e-11
1.2722e-11
2.68785e-11
1.69024e-11
4.68503e-11
-1.15074e-12
-9.51501e-12
1.125e-11
3.55025e-11
2.52731e-11
3.64644e-11
2.6931e-11
4.24692e-11
2.83499e-11
4.73015e-11
2.82061e-11
5.1336e-11
1.39099e-11
4.03923e-11
-2.01943e-11
6.13175e-11
-1.58946e-12
-5.95935e-10
2.58921e-10
4.08185e-10
-4.25611e-10
-1.738e-10
2.83149e-11
-1.289e-10
-1.79856e-10
-1.29743e-10
-9.57077e-11
-7.57642e-11
-7.74176e-11
-6.8056e-11
-6.9087e-11
-5.86341e-11
-6.05905e-11
-4.99898e-11
-5.06549e-11
-4.03915e-11
-4.43119e-11
-3.42289e-11
-3.54081e-11
-2.44666e-11
-2.84355e-11
-1.87898e-11
-2.19195e-11
-1.15757e-11
-1.51759e-11
-5.25649e-12
-1.031e-11
-5.73979e-13
-4.89497e-12
5.8387e-12
1.62471e-12
1.20086e-11
4.88198e-12
1.50354e-11
8.81532e-12
2.08173e-11
1.25354e-11
2.73233e-11
1.65085e-11
5.24582e-11
-1.15099e-14
-1.53193e-11
9.59649e-12
3.61573e-11
2.50938e-11
3.72411e-11
2.62497e-11
4.36297e-11
2.73734e-11
4.89735e-11
2.66561e-11
5.40532e-11
1.18688e-11
4.45631e-11
-2.29679e-11
7.0707e-11
1.14681e-11
-6.36619e-10
3.15852e-10
4.596e-10
-5.17522e-10
-2.20278e-10
5.93011e-11
-1.07991e-10
-1.77263e-10
-1.30495e-10
-9.4843e-11
-7.48812e-11
-7.72543e-11
-6.85303e-11
-6.96784e-11
-5.9329e-11
-6.12106e-11
-5.06744e-11
-5.11997e-11
-4.08768e-11
-4.46723e-11
-3.47288e-11
-3.58217e-11
-2.48546e-11
-2.86902e-11
-1.91372e-11
-2.21683e-11
-1.18124e-11
-1.53208e-11
-5.42316e-12
-1.0422e-11
-7.39355e-13
-5.03184e-12
5.74701e-12
1.54078e-12
1.20122e-11
4.82478e-12
1.50153e-11
8.66871e-12
2.09024e-11
1.25021e-11
2.74073e-11
1.69887e-11
4.77773e-11
5.80918e-14
-9.80593e-12
9.55191e-12
3.67019e-11
2.49446e-11
3.80494e-11
2.55796e-11
4.47432e-11
2.64261e-11
5.05698e-11
2.52007e-11
5.65962e-11
1.00827e-11
4.84277e-11
-2.52399e-11
7.93023e-11
2.51257e-11
-6.77433e-10
3.71772e-10
5.16318e-10
-6.06469e-10
-2.72984e-10
8.80812e-11
-8.48977e-11
-1.73168e-10
-1.31197e-10
-9.41753e-11
-7.40264e-11
-7.70468e-11
-6.90024e-11
-7.02863e-11
-6.00621e-11
-6.18556e-11
-5.13937e-11
-5.17723e-11
-4.14058e-11
-4.50499e-11
-3.52501e-11
-3.62539e-11
-2.528e-11
-2.89605e-11
-1.95052e-11
-2.24303e-11
-1.20742e-11
-1.54732e-11
-5.60937e-12
-1.0537e-11
-9.17721e-13
-5.17158e-12
5.63781e-12
1.45766e-12
1.19937e-11
4.77731e-12
1.49746e-11
8.54542e-12
2.09272e-11
1.2567e-11
2.72553e-11
1.7372e-11
3.98563e-11
4.30971e-12
4.70432e-13
1.01218e-11
3.69915e-11
2.47668e-11
3.8847e-11
2.49407e-11
4.57665e-11
2.55549e-11
5.2027e-11
2.39187e-11
5.88675e-11
8.66886e-12
5.18542e-11
-2.68634e-11
8.69816e-11
3.91801e-11
-7.17247e-10
4.24074e-10
5.76933e-10
-6.89434e-10
-3.30864e-10
1.13287e-10
-6.01487e-11
-1.67393e-10
-1.31785e-10
-9.37765e-11
-7.32494e-11
-7.68034e-11
-6.94691e-11
-7.09097e-11
-6.08336e-11
-6.25256e-11
-5.21469e-11
-5.23713e-11
-4.1978e-11
-4.54451e-11
-3.5792e-11
-3.67031e-11
-2.57423e-11
-2.9247e-11
-1.98939e-11
-2.27043e-11
-1.23615e-11
-1.56329e-11
-5.81547e-12
-1.06544e-11
-1.10961e-12
-5.31241e-12
5.50921e-12
1.37713e-12
1.19513e-11
4.74066e-12
1.49123e-11
8.44222e-12
2.09056e-11
1.26617e-11
2.70175e-11
1.7314e-11
3.4739e-11
1.07061e-11
7.87243e-12
1.02417e-11
3.70625e-11
2.45548e-11
3.95889e-11
2.43695e-11
4.666e-11
2.48096e-11
5.32834e-11
2.28885e-11
6.07745e-11
7.74057e-12
5.47185e-11
-2.7697e-11
9.36236e-11
5.34191e-11
-7.5469e-10
4.70719e-10
6.39993e-10
-7.6319e-10
-3.92731e-10
1.3357e-10
-3.43531e-11
-1.59782e-10
-1.32169e-10
-9.3705e-11
-7.26065e-11
-7.65367e-11
-6.99279e-11
-7.15472e-11
-6.16436e-11
-6.32207e-11
-5.29336e-11
-5.29954e-11
-4.25916e-11
-4.58581e-11
-3.63543e-11
-3.71681e-11
-2.62408e-11
-2.95505e-11
-2.03033e-11
-2.29894e-11
-1.26747e-11
-1.57997e-11
-6.04143e-12
-1.07734e-11
-1.31597e-12
-5.45253e-12
5.35947e-12
1.30122e-12
1.18831e-11
4.71809e-12
1.48232e-11
8.36842e-12
2.08242e-11
1.28092e-11
2.66693e-11
1.73025e-11
3.14551e-11
1.37379e-11
1.36974e-11
1.08129e-11
3.71197e-11
2.43933e-11
4.02632e-11
2.39069e-11
4.73872e-11
2.42364e-11
5.42806e-11
2.2181e-11
6.22317e-11
7.40039e-12
5.69053e-11
-2.76131e-11
9.91721e-11
6.76243e-11
-7.88506e-10
5.09542e-10
7.03902e-10
-8.24561e-10
-4.57247e-10
1.47705e-10
-8.183e-12
-1.50246e-10
-1.32228e-10
-9.40157e-11
-7.21583e-11
-7.62638e-11
-7.03768e-11
-7.21974e-11
-6.24916e-11
-6.39407e-11
-5.37528e-11
-5.36436e-11
-4.32449e-11
-4.62889e-11
-3.69362e-11
-3.76479e-11
-2.67743e-11
-2.98713e-11
-2.07337e-11
-2.32847e-11
-1.3014e-11
-1.59734e-11
-6.28725e-12
-1.08931e-11
-1.53748e-12
-5.59013e-12
5.18745e-12
1.23109e-12
1.1788e-11
4.71052e-12
1.47063e-11
8.32243e-12
2.06873e-11
1.29929e-11
2.62558e-11
1.73904e-11
2.91664e-11
1.58339e-11
1.86035e-11
1.17207e-11
3.71357e-11
2.42514e-11
4.08254e-11
2.35775e-11
4.79143e-11
2.38703e-11
5.4969e-11
2.18588e-11
6.31701e-11
7.72895e-12
5.83257e-11
-2.65344e-11
1.03568e-10
8.17024e-11
-8.17378e-10
5.38279e-10
7.67133e-10
-8.70388e-10
-5.23035e-10
1.54636e-10
1.76757e-11
-1.38783e-10
-1.31877e-10
-9.47523e-11
-7.19643e-11
-7.60061e-11
-7.08157e-11
-7.28596e-11
-6.33773e-11
-6.46857e-11
-5.46036e-11
-5.43156e-11
-4.39362e-11
-4.6737e-11
-3.75373e-11
-3.81421e-11
-2.73419e-11
-3.02094e-11
-2.11852e-11
-2.35894e-11
-1.33791e-11
-1.61542e-11
-6.55291e-12
-1.10124e-11
-1.77437e-12
-5.7235e-12
4.99265e-12
1.16728e-12
1.16657e-11
4.71832e-12
1.4563e-11
8.29926e-12
2.05069e-11
1.31804e-11
2.58508e-11
1.747e-11
2.76493e-11
1.7174e-11
2.25696e-11
1.2799e-11
3.70846e-11
2.41369e-11
4.12484e-11
2.34036e-11
4.82185e-11
2.37612e-11
5.53123e-11
2.19705e-11
6.35459e-11
8.79398e-12
5.89315e-11
-2.43113e-11
1.06456e-10
9.57964e-11
-8.40033e-10
5.54426e-10
8.28218e-10
-8.97542e-10
-5.88744e-10
1.53514e-10
4.25819e-11
-1.25496e-10
-1.31077e-10
-9.5953e-11
-7.20844e-11
-7.57905e-11
-7.12487e-11
-7.35364e-11
-6.43034e-11
-6.54583e-11
-5.54864e-11
-5.5014e-11
-4.46651e-11
-4.72027e-11
-3.81576e-11
-3.86516e-11
-2.79438e-11
-3.0565e-11
-2.16585e-11
-2.39039e-11
-1.37702e-11
-1.63428e-11
-6.83891e-12
-1.11304e-11
-2.02689e-12
-5.85179e-12
4.7748e-12
1.10939e-12
1.15157e-11
4.74263e-12
1.43938e-11
8.29638e-12
2.02893e-11
1.33648e-11
2.54759e-11
1.75162e-11
2.67078e-11
1.80105e-11
2.57163e-11
1.40044e-11
3.69842e-11
2.40852e-11
4.15179e-11
2.34102e-11
4.82848e-11
2.39275e-11
5.52928e-11
2.25399e-11
6.33435e-11
1.06186e-11
5.87055e-11
-2.08424e-11
1.07455e-10
1.10341e-10
-8.55155e-10
5.55084e-10
8.85664e-10
-9.02924e-10
-6.53115e-10
1.43647e-10
6.59979e-11
-1.10531e-10
-1.29801e-10
-9.7651e-11
-7.25831e-11
-7.56465e-11
-7.16814e-11
-7.42313e-11
-6.52748e-11
-6.62616e-11
-5.64039e-11
-5.57418e-11
-4.54328e-11
-4.76852e-11
-3.87977e-11
-3.91773e-11
-2.85809e-11
-3.09375e-11
-2.21553e-11
-2.42282e-11
-1.41885e-11
-1.65393e-11
-7.14618e-12
-1.12455e-11
-2.2962e-12
-5.97379e-12
4.53294e-12
1.0575e-12
1.1337e-11
4.78482e-12
1.41985e-11
8.31129e-12
2.00378e-11
1.35423e-11
2.51293e-11
1.75367e-11
2.61728e-11
1.85298e-11
2.81654e-11
1.53133e-11
3.68525e-11
2.41217e-11
4.1617e-11
2.36049e-11
4.80993e-11
2.43804e-11
5.49022e-11
2.35728e-11
6.25602e-11
1.32125e-11
5.76261e-11
-1.58667e-11
1.05906e-10
1.26102e-10
-8.61208e-10
5.37069e-10
1.38407e-10
1.22143e-10
-3.47942e-11
-1.67193e-10
-1.83668e-10
-1.62074e-10
-1.22986e-10
-1.02471e-10
-8.04288e-11
-7.61183e-11
-6.33575e-11
-6.37944e-11
-5.33726e-11
-5.54089e-11
-4.4874e-11
-4.67093e-11
-3.7638e-11
-4.10936e-11
-3.02169e-11
-3.2194e-11
-2.21953e-11
-2.61835e-11
-1.6258e-11
-2.00941e-11
-1.02085e-11
-1.39917e-11
-4.44877e-12
-9.23346e-12
4.69033e-13
-3.92829e-12
6.14333e-12
2.19284e-12
1.12225e-11
5.54708e-12
1.48652e-11
9.96058e-12
1.8902e-11
1.41406e-11
2.22729e-11
1.67242e-11
2.38467e-11
1.94429e-11
2.58938e-11
2.22477e-11
2.90475e-11
2.5139e-11
3.12519e-11
2.98141e-11
3.36227e-11
3.349e-11
3.51073e-11
3.72515e-11
2.96052e-11
2.80617e-11
5.10813e-12
2.97159e-12
-4.53759e-11
-1.03223e-10
-2.69805e-10
-3.79356e-11
1.46642e-10
1.26586e-10
-3.6322e-11
-1.69074e-10
-1.84683e-10
-1.62401e-10
-1.23163e-10
-1.02551e-10
-8.05692e-11
-7.62032e-11
-6.34895e-11
-6.38542e-11
-5.34854e-11
-5.54529e-11
-4.49623e-11
-4.67261e-11
-3.77184e-11
-4.11127e-11
-3.02873e-11
-3.21903e-11
-2.22606e-11
-2.61811e-11
-1.63172e-11
-2.00768e-11
-1.0262e-11
-1.39699e-11
-4.50203e-12
-9.21191e-12
4.19454e-13
-3.8968e-12
6.09998e-12
2.23066e-12
1.11756e-11
5.57692e-12
1.48222e-11
1.00053e-11
1.88655e-11
1.41884e-11
2.22413e-11
1.67673e-11
2.38018e-11
1.94295e-11
2.58411e-11
2.23092e-11
2.90454e-11
2.52086e-11
3.12667e-11
2.99079e-11
3.36653e-11
3.35899e-11
3.52029e-11
3.73832e-11
2.97856e-11
2.82008e-11
5.44328e-12
3.33805e-12
-4.41289e-11
-1.02683e-10
-2.75556e-10
-4.16335e-11
1.56694e-10
1.31389e-10
-3.80339e-11
-1.7137e-10
-1.8609e-10
-1.63017e-10
-1.23411e-10
-1.02713e-10
-8.07039e-11
-7.63584e-11
-6.36221e-11
-6.39879e-11
-5.35884e-11
-5.55622e-11
-4.50407e-11
-4.67962e-11
-3.77664e-11
-4.11876e-11
-3.03401e-11
-3.22402e-11
-2.22937e-11
-2.62313e-11
-1.63454e-11
-2.01044e-11
-1.02799e-11
-1.39946e-11
-4.51456e-12
-9.23682e-12
4.10485e-13
-3.90704e-12
6.09672e-12
2.22524e-12
1.11783e-11
5.562e-12
1.48223e-11
1.00132e-11
1.88773e-11
1.41997e-11
2.22626e-11
1.67811e-11
2.38014e-11
1.93509e-11
2.58072e-11
2.23377e-11
2.91122e-11
2.52718e-11
3.13371e-11
3.00078e-11
3.37747e-11
3.37018e-11
3.53438e-11
3.75389e-11
3.00314e-11
2.84229e-11
5.85052e-12
3.76127e-12
-4.24262e-11
-1.00384e-10
-2.84476e-10
-4.5993e-11
1.68432e-10
1.36112e-10
-3.95435e-11
-1.73942e-10
-1.8815e-10
-1.63963e-10
-1.23749e-10
-1.0289e-10
-8.08368e-11
-7.65437e-11
-6.37799e-11
-6.41548e-11
-5.37109e-11
-5.57063e-11
-4.51388e-11
-4.68888e-11
-3.78107e-11
-4.12879e-11
-3.04078e-11
-3.23123e-11
-2.23235e-11
-2.63008e-11
-1.63751e-11
-2.01447e-11
-1.02918e-11
-1.40321e-11
-4.51673e-12
-9.27482e-12
4.09466e-13
-3.92665e-12
6.10396e-12
2.21081e-12
1.1202e-11
5.53558e-12
1.48338e-11
1.0015e-11
1.89109e-11
1.4205e-11
2.23144e-11
1.67942e-11
2.3829e-11
1.9226e-11
2.57585e-11
2.23464e-11
2.9235e-11
2.53438e-11
3.14546e-11
3.01166e-11
3.39567e-11
3.3815e-11
3.55644e-11
3.7691e-11
3.04197e-11
2.86361e-11
6.46175e-12
4.13782e-12
-3.97816e-11
-9.67634e-11
-2.96024e-10
-5.06408e-11
1.80186e-10
1.39563e-10
-4.02113e-11
-1.76059e-10
-1.90708e-10
-1.65231e-10
-1.24163e-10
-1.0305e-10
-8.09611e-11
-7.67521e-11
-6.39778e-11
-6.43606e-11
-5.3869e-11
-5.5886e-11
-4.52723e-11
-4.70022e-11
-3.78645e-11
-4.14096e-11
-3.05043e-11
-3.24011e-11
-2.23609e-11
-2.63827e-11
-1.64194e-11
-2.01917e-11
-1.0309e-11
-1.40745e-11
-4.51908e-12
-9.31761e-12
4.03865e-13
-3.94873e-12
6.11095e-12
2.19621e-12
1.12374e-11
5.50654e-12
1.48449e-11
1.00172e-11
1.89572e-11
1.4211e-11
2.23907e-11
1.68142e-11
2.38839e-11
1.90618e-11
2.56735e-11
2.23314e-11
2.94111e-11
2.54248e-11
3.16152e-11
3.0224e-11
3.42143e-11
3.39091e-11
3.58743e-11
3.78041e-11
3.0977e-11
2.87768e-11
7.33222e-12
4.35089e-12
-3.60805e-11
-9.21254e-11
-3.09438e-10
-5.46526e-11
1.90744e-10
1.39841e-10
-3.97665e-11
-1.76872e-10
-1.93473e-10
-1.66789e-10
-1.24624e-10
-1.03161e-10
-8.1058e-11
-7.69775e-11
-6.42181e-11
-6.46094e-11
-5.4068e-11
-5.6106e-11
-4.54474e-11
-4.71415e-11
-3.79324e-11
-4.15548e-11
-3.06341e-11
-3.251e-11
-2.24086e-11
-2.64779e-11
-1.64821e-11
-2.02479e-11
-1.03339e-11
-1.41231e-11
-4.5236e-12
-9.36571e-12
3.90829e-13
-3.97512e-12
6.11591e-12
2.18036e-12
1.12833e-11
5.47523e-12
1.48534e-11
1.00171e-11
1.90156e-11
1.42156e-11
2.24928e-11
1.68409e-11
2.39739e-11
1.88577e-11
2.55396e-11
2.22829e-11
2.96427e-11
2.55085e-11
3.18195e-11
3.03135e-11
3.4552e-11
3.39619e-11
3.62838e-11
3.78417e-11
3.17249e-11
2.87855e-11
8.51037e-12
4.28003e-12
-3.12576e-11
-8.67224e-11
-3.24245e-10
-5.64953e-11
1.99722e-10
1.34824e-10
-3.84019e-11
-1.75562e-10
-1.96101e-10
-1.68588e-10
-1.25104e-10
-1.03188e-10
-8.11061e-11
-7.72096e-11
-6.44978e-11
-6.49013e-11
-5.43099e-11
-5.6368e-11
-4.56675e-11
-4.73125e-11
-3.80184e-11
-4.1724e-11
-3.07995e-11
-3.26433e-11
-2.24695e-11
-2.65874e-11
-1.65656e-11
-2.03162e-11
-1.03679e-11
-1.41795e-11
-4.53194e-12
-9.41985e-12
3.68534e-13
-4.00798e-12
6.11806e-12
2.16129e-12
1.13386e-11
5.44187e-12
1.48584e-11
1.00115e-11
1.9086e-11
1.42164e-11
2.26222e-11
1.6873e-11
2.41086e-11
1.861e-11
2.53471e-11
2.21907e-11
2.99318e-11
2.55886e-11
3.20706e-11
3.03684e-11
3.49754e-11
3.39519e-11
3.68073e-11
3.77657e-11
3.26883e-11
2.85994e-11
1.00524e-11
3.81357e-12
-2.5261e-11
-8.07818e-11
-3.40382e-10
-5.4442e-11
2.0742e-10
1.22485e-10
-3.6707e-11
-1.71394e-10
-1.98197e-10
-1.70567e-10
-1.25579e-10
-1.03097e-10
-8.10854e-11
-7.74367e-11
-6.48125e-11
-6.52336e-11
-5.45954e-11
-5.66717e-11
-4.59343e-11
-4.75179e-11
-3.81268e-11
-4.19165e-11
-3.1002e-11
-3.28033e-11
-2.25475e-11
-2.67111e-11
-1.66723e-11
-2.03987e-11
-1.0413e-11
-1.42442e-11
-4.5469e-12
-9.48004e-12
3.34891e-13
-4.04845e-12
6.11617e-12
2.13819e-12
1.14005e-11
5.40733e-12
1.48588e-11
9.99812e-12
1.91675e-11
1.42119e-11
2.27788e-11
1.69105e-11
2.42986e-11
1.8312e-11
2.50853e-11
2.20475e-11
3.02795e-11
2.56581e-11
3.23725e-11
3.03719e-11
3.54907e-11
3.38577e-11
3.74613e-11
3.75396e-11
3.38937e-11
2.8161e-11
1.20127e-11
2.86264e-12
-1.80896e-11
-7.4447e-11
-3.58086e-10
-4.69156e-11
2.14741e-10
1.01093e-10
-3.55903e-11
-1.63766e-10
-1.99339e-10
-1.72661e-10
-1.26037e-10
-1.02865e-10
-8.0978e-11
-7.76476e-11
-6.5157e-11
-6.56027e-11
-5.49242e-11
-5.70149e-11
-4.62479e-11
-4.77591e-11
-3.82618e-11
-4.21306e-11
-3.12418e-11
-3.29915e-11
-2.26464e-11
-2.68486e-11
-1.68041e-11
-2.04965e-11
-1.04712e-11
-1.43173e-11
-4.57121e-12
-9.54592e-12
2.88051e-13
-4.09728e-12
6.10891e-12
2.11055e-12
1.14656e-11
5.37246e-12
1.4854e-11
9.97493e-12
1.9259e-11
1.42011e-11
2.29615e-11
1.69533e-11
2.45563e-11
1.79549e-11
2.47457e-11
2.18482e-11
3.06866e-11
2.57098e-11
3.27306e-11
3.03087e-11
3.6104e-11
3.36597e-11
3.82616e-11
3.71333e-11
3.53634e-11
2.74248e-11
1.44288e-11
1.37849e-12
-9.80339e-12
-6.77631e-11
-3.77816e-10
-3.2665e-11
2.22898e-10
6.93775e-11
-3.61216e-11
-1.52233e-10
-1.99101e-10
-1.74801e-10
-1.2648e-10
-1.02474e-10
-8.07692e-11
-7.78324e-11
-6.55266e-11
-6.60043e-11
-5.52951e-11
-5.73951e-11
-4.66072e-11
-4.80364e-11
-3.8427e-11
-4.23644e-11
-3.15179e-11
-3.32082e-11
-2.27697e-11
-2.69993e-11
-1.69619e-11
-2.06107e-11
-1.05444e-11
-1.43987e-11
-4.60749e-12
-9.61716e-12
2.26983e-13
-4.15498e-12
6.0952e-12
2.07807e-12
1.15307e-11
5.33778e-12
1.4844e-11
9.94045e-12
1.93589e-11
1.41832e-11
2.31686e-11
1.70012e-11
2.48955e-11
1.75305e-11
2.4322e-11
2.15908e-11
3.11527e-11
2.57362e-11
3.31504e-11
3.01657e-11
3.68199e-11
3.33417e-11
3.92203e-11
3.65175e-11
3.71102e-11
2.63646e-11
1.73125e-11
-6.46198e-13
-5.46929e-13
-6.06524e-11
-4.00039e-10
-1.09422e-11
2.33349e-10
2.66482e-11
-3.95027e-11
-1.36572e-10
-1.97062e-10
-1.76904e-10
-1.26923e-10
-1.01919e-10
-8.04495e-11
-7.7984e-11
-6.59176e-11
-6.64353e-11
-5.57071e-11
-5.78096e-11
-4.70109e-11
-4.83497e-11
-3.86255e-11
-4.26161e-11
-3.1829e-11
-3.34532e-11
-2.29205e-11
-2.71626e-11
-1.71458e-11
-2.07417e-11
-1.06343e-11
-1.44881e-11
-4.65768e-12
-9.69339e-12
1.51168e-13
-4.22197e-12
6.07401e-12
2.04055e-12
1.1593e-11
5.30354e-12
1.48293e-11
9.89336e-12
1.94657e-11
1.41576e-11
2.33979e-11
1.7053e-11
2.53292e-11
1.70297e-11
2.38099e-11
2.12755e-11
3.16764e-11
2.57301e-11
3.36361e-11
2.99331e-11
3.76396e-11
3.28931e-11
4.03429e-11
3.56835e-11
3.91322e-11
2.49778e-11
2.06448e-11
-3.1683e-12
9.48403e-12
-5.29634e-11
-4.25211e-10
1.84747e-11
2.47498e-10
-2.72074e-11
-4.69219e-11
-1.16781e-10
-1.92831e-10
-1.78867e-10
-1.27385e-10
-1.01206e-10
-8.00141e-11
-7.8097e-11
-6.63276e-11
-6.68935e-11
-5.61601e-11
-5.82568e-11
-4.74581e-11
-4.86986e-11
-3.88602e-11
-4.28845e-11
-3.21732e-11
-3.37261e-11
-2.31014e-11
-2.73383e-11
-1.73559e-11
-2.08899e-11
-1.07422e-11
-1.45852e-11
-4.72346e-12
-9.77444e-12
6.06139e-14
-4.29849e-12
6.04446e-12
1.99808e-12
1.16501e-11
5.2696e-12
1.48105e-11
9.83268e-12
1.95772e-11
1.41239e-11
2.3646e-11
1.7106e-11
2.58737e-11
1.64532e-11
2.32075e-11
2.09043e-11
3.22532e-11
2.56854e-11
3.41896e-11
2.96055e-11
3.85604e-11
3.23105e-11
4.16263e-11
3.46339e-11
4.1411e-11
2.3288e-11
2.43771e-11
-6.10095e-12
2.00362e-11
-4.45244e-11
-4.53591e-10
5.53315e-11
2.66728e-10
-9.1752e-11
-5.95512e-11
-9.31162e-11
-1.86061e-10
-1.80549e-10
-1.27887e-10
-1.00352e-10
-7.94631e-11
-7.81672e-11
-6.67543e-11
-6.7377e-11
-5.66538e-11
-5.87352e-11
-4.79478e-11
-4.90826e-11
-3.91336e-11
-4.31688e-11
-3.25487e-11
-3.4026e-11
-2.33146e-11
-2.75263e-11
-1.75914e-11
-2.10555e-11
-1.08696e-11
-1.46897e-11
-4.80578e-12
-9.86022e-12
-4.45168e-14
-4.38463e-12
6.00571e-12
1.95073e-12
1.17001e-11
5.23568e-12
1.47882e-11
9.75812e-12
1.96909e-11
1.40821e-11
2.39084e-11
1.71552e-11
2.65376e-11
1.58109e-11
2.25268e-11
2.04832e-11
3.28757e-11
2.5599e-11
3.48095e-11
2.91835e-11
3.95708e-11
3.15982e-11
4.30566e-11
3.33863e-11
4.39101e-11
2.13442e-11
2.84313e-11
-9.3189e-12
3.0859e-11
-3.52179e-11
-4.85313e-10
9.9006e-11
2.92026e-10
-1.65932e-10
-7.83072e-11
-6.60792e-11
-1.76497e-10
-1.8179e-10
-1.28445e-10
-9.93869e-11
-7.88024e-11
-7.81909e-11
-6.7195e-11
-6.78839e-11
-5.71876e-11
-5.92431e-11
-4.84784e-11
-4.95007e-11
-3.94479e-11
-4.34685e-11
-3.29534e-11
-3.43518e-11
-2.35619e-11
-2.77269e-11
-1.78516e-11
-2.12382e-11
-1.10176e-11
-1.48016e-11
-4.90558e-12
-9.95075e-12
-1.6364e-13
-4.48007e-12
5.95705e-12
1.8986e-12
1.1741e-11
5.20144e-12
1.4763e-11
9.67036e-12
1.98034e-11
1.40319e-11
2.41782e-11
1.71947e-11
2.73091e-11
1.51393e-11
2.18044e-11
2.00224e-11
3.35325e-11
2.54711e-11
3.54908e-11
2.86742e-11
4.06562e-11
3.07729e-11
4.46087e-11
3.19744e-11
4.6576e-11
1.92191e-11
3.27054e-11
-1.26764e-11
4.16751e-11
-2.4949e-11
-5.20188e-10
1.48435e-10
3.24019e-10
-2.4803e-10
-1.03825e-10
-3.64329e-11
-1.64e-10