/*--------------------------------*- C++ -*----------------------------------*\
| =========                 |                                                 |
| \\      /  F ield         | OpenFOAM: The Open Source CFD Toolbox           |
|  \\    /   O peration     | Version:  2312                                  |
|   \\  /    A nd           | Website:  www.openfoam.com                      |
|    \\/     M anipulation  |                                                 |
\*---------------------------------------------------------------------------*/
FoamFile
{
    version     2.0;
    format      ascii;
    arch        "LSB;label=32;scalar=64";
    class       volScalarField;
    location    "800";
    object      pMean;
}
// * * * * * * * * * * * * * * * * * * * * * * * * * * * * * * * * * * * * * //

dimensions      [0 2 -2 0 0 0 0];

internalField   nonuniform List<scalar> 
144000
(
6.92933e-10
3.47559e-10
-3.66261e-10
-6.96357e-10
-5.91875e-10
-4.08227e-10
-2.33528e-10
-1.39358e-10
-5.74981e-11
-3.58628e-11
1.48009e-12
-1.95453e-12
2.30538e-11
1.12307e-11
3.35892e-11
1.96372e-11
3.83236e-11
1.85695e-11
3.91851e-11
2.18416e-11
4.26054e-11
2.14083e-11
4.28253e-11
2.21331e-11
4.47818e-11
2.35378e-11
4.61911e-11
2.22609e-11
4.60013e-11
2.26017e-11
4.80365e-11
2.45908e-11
4.90079e-11
2.13811e-11
4.68745e-11
2.07117e-11
4.71134e-11
2.05103e-11
4.6244e-11
1.75503e-11
4.2723e-11
1.60788e-11
4.19868e-11
1.31486e-11
3.81859e-11
9.18772e-12
3.37218e-11
1.05355e-11
3.24272e-11
1.38446e-11
3.15364e-11
2.37955e-11
2.60427e-11
2.69568e-11
-2.57646e-12
2.78448e-11
-2.48454e-11
7.69202e-12
-9.87903e-10
-2.26455e-10
7.22e-10
3.65016e-10
-3.73503e-10
-7.02336e-10
-5.93889e-10
-4.08417e-10
-2.33739e-10
-1.39573e-10
-5.7909e-11
-3.62059e-11
1.0649e-12
-2.21041e-12
2.27282e-11
1.10533e-11
3.33372e-11
1.95468e-11
3.81135e-11
1.84813e-11
3.89932e-11
2.18187e-11
4.24422e-11
2.13881e-11
4.267e-11
2.21544e-11
4.46446e-11
2.35784e-11
4.60569e-11
2.23014e-11
4.58672e-11
2.26668e-11
4.79151e-11
2.46792e-11
4.88828e-11
2.14542e-11
4.67423e-11
2.0821e-11
4.69931e-11
2.06314e-11
4.61233e-11
1.76587e-11
4.25306e-11
1.60988e-11
4.17665e-11
1.33158e-11
3.80669e-11
9.39044e-12
3.35995e-11
1.08029e-11
3.23341e-11
1.41309e-11
3.14878e-11
2.4144e-11
2.60857e-11
2.7257e-11
-2.45752e-12
2.78333e-11
-2.14781e-11
1.74698e-11
-1.00599e-09
-2.49313e-10
7.60911e-10
3.70895e-10
-3.84775e-10
-7.04984e-10
-5.94716e-10
-4.08233e-10
-2.33592e-10
-1.39713e-10
-5.81662e-11
-3.67117e-11
6.21807e-13
-2.69012e-12
2.24024e-11
1.06595e-11
3.30926e-11
1.92764e-11
3.79835e-11
1.82149e-11
3.88485e-11
2.16245e-11
4.23769e-11
2.12025e-11
4.2605e-11
2.20177e-11
4.46219e-11
2.34633e-11
4.60541e-11
2.21801e-11
4.58574e-11
2.25729e-11
4.79285e-11
2.46136e-11
4.89256e-11
2.13613e-11
4.67541e-11
2.07696e-11
4.70394e-11
2.05925e-11
4.61832e-11
1.7619e-11
4.24791e-11
1.58847e-11
4.165e-11
1.32743e-11
3.81671e-11
9.46036e-12
3.36674e-11
1.09406e-11
3.24644e-11
1.4283e-11
3.16277e-11
2.43432e-11
2.63844e-11
2.74113e-11
-1.93318e-12
2.65087e-11
-1.79163e-11
3.4415e-11
-1.03698e-09
-2.65739e-10
8.02162e-10
3.51982e-10
-3.96926e-10
-7.00141e-10
-5.94065e-10
-4.07719e-10
-2.32992e-10
-1.39442e-10
-5.81496e-11
-3.71807e-11
1.04327e-13
-3.29663e-12
2.1981e-11
1.01539e-11
3.2752e-11
1.89247e-11
3.78261e-11
1.78685e-11
3.86264e-11
2.13621e-11
4.22931e-11
2.09605e-11
4.2499e-11
2.18351e-11
4.45816e-11
2.33176e-11
4.60558e-11
2.2025e-11
4.58329e-11
2.24482e-11
4.79386e-11
2.45306e-11
4.90002e-11
2.12452e-11
4.67589e-11
2.06955e-11
4.71061e-11
2.05418e-11
4.62834e-11
1.75901e-11
4.24244e-11
1.55988e-11
4.14542e-11
1.31254e-11
3.83379e-11
9.53474e-12
3.37835e-11
1.10549e-11
3.27148e-11
1.43627e-11
3.1934e-11
2.43586e-11
2.71335e-11
2.70313e-11
-4.15286e-13
2.27278e-11
-1.03393e-11
5.09342e-11
-1.07698e-09
-2.62057e-10
8.39033e-10
2.95693e-10
-4.07794e-10
-6.8089e-10
-5.90473e-10
-4.07206e-10
-2.32171e-10
-1.38706e-10
-5.78171e-11
-3.7573e-11
-5.16683e-13
-4.02175e-12
2.14231e-11
9.53595e-12
3.22723e-11
1.84985e-11
3.76005e-11
1.74561e-11
3.82862e-11
2.10419e-11
4.21523e-11
2.06838e-11
4.23081e-11
2.16245e-11
4.44854e-11
2.31634e-11
4.60214e-11
2.18644e-11
4.57487e-11
2.23162e-11
4.79032e-11
2.44625e-11
4.9066e-11
2.11411e-11
4.67102e-11
2.06278e-11
4.71529e-11
2.05108e-11
4.63882e-11
1.76208e-11
4.23328e-11
1.5327e-11
4.10895e-11
1.28608e-11
3.85234e-11
9.66024e-12
3.39026e-11
1.11463e-11
3.30575e-11
1.43398e-11
3.24323e-11
2.40802e-11
2.84612e-11
2.5836e-11
2.51001e-12
1.60606e-11
2.42795e-12
6.31574e-11
-1.12354e-09
-2.27052e-10
8.71747e-10
1.94345e-10
-4.18714e-10
-6.43556e-10
-5.82229e-10
-4.07084e-10
-2.31445e-10
-1.37593e-10
-5.72119e-11
-3.79086e-11
-1.26959e-12
-4.88593e-12
2.07107e-11
8.79522e-12
3.16427e-11
1.79842e-11
3.72958e-11
1.69848e-11
3.78245e-11
2.06617e-11
4.19458e-11
2.03775e-11
4.20285e-11
2.13835e-11
4.43277e-11
2.30026e-11
4.59439e-11
2.17033e-11
4.55977e-11
2.21789e-11
4.78167e-11
2.44098e-11
4.91118e-11
2.10559e-11
4.66007e-11
2.05632e-11
4.71717e-11
2.05013e-11
4.64931e-11
1.77303e-11
4.22113e-11
1.50868e-11
4.04967e-11
1.24358e-11
3.87009e-11
9.83696e-12
3.4027e-11
1.11873e-11
3.35076e-11
1.41584e-11
3.31766e-11
2.3375e-11
3.0517e-11
2.35709e-11
7.21482e-12
6.25728e-12
2.06556e-11
6.99221e-11
-1.1778e-09
-1.54555e-10
9.04385e-10
4.5712e-11
-4.3365e-10
-5.86645e-10
-5.67583e-10
-4.07438e-10
-2.31126e-10
-1.36204e-10
-5.63689e-11
-3.82247e-11
-2.18963e-12
-5.91924e-12
1.98193e-11
7.92143e-12
3.08537e-11
1.73703e-11
3.69012e-11
1.6459e-11
3.72442e-11
2.02203e-11
4.16699e-11
2.00499e-11
4.16614e-11
2.11144e-11
4.4108e-11
2.28396e-11
4.58182e-11
2.15495e-11
4.53798e-11
2.20405e-11
4.76769e-11
2.43745e-11
4.91318e-11
2.09976e-11
4.64316e-11
2.05022e-11
4.71615e-11
2.05131e-11
4.66027e-11
1.79254e-11
4.21094e-11
1.48885e-11
3.95914e-11
1.17988e-11
3.88753e-11
1.006e-11
3.41692e-11
1.11353e-11
3.40858e-11
1.37551e-11
3.42335e-11
2.21346e-11
3.34047e-11
2.00709e-11
1.38154e-11
-6.40265e-12
4.35015e-11
7.19759e-11
-1.24067e-09
-4.39253e-11
9.4122e-10
-1.45507e-10
-4.56578e-10
-5.11194e-10
-5.45131e-10
-4.08145e-10
-2.31473e-10
-1.34638e-10
-5.53181e-11
-3.85432e-11
-3.29888e-12
-7.14827e-12
1.87196e-11
6.90082e-12
2.98893e-11
1.66432e-11
3.63948e-11
1.58785e-11
3.6545e-11
1.97156e-11
4.13138e-11
1.97054e-11
4.12071e-11
2.08204e-11
4.38234e-11
2.26785e-11
4.56402e-11
2.14102e-11
4.5096e-11
2.19062e-11
4.74829e-11
2.43611e-11
4.91181e-11
2.09727e-11
4.62056e-11
2.04434e-11
4.7124e-11
2.05417e-11
4.67294e-11
1.82053e-11
4.21133e-11
1.4703e-11
3.82529e-11
1.08958e-11
3.90557e-11
1.0315e-11
3.43515e-11
1.09526e-11
3.48164e-11
1.30795e-11
3.56471e-11
2.02969e-11
3.71338e-11
1.53996e-11
2.21006e-11
-2.1061e-11
6.89532e-11
7.14997e-11
-1.31137e-09
9.81077e-11
9.86227e-10
-3.69383e-10
-4.91052e-10
-4.2059e-10
-5.13968e-10
-4.08824e-10
-2.32711e-10
-1.33027e-10
-5.40984e-11
-3.88741e-11
-4.62058e-12
-8.58226e-12
1.73983e-11
5.72317e-12
2.87396e-11
1.57903e-11
3.57543e-11
1.52393e-11
3.57236e-11
1.91447e-11
4.08629e-11
1.93432e-11
4.06631e-11
2.05025e-11
4.34686e-11
2.25197e-11
4.5403e-11
2.12898e-11
4.47462e-11
2.17802e-11
4.72349e-11
2.43713e-11
4.90645e-11
2.09849e-11
4.59299e-11
2.03856e-11
4.70629e-11
2.05762e-11
4.68943e-11
1.85572e-11
4.23595e-11
1.44848e-11
3.63146e-11
9.68132e-12
3.92651e-11
1.05862e-11
3.45964e-11
1.06121e-11
3.57111e-11
1.21168e-11
3.74228e-11
1.78833e-11
4.15957e-11
9.79667e-12
3.15491e-11
-3.65087e-11
9.46302e-11
7.11183e-11
-1.38787e-09
2.60132e-10
1.04103e-09
-6.1343e-10
-5.39255e-10
-3.19739e-10
-4.73897e-10
-4.08961e-10
-2.34973e-10
-1.31516e-10
-5.27447e-11
-3.92162e-11
-6.14456e-12
-1.02157e-11
1.58525e-11
4.39e-12
2.74036e-11
1.48109e-11
3.49652e-11
1.45374e-11
3.47819e-11
1.85058e-11
4.03063e-11
1.89608e-11
4.00289e-11
2.01592e-11
4.30386e-11
2.23644e-11
4.50995e-11
2.11858e-11
4.43314e-11
2.16627e-11
4.69324e-11
2.4405e-11
4.89642e-11
2.10341e-11
4.561e-11
2.03258e-11
4.69821e-11
2.06066e-11
4.71166e-11
1.89662e-11
4.3021e-11
1.41473e-11
3.35715e-11
8.12313e-12
3.95311e-11
1.08565e-11
3.49231e-11
1.01044e-11
3.67654e-11
1.08808e-11
3.95185e-11
1.50026e-11
4.65711e-11
3.67728e-12
4.14584e-11
-5.1411e-11
1.18296e-10
7.29107e-11
-1.46642e-09
4.30424e-10
1.10492e-09
-8.63112e-10
-6.01817e-10
-2.14412e-10
-4.25424e-10
-4.07941e-10
-2.38294e-10
-1.30267e-10
-5.13244e-11
-3.95623e-11
-7.85609e-12
-1.20358e-11
1.40878e-11
2.90877e-12
2.58875e-11
1.37058e-11
3.40207e-11
1.37732e-11
3.37225e-11
1.78004e-11
3.96372e-11
1.8555e-11
3.9305e-11
1.97902e-11
4.25294e-11
2.22087e-11
4.47248e-11
2.10971e-11
4.38542e-11
2.15551e-11
4.6574e-11
2.446e-11
4.88123e-11
2.11159e-11
4.52531e-11
2.02638e-11
4.68818e-11
2.06184e-11
4.74234e-11
1.94166e-11
4.43201e-11
1.34929e-11
2.97715e-11
6.20998e-12
3.98774e-11
1.11152e-11
3.53309e-11
9.44201e-12
3.7946e-11
9.4202e-12
4.1839e-11
1.18239e-11
5.17681e-11
-2.48426e-12
5.10804e-11
-6.45713e-11
1.38249e-10
7.81574e-11
-1.54225e-09
5.97254e-10
1.17519e-09
-1.10602e-09
-6.77409e-10
-1.10095e-10
-3.69667e-10
-4.05137e-10
-2.42596e-10
-1.29452e-10
-4.99106e-11
-3.99083e-11
-9.73331e-12
-1.40246e-11
1.21138e-11
1.28956e-12
2.41973e-11
1.24815e-11
3.29178e-11
1.29476e-11
3.25511e-11
1.70326e-11
3.88511e-11
1.81225e-11
3.84938e-11
1.93949e-11
4.19384e-11
2.20511e-11
4.4276e-11
2.10206e-11
4.33171e-11
2.14563e-11
4.61595e-11
2.4533e-11
4.86079e-11
2.12268e-11
4.48619e-11
2.01988e-11
4.67623e-11
2.05971e-11
4.78382e-11
1.98765e-11
4.6642e-11
1.23308e-11
2.45503e-11
3.96526e-12
4.03166e-11
1.13465e-11
3.58013e-11
8.65822e-12
3.92134e-11
7.81103e-12
4.42552e-11
8.55713e-12
5.68717e-11
-8.19761e-12
5.97478e-11
-7.50576e-11
1.53433e-10
8.73225e-11
-1.61074e-09
7.50748e-10
1.24823e-09
-1.33143e-09
-7.63433e-10
-1.17947e-11
-3.08189e-10
-3.99936e-10
-2.47664e-10
-1.29221e-10
-4.86033e-11
-4.0253e-11
-1.17489e-11
-1.61599e-11
9.94523e-12
-4.57248e-13
2.23451e-11
1.11442e-11
3.16588e-11
1.2063e-11
3.12766e-11
1.62076e-11
3.79473e-11
1.76617e-11
3.75996e-11
1.89752e-11
4.12663e-11
2.18885e-11
4.37543e-11
2.0953e-11
4.27229e-11
2.1365e-11
4.56885e-11
2.46207e-11
4.83472e-11
2.13633e-11
4.44393e-11
2.01334e-11
4.66182e-11
2.05386e-11
4.83591e-11
2.03412e-11
5.04209e-11
1.04503e-11
1.75371e-11
1.49287e-12
4.08647e-11
1.15511e-11
3.63102e-11
7.79578e-12
4.04822e-11
6.16194e-12
4.66226e-11
5.42348e-12
6.15715e-11
-1.30533e-11
6.6949e-11
-8.22939e-11
1.63479e-10
9.99465e-11
-1.668e-09
8.8383e-10
1.31994e-09
-1.53155e-09
-8.56508e-10
7.64963e-11
-2.42879e-10
-3.91833e-10
-2.53192e-10
-1.29698e-10
-4.75064e-11
-4.06014e-11
-1.38733e-11
-1.84157e-11
7.59872e-12
-2.31522e-12
2.03458e-11
9.70673e-12
3.02492e-11
1.11237e-11
2.9909e-11
1.53312e-11
3.69277e-11
1.71715e-11
3.66283e-11
1.85338e-11
4.05147e-11
2.17189e-11
4.3161e-11
2.08911e-11
4.20751e-11
2.12813e-11
4.51626e-11
2.47206e-11
4.80266e-11
2.15237e-11
4.39834e-11
2.00794e-11
4.64304e-11
2.04677e-11
4.8913e-11
2.0897e-11
5.59359e-11
7.30491e-12
8.44552e-12
-9.90718e-13
4.15659e-11
1.17662e-11
3.68428e-11
6.91762e-12
4.16862e-11
4.58568e-12
4.87974e-11
2.63669e-12
6.56051e-11
-1.67418e-11
7.2363e-11
-8.60547e-11
1.686e-10
1.15011e-10
-1.71112e-09
9.9236e-10
1.38602e-09
-1.70087e-09
-9.52614e-10
1.51833e-10
-1.75824e-10
-3.80494e-10
-2.5882e-10
-1.30971e-10
-4.67365e-11
-4.09685e-11
-1.60772e-11
-2.07667e-11
5.09173e-12
-4.27189e-12
1.82126e-11
8.17956e-12
2.86967e-11
1.01328e-11
2.84575e-11
1.44099e-11
3.57977e-11
1.66507e-11
3.55859e-11
1.80727e-11
3.96865e-11
2.15403e-11
4.24984e-11
2.08328e-11
4.13782e-11
2.12053e-11
4.45832e-11
2.48309e-11
4.76446e-11
2.17086e-11
4.34906e-11
2.005e-11
4.61817e-11
2.04127e-11
4.94181e-11
2.15258e-11
6.42778e-11
1.08306e-12
-3.73498e-12
-3.53107e-12
4.23291e-11
1.19972e-11
3.73701e-11
6.09435e-12
4.27516e-11
3.18877e-12
5.06469e-11
3.68851e-13
6.87764e-11
-1.90662e-11
7.58522e-11
-8.64121e-11
1.6934e-10
1.31323e-10
-1.73805e-09
1.07421e-09
1.44243e-09
-1.83627e-09
-1.04756e-09
2.12343e-10
-1.0916e-10
-3.65784e-10
-2.64161e-10
-1.33089e-10
-4.64168e-11
-4.13805e-11
-1.83353e-11
-2.3189e-11
2.44119e-12
-6.31728e-12
1.59585e-11
6.5732e-12
2.70117e-11
9.09338e-12
2.69307e-11
1.34498e-11
3.45635e-11
1.60991e-11
3.44786e-11
1.75942e-11
3.87858e-11
2.13512e-11
4.17702e-11
2.07767e-11
4.06368e-11
2.11373e-11
4.39525e-11
2.49496e-11
4.72021e-11
2.19149e-11
4.29638e-11
2.00451e-11
4.58779e-11
2.03662e-11
4.98751e-11
2.15945e-11
7.79455e-11
-2.10004e-12
-1.9913e-11
-6.44817e-12
4.27163e-11
1.21663e-11
3.78056e-11
5.37099e-12
4.35945e-11
2.06153e-12
5.20583e-11
-1.24768e-12
7.09579e-11
-1.99345e-11
7.74448e-11
-8.36526e-11
1.66517e-10
1.47659e-10
-1.74764e-09
1.12912e-09
1.48564e-09
-1.93638e-09
-1.13732e-09
2.57053e-10
-4.48881e-11
-3.47743e-10
-2.68817e-10
-1.36057e-10
-4.66661e-11
-4.18722e-11
-2.06245e-11
-2.56591e-11
-3.36914e-13
-8.44192e-12
1.3596e-11
4.89825e-12
2.52056e-11
8.0089e-12
2.53376e-11
1.24567e-11
3.32334e-11
1.55164e-11
3.33116e-11
1.71002e-11
3.78168e-11
2.11501e-11
4.09814e-11
2.07215e-11
3.98549e-11
2.10777e-11
4.32722e-11
2.50765e-11
4.66989e-11
2.21472e-11
4.23913e-11
2.00936e-11
4.54628e-11
2.04722e-11
4.99526e-11
2.156e-11
8.65668e-11
-2.31325e-14
-3.0059e-11
-8.48119e-12
4.27323e-11
1.23366e-11
3.81473e-11
4.82133e-12
4.4156e-11
1.28372e-12
5.29476e-11
-2.12532e-12
7.20908e-11
-1.93451e-11
7.7308e-11
-7.81992e-11
1.61075e-10
1.62857e-10
-1.73954e-09
1.15805e-09
1.51309e-09
-2.00141e-09
-1.21843e-09
2.85813e-10
1.51841e-11
-3.26571e-10
-2.72413e-10
-1.39834e-10
-4.75888e-11
-4.24834e-11
-2.29243e-11
-2.81541e-11
-3.22567e-12
-1.0637e-11
1.11378e-11
3.16388e-12
2.32893e-11
6.88291e-12
2.36866e-11
1.14361e-11
3.18152e-11
1.49029e-11
3.20918e-11
1.65931e-11
3.67858e-11
2.0936e-11
4.01366e-11
2.06663e-11
3.90364e-11
2.10278e-11
4.25438e-11
2.52128e-11
4.61315e-11
2.2414e-11
4.1755e-11
2.02382e-11
4.48523e-11
2.0926e-11
4.92094e-11
2.26438e-11
7.6965e-11
3.61803e-13
-2.02625e-11
-7.54647e-12
4.26112e-11
1.26519e-11
3.84274e-11
4.52821e-12
4.44013e-11
9.21029e-13
5.32689e-11
-2.21714e-12
7.21826e-11
-1.73807e-11
7.56957e-11
-7.05595e-11
1.53859e-10
1.75929e-10
-1.71416e-09
1.16294e-09
1.52267e-09
-2.03286e-09
-1.2878e-09
2.99153e-10
6.95039e-11
-3.02643e-10
-2.74623e-10
-1.44338e-10
-4.92744e-11
-4.326e-11
-2.52195e-11
-3.06527e-11
-6.2085e-12
-1.28933e-11
8.59525e-12
1.37833e-12
2.12741e-11
5.71857e-12
2.19854e-11
1.03927e-11
3.03173e-11
1.4259e-11
3.08243e-11
1.60745e-11
3.56978e-11
2.0708e-11
3.92407e-11
2.06104e-11
3.81853e-11
2.09878e-11
4.1771e-11
2.53565e-11
4.55047e-11
2.27078e-11
4.10675e-11
2.0454e-11
4.41084e-11
2.15769e-11
4.80075e-11
2.36924e-11
6.20409e-11
5.3704e-12
-3.02516e-12
-5.32247e-12
4.20335e-11
1.29933e-11
3.85397e-11
4.4991e-12
4.42855e-11
1.00037e-12
5.29972e-11
-1.52758e-12
7.12945e-11
-1.41862e-11
7.28867e-11
-6.1261e-11
1.45642e-10
1.86198e-10
-1.67228e-09
1.14615e-09
1.51303e-09
-2.03265e-09
-1.34292e-09
2.98091e-10
1.16848e-10
-2.76452e-10
-2.75212e-10
-1.49469e-10
-5.17961e-11
-4.42557e-11
-2.75044e-11
-3.31386e-11
-9.27138e-12
-1.52059e-11
5.97689e-12
-4.51642e-13
1.91713e-11
4.5186e-12
2.02403e-11
9.33026e-12
2.87481e-11
1.35851e-11
2.95136e-11
1.55457e-11
3.4558e-11
2.04655e-11
3.82985e-11
2.05534e-11
3.73054e-11
2.09578e-11
4.09572e-11
2.55063e-11
4.48236e-11
2.30235e-11
4.03405e-11
2.07158e-11
4.32918e-11
2.22584e-11
4.67319e-11
2.41145e-11
5.22537e-11
1.29546e-11
9.1022e-12
-3.21553e-12
4.10054e-11
1.33307e-11
3.84337e-11
4.75138e-12
4.37906e-11
1.53289e-12
5.21456e-11
-9.03406e-14
6.95272e-11
-9.9388e-12
6.91869e-11
-5.07922e-11
1.37066e-10
1.93332e-10
-1.61502e-09
1.11001e-09
1.48336e-09
-2.00299e-09
-1.38187e-09
2.84037e-10
1.56312e-10
-2.48591e-10
-2.7403e-10
-1.55103e-10
-5.52016e-11
-4.55253e-11
-2.97806e-11
-3.55987e-11
-1.24017e-11
-1.75705e-11
3.28964e-12
-2.32095e-12
1.69921e-11
3.28583e-12
1.84563e-11
8.25134e-12
2.71158e-11
1.28814e-11
2.81633e-11
1.50072e-11
3.3371e-11
2.02085e-11
3.73151e-11
2.04947e-11
3.63992e-11
2.09378e-11
4.01045e-11
2.56627e-11
4.40908e-11
2.33642e-11
3.95688e-11
2.10355e-11
4.23849e-11
2.29942e-11
4.53427e-11
2.44783e-11
4.59125e-11
1.67512e-11
1.80628e-11
-5.67665e-13
3.99659e-11
1.37911e-11
3.81271e-11
5.31535e-12
4.29309e-11
2.51305e-12
5.07496e-11
2.03134e-12
6.7006e-11
-4.82707e-12
6.4875e-11
-3.95822e-11
1.28517e-10
1.9733e-10
-1.54354e-09
1.05651e-09
1.43367e-09
-1.94664e-09
-1.40363e-09
2.58647e-10
1.87432e-10
-2.19682e-10
-2.71018e-10
-1.61102e-10
-5.9507e-11
-4.71177e-11
-3.20534e-11
-3.80224e-11
-1.55863e-11
-1.99821e-11
5.40586e-13
-4.22571e-12
1.47462e-11
2.023e-12
1.66385e-11
7.15744e-12
2.5428e-11
1.21487e-11
2.67771e-11
1.44592e-11
3.21417e-11
1.99363e-11
3.62955e-11
2.04342e-11
3.54698e-11
2.0927e-11
3.92169e-11
2.58237e-11
4.33124e-11
2.37255e-11
3.87596e-11
2.14e-11
4.1407e-11
2.37486e-11
4.391e-11
2.49044e-11
4.14666e-11
1.90547e-11
2.48599e-11
2.51599e-12
3.89772e-11
1.43742e-11
3.75993e-11
6.18134e-12
4.1726e-11
3.91306e-12
4.88641e-11
4.75335e-12
6.38767e-11
9.58899e-13
6.0209e-11
-2.79696e-11
1.20168e-10
1.98401e-10
-1.45915e-09
9.87567e-10
1.36454e-09
-1.86664e-09
-1.408e-09
2.23795e-10
2.10191e-10
-1.90342e-10
-2.66224e-10
-1.67333e-10
-6.46982e-11
-4.90741e-11
-3.43319e-11
-4.04029e-11
-1.88131e-11
-2.24359e-11
-2.2629e-12
-6.16435e-12
1.24429e-11
7.33568e-13
1.47921e-11
6.04836e-12
2.36913e-11
1.13885e-11
2.53589e-11
1.39009e-11
3.08752e-11
1.96479e-11
3.52441e-11
2.03717e-11
3.45211e-11
2.09243e-11
3.82995e-11
2.59852e-11
4.24953e-11
2.41013e-11
3.7925e-11
2.17874e-11
4.03938e-11
2.44607e-11
4.25519e-11
2.52931e-11
3.83537e-11
2.04394e-11
2.98606e-11
5.79985e-12
3.80219e-11
1.50735e-11
3.6841e-11
7.32613e-12
4.02088e-11
5.69249e-12
4.65708e-11
7.97298e-12
6.02953e-11
7.22819e-12
5.54172e-11
-1.61944e-11
1.11917e-10
1.96917e-10
-1.36306e-09
9.05104e-10
1.27741e-09
-1.7664e-09
-1.39583e-09
1.81425e-10
2.25061e-10
-1.61121e-10
-2.59776e-10
-1.73694e-10
-7.07579e-11
-5.14356e-11
-3.66337e-11
-4.27428e-11
-2.20769e-11
-2.49324e-11
-5.1171e-12
-8.14043e-12
1.00873e-11
-5.80233e-13
1.29213e-11
4.9214e-12
2.19096e-11
1.06014e-11
2.39113e-11
1.33301e-11
2.95754e-11
1.93412e-11
3.41643e-11
2.03069e-11
3.35572e-11
2.09276e-11
3.73573e-11
2.61429e-11
4.16449e-11
2.44877e-11
3.70742e-11
2.21838e-11
3.93648e-11
2.51142e-11
4.12959e-11
2.56175e-11
3.6206e-11
2.13389e-11
3.33994e-11
9.12647e-12
3.70996e-11
1.59017e-11
3.5869e-11
8.72219e-12
3.84298e-11
7.7986e-12
4.3967e-11
1.15796e-11
5.64281e-11
1.38075e-11
5.06896e-11
-4.34466e-12
1.03454e-10
1.93372e-10
-1.25651e-09
8.10981e-10
1.1745e-09
-1.64866e-09
-1.36867e-09
1.33189e-10
2.32797e-10
-1.32456e-10
-2.51833e-10
-1.80104e-10
-7.76721e-11
-5.4243e-11
-3.89808e-11
-4.50464e-11
-2.5378e-11
-2.74731e-11
-8.02307e-12
-1.01588e-11
7.68037e-12
-1.91485e-12
1.10283e-11
3.77491e-12
2.00842e-11
9.79007e-12
2.2435e-11
1.27451e-11
2.82431e-11
1.90151e-11
3.30576e-11
2.02411e-11
3.25794e-11
2.09359e-11
3.63931e-11
2.62935e-11
4.07652e-11
2.48841e-11
3.62133e-11
2.25794e-11
3.83274e-11
2.57088e-11
4.01334e-11
2.58947e-11
3.47332e-11
2.20065e-11
3.57577e-11
1.23964e-11
3.621e-11
1.68678e-11
3.47081e-11
1.03307e-11
3.64396e-11
1.01686e-11
4.11501e-11
1.54589e-11
5.24194e-11
2.05591e-11
4.61355e-11
7.66515e-12
9.42183e-11
1.88348e-10
-1.14056e-09
7.06438e-10
6.94503e-10
3.48166e-10
-3.66229e-10
-6.96493e-10
-5.91993e-10
-4.07519e-10
-2.32403e-10
-1.3828e-10
-5.68029e-11
-3.56821e-11
1.27526e-12
-2.4064e-12
2.24599e-11
1.05473e-11
3.28818e-11
1.8922e-11
3.77392e-11
1.81411e-11
3.88768e-11
2.15937e-11
4.24554e-11
2.13197e-11
4.27804e-11
2.20753e-11
4.47489e-11
2.34525e-11
4.6178e-11
2.22408e-11
4.60233e-11
2.2546e-11
4.80397e-11
2.44692e-11
4.89754e-11
2.11876e-11
4.68553e-11
2.05133e-11
4.7212e-11
2.03425e-11
4.65526e-11
1.76094e-11
4.35364e-11
1.69103e-11
4.24039e-11
1.36529e-11
3.83998e-11
9.18923e-12
3.36079e-11
1.04595e-11
3.23152e-11
1.38053e-11
3.14405e-11
2.37738e-11
2.60718e-11
2.72358e-11
-2.29619e-12
2.85855e-11
-2.4164e-11
7.09567e-12
-9.90427e-10
-2.27638e-10
7.2361e-10
3.65745e-10
-3.73508e-10
-7.02484e-10
-5.93987e-10
-4.07698e-10
-2.32599e-10
-1.38488e-10
-5.72119e-11
-3.60282e-11
8.55524e-13
-2.66852e-12
2.2128e-11
1.03623e-11
3.26224e-11
1.88223e-11
3.75246e-11
1.80489e-11
3.86823e-11
2.15665e-11
4.22918e-11
2.12992e-11
4.26243e-11
2.20948e-11
4.46107e-11
2.34914e-11
4.60462e-11
2.22848e-11
4.58916e-11
2.26138e-11
4.79191e-11
2.45592e-11
4.88505e-11
2.12644e-11
4.6721e-11
2.06272e-11
4.70879e-11
2.04714e-11
4.64282e-11
1.77369e-11
4.33786e-11
1.69983e-11
4.22418e-11
1.38376e-11
3.82818e-11
9.39205e-12
3.3486e-11
1.07255e-11
3.2222e-11
1.40911e-11
3.13902e-11
2.41207e-11
2.61171e-11
2.75374e-11
-2.1713e-12
2.85838e-11
-2.07803e-11
1.69085e-11
-1.00853e-09
-2.506e-10
7.62611e-10
3.71903e-10
-3.84833e-10
-7.05185e-10
-5.94801e-10
-4.07501e-10
-2.3243e-10
-1.38618e-10
-5.74623e-11
-3.6536e-11
4.06365e-13
-3.15707e-12
2.17941e-11
9.95874e-12
3.23684e-11
1.85388e-11
3.73862e-11
1.77762e-11
3.85342e-11
2.13665e-11
4.22258e-11
2.11138e-11
4.25598e-11
2.19557e-11
4.45876e-11
2.33734e-11
4.60464e-11
2.21684e-11
4.58871e-11
2.25229e-11
4.79354e-11
2.44949e-11
4.88948e-11
2.11754e-11
4.67325e-11
2.05791e-11
4.71314e-11
2.04384e-11
4.64869e-11
1.77065e-11
4.33773e-11
1.68708e-11
4.22251e-11
1.38505e-11
3.83871e-11
9.45997e-12
3.35528e-11
1.0862e-11
3.23504e-11
1.42431e-11
3.15294e-11
2.43166e-11
2.64176e-11
2.76925e-11
-1.6478e-12
2.72537e-11
-1.71925e-11
3.40193e-11
-1.03957e-09
-2.6738e-10
8.03911e-10
3.5339e-10
-3.97027e-10
-7.0042e-10
-5.94137e-10
-4.06968e-10
-2.31806e-10
-1.38327e-10
-5.74341e-11
-3.70044e-11
-1.16867e-13
-3.77299e-12
2.13634e-11
9.44199e-12
3.2017e-11
1.8171e-11
3.72158e-11
1.74207e-11
3.83075e-11
2.10967e-11
4.21394e-11
2.08724e-11
4.24552e-11
2.17709e-11
4.45467e-11
2.32239e-11
4.60497e-11
2.20194e-11
4.58692e-11
2.24028e-11
4.79493e-11
2.44141e-11
4.89701e-11
2.10649e-11
4.67358e-11
2.05106e-11
4.71929e-11
2.03947e-11
4.65822e-11
1.76719e-11
4.33883e-11
1.66767e-11
4.21799e-11
1.38207e-11
3.85757e-11
9.52866e-12
3.36708e-11
1.09755e-11
3.26002e-11
1.43209e-11
3.18366e-11
2.43229e-11
2.7172e-11
2.73097e-11
-1.2968e-13
2.34609e-11
-9.59859e-12
5.07804e-11
-1.07956e-09
-2.64176e-10
8.40645e-10
2.97479e-10
-4.07909e-10
-6.81246e-10
-5.90519e-10
-4.06448e-10
-2.30946e-10
-1.37559e-10
-5.70791e-11
-3.73908e-11
-7.40919e-13
-4.50611e-12
2.07965e-11
8.81264e-12
3.15261e-11
1.7727e-11
3.6973e-11
1.69965e-11
3.79613e-11
2.07676e-11
4.19938e-11
2.05966e-11
4.22665e-11
2.15586e-11
4.44492e-11
2.30653e-11
4.60138e-11
2.1866e-11
4.57926e-11
2.22784e-11
4.79171e-11
2.43516e-11
4.90336e-11
2.09708e-11
4.66815e-11
2.04543e-11
4.72269e-11
2.03764e-11
4.66717e-11
1.76779e-11
4.3379e-11
1.64654e-11
4.20226e-11
1.37707e-11
3.87997e-11
9.64502e-12
3.37933e-11
1.10673e-11
3.29458e-11
1.42963e-11
3.23379e-11
2.40386e-11
2.85024e-11
2.61077e-11
2.78975e-12
1.67804e-11
3.18226e-12
6.32286e-11
-1.12605e-09
-2.29651e-10
8.7319e-10
1.9641e-10
-4.18824e-10
-6.43986e-10
-5.82243e-10
-4.06306e-10
-2.30179e-10
-1.36407e-10
-5.64476e-11
-3.77163e-11
-1.49467e-12
-5.37655e-12
2.00769e-11
8.06263e-12
3.08863e-11
1.71957e-11
3.66485e-11
1.65117e-11
3.74923e-11
2.03781e-11
4.178e-11
2.0291e-11
4.19897e-11
2.13172e-11
4.42895e-11
2.29003e-11
4.59313e-11
2.1713e-11
4.56485e-11
2.21523e-11
4.78319e-11
2.43089e-11
4.90723e-11
2.09016e-11
4.65591e-11
2.04111e-11
4.72222e-11
2.0389e-11
4.67453e-11
1.774e-11
4.33496e-11
1.62403e-11
4.17106e-11
1.36854e-11
3.90454e-11
9.80853e-12
3.39246e-11
1.11126e-11
3.34014e-11
1.4113e-11
3.3089e-11
2.33244e-11
3.05574e-11
2.38356e-11
7.48644e-12
6.95437e-12
2.1411e-11
7.02172e-11
-1.18016e-09
-1.57496e-10
9.05546e-10
4.79265e-11
-4.3373e-10
-5.87141e-10
-5.67574e-10
-4.06634e-10
-2.29819e-10
-1.34977e-10
-5.55716e-11
-3.80134e-11
-2.41028e-12
-6.41204e-12
1.91811e-11
7.18201e-12
3.00892e-11
1.65669e-11
3.62332e-11
1.59715e-11
3.69033e-11
1.99275e-11
4.14946e-11
1.9964e-11
4.16255e-11
2.10496e-11
4.40666e-11
2.27342e-11
4.57968e-11
2.1568e-11
4.54352e-11
2.20291e-11
4.76898e-11
2.42897e-11
4.90793e-11
2.08673e-11
4.63675e-11
2.0385e-11
4.71727e-11
2.04387e-11
4.67987e-11
1.78672e-11
4.33162e-11
1.59982e-11
4.12082e-11
1.35507e-11
3.93174e-11
1.00136e-11
3.40791e-11
1.10711e-11
3.39886e-11
1.37099e-11
3.41551e-11
2.20755e-11
3.34435e-11
2.03309e-11
1.40802e-11
-5.73476e-12
4.42566e-11
7.24618e-11
-1.24282e-09
-4.70661e-11
9.42063e-10
-1.43275e-10
-4.56602e-10
-5.11743e-10
-5.45116e-10
-4.07314e-10
-2.30125e-10
-1.3337e-10
-5.4485e-11
-3.83067e-11
-3.51216e-12
-7.64054e-12
1.80801e-11
6.15796e-12
2.9119e-11
1.58282e-11
3.57065e-11
1.53762e-11
3.61944e-11
1.94139e-11
4.11268e-11
1.96195e-11
4.11733e-11
2.07592e-11
4.37772e-11
2.25715e-11
4.56058e-11
2.14381e-11
4.51525e-11
2.19147e-11
4.74892e-11
2.42989e-11
4.90444e-11
2.0876e-11
4.61066e-11
2.0377e-11
4.7076e-11
2.05273e-11
4.68325e-11
1.80645e-11
4.33081e-11
1.57259e-11
4.0494e-11
1.33498e-11
3.96195e-11
1.0244e-11
3.42784e-11
1.09065e-11
3.47328e-11
1.30361e-11
3.55791e-11
2.02307e-11
3.71697e-11
1.56525e-11
2.23661e-11
-2.04271e-11
6.97107e-11
7.2137e-11
-1.31329e-09
9.49109e-11
9.86797e-10
-3.67281e-10
-4.91035e-10
-4.21174e-10
-5.13955e-10
-4.07968e-10
-2.31323e-10
-1.31714e-10
-5.32246e-11
-3.86087e-11
-4.82212e-12
-9.0702e-12
1.67607e-11
4.98056e-12
2.7966e-11
1.49678e-11
3.50473e-11
1.4723e-11
3.53626e-11
1.88351e-11
4.06626e-11
1.9257e-11
4.06303e-11
2.04471e-11
4.34167e-11
2.24135e-11
4.53521e-11
2.13279e-11
4.47996e-11
2.18133e-11
4.72295e-11
2.43386e-11
4.89611e-11
2.09321e-11
4.5782e-11
2.03885e-11
4.69312e-11
2.06544e-11
4.68525e-11
1.83293e-11
4.33586e-11
1.54067e-11
3.95475e-11
1.30815e-11
3.99624e-11
1.04781e-11
3.45459e-11
1.05918e-11
3.56461e-11
1.20778e-11
3.73669e-11
1.78123e-11
4.16286e-11
1.00402e-11
3.182e-11
-3.59136e-11
9.53933e-11
7.18472e-11
-1.38962e-09
2.57059e-10
1.04142e-09
-6.11596e-10
-5.39237e-10
-3.20346e-10
-4.73898e-10
-4.08087e-10
-2.33549e-10
-1.30159e-10
-5.18301e-11
-3.89197e-11
-6.33132e-12
-1.0696e-11
1.52197e-11
3.6515e-12
2.663e-11
1.39851e-11
3.42418e-11
1.40087e-11
3.441e-11
1.81896e-11
4.00914e-11
1.8874e-11
3.99954e-11
2.01118e-11
4.29795e-11
2.22614e-11
4.50289e-11
2.12351e-11
4.43775e-11
2.17243e-11
4.69102e-11
2.44081e-11
4.88234e-11
2.10354e-11
4.53994e-11
2.04189e-11
4.67389e-11
2.08174e-11
4.68563e-11
1.86599e-11
4.35052e-11
1.50158e-11
3.83556e-11
1.27411e-11
4.03537e-11
1.06964e-11
3.49001e-11
1.01171e-11
3.67239e-11
1.08491e-11
3.94778e-11
1.49286e-11
4.66021e-11
3.90945e-12
4.17423e-11
-5.08553e-11
1.19071e-10
7.36792e-11
-1.46807e-09
4.27655e-10
1.10527e-09
-8.61612e-10
-6.01845e-10
-2.15032e-10
-4.25451e-10
-4.0706e-10
-2.36841e-10
-1.2887e-10
-5.0371e-11
-3.92342e-11
-8.02601e-12
-1.25055e-11
1.34625e-11
2.17802e-12
2.51166e-11
1.28805e-11
3.32842e-11
1.32345e-11
3.33399e-11
1.74791e-11
3.94071e-11
1.84675e-11
3.9269e-11
1.97524e-11
4.24618e-11
2.21113e-11
4.46325e-11
2.11582e-11
4.38883e-11
2.16482e-11
4.65305e-11
2.45046e-11
4.8627e-11
2.11808e-11
4.4966e-11
2.04671e-11
4.65002e-11
2.1011e-11
4.68469e-11
1.9049e-11
4.37815e-11
1.45272e-11
3.69228e-11
1.23289e-11
4.07943e-11
1.08875e-11
3.53403e-11
9.49306e-12
3.79322e-11
9.39868e-12
4.18149e-11
1.17478e-11
5.17994e-11
-2.26483e-12
5.13842e-11
-6.40513e-11
1.39042e-10
7.89319e-11
-1.54386e-09
5.94884e-10
1.17557e-09
-1.10488e-09
-6.77505e-10
-1.10715e-10
-3.6973e-10
-4.04261e-10
-2.41122e-10
-1.2802e-10
-4.89234e-11
-3.95496e-11
-9.88538e-12
-1.44819e-11
1.14982e-11
5.69707e-13
2.34317e-11
1.16605e-11
3.21715e-11
1.24015e-11
3.21582e-11
1.67078e-11
3.86055e-11
1.80344e-11
3.84533e-11
1.93681e-11
4.18613e-11
2.19613e-11
4.41607e-11
2.1094e-11
4.33353e-11
2.15828e-11
4.60911e-11
2.4623e-11
4.83724e-11
2.13623e-11
4.4487e-11
2.05286e-11
4.6214e-11
2.12275e-11
4.68236e-11
1.94801e-11
4.42203e-11
1.39391e-11
3.52584e-11
1.18606e-11
4.12775e-11
1.10446e-11
3.58524e-11
8.75327e-12
3.923e-11
7.80185e-12
4.42486e-11
8.47951e-12
5.69045e-11
-7.99153e-12
6.00753e-11
-7.4566e-11
1.54241e-10
8.80852e-11
-1.61238e-09
7.48804e-10
1.24876e-09
-1.33064e-09
-7.63627e-10
-1.2405e-11
-3.08292e-10
-3.99081e-10
-2.46179e-10
-1.27763e-10
-4.75875e-11
-3.98659e-11
-1.18829e-11
-1.66033e-11
9.34042e-12
-1.16346e-12
2.15871e-11
1.03308e-11
3.09057e-11
1.15125e-11
3.08742e-11
1.58811e-11
3.76868e-11
1.7573e-11
3.75531e-11
1.89601e-11
4.1179e-11
2.18078e-11
4.36155e-11
2.10387e-11
4.27226e-11
2.15253e-11
4.55933e-11
2.47582e-11
4.80587e-11
2.15732e-11
4.39695e-11
2.06006e-11
4.58821e-11
2.14609e-11
4.67792e-11
1.99362e-11
4.4833e-11
1.32681e-11
3.33958e-11
1.13575e-11
4.17818e-11
1.11713e-11
3.64124e-11
7.93947e-12
4.05325e-11
6.16625e-12
4.66345e-11
5.34557e-12
6.16064e-11
-1.28605e-11
6.73014e-11
-8.18227e-11
1.64304e-10
1.00685e-10
-1.66973e-09
8.82317e-10
1.32071e-09
-1.5311e-09
-8.5683e-10
7.59047e-11
-2.4302e-10
-3.91009e-10
-2.51707e-10
-1.28221e-10
-4.64682e-11
-4.01892e-11
-1.39904e-11
-1.8845e-11
7.00513e-12
-3.0062e-12
1.95964e-11
8.90323e-12
2.94924e-11
1.05713e-11
2.94984e-11
1.50046e-11
3.66532e-11
1.70824e-11
3.65745e-11
1.85303e-11
4.04169e-11
2.1648e-11
4.29992e-11
2.09884e-11
4.20548e-11
2.14742e-11
4.50405e-11
2.4905e-11
4.76868e-11
2.18063e-11
4.34204e-11
2.06827e-11
4.55047e-11
2.17071e-11
4.67021e-11
2.03987e-11
4.55957e-11
1.25756e-11
3.14155e-11
1.08485e-11
4.2275e-11
1.12816e-11
3.69885e-11
7.1062e-12
4.17681e-11
4.60293e-12
4.88274e-11
2.55932e-12
6.56435e-11
-1.6562e-11
7.27399e-11
-8.5596e-11
1.69445e-10
1.15715e-10
-1.71299e-09
9.91276e-10
1.38708e-09
-1.70073e-09
-9.53065e-10
1.51272e-10
-1.75998e-10
-3.79711e-10
-2.57347e-10
-1.29483e-10
-4.56831e-11
-4.05354e-11
-1.61789e-11
-2.11823e-11
4.50941e-12
-4.94745e-12
1.74732e-11
7.38803e-12
2.79388e-11
9.58082e-12
2.804e-11
1.40848e-11
3.55103e-11
1.65614e-11
3.5524e-11
1.80802e-11
3.95785e-11
2.14793e-11
4.23151e-11
2.09403e-11
4.1338e-11
2.1428e-11
4.44366e-11
2.50587e-11
4.72589e-11
2.20563e-11
4.28446e-11
2.07748e-11
4.50818e-11
2.19632e-11
4.65753e-11
2.08423e-11
4.64137e-11
1.1976e-11
2.94825e-11
1.0369e-11
4.27119e-11
1.13936e-11
3.75416e-11
6.31883e-12
4.28604e-11
3.21666e-12
5.06927e-11
2.91832e-13
6.88177e-11
-1.88987e-11
7.62502e-11
-8.5957e-11
1.70203e-10
1.31992e-10
-1.74009e-09