/*--------------------------------*- C++ -*----------------------------------*\
| =========                 |                                                 |
| \\      /  F ield         | OpenFOAM: The Open Source CFD Toolbox           |
|  \\    /   O peration     | Version:  2312                                  |
|   \\  /    A nd           | Website:  www.openfoam.com                      |
|    \\/     M anipulation  |                                                 |
\*---------------------------------------------------------------------------*/
FoamFile
{
    version     2.0;
    format      ascii;
    arch        "LSB;label=32;scalar=64";
    class       volScalarField;
    location    "1000";
    object      nut;
}
// * * * * * * * * * * * * * * * * * * * * * * * * * * * * * * * * * * * * * //

dimensions      [0 2 -1 0 0 0 0];

internalField   nonuniform List<scalar> 
144000
(
5.44207e-31
4.95156e-31
2.18292e-31
6.33056e-29
9.62259e-30
1.43798e-31
8.0339e-30
1.79189e-30
4.86651e-30
3.2917e-30
4.48882e-30
3.75153e-30
4.97221e-30
4.57802e-30
4.51073e-30
3.86907e-30
5.2578e-30
6.2164e-30
5.43373e-30
5.32672e-30
6.15531e-30
6.83841e-30
6.57656e-30
6.62117e-30
6.12307e-30
6.4919e-30
7.01223e-30
7.32449e-30
7.21471e-30
7.13521e-30
6.26383e-30
6.08263e-30
7.0645e-30
7.27295e-30
6.5104e-30
5.76633e-30
4.79936e-30
4.33118e-30
3.8918e-30
2.62974e-30
2.86042e-30
1.29834e-30
4.76191e-30
3.60284e-30
2.91924e-30
2.54755e-30
1.10515e-30
5.8858e-31
1.20061e-31
4.61417e-32
5.28802e-32
4.54547e-31
3.59166e-30
9.45431e-30
5.53935e-29
2.95812e-29
8.51658e-29
6.89082e-27
1.76209e-26
3.70051e-27
3.77475e-27
6.41492e-28
1.51718e-28
6.26668e-28
3.26613e-30
1.92774e-30
1.36474e-29
5.85155e-30
6.46739e-30
1.03904e-29
6.3259e-30
1.05727e-29
7.65942e-30
1.21099e-29
7.81618e-30
9.22099e-30
8.78395e-30
1.50045e-29
1.02673e-29
1.15223e-29
1.11542e-29
1.55602e-29
1.21797e-29
1.46151e-29
1.1249e-29
1.38988e-29
1.27683e-29
1.59444e-29
1.32726e-29
1.511e-29
1.15912e-29
1.21349e-29
1.25461e-29
1.49257e-29
1.18235e-29
1.09414e-29
8.34693e-30
7.64054e-30
6.61905e-30
4.98389e-30
5.19217e-30
3.97669e-30
1.19625e-29
4.72308e-30
6.33884e-30
4.50641e-30
2.45749e-30
7.56307e-31
2.70116e-31
3.29404e-32
4.93467e-32
1.82951e-30
5.65707e-30
3.04086e-29
9.16194e-29
1.32867e-28
1.07128e-28
1.41757e-26
9.95787e-26
2.8519e-27
2.05548e-26
9.83938e-28
1.68863e-27
5.37977e-28
2.365e-29
8.44491e-31
2.15175e-29
8.29909e-30
9.72432e-30
1.32646e-29
9.90111e-30
1.29642e-29
1.18559e-29
1.56656e-29
1.1484e-29
1.26963e-29
1.30586e-29
1.98302e-29
1.47026e-29
1.60511e-29
1.58753e-29
2.11497e-29
1.70112e-29
2.02136e-29
1.55259e-29
1.96085e-29
1.75247e-29
2.20176e-29
1.80159e-29
2.09228e-29
1.53916e-29
1.73535e-29
1.66084e-29
2.02388e-29
1.53046e-29
1.48614e-29
1.05669e-29
1.05074e-29
8.39402e-30
7.13178e-30
7.81045e-30
5.39364e-30
2.06165e-29
5.42931e-30
9.77587e-30
6.17507e-30
3.28176e-30
1.26401e-30
3.078e-31
1.2197e-31
1.50151e-31
1.49036e-30
1.08677e-29
3.20568e-29
1.52971e-28
1.07764e-28
3.79726e-28
2.61545e-26
1.04143e-25
9.39288e-27
1.01903e-25
1.23435e-26
7.5105e-27
2.03833e-27
1.97353e-29
1.13498e-30
2.09786e-29
1.04356e-29
9.44205e-30
1.37206e-29
9.78704e-30
1.31045e-29
1.18136e-29
1.59159e-29
1.14721e-29
1.27947e-29
1.28472e-29
2.01189e-29
1.45154e-29
1.60686e-29
1.56311e-29
2.12082e-29
1.67513e-29
2.01378e-29
1.517e-29
1.95909e-29
1.68762e-29
2.20983e-29
1.73477e-29
2.07032e-29
1.47208e-29
1.71369e-29
1.55832e-29
2.00274e-29
1.43078e-29
1.44635e-29
9.87855e-30
1.04002e-29
8.14159e-30
7.66261e-30
7.75896e-30
8.19814e-30
2.04636e-29
4.95818e-30
1.14853e-29
5.72849e-30
3.78177e-30
1.19944e-30
4.20047e-31
1.8745e-31
8.38989e-32
1.62708e-30
9.26222e-30
3.01806e-29
1.33968e-28
9.34275e-29
4.8449e-28
3.74761e-26
1.52947e-25
2.96575e-26
2.50552e-25
7.33942e-26
1.52428e-26
6.92421e-27
4.3201e-29
1.54552e-30
2.3483e-29
1.3363e-29
9.25503e-30
1.48403e-29
9.29046e-30
1.41846e-29
1.14561e-29
1.66615e-29
1.1216e-29
1.31313e-29
1.25226e-29
2.08971e-29
1.41872e-29
1.62165e-29
1.53731e-29
2.15393e-29
1.64189e-29
2.01988e-29
1.47715e-29
1.9655e-29
1.63885e-29
2.23331e-29
1.6702e-29
2.07567e-29
1.41262e-29
1.70915e-29
1.49587e-29
2.03716e-29
1.3677e-29
1.47484e-29
9.64955e-30
1.11198e-29
8.4128e-30
8.76771e-30
7.85465e-30
1.031e-29
1.7952e-29
5.91785e-30
1.29311e-29
5.68557e-30
4.3123e-30
1.26154e-30
5.95225e-31
3.41764e-31
3.8305e-32
1.6786e-30
7.69203e-30
2.77841e-29
1.13416e-28
7.34537e-29
6.83545e-28
5.9362e-26
2.16236e-25
1.10263e-25
4.26279e-25
2.55244e-25
2.07763e-26
1.77078e-26
1.28842e-28
2.91618e-30
2.92985e-29
1.70752e-29
9.94464e-30
1.62328e-29
9.04865e-30
1.53284e-29
1.13887e-29
1.77843e-29
1.11595e-29
1.38428e-29
1.26081e-29
2.22456e-29
1.41227e-29
1.68634e-29
1.55377e-29
2.2523e-29
1.65244e-29
2.07577e-29
1.48338e-29
2.02575e-29
1.65096e-29
2.32416e-29
1.6719e-29
2.1429e-29
1.41198e-29
1.77273e-29
1.52326e-29
2.17079e-29
1.39284e-29
1.59755e-29
1.02011e-29
1.27965e-29
9.26142e-30
1.0181e-29
7.81595e-30
1.39163e-29
1.60269e-29
8.35801e-30
1.41995e-29
6.38663e-30
4.94021e-30
1.56539e-30
8.9267e-31
6.72552e-31
1.51985e-32
1.78107e-30
6.08152e-30
2.51481e-29
9.06172e-29
5.11792e-29
9.79606e-28
9.7059e-26
2.86184e-25
3.33467e-25
5.80062e-25
6.5532e-25
2.18632e-26
3.69206e-26
3.58441e-28
6.339e-30
3.85858e-29
2.23933e-29
1.1287e-29
1.75499e-29
9.09229e-30
1.62738e-29
1.15591e-29
1.88399e-29
1.12077e-29
1.46572e-29
1.30081e-29
2.36982e-29
1.41816e-29
1.77649e-29
1.59429e-29
2.37581e-29
1.67744e-29
2.15253e-29
1.51238e-29
2.12021e-29
1.70368e-29
2.44337e-29
1.70755e-29
2.24626e-29
1.45047e-29
1.89378e-29
1.61755e-29
2.36558e-29
1.47666e-29
1.78424e-29
1.13291e-29
1.52141e-29
1.05453e-29
1.19166e-29
8.00988e-30
1.64145e-29
1.44314e-29
1.25353e-29
1.55008e-29
7.87207e-30
5.63506e-30
2.23424e-30
1.41556e-30
1.38275e-30
2.76185e-32
2.05856e-30
4.66408e-30
2.19691e-29
6.63857e-29
3.2174e-29
1.30624e-27
1.5457e-25
3.68169e-25
8.12864e-25
6.787e-25
1.36071e-24
1.92172e-26
6.63407e-26
8.47547e-28
1.23091e-29
5.13708e-29
2.91883e-29
1.31096e-29
1.88626e-29
9.31603e-30
1.70383e-29
1.18487e-29
1.97874e-29
1.13262e-29
1.54186e-29
1.35542e-29
2.51018e-29
1.42952e-29
1.87124e-29
1.64324e-29
2.5119e-29
1.70682e-29
2.23939e-29
1.55583e-29
2.23232e-29
1.77155e-29
2.58545e-29
1.7683e-29
2.37114e-29
1.51949e-29
2.05092e-29
1.75322e-29
2.60873e-29
1.6049e-29
2.02088e-29
1.29904e-29
1.83632e-29
1.23221e-29
1.40567e-29
8.62767e-30
2.00816e-29
1.32352e-29
1.81555e-29
1.71874e-29
1.03349e-29
6.48895e-30
3.53501e-30
2.33507e-30
2.90299e-30
1.83624e-31
2.93719e-30
4.0475e-30
1.97143e-29
4.66138e-29
2.59099e-29
1.63982e-27
2.34794e-25
4.68282e-25
1.63229e-24
7.11181e-25
2.47871e-24
1.41383e-26
1.08464e-25
1.81448e-27
2.18727e-29
6.75449e-29
3.66483e-29
1.52371e-29
2.02709e-29
9.66546e-30
1.76819e-29
1.22839e-29
2.06194e-29
1.15164e-29
1.62164e-29
1.43221e-29
2.64377e-29
1.44818e-29
1.97016e-29
1.71218e-29
2.65422e-29
1.73969e-29
2.33925e-29
1.6127e-29
2.36509e-29
1.86704e-29
2.74516e-29
1.84471e-29
2.52468e-29
1.61555e-29
2.24738e-29
1.93743e-29
2.89501e-29
1.77114e-29
2.3167e-29
1.53165e-29
2.2597e-29
1.51384e-29
1.77254e-29
1.07148e-29
2.46413e-29
1.14519e-29
2.55678e-29
1.99132e-29
1.40955e-29
7.7412e-30
5.91316e-30
4.07107e-30
6.08889e-30
9.38562e-31
5.49442e-30
5.507e-30
2.14811e-29
4.06461e-29
5.04396e-29
1.89618e-27
3.41897e-25
6.22603e-25
2.89633e-24
6.77481e-25
4.06214e-24
9.29997e-27
1.63053e-25
3.5662e-27
3.63618e-29
8.77009e-29
4.44152e-29
1.76236e-29
2.18191e-29
1.01283e-29
1.82308e-29
1.28643e-29
2.13474e-29
1.18634e-29
1.69795e-29
1.52535e-29
2.76882e-29
1.47983e-29
2.06804e-29
1.79654e-29
2.80054e-29
1.78561e-29
2.44714e-29
1.68857e-29
2.51443e-29
1.97642e-29
2.9268e-29
1.94396e-29
2.69894e-29
1.74004e-29
2.47727e-29
2.15585e-29
3.23017e-29
1.98505e-29
2.68426e-29
1.85805e-29
2.85068e-29
1.97623e-29
2.50057e-29
1.85233e-29
2.89034e-29
9.29823e-30
3.42839e-29
2.42702e-29
1.9734e-29
9.78538e-30
1.01035e-29
7.39369e-30
1.25117e-29
3.5884e-30
1.25548e-29
1.26141e-29
3.47973e-29
6.42966e-29
1.76038e-28
2.12432e-27
4.81163e-25
8.5248e-25
4.61839e-24
6.02319e-25
6.1859e-24
6.32681e-27
2.30035e-25
6.63005e-27
5.89865e-29
1.13591e-28
5.18564e-29
2.01003e-29
2.35576e-29
1.06785e-29
1.86951e-29
1.36074e-29
2.19615e-29
1.23255e-29
1.77563e-29
1.64177e-29
2.88152e-29
1.52299e-29
2.1666e-29
1.90548e-29
2.94096e-29
1.84272e-29
2.56211e-29
1.78108e-29
2.67954e-29
2.11248e-29
3.11614e-29
2.05823e-29
2.8968e-29
1.88939e-29
2.74581e-29
2.42028e-29
3.60954e-29
2.24893e-29
3.14211e-29
2.30597e-29
3.66709e-29
2.70222e-29
3.77706e-29
3.00734e-29
4.59079e-29
8.97598e-30
4.00717e-29
3.28257e-29
2.74227e-29
1.33103e-29
1.71996e-29
1.38187e-29
2.49836e-29
1.10802e-29
3.04175e-29
3.54692e-29
7.87575e-29
1.64119e-28
5.75326e-28
2.25732e-27
6.63749e-25
1.24826e-24
6.84855e-24
5.04317e-25
8.82829e-24
7.54565e-27
3.05483e-25
1.16604e-26
9.41955e-29
1.4531e-28
5.86735e-29
2.26096e-29
2.57057e-29
1.11956e-29
1.92286e-29
1.43652e-29
2.26312e-29
1.28616e-29
1.85501e-29
1.76739e-29
2.98974e-29
1.57362e-29
2.26488e-29
2.02623e-29
3.0792e-29
1.91087e-29
2.68075e-29
1.89189e-29
2.85348e-29
2.25554e-29
3.31606e-29
2.19465e-29
3.10943e-29
2.06614e-29
3.04475e-29
2.71923e-29
4.0425e-29
2.57439e-29
3.70429e-29
2.90784e-29
4.7515e-29
3.74247e-29
5.95147e-29
5.4667e-29
7.96211e-29
7.55787e-30
4.67693e-29
4.50114e-29
3.84822e-29
1.92528e-29
2.89366e-29
2.5843e-29
4.83973e-29
2.94953e-29
7.14679e-29
9.66925e-29
1.96579e-28
4.50661e-28
1.59076e-27
2.37932e-27
9.07057e-25
1.86594e-24
9.48124e-24
4.26306e-25
1.20172e-23
1.47085e-26
3.86524e-25
1.95433e-26
1.51632e-28
1.87625e-28
6.3469e-29
2.51359e-29
2.82133e-29
1.1678e-29
1.98108e-29
1.51335e-29
2.33647e-29
1.33568e-29
1.94238e-29
1.90811e-29
3.08969e-29
1.62456e-29
2.36565e-29
2.16628e-29
3.20854e-29
1.98087e-29
2.80645e-29
2.01308e-29
3.03225e-29
2.42257e-29
3.51561e-29
2.33966e-29
3.34428e-29
2.26539e-29
3.37656e-29
3.07666e-29
4.52666e-29
2.96623e-29
4.41156e-29
3.73031e-29
6.27746e-29
5.55714e-29
1.14307e-28
2.38077e-28
1.9146e-28
1.04577e-29
8.04192e-29
4.94016e-29
5.95718e-29
2.7666e-29
4.85736e-29
4.72322e-29
9.01132e-29
6.93864e-29
1.58113e-28
2.37541e-28
4.67466e-28
1.12246e-27
3.66816e-27
2.43042e-27
1.22722e-24
2.91617e-24
1.2501e-23
3.83117e-25
1.57394e-23
3.54261e-26
4.69554e-25
3.11596e-26
2.48247e-28
2.40915e-28
6.57635e-29
2.76703e-29
3.11177e-29
1.2129e-29
2.04224e-29
1.58728e-29
2.41334e-29
1.38951e-29
2.03231e-29
2.04521e-29
3.18648e-29
1.67839e-29
2.46777e-29
2.30635e-29
3.33389e-29
2.05693e-29
2.93248e-29
2.14723e-29
3.21321e-29
2.5907e-29
3.72304e-29
2.50201e-29
3.58979e-29
2.49442e-29
3.73828e-29
3.47063e-29
5.07793e-29
3.44964e-29
5.30585e-29
4.9151e-29
8.74316e-29
9.85497e-29
3.0833e-28
6.11136e-28
1.09508e-29
7.19065e-30
8.09891e-29
5.55958e-29
9.29433e-29
4.03422e-29
8.00023e-29
8.37301e-29
1.59655e-28
1.48664e-28
3.23219e-28
5.23977e-28
1.01153e-27
2.48171e-27
7.46753e-27
2.44748e-27
1.65347e-24
4.51971e-24
1.57576e-23
4.27366e-25
2.00148e-23
7.44688e-26
5.52743e-25
4.73199e-26
4.15631e-28
3.09003e-28
6.46562e-29
3.0172e-29
3.41657e-29
1.2664e-29
2.08547e-29
1.67401e-29
2.47609e-29
1.44719e-29
2.12103e-29
2.19243e-29
3.2657e-29
1.73362e-29
2.56845e-29
2.45826e-29
3.44214e-29
2.13507e-29
3.06019e-29
2.28815e-29
3.39553e-29
2.77538e-29
3.92582e-29
2.67219e-29
3.85407e-29
2.74376e-29
4.1292e-29
3.90468e-29
5.64072e-29
3.93949e-29
6.13919e-29
5.86425e-29
1.00387e-28
1.17586e-28
3.87916e-28
2.54437e-29
7.57574e-28
8.4555e-28
7.55763e-30
1.33146e-28
1.10159e-28
6.74753e-29
1.23895e-28
1.45722e-28
2.71431e-28
2.90696e-28
6.14288e-28
1.04216e-27
1.99265e-27
4.88192e-27
1.35732e-26
2.3957e-27
2.22571e-24
7.06795e-24
1.91418e-23
5.75772e-25
2.48737e-23
1.4323e-25
6.3788e-25
6.89916e-26
7.21829e-28
3.80293e-28
6.10201e-29
3.22156e-29
3.78802e-29
1.30431e-29
2.13575e-29
1.75182e-29
2.54477e-29
1.50504e-29
2.21055e-29
2.32667e-29
3.34326e-29
1.78644e-29
2.67023e-29
2.60104e-29
3.5458e-29
2.21591e-29
3.18796e-29
2.43855e-29
3.57899e-29
2.95027e-29
4.13422e-29
2.86216e-29
4.12745e-29
3.0197e-29
4.54446e-29
4.36271e-29
6.26804e-29
4.53663e-29
7.24502e-29
7.4901e-29
1.37156e-28
2.27403e-28
1.03184e-27
2.44298e-27
4.20245e-27
2.26313e-29
2.78443e-29
1.43196e-28
1.69136e-28
9.92528e-29
1.92647e-28
2.41303e-28
4.43406e-28
5.26785e-28
1.08223e-27
1.8977e-27
3.57788e-27
8.71832e-27
2.25908e-26
2.33126e-27
3.02156e-24
1.06286e-23
2.23755e-23
9.77978e-25
3.00313e-23
2.39462e-25
7.25952e-25
9.56507e-26
1.25929e-27
4.64764e-28
5.45403e-29
3.40722e-29
4.18581e-29
1.33545e-29
2.18048e-29
1.82926e-29
2.61373e-29
1.55106e-29
2.30175e-29
2.46646e-29
3.40625e-29
1.83156e-29
2.77202e-29
2.75269e-29
3.63583e-29
2.29044e-29
3.32504e-29
2.58735e-29
3.76019e-29
3.1406e-29
4.3397e-29
3.05272e-29
4.42698e-29
3.30862e-29
4.98759e-29
4.88933e-29
6.9765e-29
5.29369e-29
8.87128e-29
1.04058e-28
2.21316e-28
5.31792e-28
3.38428e-27
3.79844e-26
7.11913e-29
1.13515e-26
1.20078e-28
1.00909e-28
2.83937e-28
1.32954e-28
2.9753e-28
3.77505e-28
6.95323e-28
8.83033e-28
1.78549e-27
3.17513e-27
5.91757e-27
1.42301e-26
3.44669e-26
2.28494e-27
4.09391e-24
1.59603e-23
2.53862e-23
1.68468e-24
3.53776e-23
3.72403e-25
8.33602e-25
1.25897e-25
2.17191e-27
5.51557e-28
4.63623e-29
3.55578e-29
4.62549e-29
1.34956e-29
2.2322e-29
1.89365e-29
2.68736e-29
1.59447e-29
2.39404e-29
2.58378e-29
3.47185e-29
1.87305e-29
2.87793e-29
2.88695e-29
3.7272e-29
2.36531e-29
3.46433e-29
2.73979e-29
3.9414e-29
3.32007e-29
4.55644e-29
3.25157e-29
4.73154e-29
3.61344e-29
5.427e-29
5.37377e-29
7.57211e-29
5.78973e-29
9.49647e-29
1.05185e-28
1.91258e-28
3.26081e-28
1.34408e-27
3.6378e-27
2.65728e-27
2.89636e-29
9.67278e-30
2.76271e-28
2.90678e-28
2.14289e-28
4.18888e-28
5.76963e-28
1.0322e-27
1.39223e-27
2.74864e-27
4.93907e-27
9.06209e-27
2.16236e-26
4.9458e-26
2.32971e-27
5.50132e-24
2.29644e-23
2.77597e-23
3.02089e-24
4.11885e-23
5.06513e-25
9.59669e-25
1.57878e-25
3.65361e-27
6.33188e-28
3.78296e-29
3.71284e-29
5.0097e-29
1.37552e-29
2.25153e-29
1.97815e-29
2.73257e-29
1.64163e-29
2.47596e-29
2.70723e-29
3.5134e-29
1.91416e-29
2.98031e-29
3.02552e-29
3.80002e-29
2.4397e-29
3.60673e-29
2.88983e-29
4.12068e-29
3.50848e-29
4.76966e-29
3.44858e-29
5.05344e-29
3.92069e-29
5.88019e-29
5.87211e-29
8.14778e-29
6.25909e-29
1.00687e-28
1.04527e-28
1.62895e-28
1.67423e-28
3.52716e-28
1.78688e-31
1.09378e-27
7.10164e-28
4.06759e-29
3.81599e-28
3.5938e-28
2.97671e-28
5.87436e-28
8.32249e-28
1.47481e-27
2.04668e-27
3.99579e-27
7.14675e-27
1.30214e-26
3.06468e-26
6.71361e-26
2.46644e-27
7.26451e-24
3.21531e-23
2.87911e-23
5.16788e-24
4.77149e-23
6.50727e-25
1.1374e-24
1.89865e-25
6.09167e-27
6.68759e-28
3.02212e-29
3.76985e-29
5.45469e-29
1.36946e-29
2.2877e-29
2.04933e-29
2.78088e-29
1.69015e-29
2.56019e-29
2.8042e-29
3.55849e-29
1.95382e-29
3.08912e-29
3.1403e-29
3.87379e-29
2.5167e-29
3.75123e-29
3.04221e-29
4.30361e-29
3.67506e-29
4.99031e-29
3.66083e-29
5.38016e-29
4.24263e-29
6.35243e-29
6.36884e-29
8.82033e-29
6.94056e-29
1.13335e-28
1.22762e-28
2.02529e-28
2.29519e-28
5.5147e-28
5.83787e-28
2.84462e-29
2.30426e-31
4.06596e-28
3.41038e-28
4.98273e-28
3.80388e-28
7.96687e-28
1.14098e-27
1.98726e-27
2.84831e-27
5.43518e-27
9.73312e-27
1.7524e-26
4.06535e-26
8.6125e-26
3.12962e-27
9.59745e-24
4.31073e-23
2.90481e-23
8.84875e-24
5.40315e-23
7.7053e-25
1.36625e-24
2.15492e-25
9.68591e-27
6.76625e-28
2.38758e-29
3.80663e-29
5.90254e-29
1.33475e-29
2.34362e-29
2.10075e-29
2.84085e-29
1.71736e-29
2.65249e-29
2.88529e-29
3.59735e-29
1.97929e-29
3.20338e-29
3.24188e-29
3.94268e-29
2.57958e-29
3.90865e-29
3.17755e-29
4.48233e-29
3.83741e-29
5.20565e-29
3.85565e-29
5.71731e-29
4.53595e-29
6.79e-29
6.79767e-29
9.30797e-29
7.29551e-29
1.17456e-28
1.20784e-28
1.85172e-28
1.69868e-28
3.01522e-28
3.68709e-28
2.87882e-28
2.33991e-30
4.20592e-28
5.23762e-28
5.40109e-28
5.21661e-28
1.01305e-27
1.49549e-27
2.5225e-27
3.73201e-27
6.93335e-27
1.2395e-26
2.19046e-26
5.07904e-26
1.03979e-25
4.58992e-27
1.24886e-23
5.67641e-23
2.81817e-23
1.41582e-23
6.03703e-23
8.62196e-25
1.68106e-24
2.31935e-25
1.4664e-26
6.37872e-28
1.91316e-29
3.87337e-29
6.29955e-29
1.27146e-29
2.43106e-29
2.11263e-29
2.92503e-29
1.71912e-29
2.75634e-29
2.92538e-29
3.65129e-29
1.98939e-29
3.32554e-29
3.31052e-29
4.02148e-29
2.62447e-29
4.07127e-29
3.2892e-29
4.6528e-29
3.97284e-29
5.4217e-29
4.02243e-29
6.04222e-29
4.79586e-29
7.17899e-29
7.15067e-29
9.69835e-29
7.50289e-29
1.18887e-28
1.14348e-28
1.61375e-28
1.11283e-28
1.265e-28
6.56096e-29
8.45398e-29
9.642e-29
5.33012e-28
6.19947e-28
6.27039e-28
6.6112e-28
1.261e-27
1.85911e-27
3.07772e-27
4.59045e-27
8.31921e-27
1.4703e-26
2.52535e-26
5.96954e-26
1.17453e-25
7.86656e-27
1.58377e-23
7.12441e-23
2.59068e-23
2.16973e-23
6.57818e-23
9.27841e-25
2.07388e-24
2.35152e-25
2.07076e-26
5.83915e-28
1.74801e-29
4.11934e-29
6.42492e-29
1.24277e-29
2.44898e-29
2.15803e-29
2.94441e-29
1.72918e-29
2.81547e-29
2.97205e-29
3.66161e-29
1.99635e-29
3.41291e-29
3.37546e-29
4.05968e-29
2.65852e-29
4.20532e-29
3.36964e-29
4.78974e-29
4.08204e-29
5.60042e-29
4.14245e-29
6.33062e-29
4.97939e-29
7.50694e-29
7.41779e-29
9.99849e-29
7.62748e-29
1.20978e-28
1.11194e-28
1.53494e-28
9.73344e-29
9.99934e-29
3.86584e-29
1.40627e-28
1.86173e-28
7.14961e-28
6.48225e-28
7.24875e-28
7.92257e-28
1.50623e-27
2.18447e-27
3.59878e-27
5.26024e-27
9.45608e-27
1.61702e-26
2.74107e-26
6.42196e-26
1.23128e-25
1.44531e-26
1.94082e-23
8.59527e-23
2.21264e-23
3.08285e-23
7.21636e-23
1.00861e-24
2.65346e-24
2.25732e-25
2.76447e-26
5.20956e-28
1.94265e-29
4.67928e-29
6.19052e-29
1.29816e-29
2.30865e-29
2.31474e-29
2.81643e-29
1.83064e-29
2.7457e-29
3.04723e-29
3.58774e-29
2.04909e-29
3.40178e-29
3.44897e-29
4.02828e-29
2.72795e-29
4.26287e-29
3.45743e-29
4.87057e-29
4.14029e-29
5.73914e-29
4.24272e-29
6.54911e-29
5.10556e-29
7.74847e-29
7.47013e-29
1.02017e-28
7.57021e-29
1.20463e-28
1.04207e-28
1.42114e-28
8.43819e-29
8.92343e-29
2.90294e-29
1.8277e-28
3.18607e-28
7.97338e-28
6.84041e-28
8.02492e-28
9.04725e-28
1.72151e-27
2.39592e-27
4.00297e-27
5.59591e-27
1.01404e-26
1.63857e-26
2.81547e-26
6.38551e-26
1.25059e-25
2.57661e-26
2.29606e-23
9.86454e-23
1.8125e-23
4.50024e-23
7.91845e-23
1.0893e-24
3.4457e-24
2.12316e-25
3.71723e-26
4.34045e-28
2.42301e-29
5.59054e-29
6.26199e-29
1.29722e-29
2.33769e-29
2.47202e-29
2.859e-29
1.90723e-29
2.82921e-29
3.20115e-29
3.6784e-29
2.10221e-29
3.55885e-29
3.60598e-29
4.15269e-29
2.82672e-29
4.46987e-29
3.61522e-29
5.09875e-29
4.32576e-29
6.02827e-29
4.43072e-29
6.9333e-29
5.33468e-29
8.16478e-29
7.76505e-29
1.0572e-28
7.63013e-29
1.21595e-28
1.0054e-28
1.34898e-28
7.90311e-29
8.65747e-29
2.87916e-29
2.2282e-28
4.6479e-28
8.4971e-28
7.30691e-28
8.84554e-28
1.02072e-27
1.90844e-27
2.59936e-27
4.26202e-27
5.81521e-27
1.03269e-26
1.60868e-26
2.74037e-26
6.2193e-26
1.26587e-25
4.05454e-26
2.71583e-23
1.1489e-22
1.36838e-23
5.91294e-31
4.28967e-31
1.64187e-31
6.20648e-29
8.90484e-30
1.85129e-31
7.27379e-30
2.00782e-30
4.55942e-30
3.33787e-30
4.43734e-30
3.65499e-30
4.99605e-30
4.37705e-30
4.67093e-30
3.6173e-30
5.44226e-30
5.85699e-30
5.63993e-30
5.03517e-30
6.3584e-30
6.62848e-30
6.76527e-30
6.45428e-30
6.46414e-30
6.359e-30
7.36766e-30
7.52047e-30
7.52442e-30
7.58237e-30
6.77462e-30
6.6963e-30
7.86256e-30
8.38163e-30
7.71356e-30
7.22029e-30
6.46414e-30
6.24603e-30
6.04294e-30
4.98639e-30
4.26899e-30
3.00902e-30
2.61296e-30
4.28616e-30
2.35694e-30
3.00102e-30
9.20138e-31
6.87414e-31
9.46848e-32
5.79635e-32
5.93189e-32
4.0767e-31
3.71426e-30
8.88287e-30
5.60056e-29
3.16787e-29
8.08664e-29
7.02404e-27
1.83983e-26
3.60293e-27
4.0377e-27
6.7606e-28
1.45632e-28
6.0771e-28
2.87197e-30
2.12555e-30
1.26445e-29
6.21289e-30
6.1095e-30
1.03579e-29
6.26181e-30
1.0357e-29
7.63436e-30
1.17311e-29
7.97903e-30
8.79922e-30
9.02991e-30
1.43883e-29
1.0529e-29
1.11161e-29
1.15045e-29
1.52614e-29
1.26061e-29
1.43813e-29
1.20402e-29
1.37666e-29
1.37664e-29
1.64504e-29
1.4315e-29
1.62112e-29
1.3071e-29
1.36746e-29
1.47224e-29
1.77336e-29
1.49969e-29
1.44671e-29
1.23732e-29
1.19936e-29
1.14979e-29
1.01109e-29
8.46109e-30
8.00318e-30
5.766e-30
6.60095e-30
4.84768e-30
5.53358e-30
1.96536e-30
9.48131e-31
1.989e-31
4.75712e-32
6.62344e-32
1.6304e-30
6.04293e-30
2.89283e-29
9.34254e-29
1.39807e-28
1.00877e-28
1.44263e-26
1.02915e-25
2.74611e-27
2.06189e-26
9.98974e-28
1.66236e-27
5.12237e-28
2.26337e-29
9.08219e-31
2.04661e-29
8.44099e-30
9.44627e-30
1.29498e-29
9.94486e-30
1.24953e-29
1.18932e-29
1.51054e-29
1.17405e-29
1.21237e-29
1.34664e-29
1.90722e-29
1.50821e-29
1.56424e-29
1.63833e-29
2.09723e-29
1.76867e-29
2.01007e-29
1.6791e-29
1.96614e-29
1.92202e-29
2.29858e-29
1.99281e-29
2.27634e-29
1.79596e-29
1.9964e-29
2.03179e-29
2.47912e-29
2.05123e-29
2.05254e-29
1.68754e-29
1.73874e-29
1.58039e-29
1.50205e-29
1.30442e-29
1.17131e-29
8.47334e-30
9.04748e-30
6.88096e-30
8.00695e-30
2.44858e-30
1.65195e-30
1.98315e-31
1.66949e-31
2.10392e-31
1.26878e-30
1.18365e-29
3.00656e-29
1.57803e-28
1.11831e-28
3.68983e-28
2.65841e-26
1.07212e-25
9.15615e-27
1.02023e-25
1.23087e-26
7.452e-27
1.97945e-27
1.90651e-29
1.14619e-30
2.02422e-29
1.02549e-29
9.4123e-30
1.31721e-29
9.99583e-30
1.25027e-29
1.19546e-29
1.53016e-29
1.17862e-29
1.22794e-29
1.3367e-29
1.94227e-29
1.4991e-29
1.58668e-29
1.62186e-29
2.13378e-29
1.75137e-29
2.03688e-29
1.66199e-29
2.00494e-29
1.88835e-29
2.35145e-29
1.96846e-29
2.30442e-29
1.78137e-29
2.03244e-29
1.9939e-29
2.53695e-29
2.02264e-29
2.08462e-29
1.68401e-29
1.79328e-29
1.62581e-29
1.64097e-29
1.43481e-29
1.3445e-29
8.22589e-30
8.94425e-30
7.46063e-30
7.97572e-30
2.65786e-30
1.66831e-30
2.55565e-31
2.47783e-31
1.39311e-31
1.37475e-30
1.02841e-29
2.80693e-29
1.38897e-28
9.55186e-29
4.79303e-28
3.7879e-26
1.56452e-25
2.9354e-26
2.50523e-25
7.32251e-26
1.51879e-26
6.80438e-27
4.19976e-29
1.47598e-30
2.29072e-29
1.29262e-29
9.42049e-30
1.41101e-29
9.6545e-30
1.35049e-29
1.17126e-29
1.60314e-29
1.16199e-29
1.27246e-29
1.31658e-29
2.02684e-29
1.48366e-29
1.62077e-29
1.6117e-29
2.19693e-29
1.73032e-29
2.08532e-29
1.63974e-29
2.05774e-29
1.87013e-29
2.42128e-29
1.93963e-29
2.36361e-29
1.76217e-29
2.07908e-29
1.97788e-29
2.63454e-29
1.9982e-29
2.16129e-29
1.68927e-29
1.90391e-29
1.69885e-29
1.82743e-29
1.56578e-29
1.48375e-29
7.96494e-30
9.37999e-30
8.04415e-30
8.31801e-30
2.89574e-30
1.83272e-30
3.50657e-31
4.36948e-31
7.98191e-32
1.40177e-30
8.69103e-30
2.55919e-29
1.18618e-28
7.41106e-29
6.84762e-28
5.97229e-26
2.20411e-25
1.10003e-25
4.25809e-25
2.54775e-25
2.07688e-26
1.75002e-26
1.25346e-28
2.74084e-30
2.86668e-29
1.65673e-29
1.02092e-29
1.543e-29
9.52981e-30
1.4583e-29
1.17827e-29
1.71528e-29
1.17049e-29
1.35673e-29
1.34118e-29
2.16749e-29
1.5025e-29
1.70062e-29
1.65294e-29
2.32024e-29
1.76132e-29
2.18442e-29
1.66712e-29
2.16615e-29
1.91352e-29
2.55923e-29
1.97452e-29
2.48737e-29
1.79312e-29
2.19206e-29
2.04121e-29
2.82066e-29
2.04528e-29
2.31777e-29
1.75689e-29
2.09925e-29
1.82443e-29
2.08571e-29
1.75285e-29
1.73949e-29
8.46768e-30
1.03207e-29
8.94635e-30
9.35829e-30
3.28042e-30
2.27407e-30
5.34181e-31
8.36109e-31
3.60637e-32
1.50732e-30
6.9572e-30
2.30686e-29
9.59844e-29
5.07752e-29
9.91829e-28
9.74887e-26
2.90866e-25
3.33318e-25
5.78995e-25
6.54755e-25
2.1893e-26
3.66142e-26
3.49992e-28
5.98682e-30
3.7699e-29
2.19387e-29
1.1551e-29
1.68781e-29
9.60106e-30
1.55905e-29
1.20377e-29
1.83158e-29
1.18643e-29
1.45344e-29
1.39446e-29
2.32468e-29
1.53319e-29
1.8049e-29
1.72111e-29
2.4641e-29
1.81157e-29
2.30106e-29
1.71652e-29
2.30486e-29
1.99469e-29
2.7163e-29
2.03822e-29
2.63648e-29
1.85023e-29
2.34994e-29
2.15306e-29
3.04038e-29
2.12562e-29
2.5063e-29
1.85407e-29
2.33485e-29
1.97872e-29
2.39744e-29
2.02646e-29
2.10505e-29
9.58601e-30
1.14995e-29
1.03569e-29
1.10379e-29
3.85412e-30
3.1017e-30
9.03063e-31
1.66467e-30
2.80455e-32
1.85199e-30
5.31118e-30
2.03621e-29
7.14521e-29
3.13416e-29
1.3297e-27
1.55173e-25
3.73401e-25
8.13667e-25
6.77036e-25
1.36016e-24
1.92649e-26
6.59374e-26
8.29775e-28
1.16562e-29
5.01074e-29
2.88178e-29
1.33383e-29
1.84715e-29
9.77938e-30
1.65573e-29
1.23445e-29
1.94867e-29
1.20344e-29
1.55004e-29
1.45753e-29
2.48609e-29
1.56412e-29
1.91593e-29
1.79555e-29
2.61811e-29
1.86593e-29
2.42085e-29
1.7766e-29
2.45455e-29
2.08193e-29
2.88477e-29
2.11674e-29
2.78861e-29
1.92179e-29
2.52377e-29
2.2815e-29
3.27268e-29
2.21712e-29
2.69753e-29
1.96194e-29
2.58213e-29
2.13993e-29
2.7869e-29
2.41399e-29
2.65644e-29
1.13443e-29
1.26967e-29
1.24772e-29
1.34778e-29
4.72909e-30
4.57075e-30
1.63057e-30
3.37625e-30
1.28971e-31
2.88555e-30
4.39066e-30
1.88619e-29
5.04996e-29
2.50764e-29
1.67577e-27
2.35498e-25
4.73978e-25
1.63453e-24
7.09105e-25
2.47962e-24
1.41399e-26
1.08019e-25
1.78299e-27
2.07881e-29
6.60171e-29
3.64123e-29
1.54169e-29
2.02567e-29
1.00299e-29
1.75158e-29
1.27233e-29
2.06554e-29
1.22065e-29
1.65834e-29
1.5338e-29
2.65081e-29
1.59333e-29
2.03442e-29
1.88265e-29
2.77735e-29
1.91843e-29
2.5464e-29
1.84313e-29
2.61562e-29
2.18601e-29
3.05646e-29
2.19798e-29
2.948e-29
2.00383e-29
2.71248e-29
2.43163e-29
3.50493e-29
2.30751e-29
2.88763e-29
2.07804e-29
2.84198e-29
2.33137e-29
3.286e-29
2.92506e-29
3.41552e-29
1.35201e-29
1.39395e-29
1.5759e-29
1.68598e-29
6.1539e-30
7.08555e-30
3.12926e-30
6.83423e-30
7.2281e-31
5.74998e-30
5.45245e-30
2.15527e-29
4.2978e-29
5.01801e-29
1.94036e-27
3.42554e-25
6.29093e-25
2.90222e-24
6.7501e-25
4.0655e-24
9.21325e-27
1.626e-25
3.51512e-27
3.46711e-29
8.5937e-29
4.42968e-29
1.77659e-29
2.21988e-29
1.03791e-29
1.84274e-29
1.32007e-29
2.17841e-29
1.24816e-29
1.76837e-29
1.61774e-29
2.81572e-29
1.62627e-29
2.15561e-29
1.97525e-29
2.94099e-29
1.97575e-29
2.67295e-29
1.92058e-29
2.78422e-29
2.29081e-29
3.23737e-29
2.2886e-29
3.10675e-29
2.09828e-29
2.90898e-29
2.58541e-29
3.73974e-29
2.40328e-29
3.07659e-29
2.21091e-29
3.12224e-29
2.54639e-29
3.92306e-29
3.59592e-29
4.269e-29
1.64077e-29
1.52348e-29
2.05209e-29
2.16356e-29
8.5578e-30
1.13201e-29
6.19012e-30
1.35865e-29
3.04048e-30
1.33478e-29
1.18543e-29
3.61316e-29
6.46632e-29
1.79075e-28
2.17686e-27
4.81683e-25
8.59404e-25
4.6281e-24
6.0032e-25
6.19493e-24
6.10734e-27
2.29657e-25
6.55855e-27
5.65097e-29
1.11636e-28
5.18076e-29
2.02419e-29
2.42777e-29
1.0834e-29
1.92298e-29
1.38288e-29
2.27998e-29
1.28382e-29
1.88041e-29
1.71854e-29
2.97257e-29
1.6621e-29
2.27923e-29
2.08259e-29
3.09887e-29
2.03453e-29
2.80098e-29
2.00525e-29
2.96023e-29
2.40964e-29
3.41485e-29
2.37926e-29
3.27139e-29
2.20042e-29
3.11916e-29
2.75522e-29
3.97093e-29
2.5026e-29
3.27608e-29
2.36565e-29
3.43147e-29
2.79835e-29
4.68449e-29
4.24723e-29
5.48534e-29
2.06276e-29
1.64832e-29
2.7512e-29
2.83479e-29
1.25781e-29
1.8328e-29
1.23159e-29
2.64178e-29
9.98929e-30
3.20715e-29
3.33618e-29
8.22048e-29
1.61194e-28
5.88243e-28
2.31083e-27
6.63964e-25
1.25823e-24
6.86557e-24
5.03131e-25
8.84543e-24
7.09308e-27
3.0521e-25
1.15739e-26
9.07089e-29
1.43093e-28
5.8645e-29
2.27657e-29
2.67247e-29
1.12651e-29
2.00765e-29
1.44565e-29
2.38639e-29
1.32336e-29
1.99414e-29
1.82253e-29
3.12839e-29
1.69697e-29
2.40492e-29
2.19136e-29
3.2566e-29
2.09439e-29
2.92879e-29
2.09923e-29
3.13908e-29
2.52194e-29
3.59552e-29
2.47828e-29
3.43565e-29
2.31361e-29
3.33536e-29
2.92889e-29
4.21038e-29
2.6148e-29
3.4929e-29
2.55209e-29
3.77433e-29
3.07696e-29
5.66431e-29
5.05e-29
6.53324e-29
2.73405e-29
1.81596e-29
3.69906e-29
3.81012e-29
1.91991e-29
2.97954e-29
2.40165e-29
5.01279e-29
2.76684e-29
7.43708e-29
9.2416e-29
2.0361e-28
4.42472e-28
1.62794e-27
2.43461e-27
9.07234e-25
1.88036e-24
9.50591e-24
4.26419e-25
1.20476e-23
1.37828e-26
3.86353e-25
1.94652e-26
1.47059e-28
1.852e-28
6.3418e-29
2.53217e-29
2.94635e-29
1.16881e-29
2.0912e-29
1.51098e-29
2.4943e-29
1.35821e-29
2.11306e-29
1.93902e-29
3.27444e-29
1.72696e-29
2.53399e-29
2.3114e-29
3.40607e-29
2.14767e-29
3.06128e-29
2.1956e-29
3.31796e-29
2.64739e-29
3.77069e-29
2.57183e-29
3.6121e-29
2.43326e-29
3.56331e-29
3.12975e-29
4.45538e-29
2.737e-29
3.74513e-29
2.77471e-29
4.1635e-29
3.41787e-29
6.93687e-29
5.74576e-29
7.83786e-29
3.74102e-29
2.02811e-29
4.97465e-29
5.2304e-29
2.97249e-29
4.84085e-29
4.54617e-29
9.20923e-29
6.66724e-29
1.62826e-28
2.30268e-28
4.80476e-28
1.10762e-27
3.74596e-27
2.48499e-27
1.22703e-24
2.93976e-24
1.25388e-23
3.84724e-25
1.579e-23
3.36075e-26
4.69408e-25
3.1121e-26
2.42714e-28
2.37867e-28
6.5717e-29
2.78418e-29
3.25865e-29
1.20895e-29
2.17357e-29
1.57411e-29
2.60127e-29
1.3977e-29
2.2317e-29
2.04942e-29
3.41509e-29
1.75673e-29
2.66453e-29
2.42424e-29
3.55227e-29
2.20102e-29
3.19198e-29
2.29903e-29
3.49533e-29
2.76467e-29
3.95038e-29
2.67229e-29
3.79117e-29
2.56941e-29
3.80334e-29
3.33481e-29
4.72374e-29
2.88621e-29
4.03457e-29
3.04503e-29
4.59863e-29
3.791e-29
8.37682e-29
5.67868e-29
8.04596e-29
5.37301e-29
2.2266e-29
6.69591e-29
7.25926e-29
4.63534e-29
7.76313e-29
8.28971e-29
1.61758e-28
1.45128e-28
3.30407e-28
5.13241e-28
1.03399e-27
2.46055e-27
7.61569e-27
2.50067e-27
1.65278e-24
4.55592e-24
1.58118e-23
4.32334e-25
2.00937e-23
7.12476e-26
5.52492e-25
4.73799e-26
4.09894e-28
3.0492e-28
6.46243e-29
3.02925e-29
3.58451e-29
1.25789e-29
2.23383e-29
1.65117e-29
2.68927e-29
1.4415e-29
2.34628e-29
2.17056e-29
3.53379e-29
1.78665e-29
2.79302e-29
2.54538e-29
3.68126e-29
2.25199e-29
3.3241e-29
2.40463e-29
3.6714e-29
2.8932e-29
4.12335e-29
2.77284e-29
3.98596e-29
2.71649e-29
4.06513e-29
3.5672e-29
5.00846e-29
3.05811e-29
4.36919e-29
3.3483e-29
5.04467e-29
4.13057e-29
9.47287e-29
5.27075e-29
1.18137e-28
8.92202e-29
2.29153e-29
9.27126e-29
9.97215e-29
7.20715e-29
1.22306e-28
1.44819e-28
2.73982e-28
2.86387e-28
6.25428e-28
1.0276e-27
2.03062e-27
4.85544e-27
1.3816e-26
2.44452e-27
2.2245e-24
7.13064e-24
1.92182e-23
5.84147e-25
2.49845e-23
1.3839e-25
6.37373e-25
6.92506e-26
7.18841e-28
3.74013e-28
6.10308e-29
3.22191e-29
3.98396e-29
1.28955e-29
2.3013e-29
1.71842e-29
2.78221e-29
1.48494e-29
2.46032e-29
2.27781e-29
3.64879e-29
1.81285e-29
2.9228e-29
2.65312e-29
3.80683e-29
2.30214e-29
3.45679e-29
2.51599e-29
3.84781e-29
3.00688e-29
4.30253e-29
2.888e-29
4.18929e-29
2.88312e-29
4.34443e-29
3.80852e-29
5.33266e-29
3.27459e-29
4.77414e-29
3.74736e-29
5.66966e-29
4.77477e-29
1.17622e-28
9.12932e-29
1.02087e-28
1.34803e-28
2.88842e-29
1.23988e-28
1.37984e-28
1.10249e-28
1.88167e-28