/*--------------------------------*- C++ -*----------------------------------*\
| =========                 |                                                 |
| \\      /  F ield         | OpenFOAM: The Open Source CFD Toolbox           |
|  \\    /   O peration     | Version:  2312                                  |
|   \\  /    A nd           | Website:  www.openfoam.com                      |
|    \\/     M anipulation  |                                                 |
\*---------------------------------------------------------------------------*/
FoamFile
{
    version     2.0;
    format      ascii;
    arch        "LSB;label=32;scalar=64";
    class       volScalarField;
    location    "300";
    object      k;
}
// * * * * * * * * * * * * * * * * * * * * * * * * * * * * * * * * * * * * * //

dimensions      [0 2 -2 0 0 0 0];

internalField   nonuniform List<scalar> 
144000
(
1.55384e-05
1.55351e-05
1.55415e-05
1.55334e-05
1.55964e-05
1.55361e-05
1.56002e-05
1.55928e-05
1.55996e-05
1.55429e-05
1.55393e-05
1.55372e-05
1.55422e-05
1.55379e-05
1.55948e-05
1.55949e-05
1.55393e-05
1.55413e-05
1.55392e-05
1.55947e-05
1.55934e-05
1.55435e-05
1.55397e-05
1.55997e-05
1.55427e-05
1.55368e-05
1.55953e-05
1.55411e-05
1.55363e-05
1.5592e-05
1.55304e-05
1.56006e-05
1.55418e-05
1.56013e-05
1.55945e-05
1.56039e-05
1.55467e-05
1.56032e-05
1.55457e-05
1.55416e-05
1.56004e-05
1.55348e-05
1.55433e-05
1.55386e-05
1.55991e-05
1.5596e-05
1.55401e-05
1.55462e-05
1.55382e-05
1.55416e-05
1.5533e-05
1.55911e-05
1.55361e-05
1.55452e-05
1.55932e-05
1.55979e-05
1.55387e-05
1.55419e-05
1.55356e-05
1.55336e-05
3.11974e-05
3.11924e-05
3.11997e-05
3.11956e-05
3.11589e-05
3.11823e-05
3.11632e-05
3.11435e-05
3.11426e-05
3.11797e-05
3.11937e-05
3.11924e-05
3.11982e-05
3.11972e-05
3.11641e-05
3.11455e-05
3.11764e-05
3.11928e-05
3.11991e-05
3.11644e-05
3.11381e-05
3.11756e-05
3.11948e-05
3.11615e-05
3.1187e-05
3.11964e-05
3.11596e-05
3.11859e-05
3.11951e-05
3.1158e-05
3.1176e-05
3.11547e-05
3.11854e-05
3.11643e-05
3.1145e-05
3.11462e-05
3.11868e-05
3.1163e-05
3.11871e-05
3.11978e-05
3.11663e-05
3.11804e-05
3.11965e-05
3.11965e-05
3.11666e-05
3.11475e-05
3.11755e-05
3.11992e-05
3.11973e-05
3.12019e-05
3.11976e-05
3.11555e-05
3.11749e-05
3.12004e-05
3.11628e-05
3.11469e-05
3.11768e-05
3.1192e-05
3.11946e-05
3.11916e-05
3.73171e-05
3.73112e-05
3.73144e-05
3.7316e-05
3.72705e-05
3.72938e-05
3.72696e-05
3.72488e-05
3.72374e-05
3.72772e-05
3.73041e-05
3.73062e-05
3.73108e-05
3.73137e-05
3.72782e-05
3.72492e-05
3.72801e-05
3.73001e-05
3.73138e-05
3.72797e-05
3.72412e-05
3.72733e-05
3.73046e-05
3.72667e-05
3.72914e-05
3.73122e-05
3.72697e-05
3.72932e-05
3.73114e-05
3.72713e-05
3.72915e-05
3.72573e-05
3.72904e-05
3.72687e-05
3.72486e-05
3.72387e-05
3.72846e-05
3.72625e-05
3.72886e-05
3.73086e-05
3.72739e-05
3.72922e-05
3.73063e-05
3.73118e-05
3.72772e-05
3.7251e-05
3.72776e-05
3.73049e-05
3.73116e-05
3.73163e-05
3.73195e-05
3.72716e-05
3.72846e-05
3.73092e-05
3.72763e-05
3.72483e-05
3.72808e-05
3.72989e-05
3.73107e-05
3.73098e-05
3.95894e-05
3.95844e-05
3.95826e-05
3.95874e-05
3.95526e-05
3.9565e-05
3.9547e-05
3.95314e-05
3.95134e-05
3.95378e-05
3.95667e-05
3.95735e-05
3.95763e-05
3.95822e-05
3.95596e-05
3.95299e-05
3.95475e-05
3.95629e-05
3.95794e-05
3.95606e-05
3.95246e-05
3.95386e-05
3.95677e-05
3.95424e-05
3.95552e-05
3.95788e-05
3.95494e-05
3.95601e-05
3.95794e-05
3.95525e-05
3.95662e-05
3.95362e-05
3.95562e-05
3.9543e-05
3.95291e-05
3.95125e-05
3.95446e-05
3.9533e-05
3.955e-05
3.9572e-05
3.95495e-05
3.95622e-05
3.95709e-05
3.958e-05
3.95563e-05
3.95309e-05
3.95447e-05
3.9565e-05
3.95775e-05
3.95812e-05
3.95903e-05
3.95569e-05
3.95589e-05
3.95726e-05
3.95562e-05
3.95275e-05
3.95479e-05
3.95618e-05
3.95777e-05
3.95789e-05
4.00973e-05
4.00945e-05
4.00892e-05
4.00946e-05
4.00722e-05
4.00767e-05
4.00639e-05
4.00547e-05
4.0036e-05
4.00462e-05
4.00678e-05
4.00781e-05
4.00801e-05
4.00868e-05
4.00759e-05
4.00525e-05
4.00594e-05
4.00674e-05
4.0082e-05
4.00743e-05
4.00509e-05
4.00528e-05
4.00702e-05
4.00574e-05
4.00627e-05
4.00812e-05
4.00661e-05
4.00694e-05
4.00836e-05
4.00694e-05
4.0079e-05
4.00572e-05
4.00656e-05
4.00574e-05
4.00503e-05
4.00335e-05
4.0051e-05
4.00455e-05
4.00549e-05
4.00738e-05
4.00627e-05
4.00714e-05
4.00754e-05
4.0085e-05
4.00723e-05
4.00522e-05
4.00571e-05
4.00673e-05
4.00806e-05
4.00835e-05
4.00943e-05
4.0077e-05
4.00735e-05
4.00779e-05
4.00712e-05
4.005e-05
4.00593e-05
4.00666e-05
4.0081e-05
4.00837e-05
3.97487e-05
3.97477e-05
3.97423e-05
3.9746e-05
3.97329e-05
3.97337e-05
3.97242e-05
3.97191e-05
3.97049e-05
3.97069e-05
3.97172e-05
3.97283e-05
3.97299e-05
3.97361e-05
3.97318e-05
3.97179e-05
3.97191e-05
3.97216e-05
3.97306e-05
3.97288e-05
3.97184e-05
3.97139e-05
3.97223e-05
3.97166e-05
3.97183e-05
3.97299e-05
3.97243e-05
3.9725e-05
3.97337e-05
3.97273e-05
3.97349e-05
3.97212e-05
3.97229e-05
3.97166e-05
3.97135e-05
3.97011e-05
3.97084e-05
3.97048e-05
3.97097e-05
3.97226e-05
3.97185e-05
3.97255e-05
3.97271e-05
3.97348e-05
3.97292e-05
3.97165e-05
3.97176e-05
3.97202e-05
3.97297e-05
3.97321e-05
3.97418e-05
3.97352e-05
3.97324e-05
3.97312e-05
3.97283e-05
3.97153e-05
3.97186e-05
3.97211e-05
3.97302e-05
3.97333e-05
3.89584e-05
3.89584e-05
3.89543e-05
3.89562e-05
3.89488e-05
3.89482e-05
3.89409e-05
3.89382e-05
3.89295e-05
3.89269e-05
3.89304e-05
3.89385e-05
3.89398e-05
3.89447e-05
3.89435e-05
3.89374e-05
3.89364e-05
3.89366e-05
3.89405e-05
3.89405e-05
3.8938e-05
3.89329e-05
3.89359e-05
3.89333e-05
3.89336e-05
3.89394e-05
3.89386e-05
3.89387e-05
3.89437e-05
3.89412e-05
3.89474e-05
3.894e-05
3.89392e-05
3.89334e-05
3.89324e-05
3.89248e-05
3.89266e-05
3.89233e-05
3.89255e-05
3.89328e-05
3.89319e-05
3.89377e-05
3.89383e-05
3.8944e-05
3.89419e-05
3.89356e-05
3.89358e-05
3.89351e-05
3.894e-05
3.89415e-05
3.89485e-05
3.89471e-05
3.89473e-05
3.89443e-05
3.89428e-05
3.89354e-05
3.89363e-05
3.89363e-05
3.89405e-05
3.8943e-05
3.79207e-05
3.7921e-05
3.79181e-05
3.79187e-05
3.79143e-05
3.79136e-05
3.79081e-05
3.79065e-05
3.79019e-05
3.78981e-05
3.78986e-05
3.79027e-05
3.79034e-05
3.79068e-05
3.79067e-05
3.7905e-05
3.79045e-05
3.79034e-05
3.79046e-05
3.79046e-05
3.79049e-05
3.79027e-05
3.79025e-05
3.79008e-05
3.7901e-05
3.79031e-05
3.79037e-05
3.79038e-05
3.79067e-05
3.7906e-05
3.79109e-05
3.79073e-05
3.79066e-05
3.79016e-05
3.79014e-05
3.78973e-05
3.78969e-05
3.78935e-05
3.78943e-05
3.78977e-05
3.78975e-05
3.79022e-05
3.79025e-05
3.79063e-05
3.79058e-05
3.79035e-05
3.79042e-05
3.79025e-05
3.79047e-05
3.79051e-05
3.79092e-05
3.79095e-05
3.7912e-05
3.79091e-05
3.79083e-05
3.79044e-05
3.79046e-05
3.7904e-05
3.79053e-05
3.79068e-05
3.67292e-05
3.67292e-05
3.67272e-05
3.67268e-05
3.67237e-05
3.67232e-05
3.67193e-05
3.67184e-05
3.67159e-05
3.67131e-05
3.67117e-05
3.67138e-05
3.67139e-05
3.67156e-05
3.67158e-05
3.67158e-05
3.67161e-05
3.67154e-05
3.6715e-05
3.67143e-05
3.67158e-05
3.67152e-05
3.67144e-05
3.67127e-05
3.67131e-05
3.67132e-05
3.6714e-05
3.67142e-05
3.67158e-05
3.67158e-05
3.67194e-05
3.67179e-05
3.67179e-05
3.67144e-05
3.67144e-05
3.67122e-05
3.67113e-05
3.6708e-05
3.67083e-05
3.67094e-05
3.6709e-05
3.67124e-05
3.67125e-05
3.67149e-05
3.67149e-05
3.67147e-05
3.6716e-05
3.67144e-05
3.67154e-05
3.67154e-05
3.67171e-05
3.67175e-05
3.67207e-05
3.67186e-05
3.67181e-05
3.67163e-05
3.67167e-05
3.67161e-05
3.67162e-05
3.6717e-05
3.54306e-05
3.54305e-05
3.54286e-05
3.54277e-05
3.54249e-05
3.54247e-05
3.54221e-05
3.54213e-05
3.54199e-05
3.54183e-05
3.54166e-05
3.54176e-05
3.54175e-05
3.5418e-05
3.5418e-05
3.54184e-05
3.5419e-05
3.54186e-05
3.54179e-05
3.54167e-05
3.54184e-05
3.54184e-05
3.54179e-05
3.54166e-05
3.54171e-05
3.54168e-05
3.54167e-05
3.54172e-05
3.54176e-05
3.54177e-05
3.54204e-05
3.54201e-05
3.54205e-05
3.54182e-05
3.54186e-05
3.54174e-05
3.54166e-05
3.54139e-05
3.54137e-05
3.5414e-05
3.54133e-05
3.54155e-05
3.54155e-05
3.54168e-05
3.54168e-05
3.54171e-05
3.54188e-05
3.54179e-05
3.54185e-05
3.54182e-05
3.54188e-05
3.54188e-05
3.54216e-05
3.54203e-05
3.54199e-05
3.54191e-05
3.54198e-05
3.54196e-05
3.54191e-05
3.54196e-05
3.40504e-05
3.405e-05
3.40481e-05
3.4047e-05
3.40445e-05
3.40443e-05
3.40424e-05
3.40417e-05
3.40408e-05
3.40401e-05
3.40387e-05
3.40395e-05
3.40393e-05
3.4039e-05
3.40385e-05
3.40388e-05
3.40397e-05
3.40395e-05
3.40389e-05
3.40377e-05
3.4039e-05
3.40391e-05
3.4039e-05
3.40383e-05
3.40388e-05
3.40383e-05
3.40379e-05
3.40382e-05
3.40382e-05
3.40382e-05
3.40401e-05
3.40401e-05
3.40407e-05
3.40394e-05
3.40398e-05
3.40392e-05
3.40388e-05
3.40367e-05
3.40369e-05
3.40368e-05
3.40357e-05
3.40371e-05
3.4037e-05
3.40375e-05
3.40376e-05
3.40377e-05
3.40394e-05
3.40389e-05
3.40394e-05
3.4039e-05
3.40389e-05
3.40387e-05
3.40409e-05
3.40402e-05
3.40395e-05
3.40397e-05
3.40403e-05
3.40401e-05
3.40402e-05
3.40404e-05
3.26042e-05
3.26038e-05
3.2602e-05
3.26009e-05
3.25985e-05
3.25983e-05
3.25968e-05
3.25962e-05
3.25956e-05
3.25953e-05
3.25946e-05
3.25953e-05
3.2595e-05
3.25943e-05
3.25936e-05
3.25938e-05
3.25946e-05
3.25945e-05
3.25941e-05
3.2593e-05
3.25938e-05
3.25941e-05
3.25941e-05
3.25937e-05
3.25943e-05
3.25939e-05
3.25933e-05
3.25936e-05
3.25935e-05
3.25932e-05
3.25945e-05
3.25945e-05
3.25951e-05
3.25943e-05
3.25948e-05
3.25945e-05
3.25945e-05
3.25934e-05
3.25935e-05
3.25933e-05
3.2592e-05
3.2593e-05
3.25929e-05
3.2593e-05
3.25929e-05
3.25927e-05
3.25941e-05
3.25939e-05
3.25943e-05
3.2594e-05
3.25937e-05
3.25932e-05
3.2595e-05
3.25945e-05
3.2594e-05
3.25942e-05
3.25948e-05
3.25948e-05
3.25948e-05
3.2595e-05
3.1104e-05
3.11037e-05
3.11022e-05
3.11011e-05
3.1099e-05
3.10987e-05
3.10974e-05
3.10968e-05
3.10964e-05
3.10966e-05
3.10964e-05
3.10968e-05
3.10965e-05
3.10959e-05
3.10951e-05
3.10949e-05
3.10957e-05
3.10956e-05
3.10953e-05
3.10945e-05
3.1095e-05
3.10951e-05
3.10951e-05
3.1095e-05
3.10955e-05
3.10953e-05
3.10948e-05
3.10951e-05
3.10949e-05
3.10944e-05
3.10954e-05
3.10953e-05
3.10958e-05
3.10952e-05
3.10957e-05
3.10957e-05
3.10959e-05
3.10952e-05
3.10954e-05
3.10952e-05
3.10942e-05
3.10949e-05
3.10948e-05
3.10946e-05
3.1094e-05
3.10938e-05
3.10951e-05
3.1095e-05
3.10954e-05
3.10951e-05
3.10947e-05
3.10942e-05
3.10955e-05
3.10952e-05
3.10947e-05
3.10949e-05
3.10954e-05
3.10954e-05
3.10955e-05
3.10956e-05
2.95601e-05
2.95598e-05
2.95586e-05
2.95577e-05
2.95558e-05
2.95554e-05
2.95543e-05
2.95536e-05
2.95539e-05
2.95539e-05
2.95538e-05
2.95542e-05
2.9554e-05
2.95535e-05
2.95526e-05
2.95524e-05
2.95531e-05
2.9553e-05
2.95528e-05
2.95521e-05
2.95525e-05
2.95525e-05
2.95526e-05
2.95525e-05
2.9553e-05
2.95528e-05
2.95524e-05
2.95526e-05
2.95524e-05
2.95519e-05
2.95526e-05
2.95525e-05
2.95529e-05
2.95524e-05
2.95529e-05
2.95528e-05
2.95531e-05
2.95528e-05
2.9553e-05
2.95529e-05
2.95522e-05
2.95527e-05
2.95526e-05
2.95522e-05
2.95515e-05
2.95513e-05
2.95524e-05
2.95523e-05
2.95526e-05
2.95525e-05
2.95521e-05
2.95516e-05
2.95526e-05
2.95524e-05
2.9552e-05
2.95519e-05
2.95525e-05
2.95525e-05
2.95526e-05
2.95527e-05
2.79819e-05
2.79817e-05
2.79807e-05
2.79799e-05
2.79783e-05
2.7978e-05
2.79769e-05
2.79765e-05
2.79767e-05
2.79767e-05
2.79767e-05
2.7977e-05
2.79769e-05
2.79766e-05
2.79758e-05
2.79755e-05
2.79761e-05
2.7976e-05
2.79759e-05
2.79753e-05
2.79756e-05
2.79756e-05
2.79757e-05
2.79757e-05
2.7976e-05
2.79759e-05
2.79756e-05
2.79757e-05
2.79756e-05
2.79751e-05
2.79756e-05
2.79755e-05
2.79757e-05
2.79754e-05
2.79756e-05
2.79757e-05
2.7976e-05
2.79757e-05
2.79759e-05
2.79759e-05
2.79755e-05
2.79759e-05
2.79758e-05
2.79755e-05
2.79748e-05
2.79746e-05
2.79754e-05
2.79754e-05
2.79756e-05
2.79755e-05
2.79752e-05
2.79747e-05
2.79755e-05
2.79754e-05
2.79749e-05
2.79751e-05
2.79753e-05
2.79753e-05
2.79754e-05
2.79755e-05
2.63787e-05
2.63785e-05
2.63778e-05
2.63772e-05
2.63758e-05
2.63755e-05
2.63746e-05
2.63743e-05
2.63744e-05
2.63744e-05
2.63745e-05
2.63747e-05
2.63747e-05
2.63745e-05
2.63739e-05
2.63736e-05
2.6374e-05
2.6374e-05
2.63739e-05
2.63734e-05
2.63736e-05
2.63737e-05
2.63737e-05
2.63737e-05
2.6374e-05
2.63739e-05
2.63736e-05
2.63737e-05
2.63736e-05
2.63731e-05
2.63735e-05
2.63734e-05
2.63736e-05
2.63733e-05
2.63735e-05
2.63735e-05
2.63737e-05
2.63736e-05
2.63738e-05
2.63737e-05
2.63735e-05
2.63738e-05
2.63737e-05
2.63735e-05
2.63731e-05
2.63728e-05
2.63734e-05
2.63734e-05
2.63736e-05
2.63735e-05
2.63733e-05
2.63728e-05
2.63735e-05
2.63734e-05
2.63731e-05
2.63729e-05
2.63733e-05
2.63733e-05
2.63733e-05
2.63734e-05
2.47599e-05
2.47598e-05
2.47592e-05
2.47587e-05
2.47576e-05
2.47574e-05
2.47567e-05
2.47563e-05
2.47565e-05
2.47565e-05
2.47565e-05
2.47567e-05
2.47567e-05
2.47566e-05
2.47562e-05
2.47559e-05
2.47562e-05
2.47562e-05
2.47561e-05
2.47557e-05
2.47559e-05
2.47559e-05
2.4756e-05
2.4756e-05
2.47562e-05
2.47561e-05
2.47559e-05
2.4756e-05
2.47559e-05
2.47554e-05
2.47556e-05
2.47556e-05
2.47557e-05
2.47555e-05
2.47556e-05
2.47556e-05
2.47558e-05
2.47557e-05
2.47558e-05
2.47558e-05
2.47557e-05
2.47559e-05
2.47559e-05
2.47558e-05
2.47555e-05
2.47553e-05
2.47557e-05
2.47557e-05
2.47558e-05
2.47558e-05
2.47556e-05
2.47553e-05
2.47557e-05
2.47557e-05
2.47554e-05
2.47555e-05
2.47555e-05
2.47555e-05
2.47555e-05
2.47556e-05
2.31349e-05
2.31348e-05
2.31345e-05
2.31341e-05
2.31332e-05
2.3133e-05
2.31325e-05
2.31322e-05
2.31324e-05
2.31324e-05
2.31323e-05
2.31325e-05
2.31325e-05
2.31324e-05
2.31322e-05
2.31319e-05
2.31322e-05
2.31322e-05
2.31321e-05
2.31318e-05
2.31319e-05
2.3132e-05
2.3132e-05
2.3132e-05
2.31321e-05
2.31321e-05
2.3132e-05
2.31319e-05
2.31318e-05
2.31313e-05
2.31316e-05
2.31316e-05
2.31317e-05
2.31315e-05
2.31316e-05
2.31316e-05
2.31317e-05
2.31317e-05
2.31316e-05
2.31318e-05
2.31317e-05
2.31319e-05
2.31319e-05
2.31318e-05
2.31316e-05
2.31315e-05
2.31318e-05
2.31318e-05
2.31319e-05
2.31319e-05
2.31317e-05
2.31314e-05
2.31318e-05
2.31318e-05
2.31316e-05
2.31315e-05
2.31317e-05
2.31317e-05
2.31317e-05
2.31317e-05
2.15134e-05
2.15134e-05
2.15132e-05
2.15129e-05
2.15123e-05
2.15122e-05
2.15118e-05
2.15116e-05
2.15117e-05
2.15117e-05
2.15117e-05
2.15118e-05
2.15118e-05
2.15118e-05
2.15116e-05
2.15115e-05
2.15117e-05
2.15117e-05
2.15116e-05
2.15114e-05
2.15114e-05
2.15115e-05
2.15115e-05
2.15115e-05
2.15116e-05
2.15116e-05
2.15115e-05
2.15114e-05
2.15112e-05
2.15109e-05
2.1511e-05
2.1511e-05
2.15111e-05
2.1511e-05
2.1511e-05
2.1511e-05
2.15111e-05
2.15111e-05
2.15111e-05
2.15112e-05
2.15111e-05
2.15113e-05
2.15113e-05
2.15113e-05
2.15112e-05
2.15112e-05
2.15114e-05
2.15114e-05
2.15115e-05
2.15114e-05
2.15113e-05
2.15111e-05
2.15114e-05
2.15113e-05
2.15112e-05
2.15112e-05
2.15113e-05
2.15113e-05
2.15113e-05
2.15113e-05
1.99053e-05
1.99053e-05
1.99052e-05
1.99051e-05
1.99047e-05
1.99046e-05
1.99044e-05
1.99043e-05
1.99043e-05
1.99044e-05
1.99044e-05
1.99045e-05
1.99045e-05
1.99045e-05
1.99044e-05
1.99043e-05
1.99044e-05
1.99044e-05
1.99044e-05
1.99042e-05
1.99043e-05
1.99043e-05
1.99043e-05
1.99043e-05
1.99044e-05
1.99044e-05
1.99043e-05
1.99043e-05
1.99041e-05
1.99038e-05
1.99039e-05
1.99039e-05
1.99039e-05
1.99038e-05
1.99038e-05
1.99038e-05
1.99039e-05
1.99039e-05
1.99039e-05
1.99041e-05
1.9904e-05
1.99041e-05
1.99041e-05
1.99041e-05
1.99041e-05
1.99041e-05
1.99043e-05
1.99043e-05
1.99043e-05
1.99043e-05
1.99042e-05
1.99041e-05
1.99042e-05
1.99042e-05
1.99042e-05
1.99041e-05
1.99042e-05
1.99042e-05
1.99042e-05
1.99042e-05
1.83206e-05
1.83207e-05
1.83207e-05
1.83206e-05
1.83204e-05
1.83204e-05
1.83203e-05
1.83203e-05
1.83203e-05
1.83204e-05
1.83205e-05
1.83205e-05
1.83206e-05
1.83206e-05
1.83206e-05
1.83205e-05
1.83206e-05
1.83206e-05
1.83206e-05
1.83205e-05
1.83205e-05
1.83205e-05
1.83206e-05
1.83206e-05
1.83206e-05
1.83206e-05
1.83205e-05
1.83205e-05
1.83204e-05
1.83202e-05
1.83202e-05
1.83202e-05
1.83202e-05
1.83201e-05
1.83201e-05
1.83201e-05
1.83202e-05
1.83202e-05
1.83202e-05
1.83202e-05
1.83202e-05
1.83202e-05
1.83202e-05
1.83203e-05
1.83203e-05
1.83203e-05
1.83205e-05
1.83206e-05
1.83206e-05
1.83205e-05
1.83205e-05
1.83204e-05
1.83205e-05
1.83205e-05
1.83204e-05
1.83204e-05
1.83205e-05
1.83205e-05
1.83205e-05
1.83205e-05
1.67697e-05
1.67698e-05
1.67699e-05
1.67699e-05
1.67699e-05
1.67699e-05
1.67699e-05
1.677e-05
1.67701e-05
1.67703e-05
1.67704e-05
1.67705e-05
1.67706e-05
1.67706e-05
1.67706e-05
1.67705e-05
1.67705e-05
1.67705e-05
1.67705e-05
1.67704e-05
1.67704e-05
1.67705e-05
1.67706e-05
1.67706e-05
1.67705e-05
1.67705e-05
1.67705e-05
1.67704e-05
1.67704e-05
1.67703e-05
1.67703e-05
1.67702e-05
1.67702e-05
1.67701e-05
1.67701e-05
1.67701e-05
1.67702e-05
1.67701e-05
1.67701e-05
1.67702e-05
1.67701e-05
1.67701e-05
1.67702e-05
1.67702e-05
1.67704e-05
1.67704e-05
1.67705e-05
1.67706e-05
1.67707e-05
1.67706e-05
1.67706e-05
1.67705e-05
1.67705e-05
1.67705e-05
1.67705e-05
1.67705e-05
1.67705e-05
1.67706e-05
1.67706e-05
1.67706e-05
1.52636e-05
1.52637e-05
1.52638e-05
1.5264e-05
1.52641e-05
1.52642e-05
1.52643e-05
1.52645e-05
1.52646e-05
1.52649e-05
1.5265e-05
1.52651e-05
1.52654e-05
1.52653e-05
1.52653e-05
1.52652e-05
1.52652e-05
1.52652e-05
1.52652e-05
1.52651e-05
1.52651e-05
1.52651e-05
1.52653e-05
1.52652e-05
1.52652e-05
1.52652e-05
1.52651e-05
1.52651e-05
1.5265e-05
1.5265e-05
1.5265e-05
1.52649e-05
1.52649e-05
1.52649e-05
1.52649e-05
1.52649e-05
1.52649e-05
1.52649e-05
1.52648e-05
1.52649e-05
1.52648e-05
1.52648e-05
1.52648e-05
1.5265e-05
1.52651e-05
1.52651e-05
1.52653e-05
1.52654e-05
1.52655e-05
1.52654e-05
1.52653e-05
1.52653e-05
1.52653e-05
1.52653e-05
1.52652e-05
1.52653e-05
1.52653e-05
1.52653e-05
1.52653e-05
1.52653e-05
1.38144e-05
1.38145e-05
1.38147e-05
1.3815e-05
1.38151e-05
1.38154e-05
1.38155e-05
1.38158e-05
1.3816e-05
1.38163e-05
1.38165e-05
1.38166e-05
1.38169e-05
1.38168e-05
1.38168e-05
1.38167e-05
1.38168e-05
1.38167e-05
1.38167e-05
1.38166e-05
1.38166e-05
1.38167e-05
1.38167e-05
1.38167e-05
1.38167e-05
1.38167e-05
1.38166e-05
1.38166e-05
1.38165e-05
1.38165e-05
1.38165e-05
1.38165e-05
1.38165e-05
1.38164e-05
1.38164e-05
1.38165e-05
1.38164e-05
1.38164e-05
1.38164e-05
1.38164e-05
1.38163e-05
1.38163e-05
1.38163e-05
1.38164e-05
1.38165e-05
1.38164e-05
1.38167e-05
1.3817e-05
1.3817e-05
1.3817e-05
1.38169e-05
1.38168e-05
1.38169e-05
1.38168e-05
1.38168e-05
1.38168e-05
1.38168e-05
1.38168e-05
1.38169e-05
1.38169e-05
1.24363e-05
1.24364e-05
1.24367e-05
1.24371e-05
1.24373e-05
1.24376e-05
1.24378e-05
1.24381e-05
1.24384e-05
1.24387e-05
1.2439e-05
1.24392e-05
1.24395e-05
1.24394e-05
1.24394e-05
1.24394e-05
1.24393e-05
1.24393e-05
1.24392e-05
1.24393e-05
1.24392e-05
1.24393e-05
1.24393e-05
1.24393e-05
1.24393e-05
1.24392e-05
1.24392e-05
1.24392e-05
1.24391e-05
1.24391e-05
1.24391e-05
1.24391e-05
1.24391e-05
1.24391e-05
1.2439e-05
1.24391e-05
1.2439e-05
1.24391e-05
1.2439e-05
1.2439e-05
1.24389e-05
1.24389e-05
1.24389e-05
1.24389e-05
1.2439e-05
1.2439e-05
1.24393e-05
1.24395e-05
1.24395e-05
1.24394e-05
1.24393e-05
1.24393e-05
1.24393e-05
1.24395e-05
1.24394e-05
1.24394e-05
1.24394e-05
1.24395e-05
1.24395e-05
1.24395e-05
1.55995e-05
1.554e-05
1.55444e-05
1.55342e-05
1.55367e-05
1.55337e-05
1.55942e-05
1.55939e-05
1.5549e-05
1.55395e-05
1.56e-05
1.55395e-05
1.56005e-05
1.55972e-05
1.55471e-05
1.55418e-05
1.55988e-05
1.55444e-05
1.55405e-05
1.55977e-05
1.55923e-05
1.56045e-05
1.55442e-05
1.55433e-05
1.55393e-05
1.55326e-05
1.55379e-05
1.55318e-05
1.55976e-05
1.55324e-05
1.55956e-05
1.55402e-05
1.55393e-05
1.55947e-05
1.55994e-05
1.55442e-05
1.55497e-05
1.55341e-05
1.56004e-05
1.5532e-05
1.56054e-05
1.5536e-05
1.56036e-05
1.55346e-05
1.55373e-05
1.55356e-05
1.55334e-05
1.55337e-05
1.55379e-05
1.554e-05
1.559e-05
1.55983e-05
1.55383e-05
1.56023e-05
1.55408e-05
1.55448e-05
1.5597e-05
1.56036e-05
1.55441e-05
1.55994e-05
3.1152e-05
3.11785e-05
3.12008e-05
3.11971e-05
3.11946e-05
3.11938e-05
3.11628e-05
3.11363e-05
3.11807e-05
3.11972e-05
3.11629e-05
3.11866e-05
3.11654e-05
3.11445e-05
3.11821e-05
3.11992e-05
3.11619e-05
3.11883e-05
3.12007e-05
3.11681e-05
3.11413e-05
3.11442e-05
3.11819e-05
3.11966e-05
3.12001e-05
3.11941e-05
3.11957e-05
3.11922e-05
3.11606e-05
3.11797e-05
3.11528e-05
3.11787e-05
3.11962e-05
3.11606e-05
3.11437e-05
3.11756e-05
3.12057e-05
3.11972e-05
3.11639e-05
3.11798e-05
3.11614e-05
3.11816e-05
3.11629e-05
3.11808e-05
3.11904e-05
3.11918e-05
3.11909e-05
3.1191e-05
3.11929e-05
3.12015e-05
3.11608e-05
3.11425e-05
3.1178e-05
3.11597e-05
3.11805e-05
3.12006e-05
3.11647e-05
3.11509e-05
3.1187e-05
3.11611e-05
3.72547e-05
3.72823e-05
3.73089e-05
3.73168e-05
3.73136e-05
3.73135e-05
3.72798e-05
3.72381e-05
3.72745e-05
3.73077e-05
3.72691e-05
3.72953e-05
3.72726e-05
3.72449e-05
3.72783e-05
3.73099e-05
3.72689e-05
3.72928e-05
3.73144e-05
3.72817e-05
3.72488e-05
3.7236e-05
3.72786e-05
3.7303e-05
3.73147e-05
3.7315e-05
3.73138e-05
3.73126e-05
3.72709e-05
3.72939e-05
3.72597e-05
3.72828e-05
3.73085e-05
3.7273e-05
3.72426e-05
3.72716e-05
3.73088e-05
3.73151e-05
3.72733e-05
3.7294e-05
3.72628e-05
3.72902e-05
3.72643e-05
3.72907e-05
3.73031e-05
3.7308e-05
3.73087e-05
3.73097e-05
3.73082e-05
3.7317e-05
3.72796e-05
3.7243e-05
3.72818e-05
3.72598e-05
3.72832e-05
3.73095e-05
3.72758e-05
3.72483e-05
3.72891e-05
3.72638e-05
3.95336e-05
3.95496e-05
3.95697e-05
3.95857e-05
3.95847e-05
3.95853e-05
3.95643e-05
3.95226e-05
3.9537e-05
3.95695e-05
3.95447e-05
3.95621e-05
3.95488e-05
3.95238e-05
3.95398e-05
3.95723e-05
3.95455e-05
3.95572e-05
3.95788e-05
3.95604e-05
3.95349e-05
3.95111e-05
3.95388e-05
3.9563e-05
3.95782e-05
3.95859e-05
3.95846e-05
3.95855e-05
3.95521e-05
3.95667e-05
3.95406e-05
3.95506e-05
3.95735e-05
3.95534e-05
3.95223e-05
3.95356e-05
3.95633e-05
3.95825e-05
3.95515e-05
3.9566e-05
3.95389e-05
3.95583e-05
3.9538e-05
3.95581e-05
3.95699e-05
3.9577e-05
3.95789e-05
3.95816e-05
3.95783e-05
3.95842e-05
3.9564e-05
3.95246e-05
3.95488e-05
3.95333e-05
3.95475e-05
3.95715e-05
3.95538e-05
3.95244e-05
3.9552e-05
3.95367e-05
4.0055e-05
4.00617e-05
4.00716e-05
4.00884e-05
4.00908e-05
4.00926e-05
4.00818e-05
4.0052e-05
4.00508e-05
4.00702e-05
4.00587e-05
4.00693e-05
4.00628e-05
4.00461e-05
4.00502e-05
4.00723e-05
4.006e-05
4.00648e-05
4.00802e-05
4.0073e-05
4.00599e-05
4.00344e-05
4.0047e-05
4.00643e-05
4.00779e-05
4.00904e-05
4.00906e-05
4.00937e-05
4.00712e-05
4.00786e-05
4.00616e-05
4.00634e-05
4.0077e-05
4.00689e-05
4.00465e-05
4.00491e-05
4.00606e-05
4.00842e-05
4.00663e-05
4.00764e-05
4.00566e-05
4.00681e-05
4.00533e-05
4.00659e-05
4.0075e-05
4.00828e-05
4.00853e-05
4.00896e-05
4.00867e-05
4.00889e-05
4.00801e-05
4.00507e-05
4.00606e-05
4.00497e-05
4.00563e-05
4.00726e-05
4.00664e-05
4.00452e-05
4.00591e-05
4.0052e-05
3.97186e-05
3.97205e-05
3.97238e-05
3.97351e-05
3.974e-05
3.97432e-05
3.97385e-05
3.97231e-05
3.97125e-05
3.97221e-05
3.97168e-05
3.97232e-05
3.972e-05
3.97116e-05
3.97095e-05
3.97215e-05
3.97176e-05
3.97196e-05
3.97287e-05
3.97267e-05
3.97225e-05
3.97048e-05
3.97075e-05
3.97154e-05
3.97248e-05
3.97378e-05
3.97396e-05
3.97448e-05
3.97315e-05
3.97349e-05
3.97252e-05
3.97225e-05
3.97287e-05
3.97261e-05
3.9714e-05
3.97111e-05
3.97132e-05
3.97302e-05
3.97225e-05
3.97307e-05
3.97178e-05
3.97244e-05
3.97139e-05
3.9721e-05
3.97265e-05
3.97335e-05
3.97362e-05
3.97411e-05
3.97398e-05
3.97393e-05
3.97362e-05
3.97186e-05
3.97203e-05
3.97117e-05
3.97142e-05
3.9722e-05
3.97214e-05
3.97096e-05
3.9715e-05
3.97112e-05
3.89377e-05
3.89378e-05
3.89378e-05
3.89431e-05
3.89478e-05
3.89518e-05
3.89502e-05
3.89448e-05
3.89334e-05
3.89363e-05
3.8933e-05
3.89368e-05
3.89345e-05
3.89317e-05
3.89279e-05
3.89332e-05
3.89326e-05
3.89335e-05
3.89382e-05
3.89378e-05
3.89385e-05
3.89297e-05
3.89274e-05
3.89296e-05
3.89342e-05
3.89443e-05
3.89469e-05
3.89531e-05
3.89465e-05
3.89483e-05
3.89433e-05
3.89396e-05
3.89413e-05
3.89405e-05
3.89349e-05
3.89319e-05
3.89282e-05
3.89385e-05
3.89358e-05
3.89427e-05
3.89351e-05
3.89393e-05
3.8932e-05
3.89357e-05
3.89382e-05
3.89433e-05
3.8946e-05
3.89504e-05
3.89505e-05
3.89494e-05
3.89483e-05
3.89396e-05
3.89383e-05
3.89308e-05
3.89318e-05
3.89335e-05
3.89347e-05
3.8929e-05
3.89306e-05
3.8928e-05
3.79067e-05
3.79065e-05
3.79045e-05
3.79065e-05
3.79091e-05
3.79129e-05
3.79124e-05
3.79114e-05
3.79051e-05
3.7904e-05
3.79005e-05
3.79028e-05
3.79006e-05
3.79004e-05
3.78982e-05
3.78992e-05
3.78992e-05
3.78996e-05
3.79018e-05
3.79017e-05
3.79042e-05
3.79006e-05
3.78976e-05
3.78975e-05
3.78993e-05
3.7905e-05
3.79074e-05
3.79133e-05
3.79108e-05
3.79125e-05
3.79101e-05
3.79076e-05
3.79066e-05
3.79061e-05
3.79037e-05
3.79022e-05
3.78972e-05
3.79026e-05
3.79013e-05
3.79066e-05
3.79026e-05
3.79056e-05
3.79008e-05
3.79028e-05
3.79036e-05
3.79063e-05
3.79088e-05
3.79115e-05
3.79134e-05
3.7912e-05
3.79117e-05
3.79081e-05
3.79066e-05
3.79005e-05
3.7901e-05
3.78999e-05
3.79007e-05
3.78979e-05
3.78982e-05
3.78961e-05
3.67196e-05
3.67192e-05
3.67166e-05
3.67168e-05
3.67176e-05
3.67201e-05
3.67198e-05
3.67212e-05
3.67184e-05
3.67165e-05
3.67127e-05
3.67142e-05
3.67122e-05
3.67131e-05
3.67123e-05
3.67107e-05
3.6711e-05
3.67109e-05
3.67118e-05
3.67115e-05
3.6714e-05
3.67131e-05
3.67112e-05
3.67103e-05
3.6711e-05
3.67135e-05
3.67151e-05
3.67195e-05
3.67191e-05
3.6721e-05
3.67199e-05
3.67191e-05
3.67172e-05
3.67169e-05
3.67156e-05
3.67156e-05
3.67117e-05
3.67138e-05
3.67126e-05
3.67163e-05
3.67141e-05
3.67165e-05
3.67135e-05
3.67147e-05
3.67148e-05
3.67159e-05
3.67178e-05
3.6719e-05
3.67215e-05
3.67205e-05
3.67203e-05
3.6719e-05
3.67183e-05
3.67141e-05
3.67146e-05
3.67127e-05
3.67122e-05
3.67104e-05
3.67105e-05
3.6709e-05
3.54237e-05
3.54233e-05
3.54209e-05
3.54197e-05
3.54194e-05
3.54209e-05
3.54206e-05
3.54224e-05
3.54215e-05
3.54199e-05
3.54168e-05
3.54177e-05
3.54162e-05
3.5417e-05
3.54166e-05
3.54152e-05
3.54146e-05
3.54143e-05
3.54146e-05
3.5414e-05
3.5416e-05
3.54159e-05
3.54154e-05
3.54146e-05
3.54149e-05
3.54157e-05
3.54166e-05
3.54194e-05
3.54194e-05
3.54215e-05
3.54211e-05
3.54216e-05
3.54205e-05
3.54196e-05
3.5419e-05
3.54197e-05
3.54169e-05
3.54176e-05
3.54164e-05
3.54187e-05
3.54174e-05
3.54193e-05
3.54175e-05
3.54183e-05
3.54183e-05
3.54186e-05
3.54198e-05
3.54202e-05
3.54222e-05
3.54217e-05
3.54212e-05
3.54209e-05
3.54212e-05
3.54187e-05
3.54191e-05
3.54173e-05
3.54162e-05
3.54145e-05
3.54147e-05
3.54135e-05
3.40452e-05
3.40448e-05
3.40426e-05
3.40409e-05
3.404e-05
3.40406e-05
3.40402e-05
3.40417e-05
3.40414e-05
3.40405e-05
3.40384e-05
3.4039e-05
3.40379e-05
3.40383e-05
3.40383e-05
3.40372e-05
3.40363e-05
3.40358e-05
3.40355e-05
3.40346e-05
3.40362e-05
3.40362e-05
3.40364e-05
3.40364e-05
3.40366e-05
3.40366e-05
3.40371e-05
3.40384e-05
3.40385e-05
3.40405e-05
3.40405e-05
3.40415e-05
3.40409e-05
3.40399e-05
3.40401e-05
3.40407e-05
3.4039e-05
3.40391e-05
3.4038e-05
3.40394e-05
3.40386e-05
3.404e-05
3.40389e-05
3.40395e-05
3.40395e-05
3.40396e-05
3.40403e-05
3.40404e-05
3.40417e-05
3.40414e-05
3.40407e-05
3.40412e-05
3.40415e-05
3.404e-05
3.40406e-05
3.40394e-05
3.40379e-05
3.40364e-05
3.40366e-05
3.40357e-05
3.26005e-05
3.26001e-05
3.25982e-05
3.25966e-05
3.25951e-05
3.2595e-05
3.25944e-05
3.25956e-05
3.25955e-05
3.25951e-05
3.25938e-05
3.25942e-05
3.25934e-05
3.25933e-05
3.25937e-05
3.2593e-05
3.25921e-05
3.25913e-05
3.25908e-05
3.25898e-05
3.25909e-05
3.2591e-05
3.25916e-05
3.25916e-05
3.25918e-05
3.25919e-05
3.25921e-05
3.25927e-05
3.25927e-05
3.25943e-05
3.25942e-05
3.25954e-05
3.25951e-05
3.25946e-05
3.25948e-05
3.25954e-05
3.25944e-05
3.25942e-05
3.25932e-05
3.25943e-05
3.25938e-05
3.25949e-05
3.25942e-05
3.25947e-05
3.25947e-05
3.25947e-05
3.25952e-05
3.25952e-05
3.2596e-05
3.25958e-05
3.25951e-05
3.25954e-05
3.2596e-05
3.2595e-05
3.25957e-05
3.2595e-05
3.25936e-05
3.25924e-05
3.25924e-05
3.25917e-05
3.11013e-05
3.1101e-05
3.10996e-05
3.10982e-05
3.10965e-05
3.10961e-05
3.10952e-05
3.1096e-05
3.1096e-05
3.10958e-05
3.10949e-05
3.10953e-05
3.10947e-05
3.10945e-05
3.1095e-05
3.10945e-05
3.10937e-05
3.10929e-05
3.10924e-05
3.10913e-05
3.10921e-05
3.10922e-05
3.10927e-05
3.10927e-05
3.1093e-05
3.10931e-05
3.10932e-05
3.10936e-05
3.10935e-05
3.10947e-05
3.10947e-05
3.10957e-05
3.10955e-05
3.10952e-05
3.10954e-05
3.1096e-05
3.10954e-05
3.10951e-05
3.10943e-05
3.10952e-05
3.1095e-05
3.10958e-05
3.10955e-05
3.10958e-05
3.10958e-05
3.10958e-05
3.10961e-05
3.10962e-05
3.10967e-05
3.10965e-05
3.10959e-05
3.10961e-05
3.10966e-05
3.1096e-05
3.10966e-05
3.10962e-05
3.10951e-05
3.10942e-05
3.10939e-05
3.10932e-05
2.95581e-05
2.95579e-05
2.95569e-05
2.95557e-05
2.95541e-05
2.95536e-05
2.95525e-05
2.9553e-05
2.9553e-05
2.95528e-05
2.95521e-05
2.95525e-05
2.95521e-05
2.95518e-05
2.95524e-05
2.9552e-05
2.95514e-05
2.95507e-05
2.95502e-05
2.95491e-05
2.95498e-05
2.95498e-05
2.95501e-05
2.95502e-05
2.95505e-05
2.95505e-05
2.95506e-05
2.95509e-05
2.95509e-05
2.95517e-05
2.95517e-05
2.95525e-05
2.95523e-05
2.95521e-05
2.95523e-05
2.95528e-05
2.95525e-05
2.95522e-05
2.95516e-05
2.95523e-05
2.95522e-05
2.9553e-05
2.95528e-05
2.95531e-05
2.95531e-05
2.95531e-05
2.95533e-05
2.95533e-05
2.95537e-05
2.95535e-05
2.9553e-05
2.95532e-05
2.95536e-05
2.95532e-05
2.95537e-05
2.95534e-05
2.95527e-05
2.95517e-05
2.95515e-05
2.95509e-05
2.79805e-05
2.79803e-05
2.79796e-05
2.79786e-05
2.79772e-05
2.79767e-05
2.79757e-05
2.79759e-05
2.79759e-05
2.79758e-05
2.79751e-05
2.79754e-05
2.79752e-05
2.79749e-05
2.79753e-05
2.79751e-05
2.79746e-05
2.7974e-05
2.79735e-05
2.79726e-05
2.79731e-05
2.79731e-05
2.79733e-05
2.79733e-05
2.79735e-05
2.79736e-05
2.79736e-05
2.7974e-05
2.7974e-05
2.79746e-05
2.79746e-05
2.79751e-05
2.7975e-05
2.79748e-05
2.7975e-05
2.79755e-05
2.79753e-05
2.79749e-05
2.79744e-05
2.79751e-05
2.79751e-05
2.79757e-05
2.79756e-05
2.79759e-05
2.79759e-05
2.79759e-05
2.79761e-05
2.79761e-05
2.79764e-05
2.79763e-05
2.79758e-05
2.7976e-05
2.79764e-05
2.79761e-05
2.79765e-05
2.79763e-05
2.79758e-05
2.7975e-05
2.79747e-05
2.79742e-05
2.63777e-05
2.63776e-05
2.6377e-05
2.63762e-05
2.63751e-05
2.63747e-05
2.63738e-05
2.63737e-05
2.63739e-05
2.63737e-05
2.63731e-05
2.63734e-05
2.63732e-05
2.63729e-05
2.63733e-05
2.63731e-05
2.63727e-05
2.63722e-05
2.63718e-05
2.6371e-05
2.63714e-05
2.63714e-05
2.63714e-05
2.63715e-05
2.63716e-05
2.63716e-05
2.63717e-05
2.6372e-05
2.6372e-05
2.63725e-05
2.63725e-05
2.63729e-05
2.63728e-05
2.63727e-05
2.63728e-05
2.63731e-05
2.6373e-05
2.63727e-05
2.63723e-05
2.63729e-05
2.63729e-05
2.63734e-05
2.63734e-05
2.63736e-05