/*--------------------------------*- C++ -*----------------------------------*\
| =========                 |                                                 |
| \\      /  F ield         | OpenFOAM: The Open Source CFD Toolbox           |
|  \\    /   O peration     | Version:  2312                                  |
|   \\  /    A nd           | Website:  www.openfoam.com                      |
|    \\/     M anipulation  |                                                 |
\*---------------------------------------------------------------------------*/
FoamFile
{
    version     2.0;
    format      ascii;
    arch        "LSB;label=32;scalar=64";
    class       volScalarField;
    location    "300";
    object      k_0;
}
// * * * * * * * * * * * * * * * * * * * * * * * * * * * * * * * * * * * * * //

dimensions      [0 2 -2 0 0 0 0];

internalField   nonuniform List<scalar> 
144000
(
1.5547e-05
1.55437e-05
1.555e-05
1.5542e-05
1.56049e-05
1.55447e-05
1.56088e-05
1.56014e-05
1.56082e-05
1.55515e-05
1.55478e-05
1.55457e-05
1.55507e-05
1.55465e-05
1.56034e-05
1.56035e-05
1.55478e-05
1.55498e-05
1.55478e-05
1.56033e-05
1.56019e-05
1.55521e-05
1.55482e-05
1.56083e-05
1.55512e-05
1.55454e-05
1.56039e-05
1.55497e-05
1.55449e-05
1.56006e-05
1.5539e-05
1.56092e-05
1.55503e-05
1.56098e-05
1.56031e-05
1.56124e-05
1.55552e-05
1.56118e-05
1.55543e-05
1.55501e-05
1.56089e-05
1.55433e-05
1.55519e-05
1.55471e-05
1.56077e-05
1.56046e-05
1.55486e-05
1.55548e-05
1.55467e-05
1.55501e-05
1.55415e-05
1.55996e-05
1.55446e-05
1.55538e-05
1.56018e-05
1.56064e-05
1.55472e-05
1.55504e-05
1.55442e-05
1.55421e-05
3.12133e-05
3.12083e-05
3.12156e-05
3.12115e-05
3.11748e-05
3.11982e-05
3.11791e-05
3.11594e-05
3.11585e-05
3.11956e-05
3.12096e-05
3.12083e-05
3.12141e-05
3.12131e-05
3.118e-05
3.11614e-05
3.11923e-05
3.12087e-05
3.1215e-05
3.11803e-05
3.1154e-05
3.11915e-05
3.12108e-05
3.11774e-05
3.12029e-05
3.12123e-05
3.11754e-05
3.12019e-05
3.1211e-05
3.11739e-05
3.11919e-05
3.11706e-05
3.12013e-05
3.11802e-05
3.11609e-05
3.11621e-05
3.12028e-05
3.11789e-05
3.1203e-05
3.12137e-05
3.11822e-05
3.11963e-05
3.12124e-05
3.12124e-05
3.11825e-05
3.11634e-05
3.11914e-05
3.12152e-05
3.12132e-05
3.12178e-05
3.12135e-05
3.11714e-05
3.11909e-05
3.12163e-05
3.11787e-05
3.11628e-05
3.11927e-05
3.12079e-05
3.12105e-05
3.12075e-05
3.73352e-05
3.73293e-05
3.73325e-05
3.73341e-05
3.72885e-05
3.73119e-05
3.72877e-05
3.72668e-05
3.72555e-05
3.72953e-05
3.73222e-05
3.73243e-05
3.73289e-05
3.73318e-05
3.72963e-05
3.72673e-05
3.72982e-05
3.73182e-05
3.73319e-05
3.72978e-05
3.72593e-05
3.72914e-05
3.73227e-05
3.72848e-05
3.73095e-05
3.73303e-05
3.72878e-05
3.73112e-05
3.73295e-05
3.72893e-05
3.73095e-05
3.72754e-05
3.73085e-05
3.72868e-05
3.72666e-05
3.72568e-05
3.73027e-05
3.72806e-05
3.73067e-05
3.73267e-05
3.72919e-05
3.73103e-05
3.73244e-05
3.73299e-05
3.72953e-05
3.72691e-05
3.72957e-05
3.7323e-05
3.73297e-05
3.73344e-05
3.73376e-05
3.72897e-05
3.73027e-05
3.73273e-05
3.72944e-05
3.72663e-05
3.72989e-05
3.7317e-05
3.73288e-05
3.73279e-05
3.96079e-05
3.96029e-05
3.96011e-05
3.9606e-05
3.95711e-05
3.95835e-05
3.95655e-05
3.95499e-05
3.95319e-05
3.95563e-05
3.95852e-05
3.9592e-05
3.95948e-05
3.96008e-05
3.95781e-05
3.95484e-05
3.9566e-05
3.95814e-05
3.95979e-05
3.95791e-05
3.95431e-05
3.95571e-05
3.95862e-05
3.95609e-05
3.95737e-05
3.95973e-05
3.95679e-05
3.95786e-05
3.95979e-05
3.9571e-05
3.95847e-05
3.95547e-05
3.95747e-05
3.95615e-05
3.95475e-05
3.9531e-05
3.95631e-05
3.95515e-05
3.95685e-05
3.95905e-05
3.9568e-05
3.95807e-05
3.95895e-05
3.95985e-05
3.95748e-05
3.95494e-05
3.95632e-05
3.95835e-05
3.9596e-05
3.95997e-05
3.96088e-05
3.95754e-05
3.95774e-05
3.95911e-05
3.95747e-05
3.95459e-05
3.95664e-05
3.95803e-05
3.95962e-05
3.95975e-05
4.01155e-05
4.01127e-05
4.01074e-05
4.01128e-05
4.00904e-05
4.00949e-05
4.00821e-05
4.00729e-05
4.00542e-05
4.00644e-05
4.0086e-05
4.00963e-05
4.00982e-05
4.0105e-05
4.00941e-05
4.00707e-05
4.00776e-05
4.00856e-05
4.01001e-05
4.00925e-05
4.00691e-05
4.0071e-05
4.00884e-05
4.00756e-05
4.00809e-05
4.00994e-05
4.00842e-05
4.00876e-05
4.01017e-05
4.00876e-05
4.00972e-05
4.00754e-05
4.00838e-05
4.00756e-05
4.00685e-05
4.00517e-05
4.00692e-05
4.00637e-05
4.0073e-05
4.0092e-05
4.00809e-05
4.00896e-05
4.00936e-05
4.01032e-05
4.00905e-05
4.00704e-05
4.00753e-05
4.00855e-05
4.00988e-05
4.01017e-05
4.01125e-05
4.00952e-05
4.00916e-05
4.00961e-05
4.00894e-05
4.00682e-05
4.00775e-05
4.00848e-05
4.00992e-05
4.01019e-05
3.97662e-05
3.97652e-05
3.97599e-05
3.97636e-05
3.97505e-05
3.97512e-05
3.97418e-05
3.97366e-05
3.97224e-05
3.97244e-05
3.97347e-05
3.97458e-05
3.97474e-05
3.97536e-05
3.97493e-05
3.97354e-05
3.97366e-05
3.97392e-05
3.97481e-05
3.97463e-05
3.97359e-05
3.97314e-05
3.97398e-05
3.97341e-05
3.97358e-05
3.97474e-05
3.97418e-05
3.97426e-05
3.97512e-05
3.97449e-05
3.97525e-05
3.97387e-05
3.97405e-05
3.97341e-05
3.9731e-05
3.97186e-05
3.97259e-05
3.97223e-05
3.97272e-05
3.97401e-05
3.9736e-05
3.9743e-05
3.97446e-05
3.97523e-05
3.97467e-05
3.9734e-05
3.97351e-05
3.97378e-05
3.97472e-05
3.97496e-05
3.97593e-05
3.97528e-05
3.97499e-05
3.97487e-05
3.97459e-05
3.97329e-05
3.97361e-05
3.97386e-05
3.97477e-05
3.97508e-05
3.89751e-05
3.89751e-05
3.8971e-05
3.89729e-05
3.89655e-05
3.89649e-05
3.89576e-05
3.89549e-05
3.89462e-05
3.89436e-05
3.89471e-05
3.89552e-05
3.89564e-05
3.89614e-05
3.89602e-05
3.89541e-05
3.89531e-05
3.89533e-05
3.89572e-05
3.89571e-05
3.89547e-05
3.89496e-05
3.89526e-05
3.895e-05
3.89503e-05
3.89561e-05
3.89553e-05
3.89554e-05
3.89604e-05
3.89579e-05
3.89641e-05
3.89567e-05
3.89559e-05
3.89501e-05
3.89491e-05
3.89415e-05
3.89433e-05
3.894e-05
3.89422e-05
3.89495e-05
3.89486e-05
3.89544e-05
3.8955e-05
3.89607e-05
3.89586e-05
3.89523e-05
3.89525e-05
3.89518e-05
3.89567e-05
3.89581e-05
3.89652e-05
3.89638e-05
3.8964e-05
3.8961e-05
3.89595e-05
3.89521e-05
3.8953e-05
3.8953e-05
3.89572e-05
3.89597e-05
3.79365e-05
3.79368e-05
3.79339e-05
3.79344e-05
3.793e-05
3.79294e-05
3.79238e-05
3.79223e-05
3.79176e-05
3.79139e-05
3.79143e-05
3.79184e-05
3.79191e-05
3.79225e-05
3.79225e-05
3.79208e-05
3.79202e-05
3.79191e-05
3.79204e-05
3.79204e-05
3.79207e-05
3.79185e-05
3.79182e-05
3.79166e-05
3.79167e-05
3.79188e-05
3.79195e-05
3.79195e-05
3.79225e-05
3.79218e-05
3.79266e-05
3.79231e-05
3.79223e-05
3.79174e-05
3.79172e-05
3.7913e-05
3.79126e-05
3.79092e-05
3.79101e-05
3.79134e-05
3.79132e-05
3.79179e-05
3.79182e-05
3.7922e-05
3.79215e-05
3.79192e-05
3.792e-05
3.79182e-05
3.79204e-05
3.79208e-05
3.79249e-05
3.79253e-05
3.79277e-05
3.79248e-05
3.7924e-05
3.79201e-05
3.79203e-05
3.79197e-05
3.79211e-05
3.79225e-05
3.67439e-05
3.67439e-05
3.67419e-05
3.67415e-05
3.67384e-05
3.67379e-05
3.6734e-05
3.6733e-05
3.67306e-05
3.67278e-05
3.67264e-05
3.67285e-05
3.67286e-05
3.67304e-05
3.67305e-05
3.67305e-05
3.67308e-05
3.67301e-05
3.67297e-05
3.6729e-05
3.67305e-05
3.67299e-05
3.6729e-05
3.67274e-05
3.67278e-05
3.67279e-05
3.67287e-05
3.67289e-05
3.67305e-05
3.67304e-05
3.67341e-05
3.67326e-05
3.67326e-05
3.67291e-05
3.6729e-05
3.67268e-05
3.6726e-05
3.67227e-05
3.6723e-05
3.67241e-05
3.67237e-05
3.67271e-05
3.67272e-05
3.67296e-05
3.67296e-05
3.67294e-05
3.67307e-05
3.67291e-05
3.67301e-05
3.67301e-05
3.67318e-05
3.67322e-05
3.67354e-05
3.67333e-05
3.67328e-05
3.6731e-05
3.67314e-05
3.67308e-05
3.67309e-05
3.67316e-05
3.54442e-05
3.5444e-05
3.54421e-05
3.54413e-05
3.54385e-05
3.54383e-05
3.54356e-05
3.54349e-05
3.54334e-05
3.54319e-05
3.54301e-05
3.54312e-05
3.54311e-05
3.54316e-05
3.54316e-05
3.54319e-05
3.54326e-05
3.54322e-05
3.54315e-05
3.54303e-05
3.5432e-05
3.54319e-05
3.54315e-05
3.54302e-05
3.54306e-05
3.54304e-05
3.54303e-05
3.54307e-05
3.54312e-05
3.54313e-05
3.5434e-05
3.54336e-05
3.54341e-05
3.54318e-05
3.54321e-05
3.5431e-05
3.54302e-05
3.54274e-05
3.54273e-05
3.54276e-05
3.54269e-05
3.54291e-05
3.54291e-05
3.54304e-05
3.54304e-05
3.54307e-05
3.54324e-05
3.54314e-05
3.5432e-05
3.54317e-05
3.54324e-05
3.54324e-05
3.54352e-05
3.54339e-05
3.54334e-05
3.54327e-05
3.54334e-05
3.54331e-05
3.54327e-05
3.54332e-05
3.40628e-05
3.40624e-05
3.40605e-05
3.40594e-05
3.40569e-05
3.40567e-05
3.40548e-05
3.40541e-05
3.40532e-05
3.40525e-05
3.40511e-05
3.40519e-05
3.40517e-05
3.40514e-05
3.40509e-05
3.40512e-05
3.40521e-05
3.40519e-05
3.40513e-05
3.40501e-05
3.40513e-05
3.40515e-05
3.40514e-05
3.40507e-05
3.40512e-05
3.40507e-05
3.40503e-05
3.40506e-05
3.40506e-05
3.40507e-05
3.40525e-05
3.40525e-05
3.40531e-05
3.40518e-05
3.40522e-05
3.40516e-05
3.40512e-05
3.40491e-05
3.40493e-05
3.40492e-05
3.40481e-05
3.40495e-05
3.40495e-05
3.40499e-05
3.40499e-05
3.40501e-05
3.40518e-05
3.40513e-05
3.40518e-05
3.40514e-05
3.40513e-05
3.40511e-05
3.40533e-05
3.40526e-05
3.40519e-05
3.40521e-05
3.40527e-05
3.40525e-05
3.40526e-05
3.40528e-05
3.26154e-05
3.2615e-05
3.26132e-05
3.26121e-05
3.26097e-05
3.26095e-05
3.26079e-05
3.26074e-05
3.26067e-05
3.26065e-05
3.26058e-05
3.26064e-05
3.26061e-05
3.26055e-05
3.26048e-05
3.2605e-05
3.26058e-05
3.26057e-05
3.26053e-05
3.26042e-05
3.2605e-05
3.26052e-05
3.26052e-05
3.26049e-05
3.26054e-05
3.26051e-05
3.26045e-05
3.26048e-05
3.26047e-05
3.26044e-05
3.26057e-05
3.26057e-05
3.26063e-05
3.26054e-05
3.2606e-05
3.26057e-05
3.26057e-05
3.26046e-05
3.26047e-05
3.26044e-05
3.26032e-05
3.26042e-05
3.26041e-05
3.26042e-05
3.26041e-05
3.26039e-05
3.26053e-05
3.26051e-05
3.26055e-05
3.26052e-05
3.26049e-05
3.26044e-05
3.26061e-05
3.26057e-05
3.26051e-05
3.26054e-05
3.26059e-05
3.26059e-05
3.26059e-05
3.26062e-05
3.1114e-05
3.11136e-05
3.11121e-05
3.11111e-05
3.11089e-05
3.11086e-05
3.11073e-05
3.11067e-05
3.11063e-05
3.11065e-05
3.11063e-05
3.11067e-05
3.11064e-05
3.11058e-05
3.1105e-05
3.11048e-05
3.11056e-05
3.11055e-05
3.11053e-05
3.11044e-05
3.1105e-05
3.1105e-05
3.11051e-05
3.11049e-05
3.11055e-05
3.11052e-05
3.11047e-05
3.1105e-05
3.11048e-05
3.11043e-05
3.11053e-05
3.11052e-05
3.11057e-05
3.11051e-05
3.11056e-05
3.11056e-05
3.11058e-05
3.11051e-05
3.11053e-05
3.11051e-05
3.11041e-05
3.11048e-05
3.11047e-05
3.11045e-05
3.11039e-05
3.11037e-05
3.1105e-05
3.11049e-05
3.11053e-05
3.11051e-05
3.11047e-05
3.11041e-05
3.11054e-05
3.11052e-05
3.11046e-05
3.11048e-05
3.11053e-05
3.11053e-05
3.11054e-05
3.11055e-05
2.95688e-05
2.95684e-05
2.95672e-05
2.95663e-05
2.95644e-05
2.95641e-05
2.95629e-05
2.95623e-05
2.95625e-05
2.95625e-05
2.95625e-05
2.95628e-05
2.95626e-05
2.95621e-05
2.95612e-05
2.9561e-05
2.95617e-05
2.95616e-05
2.95614e-05
2.95607e-05
2.95612e-05
2.95612e-05
2.95612e-05
2.95611e-05
2.95616e-05
2.95614e-05
2.9561e-05
2.95612e-05
2.95611e-05
2.95605e-05
2.95612e-05
2.95612e-05
2.95615e-05
2.95611e-05
2.95615e-05
2.95615e-05
2.95618e-05
2.95614e-05
2.95616e-05
2.95615e-05
2.95608e-05
2.95613e-05
2.95612e-05
2.95609e-05
2.95602e-05
2.956e-05
2.9561e-05
2.95609e-05
2.95613e-05
2.95611e-05
2.95608e-05
2.95602e-05
2.95612e-05
2.9561e-05
2.95606e-05
2.95606e-05
2.95611e-05
2.95611e-05
2.95612e-05
2.95613e-05
2.79892e-05
2.7989e-05
2.79881e-05
2.79873e-05
2.79856e-05
2.79853e-05
2.79843e-05
2.79838e-05
2.7984e-05
2.79841e-05
2.79841e-05
2.79844e-05
2.79842e-05
2.79839e-05
2.79831e-05
2.79828e-05
2.79834e-05
2.79834e-05
2.79832e-05
2.79826e-05
2.7983e-05
2.7983e-05
2.79831e-05
2.7983e-05
2.79833e-05
2.79832e-05
2.79829e-05
2.79831e-05
2.79829e-05
2.79824e-05
2.79829e-05
2.79828e-05
2.79831e-05
2.79827e-05
2.7983e-05
2.7983e-05
2.79833e-05
2.79831e-05
2.79833e-05
2.79833e-05
2.79828e-05
2.79832e-05
2.79831e-05
2.79828e-05
2.79821e-05
2.79819e-05
2.79827e-05
2.79827e-05
2.7983e-05
2.79828e-05
2.79826e-05
2.79821e-05
2.79829e-05
2.79827e-05
2.79822e-05
2.79824e-05
2.79826e-05
2.79827e-05
2.79828e-05
2.79828e-05
2.63848e-05
2.63846e-05
2.63839e-05
2.63832e-05
2.63818e-05
2.63815e-05
2.63807e-05
2.63803e-05
2.63805e-05
2.63805e-05
2.63804e-05
2.63807e-05
2.63807e-05
2.63805e-05
2.63799e-05
2.63796e-05
2.638e-05
2.638e-05
2.63799e-05
2.63794e-05
2.63797e-05
2.63797e-05
2.63798e-05
2.63797e-05
2.638e-05
2.63799e-05
2.63797e-05
2.63798e-05
2.63796e-05
2.63792e-05
2.63795e-05
2.63794e-05
2.63796e-05
2.63793e-05
2.63795e-05
2.63795e-05
2.63797e-05
2.63796e-05
2.63798e-05
2.63798e-05
2.63795e-05
2.63798e-05
2.63798e-05
2.63796e-05
2.63791e-05
2.63788e-05
2.63795e-05
2.63794e-05
2.63796e-05
2.63795e-05
2.63793e-05
2.63789e-05
2.63795e-05
2.63794e-05
2.63791e-05
2.6379e-05
2.63793e-05
2.63793e-05
2.63793e-05
2.63794e-05
2.47646e-05
2.47645e-05
2.4764e-05
2.47634e-05
2.47624e-05
2.47621e-05
2.47614e-05
2.47611e-05
2.47612e-05
2.47612e-05
2.47612e-05
2.47615e-05
2.47615e-05
2.47613e-05
2.47609e-05
2.47606e-05
2.4761e-05
2.4761e-05
2.47608e-05
2.47604e-05
2.47607e-05
2.47607e-05
2.47607e-05
2.47607e-05
2.47609e-05
2.47609e-05
2.47607e-05
2.47607e-05
2.47606e-05
2.47601e-05
2.47604e-05
2.47603e-05
2.47605e-05
2.47602e-05
2.47603e-05
2.47604e-05
2.47606e-05
2.47605e-05
2.47606e-05
2.47606e-05
2.47604e-05
2.47607e-05
2.47607e-05
2.47606e-05
2.47602e-05
2.476e-05
2.47605e-05
2.47605e-05
2.47606e-05
2.47605e-05
2.47604e-05
2.476e-05
2.47605e-05
2.47604e-05
2.47601e-05
2.47602e-05
2.47603e-05
2.47603e-05
2.47603e-05
2.47603e-05
2.31384e-05
2.31383e-05
2.3138e-05
2.31375e-05
2.31367e-05
2.31365e-05
2.3136e-05
2.31357e-05
2.31358e-05
2.31359e-05
2.31358e-05
2.3136e-05
2.3136e-05
2.31359e-05
2.31357e-05
2.31354e-05
2.31357e-05
2.31357e-05
2.31356e-05
2.31353e-05
2.31354e-05
2.31355e-05
2.31355e-05
2.31355e-05
2.31356e-05
2.31356e-05
2.31355e-05
2.31354e-05
2.31352e-05
2.31348e-05
2.31351e-05
2.3135e-05
2.31352e-05
2.3135e-05
2.31351e-05
2.31351e-05
2.31352e-05
2.31352e-05
2.31351e-05
2.31353e-05
2.31351e-05
2.31354e-05
2.31353e-05
2.31353e-05
2.31351e-05
2.3135e-05
2.31353e-05
2.31353e-05
2.31354e-05
2.31354e-05
2.31352e-05
2.31349e-05
2.31353e-05
2.31353e-05
2.31351e-05
2.3135e-05
2.31352e-05
2.31351e-05
2.31351e-05
2.31352e-05
2.15157e-05
2.15157e-05
2.15155e-05
2.15152e-05
2.15146e-05
2.15144e-05
2.15141e-05
2.15139e-05
2.1514e-05
2.1514e-05
2.1514e-05
2.15141e-05
2.15141e-05
2.15141e-05
2.15139e-05
2.15137e-05
2.15139e-05
2.15139e-05
2.15139e-05
2.15136e-05
2.15137e-05
2.15137e-05
2.15138e-05
2.15138e-05
2.15139e-05
2.15139e-05
2.15138e-05
2.15137e-05
2.15135e-05
2.15132e-05
2.15133e-05
2.15133e-05
2.15134e-05
2.15133e-05
2.15132e-05
2.15133e-05
2.15134e-05
2.15134e-05
2.15134e-05
2.15135e-05
2.15134e-05
2.15136e-05
2.15136e-05
2.15136e-05
2.15135e-05
2.15135e-05
2.15137e-05
2.15137e-05
2.15137e-05
2.15137e-05
2.15136e-05
2.15134e-05
2.15136e-05
2.15136e-05
2.15135e-05
2.15135e-05
2.15135e-05
2.15135e-05
2.15135e-05
2.15136e-05
1.99064e-05
1.99064e-05
1.99063e-05
1.99062e-05
1.99058e-05
1.99057e-05
1.99055e-05
1.99054e-05
1.99054e-05
1.99055e-05
1.99055e-05
1.99056e-05
1.99056e-05
1.99056e-05
1.99055e-05
1.99054e-05
1.99055e-05
1.99055e-05
1.99055e-05
1.99053e-05
1.99054e-05
1.99054e-05
1.99055e-05
1.99054e-05
1.99055e-05
1.99055e-05
1.99054e-05
1.99054e-05
1.99052e-05
1.9905e-05
1.9905e-05
1.9905e-05
1.99051e-05
1.99049e-05
1.99049e-05
1.9905e-05
1.99051e-05
1.9905e-05
1.9905e-05
1.99052e-05
1.99051e-05
1.99052e-05
1.99052e-05
1.99052e-05
1.99052e-05
1.99052e-05
1.99054e-05
1.99054e-05
1.99054e-05
1.99054e-05
1.99053e-05
1.99052e-05
1.99054e-05
1.99054e-05
1.99053e-05
1.99052e-05
1.99053e-05
1.99053e-05
1.99053e-05
1.99053e-05
1.83206e-05
1.83207e-05
1.83207e-05
1.83206e-05
1.83204e-05
1.83204e-05
1.83203e-05
1.83203e-05
1.83203e-05
1.83205e-05
1.83205e-05
1.83206e-05
1.83207e-05
1.83206e-05
1.83206e-05
1.83206e-05
1.83206e-05
1.83206e-05
1.83206e-05
1.83205e-05
1.83205e-05
1.83205e-05
1.83206e-05
1.83206e-05
1.83206e-05
1.83206e-05
1.83205e-05
1.83205e-05
1.83204e-05
1.83202e-05
1.83202e-05
1.83202e-05
1.83202e-05
1.83201e-05
1.83201e-05
1.83201e-05
1.83202e-05
1.83202e-05
1.83202e-05
1.83203e-05
1.83202e-05
1.83202e-05
1.83203e-05
1.83203e-05
1.83203e-05
1.83204e-05
1.83205e-05
1.83206e-05
1.83206e-05
1.83205e-05
1.83205e-05
1.83204e-05
1.83206e-05
1.83205e-05
1.83204e-05
1.83205e-05
1.83205e-05
1.83205e-05
1.83205e-05
1.83206e-05
1.67687e-05
1.67688e-05
1.67689e-05
1.67689e-05
1.67689e-05
1.67689e-05
1.67689e-05
1.6769e-05
1.67691e-05
1.67693e-05
1.67694e-05
1.67695e-05
1.67696e-05
1.67696e-05
1.67696e-05
1.67695e-05
1.67695e-05
1.67695e-05
1.67695e-05
1.67694e-05
1.67694e-05
1.67695e-05
1.67696e-05
1.67696e-05
1.67696e-05
1.67696e-05
1.67695e-05
1.67695e-05
1.67694e-05
1.67693e-05
1.67693e-05
1.67692e-05
1.67692e-05
1.67691e-05
1.67691e-05
1.67691e-05
1.67692e-05
1.67692e-05
1.67692e-05
1.67692e-05
1.67691e-05
1.67691e-05
1.67692e-05
1.67693e-05
1.67694e-05
1.67694e-05
1.67695e-05
1.67696e-05
1.67697e-05
1.67696e-05
1.67696e-05
1.67695e-05
1.67696e-05
1.67695e-05
1.67695e-05
1.67695e-05
1.67696e-05
1.67696e-05
1.67696e-05
1.67696e-05
1.52617e-05
1.52618e-05
1.52619e-05
1.52621e-05
1.52622e-05
1.52623e-05
1.52624e-05
1.52626e-05
1.52627e-05
1.5263e-05
1.52631e-05
1.52632e-05
1.52634e-05
1.52634e-05
1.52634e-05
1.52633e-05
1.52633e-05
1.52633e-05
1.52633e-05
1.52632e-05
1.52632e-05
1.52632e-05
1.52634e-05
1.52633e-05
1.52633e-05
1.52633e-05
1.52632e-05
1.52632e-05
1.52631e-05
1.52631e-05
1.52631e-05
1.5263e-05
1.5263e-05
1.5263e-05
1.5263e-05
1.5263e-05
1.5263e-05
1.5263e-05
1.52629e-05
1.52629e-05
1.52629e-05
1.52629e-05
1.52629e-05
1.5263e-05
1.52632e-05
1.52632e-05
1.52634e-05
1.52635e-05
1.52635e-05
1.52635e-05
1.52634e-05
1.52634e-05
1.52634e-05
1.52634e-05
1.52633e-05
1.52634e-05
1.52634e-05
1.52634e-05
1.52634e-05
1.52634e-05
1.38117e-05
1.38118e-05
1.38119e-05
1.38123e-05
1.38124e-05
1.38126e-05
1.38128e-05
1.38131e-05
1.38133e-05
1.38136e-05
1.38137e-05
1.38139e-05
1.38142e-05
1.38141e-05
1.38141e-05
1.3814e-05
1.3814e-05
1.3814e-05
1.3814e-05
1.38139e-05
1.38139e-05
1.3814e-05
1.3814e-05
1.3814e-05
1.38139e-05
1.38139e-05
1.38138e-05
1.38139e-05
1.38138e-05
1.38138e-05
1.38138e-05
1.38138e-05
1.38137e-05
1.38137e-05
1.38137e-05
1.38138e-05
1.38137e-05
1.38137e-05
1.38136e-05
1.38136e-05
1.38135e-05
1.38135e-05
1.38136e-05
1.38137e-05
1.38137e-05
1.38137e-05
1.38141e-05
1.38142e-05
1.38142e-05
1.38143e-05
1.38141e-05
1.38141e-05
1.38142e-05
1.38141e-05
1.38141e-05
1.38141e-05
1.38141e-05
1.38141e-05
1.38142e-05
1.38142e-05
1.24329e-05
1.2433e-05
1.24332e-05
1.24336e-05
1.24338e-05
1.24341e-05
1.24343e-05
1.24347e-05
1.24349e-05
1.24353e-05
1.24355e-05
1.24357e-05
1.2436e-05
1.24359e-05
1.24359e-05
1.24359e-05
1.24359e-05
1.24359e-05
1.24358e-05
1.24358e-05
1.24358e-05
1.24359e-05
1.24358e-05
1.24358e-05
1.24358e-05
1.24358e-05
1.24357e-05
1.24357e-05
1.24357e-05
1.24357e-05
1.24357e-05
1.24357e-05
1.24356e-05
1.24356e-05
1.24356e-05
1.24357e-05
1.24356e-05
1.24356e-05
1.24355e-05
1.24355e-05
1.24354e-05
1.24354e-05
1.24354e-05
1.24354e-05
1.24355e-05
1.24356e-05
1.24359e-05
1.2436e-05
1.2436e-05
1.2436e-05
1.24359e-05
1.24359e-05
1.24359e-05
1.24361e-05
1.2436e-05
1.2436e-05
1.2436e-05
1.24361e-05
1.24361e-05
1.2436e-05
1.56081e-05
1.55486e-05
1.55529e-05
1.55427e-05
1.55453e-05
1.55422e-05
1.56028e-05
1.56025e-05
1.55576e-05
1.55481e-05
1.56086e-05
1.5548e-05
1.56091e-05
1.56057e-05
1.55557e-05
1.55504e-05
1.56074e-05
1.55529e-05
1.55491e-05
1.56063e-05
1.56009e-05
1.5613e-05
1.55527e-05
1.55518e-05
1.55478e-05
1.55411e-05
1.55465e-05
1.55403e-05
1.56061e-05
1.5541e-05
1.56041e-05
1.55488e-05
1.55478e-05
1.56033e-05
1.5608e-05
1.55527e-05
1.55582e-05
1.55426e-05
1.5609e-05
1.55405e-05
1.5614e-05
1.55445e-05
1.56122e-05
1.55431e-05
1.55458e-05
1.55442e-05
1.5542e-05
1.55423e-05
1.55464e-05
1.55485e-05
1.55986e-05
1.56069e-05
1.55469e-05
1.56109e-05
1.55494e-05
1.55533e-05
1.56056e-05
1.56122e-05
1.55526e-05
1.5608e-05
3.11679e-05
3.11944e-05
3.12167e-05
3.1213e-05
3.12105e-05
3.12097e-05
3.11787e-05
3.11521e-05
3.11966e-05
3.12131e-05
3.11788e-05
3.12025e-05
3.11813e-05
3.11604e-05
3.1198e-05
3.12152e-05
3.11778e-05
3.12042e-05
3.12166e-05
3.1184e-05
3.11572e-05
3.11601e-05
3.11979e-05
3.12125e-05
3.1216e-05
3.121e-05
3.12116e-05
3.12081e-05
3.11765e-05
3.11956e-05
3.11687e-05
3.11946e-05
3.12121e-05
3.11765e-05
3.11596e-05
3.11915e-05
3.12217e-05
3.12132e-05
3.11798e-05
3.11957e-05
3.11773e-05
3.11975e-05
3.11788e-05
3.11967e-05
3.12063e-05
3.12077e-05
3.12068e-05
3.1207e-05
3.12088e-05
3.12174e-05
3.11767e-05
3.11584e-05
3.11939e-05
3.11756e-05
3.11964e-05
3.12165e-05
3.11806e-05
3.11668e-05
3.12029e-05
3.1177e-05
3.72728e-05
3.73004e-05
3.7327e-05
3.73349e-05
3.73317e-05
3.73316e-05
3.72979e-05
3.72562e-05
3.72925e-05
3.73258e-05
3.72872e-05
3.73134e-05
3.72906e-05
3.72629e-05
3.72964e-05
3.7328e-05
3.7287e-05
3.73109e-05
3.73325e-05
3.72998e-05
3.72669e-05
3.72541e-05
3.72967e-05
3.73211e-05
3.73328e-05
3.73331e-05
3.73319e-05
3.73307e-05
3.7289e-05
3.7312e-05
3.72778e-05
3.73008e-05
3.73266e-05
3.72911e-05
3.72607e-05
3.72897e-05
3.73269e-05
3.73332e-05
3.72914e-05
3.73121e-05
3.72809e-05
3.73083e-05
3.72824e-05
3.73088e-05
3.73212e-05
3.73261e-05
3.73268e-05
3.73278e-05
3.73262e-05
3.73351e-05
3.72977e-05
3.72611e-05
3.72999e-05
3.72779e-05
3.73013e-05
3.73276e-05
3.72939e-05
3.72664e-05
3.73072e-05
3.72819e-05
3.95521e-05
3.95681e-05
3.95882e-05
3.96042e-05
3.96032e-05
3.96039e-05
3.95828e-05
3.95411e-05
3.95555e-05
3.9588e-05
3.95632e-05
3.95806e-05
3.95673e-05
3.95423e-05
3.95582e-05
3.95908e-05
3.9564e-05
3.95757e-05
3.95973e-05
3.95789e-05
3.95534e-05
3.95296e-05
3.95572e-05
3.95816e-05
3.95967e-05
3.96044e-05
3.96031e-05
3.9604e-05
3.95706e-05
3.95852e-05
3.95591e-05
3.95691e-05
3.9592e-05
3.95719e-05
3.95408e-05
3.95541e-05
3.95818e-05
3.9601e-05
3.957e-05
3.95845e-05
3.95574e-05
3.95768e-05
3.95565e-05
3.95766e-05
3.95884e-05
3.95955e-05
3.95974e-05
3.96001e-05
3.95968e-05
3.96027e-05
3.95825e-05
3.95431e-05
3.95673e-05
3.95518e-05
3.9566e-05
3.959e-05
3.95723e-05
3.95429e-05
3.95705e-05
3.95552e-05
4.00732e-05
4.00799e-05
4.00898e-05
4.01066e-05
4.0109e-05
4.01107e-05
4.00999e-05
4.00702e-05
4.0069e-05
4.00884e-05
4.00769e-05
4.00875e-05
4.0081e-05
4.00643e-05
4.00684e-05
4.00905e-05
4.00781e-05
4.00829e-05
4.00984e-05
4.00912e-05
4.00781e-05
4.00526e-05
4.00651e-05
4.00825e-05
4.00961e-05
4.01086e-05
4.01088e-05
4.01119e-05
4.00894e-05
4.00968e-05
4.00798e-05
4.00815e-05
4.00952e-05
4.00871e-05
4.00647e-05
4.00673e-05
4.00788e-05
4.01024e-05
4.00845e-05
4.00946e-05
4.00748e-05
4.00863e-05
4.00715e-05
4.00841e-05
4.00932e-05
4.0101e-05
4.01035e-05
4.01078e-05
4.01049e-05
4.01071e-05
4.00983e-05
4.00689e-05
4.00788e-05
4.00679e-05
4.00745e-05
4.00908e-05
4.00846e-05
4.00633e-05
4.00773e-05
4.00702e-05
3.97361e-05
3.97381e-05
3.97413e-05
3.97526e-05
3.97576e-05
3.97607e-05
3.97561e-05
3.97406e-05
3.97301e-05
3.97396e-05
3.97344e-05
3.97408e-05
3.97375e-05
3.97291e-05
3.97271e-05
3.9739e-05
3.97351e-05
3.97371e-05
3.97462e-05
3.97443e-05
3.974e-05
3.97223e-05
3.9725e-05
3.9733e-05
3.97423e-05
3.97553e-05
3.97572e-05
3.97624e-05
3.9749e-05
3.97524e-05
3.97427e-05
3.974e-05
3.97463e-05
3.97436e-05
3.97315e-05
3.97286e-05
3.97307e-05
3.97477e-05
3.974e-05
3.97482e-05
3.97354e-05
3.97419e-05
3.97314e-05
3.97385e-05
3.9744e-05
3.9751e-05
3.97537e-05
3.97587e-05
3.97573e-05
3.97568e-05
3.97537e-05
3.97361e-05
3.97378e-05
3.97292e-05
3.97318e-05
3.97396e-05
3.97389e-05
3.97271e-05
3.97325e-05
3.97287e-05
3.89544e-05
3.89545e-05
3.89545e-05
3.89598e-05
3.89645e-05
3.89685e-05
3.89668e-05
3.89615e-05
3.89501e-05
3.8953e-05
3.89497e-05
3.89534e-05
3.89512e-05
3.89484e-05
3.89446e-05
3.89499e-05
3.89493e-05
3.89502e-05
3.89549e-05
3.89545e-05
3.89552e-05
3.89464e-05
3.89441e-05
3.89463e-05
3.89509e-05
3.8961e-05
3.89636e-05
3.89698e-05
3.89631e-05
3.8965e-05
3.896e-05
3.89563e-05
3.8958e-05
3.89572e-05
3.89516e-05
3.89486e-05
3.89449e-05
3.89552e-05
3.89525e-05
3.89594e-05
3.89518e-05
3.8956e-05
3.89487e-05
3.89524e-05
3.89549e-05
3.896e-05
3.89627e-05
3.89671e-05
3.89672e-05
3.89661e-05
3.8965e-05
3.89562e-05
3.89549e-05
3.89474e-05
3.89484e-05
3.89502e-05
3.89514e-05
3.89457e-05
3.89473e-05
3.89446e-05
3.79224e-05
3.79222e-05
3.79203e-05
3.79222e-05
3.79248e-05
3.79286e-05
3.79281e-05
3.79272e-05
3.79208e-05
3.79198e-05
3.79163e-05
3.79185e-05
3.79164e-05
3.79162e-05
3.79139e-05
3.79149e-05
3.79149e-05
3.79154e-05
3.79175e-05
3.79174e-05
3.79199e-05
3.79163e-05
3.79134e-05
3.79132e-05
3.7915e-05
3.79207e-05
3.79232e-05
3.7929e-05
3.79265e-05
3.79282e-05
3.79258e-05
3.79234e-05
3.79223e-05
3.79219e-05
3.79195e-05
3.7918e-05
3.79129e-05
3.79183e-05
3.7917e-05
3.79224e-05
3.79183e-05
3.79213e-05
3.79166e-05
3.79185e-05
3.79194e-05
3.7922e-05
3.79245e-05
3.79273e-05
3.79291e-05
3.79278e-05
3.79274e-05
3.79238e-05
3.79223e-05
3.79162e-05
3.79167e-05
3.79156e-05
3.79164e-05
3.79136e-05
3.79139e-05
3.79119e-05
3.67343e-05
3.67339e-05
3.67313e-05
3.67315e-05
3.67322e-05
3.67348e-05
3.67345e-05
3.67359e-05
3.67331e-05
3.67312e-05
3.67274e-05
3.67289e-05
3.67269e-05
3.67278e-05
3.6727e-05
3.67254e-05
3.67257e-05
3.67257e-05
3.67265e-05
3.67262e-05
3.67287e-05
3.67278e-05
3.67258e-05
3.6725e-05
3.67257e-05
3.67282e-05
3.67298e-05
3.67342e-05
3.67338e-05
3.67357e-05
3.67346e-05
3.67338e-05
3.67319e-05
3.67316e-05
3.67303e-05
3.67303e-05
3.67264e-05
3.67285e-05
3.67273e-05
3.6731e-05
3.67288e-05
3.67312e-05
3.67282e-05
3.67293e-05
3.67295e-05
3.67306e-05
3.67325e-05
3.67337e-05
3.67361e-05
3.67352e-05
3.67349e-05
3.67336e-05
3.6733e-05
3.67288e-05
3.67293e-05
3.67274e-05
3.67269e-05
3.67251e-05
3.67252e-05
3.67237e-05
3.54373e-05
3.54369e-05
3.54344e-05
3.54332e-05
3.5433e-05
3.54344e-05
3.54342e-05
3.5436e-05
3.54351e-05
3.54335e-05
3.54303e-05
3.54313e-05
3.54298e-05
3.54305e-05
3.54302e-05
3.54288e-05
3.54282e-05
3.54279e-05
3.54281e-05
3.54276e-05
3.54296e-05
3.54295e-05
3.5429e-05
3.54282e-05
3.54285e-05
3.54293e-05
3.54302e-05
3.54329e-05
3.5433e-05
3.54351e-05
3.54347e-05
3.54351e-05
3.5434e-05
3.54332e-05
3.54326e-05
3.54333e-05
3.54305e-05
3.54312e-05
3.543e-05
3.54323e-05
3.5431e-05
3.54328e-05
3.54311e-05
3.54318e-05
3.54318e-05
3.54322e-05
3.54334e-05
3.54338e-05
3.54357e-05
3.54353e-05
3.54348e-05
3.54345e-05
3.54348e-05
3.54322e-05
3.54327e-05
3.54309e-05
3.54298e-05
3.54281e-05
3.54282e-05
3.54271e-05
3.40577e-05
3.40572e-05
3.4055e-05
3.40533e-05
3.40524e-05
3.4053e-05
3.40526e-05
3.40541e-05
3.40538e-05
3.40529e-05
3.40508e-05
3.40514e-05
3.40503e-05
3.40507e-05
3.40507e-05
3.40496e-05
3.40487e-05
3.40482e-05
3.40479e-05
3.4047e-05
3.40486e-05
3.40486e-05
3.40488e-05
3.40488e-05
3.4049e-05
3.4049e-05
3.40495e-05
3.40508e-05
3.40509e-05
3.40529e-05
3.40529e-05
3.40539e-05
3.40533e-05
3.40523e-05
3.40525e-05
3.40531e-05
3.40514e-05
3.40515e-05
3.40504e-05
3.40518e-05
3.4051e-05
3.40524e-05
3.40513e-05
3.40519e-05
3.40519e-05
3.4052e-05
3.40527e-05
3.40528e-05
3.40541e-05
3.40538e-05
3.40531e-05
3.40536e-05
3.40539e-05
3.40524e-05
3.4053e-05
3.40518e-05
3.40503e-05
3.40488e-05
3.4049e-05
3.40481e-05
3.26117e-05
3.26113e-05
3.26094e-05
3.26077e-05
3.26063e-05
3.26062e-05
3.26056e-05
3.26067e-05
3.26067e-05
3.26063e-05
3.26049e-05
3.26054e-05
3.26046e-05
3.26044e-05
3.26049e-05
3.26042e-05
3.26033e-05
3.26025e-05
3.2602e-05
3.26009e-05
3.26021e-05
3.26022e-05
3.26027e-05
3.26027e-05
3.2603e-05
3.2603e-05
3.26032e-05
3.26038e-05
3.26038e-05
3.26054e-05
3.26054e-05
3.26066e-05
3.26062e-05
3.26057e-05
3.26059e-05
3.26066e-05
3.26056e-05
3.26053e-05
3.26044e-05
3.26055e-05
3.2605e-05
3.2606e-05
3.26054e-05
3.26059e-05
3.26059e-05
3.26059e-05
3.26063e-05
3.26064e-05
3.26072e-05
3.26069e-05
3.26063e-05
3.26066e-05
3.26071e-05
3.26062e-05
3.26069e-05
3.26062e-05
3.26047e-05
3.26035e-05
3.26036e-05
3.26029e-05
3.11112e-05
3.11109e-05
3.11095e-05
3.11081e-05
3.11064e-05
3.1106e-05
3.11051e-05
3.11059e-05
3.11059e-05
3.11057e-05
3.11048e-05
3.11052e-05
3.11046e-05
3.11044e-05
3.11049e-05
3.11044e-05
3.11037e-05
3.11028e-05
3.11023e-05
3.11012e-05
3.1102e-05
3.11021e-05
3.11026e-05
3.11026e-05
3.11029e-05
3.1103e-05
3.11031e-05
3.11035e-05
3.11035e-05
3.11046e-05
3.11046e-05
3.11056e-05
3.11054e-05
3.11051e-05
3.11053e-05
3.11059e-05
3.11053e-05
3.1105e-05
3.11042e-05
3.11051e-05
3.11049e-05
3.11058e-05
3.11054e-05
3.11057e-05
3.11058e-05
3.11058e-05
3.1106e-05
3.11061e-05
3.11066e-05
3.11064e-05
3.11058e-05
3.1106e-05
3.11065e-05
3.11059e-05
3.11065e-05
3.11061e-05
3.1105e-05
3.11041e-05
3.11038e-05
3.11031e-05
2.95667e-05
2.95665e-05
2.95655e-05
2.95643e-05
2.95627e-05
2.95622e-05
2.95611e-05
2.95616e-05
2.95617e-05
2.95614e-05
2.95607e-05
2.95611e-05
2.95607e-05
2.95605e-05
2.9561e-05
2.95606e-05
2.956e-05
2.95593e-05
2.95588e-05
2.95578e-05
2.95584e-05
2.95584e-05
2.95588e-05
2.95587e-05
2.95591e-05
2.95591e-05
2.95592e-05
2.95596e-05
2.95595e-05
2.95604e-05
2.95603e-05
2.95611e-05
2.9561e-05
2.95607e-05
2.95609e-05
2.95615e-05
2.95611e-05
2.95608e-05
2.95602e-05
2.95609e-05
2.95609e-05
2.95616e-05
2.95614e-05
2.95617e-05
2.95617e-05
2.95617e-05
2.9562e-05
2.9562e-05
2.95623e-05
2.95621e-05
2.95616e-05
2.95618e-05
2.95623e-05
2.95618e-05
2.95623e-05
2.95621e-05
2.95613e-05
2.95604e-05
2.95601e-05
2.95595e-05
2.79878e-05
2.79877e-05
2.79869e-05
2.79859e-05
2.79845e-05
2.79841e-05
2.7983e-05
2.79832e-05
2.79833e-05
2.7983e-05
2.79824e-05
2.79828e-05
2.79825e-05
2.79822e-05
2.79827e-05
2.79824e-05
2.79819e-05
2.79813e-05
2.79809e-05
2.798e-05
2.79804e-05
2.79805e-05
2.79806e-05
2.79806e-05
2.79808e-05
2.79809e-05
2.79809e-05
2.79813e-05
2.79813e-05
2.79819e-05
2.79819e-05
2.79825e-05
2.79824e-05
2.79822e-05
2.79823e-05
2.79828e-05
2.79826e-05
2.79822e-05
2.79818e-05
2.79824e-05
2.79824e-05
2.7983e-05
2.7983e-05
2.79832e-05
2.79832e-05
2.79833e-05
2.79834e-05
2.79834e-05
2.79837e-05
2.79836e-05
2.79832e-05
2.79833e-05
2.79837e-05
2.79834e-05
2.79838e-05
2.79836e-05
2.79831e-05
2.79823e-05
2.79821e-05
2.79815e-05
2.63837e-05
2.63836e-05
2.63831e-05
2.63822e-05
2.63811e-05
2.63807e-05
2.63798e-05
2.63798e-05
2.638e-05
2.63797e-05
2.63792e-05
2.63794e-05
2.63792e-05
2.63789e-05
2.63793e-05
2.63791e-05
2.63787e-05
2.63782e-05
2.63778e-05
2.6377e-05
2.63774e-05
2.63774e-05
2.63775e-05
2.63775e-05
2.63776e-05
2.63776e-05
2.63777e-05
2.6378e-05
2.6378e-05
2.63785e-05
2.63785e-05
2.63789e-05
2.63789e-05
2.63787e-05
2.63788e-05
2.63792e-05
2.6379e-05
2.63787e-05
2.63784e-05
2.63789e-05
2.63789e-05
2.63794e-05
2.63794e-05
2.63796e-05
2.63797e-05
2.63797e-05