/*--------------------------------*- C++ -*----------------------------------*\
| =========                 |                                                 |
| \\      /  F ield         | OpenFOAM: The Open Source CFD Toolbox           |
|  \\    /   O peration     | Version:  2312                                  |
|   \\  /    A nd           | Website:  www.openfoam.com                      |
|    \\/     M anipulation  |                                                 |
\*---------------------------------------------------------------------------*/
FoamFile
{
    version     2.0;
    format      ascii;
    arch        "LSB;label=32;scalar=64";
    class       volScalarField;
    location    "300";
    object      nut;
}
// * * * * * * * * * * * * * * * * * * * * * * * * * * * * * * * * * * * * * //

dimensions      [0 2 -1 0 0 0 0];

internalField   nonuniform List<scalar> 
144000
(
1.10702e-05
1.1069e-05
1.10712e-05
1.10684e-05
1.10908e-05
1.10694e-05
1.10922e-05
1.10895e-05
1.1092e-05
1.10718e-05
1.10705e-05
1.10697e-05
1.10715e-05
1.107e-05
1.10902e-05
1.10903e-05
1.10705e-05
1.10712e-05
1.10705e-05
1.10902e-05
1.10897e-05
1.1072e-05
1.10706e-05
1.1092e-05
1.10717e-05
1.10696e-05
1.10904e-05
1.10711e-05
1.10694e-05
1.10892e-05
1.10673e-05
1.10923e-05
1.10714e-05
1.10925e-05
1.10901e-05
1.10935e-05
1.10731e-05
1.10932e-05
1.10728e-05
1.10713e-05
1.10922e-05
1.10689e-05
1.10719e-05
1.10702e-05
1.10918e-05
1.10907e-05
1.10708e-05
1.1073e-05
1.10701e-05
1.10713e-05
1.10682e-05
1.10889e-05
1.10693e-05
1.10726e-05
1.10897e-05
1.10913e-05
1.10703e-05
1.10714e-05
1.10692e-05
1.10685e-05
1.56859e-05
1.56847e-05
1.56865e-05
1.56855e-05
1.56762e-05
1.56821e-05
1.56773e-05
1.56724e-05
1.56721e-05
1.56815e-05
1.5685e-05
1.56847e-05
1.56861e-05
1.56859e-05
1.56775e-05
1.56729e-05
1.56806e-05
1.56848e-05
1.56863e-05
1.56776e-05
1.5671e-05
1.56804e-05
1.56853e-05
1.56769e-05
1.56833e-05
1.56857e-05
1.56764e-05
1.5683e-05
1.56853e-05
1.5676e-05
1.56805e-05
1.56752e-05
1.56829e-05
1.56776e-05
1.56727e-05
1.5673e-05
1.56833e-05
1.56773e-05
1.56833e-05
1.5686e-05
1.56781e-05
1.56817e-05
1.56857e-05
1.56857e-05
1.56782e-05
1.56734e-05
1.56804e-05
1.56864e-05
1.56859e-05
1.5687e-05
1.5686e-05
1.56754e-05
1.56803e-05
1.56867e-05
1.56772e-05
1.56732e-05
1.56807e-05
1.56846e-05
1.56852e-05
1.56845e-05
1.71556e-05
1.71542e-05
1.71549e-05
1.71553e-05
1.71448e-05
1.71502e-05
1.71446e-05
1.71398e-05
1.71372e-05
1.71464e-05
1.71526e-05
1.7153e-05
1.71541e-05
1.71548e-05
1.71466e-05
1.71399e-05
1.7147e-05
1.71517e-05
1.71548e-05
1.7147e-05
1.71381e-05
1.71455e-05
1.71527e-05
1.7144e-05
1.71497e-05
1.71544e-05
1.71447e-05
1.715e-05
1.71542e-05
1.7145e-05
1.71497e-05
1.71418e-05
1.71494e-05
1.71444e-05
1.71398e-05
1.71375e-05
1.71481e-05
1.7143e-05
1.7149e-05
1.71536e-05
1.71456e-05
1.71498e-05
1.71531e-05
1.71543e-05
1.71464e-05
1.71404e-05
1.71465e-05
1.71527e-05
1.71543e-05
1.71554e-05
1.71561e-05
1.71451e-05
1.71481e-05
1.71537e-05
1.71462e-05
1.71397e-05
1.71472e-05
1.71514e-05
1.71541e-05
1.71539e-05
1.76701e-05
1.7669e-05
1.76686e-05
1.76697e-05
1.76619e-05
1.76647e-05
1.76607e-05
1.76572e-05
1.76532e-05
1.76586e-05
1.76651e-05
1.76666e-05
1.76672e-05
1.76686e-05
1.76635e-05
1.76569e-05
1.76608e-05
1.76642e-05
1.76679e-05
1.76637e-05
1.76557e-05
1.76588e-05
1.76653e-05
1.76596e-05
1.76625e-05
1.76678e-05
1.76612e-05
1.76636e-05
1.76679e-05
1.76619e-05
1.7665e-05
1.76583e-05
1.76627e-05
1.76598e-05
1.76567e-05
1.7653e-05
1.76601e-05
1.76576e-05
1.76614e-05
1.76663e-05
1.76613e-05
1.76641e-05
1.7666e-05
1.7668e-05
1.76628e-05
1.76571e-05
1.76602e-05
1.76647e-05
1.76675e-05
1.76683e-05
1.76704e-05
1.76629e-05
1.76633e-05
1.76664e-05
1.76627e-05
1.76563e-05
1.76609e-05
1.7664e-05
1.76675e-05
1.76678e-05
1.77831e-05
1.77825e-05
1.77813e-05
1.77825e-05
1.77776e-05
1.77786e-05
1.77757e-05
1.77737e-05
1.77695e-05
1.77718e-05
1.77766e-05
1.77789e-05
1.77793e-05
1.77808e-05
1.77784e-05
1.77732e-05
1.77747e-05
1.77765e-05
1.77797e-05
1.7778e-05
1.77728e-05
1.77733e-05
1.77771e-05
1.77743e-05
1.77755e-05
1.77796e-05
1.77762e-05
1.7777e-05
1.77801e-05
1.77769e-05
1.77791e-05
1.77742e-05
1.77761e-05
1.77743e-05
1.77727e-05
1.7769e-05
1.77729e-05
1.77716e-05
1.77737e-05
1.77779e-05
1.77755e-05
1.77774e-05
1.77783e-05
1.77804e-05
1.77776e-05
1.77731e-05
1.77742e-05
1.77765e-05
1.77794e-05
1.77801e-05
1.77825e-05
1.77786e-05
1.77778e-05
1.77788e-05
1.77773e-05
1.77726e-05
1.77747e-05
1.77763e-05
1.77795e-05
1.77801e-05
1.77057e-05
1.77054e-05
1.77042e-05
1.77051e-05
1.77022e-05
1.77023e-05
1.77002e-05
1.76991e-05
1.76959e-05
1.76964e-05
1.76986e-05
1.77011e-05
1.77015e-05
1.77029e-05
1.77019e-05
1.76988e-05
1.76991e-05
1.76996e-05
1.77016e-05
1.77012e-05
1.76989e-05
1.76979e-05
1.76998e-05
1.76985e-05
1.76989e-05
1.77015e-05
1.77002e-05
1.77004e-05
1.77023e-05
1.77009e-05
1.77026e-05
1.76995e-05
1.76999e-05
1.76985e-05
1.76978e-05
1.76951e-05
1.76967e-05
1.76959e-05
1.7697e-05
1.76998e-05
1.76989e-05
1.77005e-05
1.77008e-05
1.77026e-05
1.77013e-05
1.76985e-05
1.76987e-05
1.76993e-05
1.77014e-05
1.7702e-05
1.77041e-05
1.77027e-05
1.7702e-05
1.77018e-05
1.77011e-05
1.76982e-05
1.76989e-05
1.76995e-05
1.77015e-05
1.77022e-05
1.75288e-05
1.75288e-05
1.75278e-05
1.75283e-05
1.75266e-05
1.75265e-05
1.75248e-05
1.75242e-05
1.75223e-05
1.75217e-05
1.75225e-05
1.75243e-05
1.75246e-05
1.75257e-05
1.75254e-05
1.7524e-05
1.75238e-05
1.75239e-05
1.75247e-05
1.75247e-05
1.75242e-05
1.7523e-05
1.75237e-05
1.75231e-05
1.75232e-05
1.75245e-05
1.75243e-05
1.75243e-05
1.75254e-05
1.75249e-05
1.75263e-05
1.75246e-05
1.75245e-05
1.75231e-05
1.75229e-05
1.75212e-05
1.75216e-05
1.75209e-05
1.75214e-05
1.7523e-05
1.75228e-05
1.75241e-05
1.75243e-05
1.75255e-05
1.7525e-05
1.75236e-05
1.75237e-05
1.75235e-05
1.75246e-05
1.7525e-05
1.75265e-05
1.75262e-05
1.75263e-05
1.75256e-05
1.75253e-05
1.75236e-05
1.75238e-05
1.75238e-05
1.75247e-05
1.75253e-05
1.72937e-05
1.72938e-05
1.72932e-05
1.72933e-05
1.72923e-05
1.72921e-05
1.72909e-05
1.72905e-05
1.72894e-05
1.72886e-05
1.72887e-05
1.72896e-05
1.72898e-05
1.72906e-05
1.72906e-05
1.72902e-05
1.729e-05
1.72898e-05
1.72901e-05
1.72901e-05
1.72901e-05
1.72896e-05
1.72896e-05
1.72892e-05
1.72892e-05
1.72897e-05
1.72899e-05
1.72899e-05
1.72906e-05
1.72904e-05
1.72915e-05
1.72907e-05
1.72905e-05
1.72894e-05
1.72893e-05
1.72884e-05
1.72883e-05
1.72875e-05
1.72877e-05
1.72885e-05
1.72884e-05
1.72895e-05
1.72896e-05
1.72904e-05
1.72903e-05
1.72898e-05
1.729e-05
1.72896e-05
1.72901e-05
1.72902e-05
1.72911e-05
1.72912e-05
1.72918e-05
1.72911e-05
1.72909e-05
1.729e-05
1.72901e-05
1.72899e-05
1.72902e-05
1.72906e-05
1.70199e-05
1.70199e-05
1.70194e-05
1.70193e-05
1.70186e-05
1.70185e-05
1.70176e-05
1.70174e-05
1.70168e-05
1.70162e-05
1.70158e-05
1.70163e-05
1.70163e-05
1.70167e-05
1.70168e-05
1.70168e-05
1.70168e-05
1.70167e-05
1.70166e-05
1.70164e-05
1.70168e-05
1.70166e-05
1.70164e-05
1.7016e-05
1.70162e-05
1.70162e-05
1.70163e-05
1.70164e-05
1.70168e-05
1.70168e-05
1.70176e-05
1.70173e-05
1.70173e-05
1.70165e-05
1.70164e-05
1.70159e-05
1.70157e-05
1.7015e-05
1.7015e-05
1.70153e-05
1.70152e-05
1.7016e-05
1.7016e-05
1.70166e-05
1.70166e-05
1.70165e-05
1.70168e-05
1.70165e-05
1.70167e-05
1.70167e-05
1.70171e-05
1.70172e-05
1.70179e-05
1.70174e-05
1.70173e-05
1.70169e-05
1.7017e-05
1.70168e-05
1.70169e-05
1.7017e-05
1.67163e-05
1.67163e-05
1.67158e-05
1.67156e-05
1.6715e-05
1.67149e-05
1.67143e-05
1.67141e-05
1.67138e-05
1.67134e-05
1.6713e-05
1.67132e-05
1.67132e-05
1.67133e-05
1.67133e-05
1.67134e-05
1.67136e-05
1.67135e-05
1.67133e-05
1.6713e-05
1.67134e-05
1.67134e-05
1.67133e-05
1.6713e-05
1.67131e-05
1.6713e-05
1.6713e-05
1.67131e-05
1.67132e-05
1.67132e-05
1.67139e-05
1.67138e-05
1.67139e-05
1.67134e-05
1.67135e-05
1.67132e-05
1.6713e-05
1.67123e-05
1.67123e-05
1.67124e-05
1.67122e-05
1.67127e-05
1.67127e-05
1.6713e-05
1.6713e-05
1.67131e-05
1.67135e-05
1.67133e-05
1.67134e-05
1.67134e-05
1.67135e-05
1.67135e-05
1.67142e-05
1.67139e-05
1.67138e-05
1.67136e-05
1.67138e-05
1.67137e-05
1.67136e-05
1.67137e-05
1.63875e-05
1.63874e-05
1.63869e-05
1.63867e-05
1.6386e-05
1.6386e-05
1.63855e-05
1.63854e-05
1.63852e-05
1.6385e-05
1.63847e-05
1.63849e-05
1.63848e-05
1.63847e-05
1.63846e-05
1.63847e-05
1.63849e-05
1.63848e-05
1.63847e-05
1.63844e-05
1.63847e-05
1.63848e-05
1.63847e-05
1.63846e-05
1.63847e-05
1.63846e-05
1.63845e-05
1.63845e-05
1.63845e-05
1.63845e-05
1.6385e-05
1.6385e-05
1.63851e-05
1.63848e-05
1.63849e-05
1.63848e-05
1.63847e-05
1.63842e-05
1.63842e-05
1.63842e-05
1.63839e-05
1.63843e-05
1.63843e-05
1.63844e-05
1.63844e-05
1.63844e-05
1.63848e-05
1.63847e-05
1.63848e-05
1.63847e-05
1.63847e-05
1.63846e-05
1.63852e-05
1.6385e-05
1.63848e-05
1.63849e-05
1.6385e-05
1.6385e-05
1.6385e-05
1.63851e-05
1.60357e-05
1.60356e-05
1.60351e-05
1.60349e-05
1.60343e-05
1.60342e-05
1.60339e-05
1.60337e-05
1.60336e-05
1.60335e-05
1.60333e-05
1.60335e-05
1.60334e-05
1.60333e-05
1.60331e-05
1.60331e-05
1.60333e-05
1.60333e-05
1.60332e-05
1.60329e-05
1.60331e-05
1.60332e-05
1.60332e-05
1.60331e-05
1.60332e-05
1.60332e-05
1.6033e-05
1.60331e-05
1.60331e-05
1.6033e-05
1.60333e-05
1.60333e-05
1.60335e-05
1.60332e-05
1.60334e-05
1.60333e-05
1.60333e-05
1.6033e-05
1.6033e-05
1.6033e-05
1.60327e-05
1.60329e-05
1.60329e-05
1.60329e-05
1.60329e-05
1.60329e-05
1.60332e-05
1.60332e-05
1.60333e-05
1.60332e-05
1.60331e-05
1.6033e-05
1.60334e-05
1.60333e-05
1.60332e-05
1.60332e-05
1.60334e-05
1.60334e-05
1.60334e-05
1.60334e-05
1.56624e-05
1.56623e-05
1.5662e-05
1.56617e-05
1.56612e-05
1.56611e-05
1.56608e-05
1.56606e-05
1.56605e-05
1.56606e-05
1.56605e-05
1.56606e-05
1.56605e-05
1.56604e-05
1.56602e-05
1.56601e-05
1.56603e-05
1.56603e-05
1.56602e-05
1.566e-05
1.56602e-05
1.56602e-05
1.56602e-05
1.56601e-05
1.56603e-05
1.56602e-05
1.56601e-05
1.56602e-05
1.56601e-05
1.566e-05
1.56602e-05
1.56602e-05
1.56604e-05
1.56602e-05
1.56603e-05
1.56603e-05
1.56604e-05
1.56602e-05
1.56602e-05
1.56602e-05
1.566e-05
1.56601e-05
1.56601e-05
1.56601e-05
1.56599e-05
1.56599e-05
1.56602e-05
1.56602e-05
1.56602e-05
1.56602e-05
1.56601e-05
1.566e-05
1.56603e-05
1.56602e-05
1.56601e-05
1.56601e-05
1.56602e-05
1.56602e-05
1.56603e-05
1.56603e-05
1.52688e-05
1.52687e-05
1.52684e-05
1.52681e-05
1.52676e-05
1.52676e-05
1.52673e-05
1.52671e-05
1.52672e-05
1.52672e-05
1.52671e-05
1.52672e-05
1.52672e-05
1.52671e-05
1.52668e-05
1.52668e-05
1.52669e-05
1.52669e-05
1.52669e-05
1.52667e-05
1.52668e-05
1.52668e-05
1.52668e-05
1.52668e-05
1.52669e-05
1.52669e-05
1.52668e-05
1.52668e-05
1.52668e-05
1.52666e-05
1.52668e-05
1.52668e-05
1.52669e-05
1.52668e-05
1.52669e-05
1.52669e-05
1.5267e-05
1.52669e-05
1.52669e-05
1.52669e-05
1.52667e-05
1.52668e-05
1.52668e-05
1.52667e-05
1.52665e-05
1.52665e-05
1.52668e-05
1.52668e-05
1.52668e-05
1.52668e-05
1.52667e-05
1.52666e-05
1.52668e-05
1.52668e-05
1.52667e-05
1.52667e-05
1.52668e-05
1.52668e-05
1.52668e-05
1.52668e-05
1.48556e-05
1.48555e-05
1.48553e-05
1.4855e-05
1.48546e-05
1.48545e-05
1.48543e-05
1.48541e-05
1.48542e-05
1.48542e-05
1.48542e-05
1.48543e-05
1.48543e-05
1.48542e-05
1.4854e-05
1.48539e-05
1.4854e-05
1.4854e-05
1.4854e-05
1.48538e-05
1.48539e-05
1.48539e-05
1.48539e-05
1.48539e-05
1.4854e-05
1.4854e-05
1.48539e-05
1.48539e-05
1.48539e-05
1.48538e-05
1.48539e-05
1.48539e-05
1.48539e-05
1.48538e-05
1.48539e-05
1.48539e-05
1.4854e-05
1.48539e-05
1.4854e-05
1.4854e-05
1.48539e-05
1.4854e-05
1.48539e-05
1.48539e-05
1.48537e-05
1.48536e-05
1.48538e-05
1.48538e-05
1.48539e-05
1.48539e-05
1.48538e-05
1.48537e-05
1.48539e-05
1.48538e-05
1.48537e-05
1.48538e-05
1.48538e-05
1.48538e-05
1.48538e-05
1.48539e-05
1.44237e-05
1.44237e-05
1.44235e-05
1.44233e-05
1.44229e-05
1.44229e-05
1.44226e-05
1.44225e-05
1.44226e-05
1.44226e-05
1.44226e-05
1.44226e-05
1.44226e-05
1.44226e-05
1.44224e-05
1.44223e-05
1.44224e-05
1.44224e-05
1.44224e-05
1.44223e-05
1.44223e-05
1.44224e-05
1.44224e-05
1.44224e-05
1.44224e-05
1.44224e-05
1.44223e-05
1.44224e-05
1.44223e-05
1.44222e-05
1.44223e-05
1.44223e-05
1.44223e-05
1.44222e-05
1.44223e-05
1.44223e-05
1.44224e-05
1.44223e-05
1.44224e-05
1.44224e-05
1.44223e-05
1.44224e-05
1.44224e-05
1.44223e-05
1.44222e-05
1.44221e-05
1.44223e-05
1.44223e-05
1.44223e-05
1.44223e-05
1.44222e-05
1.44221e-05
1.44223e-05
1.44223e-05
1.44222e-05
1.44222e-05
1.44222e-05
1.44222e-05
1.44222e-05
1.44223e-05
1.39741e-05
1.39741e-05
1.3974e-05
1.39738e-05
1.39735e-05
1.39734e-05
1.39732e-05
1.39731e-05
1.39732e-05
1.39732e-05
1.39732e-05
1.39732e-05
1.39732e-05
1.39732e-05
1.39731e-05
1.3973e-05
1.39731e-05
1.39731e-05
1.39731e-05
1.3973e-05
1.3973e-05
1.3973e-05
1.3973e-05
1.3973e-05
1.39731e-05
1.39731e-05
1.3973e-05
1.3973e-05
1.3973e-05
1.39729e-05
1.39729e-05
1.39729e-05
1.3973e-05
1.39729e-05
1.39729e-05
1.39729e-05
1.3973e-05
1.3973e-05
1.3973e-05
1.3973e-05
1.39729e-05
1.3973e-05
1.3973e-05
1.3973e-05
1.39729e-05
1.39728e-05
1.3973e-05
1.3973e-05
1.3973e-05
1.3973e-05
1.39729e-05
1.39728e-05
1.3973e-05
1.3973e-05
1.39729e-05
1.39729e-05
1.39729e-05
1.39729e-05
1.39729e-05
1.39729e-05
1.35078e-05
1.35078e-05
1.35077e-05
1.35076e-05
1.35073e-05
1.35073e-05
1.35071e-05
1.3507e-05
1.35071e-05
1.35071e-05
1.3507e-05
1.35071e-05
1.35071e-05
1.35071e-05
1.3507e-05
1.35069e-05
1.3507e-05
1.3507e-05
1.3507e-05
1.35069e-05
1.35069e-05
1.35069e-05
1.3507e-05
1.35069e-05
1.3507e-05
1.3507e-05
1.3507e-05
1.35069e-05
1.35069e-05
1.35068e-05
1.35068e-05
1.35068e-05
1.35069e-05
1.35068e-05
1.35068e-05
1.35068e-05
1.35069e-05
1.35069e-05
1.35068e-05
1.35069e-05
1.35069e-05
1.35069e-05
1.35069e-05
1.35069e-05
1.35068e-05
1.35068e-05
1.35069e-05
1.35069e-05
1.35069e-05
1.35069e-05
1.35069e-05
1.35068e-05
1.35069e-05
1.35069e-05
1.35068e-05
1.35068e-05
1.35069e-05
1.35069e-05
1.35069e-05
1.35069e-05
1.30258e-05
1.30258e-05
1.30258e-05
1.30257e-05
1.30255e-05
1.30255e-05
1.30253e-05
1.30253e-05
1.30253e-05
1.30253e-05
1.30253e-05
1.30254e-05
1.30253e-05
1.30253e-05
1.30253e-05
1.30252e-05
1.30253e-05
1.30253e-05
1.30253e-05
1.30252e-05
1.30252e-05
1.30252e-05
1.30252e-05
1.30252e-05
1.30253e-05
1.30253e-05
1.30252e-05
1.30252e-05
1.30252e-05
1.30251e-05
1.30251e-05
1.30251e-05
1.30251e-05
1.30251e-05
1.30251e-05
1.30251e-05
1.30251e-05
1.30251e-05
1.30251e-05
1.30252e-05
1.30251e-05
1.30252e-05
1.30252e-05
1.30252e-05
1.30252e-05
1.30252e-05
1.30252e-05
1.30252e-05
1.30252e-05
1.30252e-05
1.30252e-05
1.30251e-05
1.30252e-05
1.30252e-05
1.30252e-05
1.30252e-05
1.30252e-05
1.30252e-05
1.30252e-05
1.30252e-05
1.25295e-05
1.25295e-05
1.25295e-05
1.25295e-05
1.25293e-05
1.25293e-05
1.25293e-05
1.25292e-05
1.25292e-05
1.25292e-05
1.25292e-05
1.25293e-05
1.25293e-05
1.25293e-05
1.25293e-05
1.25292e-05
1.25293e-05
1.25293e-05
1.25293e-05
1.25292e-05
1.25292e-05
1.25292e-05
1.25292e-05
1.25292e-05
1.25293e-05
1.25293e-05
1.25292e-05
1.25292e-05
1.25292e-05
1.25291e-05
1.25291e-05
1.25291e-05
1.25291e-05
1.25291e-05
1.25291e-05
1.25291e-05
1.25291e-05
1.25291e-05
1.25291e-05
1.25291e-05
1.25291e-05
1.25291e-05
1.25292e-05
1.25292e-05
1.25292e-05
1.25292e-05
1.25292e-05
1.25292e-05
1.25292e-05
1.25292e-05
1.25292e-05
1.25291e-05
1.25292e-05
1.25292e-05
1.25292e-05
1.25292e-05
1.25292e-05
1.25292e-05
1.25292e-05
1.25292e-05
1.20205e-05
1.20205e-05
1.20205e-05
1.20204e-05
1.20204e-05
1.20204e-05
1.20203e-05
1.20203e-05
1.20204e-05
1.20204e-05
1.20204e-05
1.20204e-05
1.20205e-05
1.20205e-05
1.20204e-05
1.20204e-05
1.20204e-05
1.20204e-05
1.20204e-05
1.20204e-05
1.20204e-05
1.20204e-05
1.20205e-05
1.20204e-05
1.20204e-05
1.20204e-05
1.20204e-05
1.20204e-05
1.20204e-05
1.20203e-05
1.20203e-05
1.20203e-05
1.20203e-05
1.20203e-05
1.20203e-05
1.20203e-05
1.20203e-05
1.20203e-05
1.20203e-05
1.20203e-05
1.20203e-05
1.20203e-05
1.20203e-05
1.20203e-05
1.20204e-05
1.20204e-05
1.20204e-05
1.20204e-05
1.20204e-05
1.20204e-05
1.20204e-05
1.20204e-05
1.20204e-05
1.20204e-05
1.20204e-05
1.20204e-05
1.20204e-05
1.20204e-05
1.20204e-05
1.20204e-05
1.15004e-05
1.15004e-05
1.15005e-05
1.15005e-05
1.15005e-05
1.15005e-05
1.15005e-05
1.15005e-05
1.15005e-05
1.15006e-05
1.15006e-05
1.15007e-05
1.15007e-05
1.15007e-05
1.15007e-05
1.15007e-05
1.15007e-05
1.15007e-05
1.15007e-05
1.15007e-05
1.15007e-05
1.15007e-05
1.15007e-05
1.15007e-05
1.15007e-05
1.15007e-05
1.15007e-05
1.15007e-05
1.15006e-05
1.15006e-05
1.15006e-05
1.15006e-05
1.15006e-05
1.15005e-05
1.15005e-05
1.15006e-05
1.15006e-05
1.15006e-05
1.15006e-05
1.15006e-05
1.15006e-05
1.15006e-05
1.15006e-05
1.15006e-05
1.15006e-05
1.15006e-05
1.15007e-05
1.15007e-05
1.15007e-05
1.15007e-05
1.15007e-05
1.15007e-05
1.15007e-05
1.15007e-05
1.15007e-05
1.15007e-05
1.15007e-05
1.15007e-05
1.15007e-05
1.15007e-05
1.09719e-05
1.09719e-05
1.09719e-05
1.0972e-05
1.0972e-05
1.09721e-05
1.09721e-05
1.09722e-05
1.09722e-05
1.09723e-05
1.09723e-05
1.09724e-05
1.09725e-05
1.09724e-05
1.09724e-05
1.09724e-05
1.09724e-05
1.09724e-05
1.09724e-05
1.09724e-05
1.09724e-05
1.09724e-05
1.09724e-05
1.09724e-05
1.09724e-05
1.09724e-05
1.09724e-05
1.09724e-05
1.09723e-05
1.09723e-05
1.09723e-05
1.09723e-05
1.09723e-05
1.09723e-05
1.09723e-05
1.09723e-05
1.09723e-05
1.09723e-05
1.09723e-05
1.09723e-05
1.09723e-05
1.09723e-05
1.09723e-05
1.09723e-05
1.09724e-05
1.09724e-05
1.09724e-05
1.09725e-05
1.09725e-05
1.09725e-05
1.09725e-05
1.09724e-05
1.09724e-05
1.09725e-05
1.09724e-05
1.09724e-05
1.09724e-05
1.09725e-05
1.09724e-05
1.09725e-05
1.0438e-05
1.0438e-05
1.04381e-05
1.04382e-05
1.04383e-05
1.04384e-05
1.04384e-05
1.04385e-05
1.04386e-05
1.04387e-05
1.04388e-05
1.04388e-05
1.04389e-05
1.04389e-05
1.04389e-05
1.04389e-05
1.04389e-05
1.04389e-05
1.04388e-05
1.04388e-05
1.04388e-05
1.04389e-05
1.04389e-05
1.04389e-05
1.04388e-05
1.04389e-05
1.04388e-05
1.04388e-05
1.04388e-05
1.04388e-05
1.04388e-05
1.04388e-05
1.04388e-05
1.04388e-05
1.04388e-05
1.04388e-05
1.04388e-05
1.04388e-05
1.04387e-05
1.04387e-05
1.04387e-05
1.04387e-05
1.04387e-05
1.04388e-05
1.04388e-05
1.04388e-05
1.04389e-05
1.0439e-05
1.0439e-05
1.0439e-05
1.04389e-05
1.04389e-05
1.04389e-05
1.04389e-05
1.04389e-05
1.04389e-05
1.04389e-05
1.04389e-05
1.04389e-05
1.04389e-05
9.90369e-06
9.90372e-06
9.90382e-06
9.90398e-06
9.90406e-06
9.90419e-06
9.90426e-06
9.9044e-06
9.90451e-06
9.90465e-06
9.90473e-06
9.90482e-06
9.90493e-06
9.9049e-06
9.9049e-06
9.90491e-06
9.90488e-06
9.90486e-06
9.90485e-06
9.90486e-06
9.90485e-06
9.90488e-06
9.90486e-06
9.90486e-06
9.90485e-06
9.90484e-06
9.90481e-06
9.90482e-06
9.90481e-06
9.90479e-06
9.90478e-06
9.90479e-06
9.90478e-06
9.90478e-06
9.90476e-06
9.90479e-06
9.90476e-06
9.90477e-06
9.90473e-06
9.90474e-06
9.9047e-06
9.9047e-06
9.90469e-06
9.9047e-06
9.90474e-06
9.90476e-06
9.90488e-06
9.90494e-06
9.90494e-06
9.90492e-06
9.90489e-06
9.90489e-06
9.90488e-06
9.90493e-06
9.90492e-06
9.90493e-06
9.90492e-06
9.90493e-06
9.90496e-06
9.90494e-06
1.10919e-05
1.10707e-05
1.10723e-05
1.10686e-05
1.10696e-05
1.10685e-05
1.109e-05
1.10899e-05
1.10739e-05
1.10706e-05
1.10921e-05
1.10705e-05
1.10923e-05
1.10911e-05
1.10733e-05
1.10714e-05
1.10917e-05
1.10723e-05
1.10709e-05
1.10913e-05
1.10893e-05
1.10937e-05
1.10722e-05
1.10719e-05
1.10705e-05
1.10681e-05
1.107e-05
1.10678e-05
1.10912e-05
1.1068e-05
1.10905e-05
1.10708e-05
1.10705e-05
1.10902e-05
1.10919e-05
1.10722e-05
1.10742e-05
1.10686e-05
1.10922e-05
1.10679e-05
1.1094e-05
1.10693e-05
1.10934e-05
1.10688e-05
1.10698e-05
1.10692e-05
1.10684e-05
1.10685e-05
1.107e-05
1.10707e-05
1.10885e-05
1.10915e-05
1.10701e-05
1.10929e-05
1.1071e-05
1.10724e-05
1.1091e-05
1.10934e-05
1.10722e-05
1.10919e-05
1.56745e-05
1.56812e-05
1.56868e-05
1.56858e-05
1.56852e-05
1.5685e-05
1.56772e-05
1.56705e-05
1.56817e-05
1.56859e-05
1.56772e-05
1.56832e-05
1.56779e-05
1.56726e-05
1.56821e-05
1.56864e-05
1.5677e-05
1.56836e-05
1.56868e-05
1.56786e-05
1.56718e-05
1.56725e-05
1.5682e-05
1.56857e-05
1.56866e-05
1.56851e-05
1.56855e-05
1.56846e-05
1.56767e-05
1.56815e-05
1.56747e-05
1.56812e-05
1.56856e-05
1.56767e-05
1.56724e-05
1.56804e-05
1.5688e-05
1.56859e-05
1.56775e-05
1.56815e-05
1.56769e-05
1.56819e-05
1.56773e-05
1.56818e-05
1.56842e-05
1.56845e-05
1.56843e-05
1.56843e-05
1.56848e-05
1.56869e-05
1.56767e-05
1.56721e-05
1.5681e-05
1.56764e-05
1.56817e-05
1.56867e-05
1.56777e-05
1.56742e-05
1.56833e-05
1.56768e-05
1.71412e-05
1.71475e-05
1.71537e-05
1.71555e-05
1.71547e-05
1.71547e-05
1.7147e-05
1.71374e-05
1.71457e-05
1.71534e-05
1.71445e-05
1.71505e-05
1.71453e-05
1.71389e-05
1.71466e-05
1.71539e-05
1.71445e-05
1.715e-05
1.71549e-05
1.71474e-05
1.71398e-05
1.71369e-05
1.71467e-05
1.71523e-05
1.7155e-05
1.71551e-05
1.71548e-05
1.71545e-05
1.71449e-05
1.71502e-05
1.71424e-05
1.71477e-05
1.71536e-05
1.71454e-05
1.71384e-05
1.71451e-05
1.71537e-05
1.71551e-05
1.71455e-05
1.71502e-05
1.71431e-05
1.71494e-05
1.71434e-05
1.71495e-05
1.71523e-05
1.71535e-05
1.71536e-05
1.71538e-05
1.71535e-05
1.71555e-05
1.71469e-05
1.71385e-05
1.71474e-05
1.71424e-05
1.71478e-05
1.71538e-05
1.71461e-05
1.71397e-05
1.71491e-05
1.71433e-05
1.76577e-05
1.76613e-05
1.76658e-05
1.76693e-05
1.76691e-05
1.76692e-05
1.76646e-05
1.76552e-05
1.76585e-05
1.76657e-05
1.76602e-05
1.7664e-05
1.76611e-05
1.76555e-05
1.76591e-05
1.76663e-05
1.76603e-05
1.7663e-05
1.76678e-05
1.76637e-05
1.7658e-05
1.76527e-05
1.76588e-05
1.76643e-05
1.76676e-05
1.76694e-05
1.76691e-05
1.76693e-05
1.76618e-05
1.76651e-05
1.76592e-05
1.76615e-05
1.76666e-05
1.76621e-05
1.76552e-05
1.76581e-05
1.76643e-05
1.76686e-05
1.76617e-05
1.76649e-05
1.76589e-05
1.76632e-05
1.76587e-05
1.76632e-05
1.76658e-05
1.76674e-05
1.76678e-05
1.76684e-05
1.76677e-05
1.7669e-05
1.76645e-05
1.76557e-05
1.76611e-05
1.76576e-05
1.76608e-05
1.76661e-05
1.76622e-05
1.76556e-05
1.76618e-05
1.76584e-05
1.77737e-05
1.77752e-05
1.77774e-05
1.77812e-05
1.77817e-05
1.77821e-05
1.77797e-05
1.77731e-05
1.77728e-05
1.77771e-05
1.77746e-05
1.77769e-05
1.77755e-05
1.77718e-05
1.77727e-05
1.77776e-05
1.77749e-05
1.77759e-05
1.77793e-05
1.77778e-05
1.77748e-05
1.77692e-05
1.7772e-05
1.77758e-05
1.77788e-05
1.77816e-05
1.77816e-05
1.77823e-05
1.77774e-05
1.7779e-05
1.77752e-05
1.77756e-05
1.77786e-05
1.77768e-05
1.77719e-05
1.77724e-05
1.7775e-05
1.77802e-05
1.77763e-05
1.77785e-05
1.77741e-05
1.77767e-05
1.77734e-05
1.77762e-05
1.77782e-05
1.77799e-05
1.77805e-05
1.77814e-05
1.77808e-05
1.77813e-05
1.77793e-05
1.77728e-05
1.7775e-05
1.77726e-05
1.77741e-05
1.77777e-05
1.77763e-05
1.77716e-05
1.77747e-05
1.77731e-05
1.7699e-05
1.76994e-05
1.77001e-05
1.77026e-05
1.77037e-05
1.77044e-05
1.77034e-05
1.77e-05
1.76976e-05
1.76997e-05
1.76986e-05
1.77e-05
1.76993e-05
1.76974e-05
1.76969e-05
1.76996e-05
1.76987e-05
1.76992e-05
1.77012e-05
1.77008e-05
1.76998e-05
1.76959e-05
1.76965e-05
1.76983e-05
1.77003e-05
1.77032e-05
1.77036e-05
1.77048e-05
1.77018e-05
1.77026e-05
1.77004e-05
1.76998e-05
1.77012e-05
1.77006e-05
1.76979e-05
1.76973e-05
1.76978e-05
1.77015e-05
1.76998e-05
1.77016e-05
1.76988e-05
1.77003e-05
1.76979e-05
1.76995e-05
1.77007e-05
1.77023e-05
1.77029e-05
1.7704e-05
1.77037e-05
1.77036e-05
1.77029e-05
1.76989e-05
1.76993e-05
1.76974e-05
1.7698e-05
1.76997e-05
1.76996e-05
1.7697e-05
1.76981e-05
1.76973e-05
1.75241e-05
1.75241e-05
1.75241e-05
1.75253e-05
1.75264e-05
1.75273e-05
1.75269e-05
1.75257e-05
1.75231e-05
1.75238e-05
1.75231e-05
1.75239e-05
1.75234e-05
1.75228e-05
1.75219e-05
1.75231e-05
1.7523e-05
1.75232e-05
1.75242e-05
1.75241e-05
1.75243e-05
1.75223e-05
1.75218e-05
1.75223e-05
1.75233e-05
1.75256e-05
1.75262e-05
1.75276e-05
1.75261e-05
1.75265e-05
1.75254e-05
1.75245e-05
1.75249e-05
1.75247e-05
1.75235e-05
1.75228e-05
1.7522e-05
1.75243e-05
1.75237e-05
1.75252e-05
1.75235e-05
1.75245e-05
1.75228e-05
1.75237e-05
1.75242e-05
1.75254e-05
1.7526e-05
1.7527e-05
1.7527e-05
1.75267e-05
1.75265e-05
1.75245e-05
1.75242e-05
1.75225e-05
1.75228e-05
1.75232e-05
1.75234e-05
1.75221e-05
1.75225e-05
1.75219e-05
1.72905e-05
1.72905e-05
1.72901e-05
1.72905e-05
1.72911e-05
1.7292e-05
1.72918e-05
1.72916e-05
1.72902e-05
1.72899e-05
1.72891e-05
1.72897e-05
1.72892e-05
1.72891e-05
1.72886e-05
1.72888e-05
1.72888e-05
1.72889e-05
1.72894e-05
1.72894e-05
1.729e-05
1.72892e-05
1.72885e-05
1.72885e-05
1.72889e-05
1.72902e-05
1.72907e-05
1.72921e-05
1.72915e-05
1.72919e-05
1.72913e-05
1.72908e-05
1.72905e-05
1.72904e-05
1.72899e-05
1.72895e-05
1.72884e-05
1.72896e-05
1.72893e-05
1.72905e-05
1.72896e-05
1.72903e-05
1.72892e-05
1.72896e-05
1.72898e-05
1.72905e-05
1.7291e-05
1.72917e-05
1.72921e-05
1.72918e-05
1.72917e-05
1.72909e-05
1.72905e-05
1.72891e-05
1.72892e-05
1.7289e-05
1.72892e-05
1.72885e-05
1.72886e-05
1.72881e-05
1.70176e-05
1.70176e-05
1.7017e-05
1.7017e-05
1.70172e-05
1.70178e-05
1.70177e-05
1.7018e-05
1.70174e-05
1.70169e-05
1.70161e-05
1.70164e-05
1.7016e-05
1.70161e-05
1.7016e-05
1.70156e-05
1.70157e-05
1.70157e-05
1.70158e-05
1.70158e-05
1.70164e-05
1.70161e-05
1.70157e-05
1.70155e-05
1.70157e-05
1.70162e-05
1.70166e-05
1.70176e-05
1.70175e-05
1.7018e-05
1.70177e-05
1.70175e-05
1.70171e-05
1.7017e-05
1.70167e-05
1.70167e-05
1.70158e-05
1.70163e-05
1.7016e-05
1.70169e-05
1.70164e-05
1.70169e-05
1.70162e-05
1.70165e-05
1.70165e-05
1.70168e-05
1.70172e-05
1.70175e-05
1.70181e-05
1.70179e-05
1.70178e-05
1.70175e-05
1.70174e-05
1.70164e-05
1.70165e-05
1.7016e-05
1.7016e-05
1.70155e-05
1.70156e-05
1.70152e-05
1.67147e-05
1.67146e-05
1.6714e-05
1.67137e-05
1.67137e-05
1.6714e-05
1.67139e-05
1.67144e-05
1.67141e-05
1.67138e-05
1.6713e-05
1.67133e-05
1.67129e-05
1.67131e-05
1.6713e-05
1.67127e-05
1.67125e-05
1.67125e-05
1.67125e-05
1.67124e-05
1.67129e-05
1.67128e-05
1.67127e-05
1.67125e-05
1.67126e-05
1.67128e-05
1.6713e-05
1.67136e-05
1.67136e-05
1.67142e-05
1.67141e-05
1.67142e-05
1.67139e-05
1.67137e-05
1.67136e-05
1.67137e-05
1.67131e-05
1.67132e-05
1.67129e-05
1.67135e-05
1.67132e-05
1.67136e-05
1.67132e-05
1.67134e-05
1.67134e-05
1.67135e-05
1.67137e-05
1.67139e-05
1.67143e-05
1.67142e-05
1.67141e-05
1.6714e-05
1.67141e-05
1.67135e-05
1.67136e-05
1.67132e-05
1.67129e-05
1.67125e-05
1.67125e-05
1.67123e-05
1.63862e-05
1.63861e-05
1.63856e-05
1.63852e-05
1.6385e-05
1.63851e-05
1.6385e-05
1.63854e-05
1.63853e-05
1.63851e-05
1.63846e-05
1.63847e-05
1.63845e-05
1.63846e-05
1.63846e-05
1.63843e-05
1.63841e-05
1.6384e-05
1.63839e-05
1.63837e-05
1.63841e-05
1.63841e-05
1.63841e-05
1.63841e-05
1.63841e-05
1.63841e-05
1.63843e-05
1.63846e-05
1.63846e-05
1.63851e-05
1.63851e-05
1.63853e-05
1.63852e-05
1.63849e-05
1.6385e-05
1.63851e-05
1.63847e-05
1.63847e-05
1.63845e-05
1.63848e-05
1.63846e-05
1.6385e-05
1.63847e-05
1.63849e-05
1.63848e-05
1.63849e-05
1.6385e-05
1.63851e-05
1.63854e-05
1.63853e-05
1.63851e-05
1.63852e-05
1.63853e-05
1.6385e-05
1.63851e-05
1.63848e-05
1.63845e-05
1.63841e-05
1.63841e-05
1.63839e-05
1.60348e-05
1.60347e-05
1.60342e-05
1.60338e-05
1.60335e-05
1.60334e-05
1.60333e-05
1.60336e-05
1.60335e-05
1.60335e-05
1.60331e-05
1.60332e-05
1.6033e-05
1.6033e-05
1.60331e-05
1.60329e-05
1.60327e-05
1.60325e-05
1.60324e-05
1.60321e-05
1.60324e-05
1.60324e-05
1.60326e-05
1.60326e-05
1.60326e-05
1.60327e-05
1.60327e-05
1.60328e-05
1.60329e-05
1.60332e-05
1.60332e-05
1.60335e-05
1.60334e-05
1.60333e-05
1.60334e-05
1.60335e-05
1.60333e-05
1.60332e-05
1.6033e-05
1.60332e-05
1.60331e-05
1.60334e-05
1.60332e-05
1.60333e-05
1.60333e-05
1.60333e-05
1.60335e-05
1.60335e-05
1.60337e-05
1.60336e-05
1.60335e-05
1.60335e-05
1.60337e-05
1.60334e-05
1.60336e-05
1.60334e-05
1.60331e-05
1.60328e-05
1.60328e-05
1.60326e-05
1.56617e-05
1.56617e-05
1.56613e-05
1.5661e-05
1.56605e-05
1.56604e-05
1.56602e-05
1.56604e-05
1.56604e-05
1.56603e-05
1.56601e-05
1.56602e-05
1.56601e-05
1.566e-05
1.56601e-05
1.566e-05
1.56598e-05
1.56596e-05
1.56595e-05
1.56592e-05
1.56594e-05
1.56595e-05
1.56596e-05
1.56596e-05
1.56597e-05
1.56597e-05
1.56597e-05
1.56598e-05
1.56598e-05
1.56601e-05
1.56601e-05
1.56603e-05
1.56603e-05
1.56602e-05
1.56603e-05
1.56604e-05
1.56603e-05
1.56602e-05
1.566e-05
1.56602e-05
1.56601e-05
1.56604e-05
1.56603e-05
1.56604e-05
1.56604e-05
1.56604e-05
1.56604e-05
1.56604e-05
1.56606e-05
1.56605e-05
1.56604e-05
1.56604e-05
1.56606e-05
1.56604e-05
1.56606e-05
1.56605e-05
1.56602e-05
1.56599e-05
1.56599e-05
1.56597e-05
1.52682e-05
1.52682e-05
1.52679e-05
1.52676e-05
1.52672e-05
1.52671e-05
1.52668e-05
1.52669e-05
1.52669e-05
1.52669e-05
1.52667e-05
1.52668e-05
1.52667e-05
1.52666e-05
1.52668e-05
1.52667e-05
1.52665e-05
1.52663e-05
1.52662e-05
1.52659e-05
1.52661e-05
1.52661e-05
1.52662e-05
1.52662e-05
1.52663e-05
1.52663e-05
1.52663e-05
1.52664e-05
1.52664e-05
1.52666e-05
1.52666e-05
1.52668e-05
1.52668e-05
1.52667e-05
1.52667e-05
1.52669e-05
1.52668e-05
1.52667e-05
1.52666e-05
1.52667e-05
1.52667e-05
1.52669e-05
1.52669e-05
1.52669e-05
1.52669e-05
1.52669e-05
1.5267e-05
1.5267e-05
1.52671e-05
1.52671e-05
1.52669e-05
1.5267e-05
1.52671e-05
1.5267e-05
1.52671e-05
1.5267e-05
1.52669e-05
1.52666e-05
1.52665e-05
1.52664e-05
1.48552e-05
1.48552e-05
1.4855e-05
1.48547e-05
1.48543e-05
1.48542e-05
1.48539e-05
1.4854e-05
1.4854e-05
1.48539e-05
1.48538e-05
1.48539e-05
1.48538e-05
1.48537e-05
1.48538e-05
1.48538e-05
1.48536e-05
1.48535e-05
1.48533e-05
1.48531e-05
1.48532e-05
1.48532e-05
1.48533e-05
1.48533e-05
1.48533e-05
1.48534e-05
1.48534e-05
1.48535e-05
1.48535e-05
1.48536e-05
1.48536e-05
1.48538e-05
1.48538e-05
1.48537e-05
1.48537e-05
1.48539e-05
1.48538e-05
1.48537e-05
1.48536e-05
1.48538e-05
1.48538e-05
1.48539e-05
1.48539e-05
1.4854e-05
1.4854e-05
1.4854e-05
1.4854e-05
1.4854e-05
1.48541e-05
1.48541e-05
1.4854e-05
1.4854e-05
1.48541e-05
1.4854e-05
1.48541e-05
1.48541e-05
1.4854e-05
1.48537e-05
1.48537e-05
1.48535e-05
1.44234e-05
1.44234e-05
1.44233e-05
1.4423e-05
1.44227e-05
1.44226e-05
1.44224e-05
1.44224e-05
1.44224e-05
1.44224e-05
1.44222e-05
1.44223e-05
1.44222e-05
1.44221e-05
1.44222e-05
1.44222e-05
1.44221e-05
1.44219e-05
1.44218e-05
1.44216e-05
1.44217e-05
1.44217e-05
1.44217e-05
1.44217e-05
1.44218e-05
1.44218e-05
1.44218e-05
1.44219e-05
1.44219e-05
1.4422e-05
1.4422e-05
1.44221e-05
1.44221e-05
1.44221e-05
1.44221e-05
1.44222e-05
1.44222e-05
1.44221e-05
1.4422e-05
1.44221e-05
1.44221e-05
1.44223e-05
1.44223e-05
1.44223e-05
1.44223e-05