/*--------------------------------*- C++ -*----------------------------------*\
| =========                 |                                                 |
| \\      /  F ield         | OpenFOAM: The Open Source CFD Toolbox           |
|  \\    /   O peration     | Version:  2312                                  |
|   \\  /    A nd           | Website:  www.openfoam.com                      |
|    \\/     M anipulation  |                                                 |
\*---------------------------------------------------------------------------*/
FoamFile
{
    version     2.0;
    format      ascii;
    arch        "LSB;label=32;scalar=64";
    class       volScalarField;
    location    "300";
    object      p;
}
// * * * * * * * * * * * * * * * * * * * * * * * * * * * * * * * * * * * * * //

dimensions      [0 2 -2 0 0 0 0];

internalField   nonuniform List<scalar> 
144000
(
6.50378e-09
-1.86116e-08
-1.41109e-07
-1.83623e-07
5.91284e-08
-1.60898e-08
-5.63616e-08
1.90778e-07
2.27905e-07
5.90203e-08
-8.36673e-09
-4.62379e-10
-8.58597e-08
-1.40729e-07
-2.76758e-08
1.78836e-07
7.61275e-08
-9.96239e-08
-1.91099e-07
1.46688e-08
3.3015e-07
1.59093e-07
-1.07427e-07
6.19243e-08
5.54849e-08
-1.69786e-07
5.4247e-08
-1.31389e-08
-1.75819e-07
9.5236e-08
1.09144e-07
1.09763e-07
1.70117e-08
1.1128e-08
2.48017e-07
2.67553e-07
1.56834e-08
4.32601e-08
1.54083e-07
-1.08357e-07
1.13808e-07
1.82877e-07
-3.63963e-09
-5.83538e-08
1.00664e-08
2.61839e-07
1.37301e-07
-8.72022e-08
-8.67375e-08
-1.42135e-07
-1.80178e-07
1.36076e-07
9.82666e-08
-2.25936e-07
-4.69514e-08
1.85967e-07
7.77753e-08
-3.68123e-08
-4.07861e-08
-2.55176e-08
6.62998e-09
-1.80794e-08
-1.39459e-07
-1.68453e-07
5.71679e-08
-1.50511e-08
-4.16606e-08
1.88192e-07
2.10822e-07
4.45718e-08
-6.56711e-09
2.45401e-10
-8.47235e-08
-1.23517e-07
-1.48106e-08
1.5993e-07
6.12966e-08
-9.66314e-08
-1.73865e-07
2.66009e-08
3.10477e-07
1.46415e-07
-8.8862e-08
5.97551e-08
4.12836e-08
-1.52036e-07
5.20095e-08
-2.76813e-08
-1.59203e-07
9.37611e-08
1.08956e-07
1.09639e-07
1.79305e-08
2.62119e-08
2.45322e-07
2.52e-07
1.79696e-08
4.15714e-08
1.39996e-07
-9.08415e-08
1.11402e-07
1.67317e-07
-1.29853e-09
-4.03721e-08
2.26862e-08
2.42918e-07
1.23187e-07
-8.54317e-08
-8.61487e-08
-1.40407e-07
-1.64892e-07
1.33029e-07
8.39966e-08
-2.07214e-07
-3.41476e-08
1.66742e-07
6.30249e-08
-3.53429e-08
-4.02229e-08
-2.55848e-08
6.39993e-09
-1.758e-08
-1.36379e-07
-1.63278e-07
5.39759e-08
-1.30273e-08
-3.69342e-08
1.83261e-07
2.0301e-07
4.10639e-08
-3.63708e-09
1.24359e-09
-8.27014e-08
-1.15294e-07
-1.32515e-08
1.49109e-07
5.69817e-08
-9.10689e-08
-1.65115e-07
2.68375e-08
2.98441e-07
1.44791e-07
-7.98534e-08
5.55396e-08
3.80761e-08
-1.43995e-07
4.80264e-08
-3.11218e-08
-1.51983e-07
9.14763e-08
1.08254e-07
1.09487e-07
1.98636e-08
3.12533e-08
2.40219e-07
2.46101e-07
2.15718e-08
3.90393e-08
1.36705e-07
-8.26458e-08
1.0696e-07
1.61603e-07
3.12861e-09
-3.13705e-08
2.39838e-08
2.31918e-07
1.19503e-07
-8.23677e-08
-8.52886e-08
-1.36922e-07
-1.59816e-07
1.27473e-07
8.03351e-08
-1.97052e-07
-3.23788e-08
1.5628e-07
5.87171e-08
-3.28526e-08
-3.90115e-08
-2.5597e-08
5.97216e-09
-1.7465e-08
-1.32196e-07
-1.59172e-07
4.98236e-08
-1.02488e-08
-3.37564e-08
1.76048e-07
1.95985e-07
4.01786e-08
-2.4086e-10
2.44506e-09
-7.97742e-08
-1.08278e-07
-1.44906e-08
1.38022e-07
5.46417e-08
-8.41665e-08
-1.56219e-07
2.44781e-08
2.8559e-07
1.45427e-07
-7.13e-08
5.02106e-08
3.70465e-08
-1.36583e-07
4.25936e-08
-3.17356e-08
-1.45358e-07
8.83884e-08
1.0729e-07
1.09241e-07
2.34537e-08
3.46986e-08
2.32902e-07
2.40993e-07
2.56973e-08
3.63424e-08
1.35182e-07
-7.45425e-08
1.01053e-07
1.5722e-07
8.686e-09
-2.31611e-08
2.2884e-08
2.20274e-07
1.1771e-07
-7.8259e-08
-8.45112e-08
-1.32155e-07
-1.55664e-07
1.19635e-07
7.83619e-08
-1.86507e-07
-3.34702e-08
1.45931e-07
5.6484e-08
-2.98474e-08
-3.76074e-08
-2.53463e-08
5.45766e-09
-1.76588e-08
-1.26987e-07
-1.5425e-07
4.51596e-08
-6.9758e-09
-3.03681e-08
1.6731e-07
1.88101e-07
3.96395e-08
3.33495e-09
3.99795e-09
-7.60023e-08
-1.00438e-07
-1.62847e-08
1.25395e-07
5.21794e-08
-7.63936e-08
-1.45646e-07
2.18851e-08
2.7084e-07
1.45984e-07
-6.17566e-08
4.4105e-08
3.60967e-08
-1.2825e-07
3.61588e-08
-3.14803e-08
-1.37815e-07
8.46642e-08
1.0614e-07
1.08893e-07
2.8052e-08
3.82671e-08
2.23897e-07
2.34765e-07
3.0903e-08
3.3561e-08
1.3343e-07
-6.5012e-08
9.41389e-08
1.52178e-07
1.48021e-08
-1.4065e-08
2.1694e-08
2.06683e-07
1.15697e-07
-7.32995e-08
-8.37547e-08
-1.26269e-07
-1.50528e-07
1.09792e-07
7.66774e-08
-1.73852e-07
-3.52775e-08
1.33684e-07
5.41935e-08
-2.65942e-08
-3.60215e-08
-2.47962e-08
4.89682e-09
-1.80112e-08
-1.20924e-07
-1.48643e-07
3.98439e-08
-3.45036e-09
-2.6877e-08
1.57561e-07
1.79636e-07
3.9159e-08
6.75197e-09
5.94895e-09
-7.15486e-08
-9.18302e-08
-1.82884e-08
1.12399e-07
4.95147e-08
-6.81667e-08
-1.33892e-07
1.94264e-08
2.54705e-07
1.46147e-07
-5.16325e-08
3.76126e-08
3.50615e-08
-1.19315e-07
2.92557e-08
-3.04985e-08
-1.29639e-07
8.04923e-08
1.04829e-07
1.08479e-07
3.30543e-08
4.18617e-08
2.13895e-07
2.27492e-07
3.70546e-08
3.079e-08
1.31351e-07
-5.4373e-08
8.66681e-08
1.46598e-07
2.09931e-08
-4.37436e-09
2.0763e-08
1.91735e-07
1.1332e-07
-6.77462e-08
-8.29518e-08
-1.19547e-07
-1.44532e-07
9.88194e-08
7.47152e-08
-1.60143e-07
-3.74482e-08
1.20615e-07
5.16664e-08
-2.33196e-08
-3.42465e-08
-2.40052e-08
4.28944e-09
-1.84043e-08
-1.14267e-07
-1.42635e-07
3.40805e-08
1.46837e-10
-2.34527e-08
1.47195e-07
1.70927e-07
3.87581e-08
9.71299e-09
8.20063e-09
-6.66409e-08
-8.33448e-08
-2.0371e-08
9.90153e-08
4.66366e-08
-5.98717e-08
-1.21606e-07
1.72405e-08
2.38147e-07
1.45714e-07
-4.14099e-08
3.11248e-08
3.39333e-08
-1.10179e-07
2.23074e-08
-2.8823e-08
-1.21112e-07
7.60081e-08
1.03336e-07
1.08019e-07
3.83236e-08
4.53502e-08
2.03379e-07
2.19425e-07
4.37934e-08
2.82279e-08
1.28961e-07
-4.2898e-08
7.89768e-08
1.40787e-07
2.7047e-08
5.45276e-09
2.02326e-08
1.76181e-07
1.1063e-07
-6.17992e-08
-8.2069e-08
-1.12379e-07
-1.37967e-07
8.7226e-08
7.25823e-08
-1.46163e-07
-3.97572e-08
1.07625e-07
4.89508e-08
-2.01775e-08
-3.23568e-08
-2.30931e-08
3.61559e-09
-1.87661e-08
-1.07277e-07
-1.36371e-07
2.81493e-08
3.63985e-09
-2.00958e-08
1.36505e-07
1.62078e-07
3.84696e-08
1.20794e-08
1.0604e-08
-6.14882e-08
-7.5287e-08
-2.22902e-08
8.59e-08
4.36428e-08
-5.17816e-08
-1.09218e-07
1.54259e-08
2.21537e-07
1.44626e-07
-3.13254e-08
2.4941e-08
3.26401e-08
-1.01016e-07
1.55916e-08
-2.65958e-08
-1.12329e-07
7.13214e-08
1.01618e-07
1.07501e-07
4.37736e-08
4.87909e-08
1.92654e-07
2.10743e-07
5.07638e-08
2.60543e-08
1.26195e-07
-3.10123e-08
7.15124e-08
1.34851e-07
3.26999e-08
1.47924e-08
2.02374e-08
1.60582e-07
1.07593e-07
-5.55709e-08
-8.10433e-08
-1.05121e-07
-1.3102e-07
7.54082e-08
7.022e-08
-1.32315e-07
-4.1955e-08
9.50178e-08
4.60708e-08
-1.72376e-08
-3.04219e-08
-2.21756e-08
2.85873e-09
-1.90552e-08
-1.0016e-07
-1.29947e-07
2.22474e-08
6.92191e-09
-1.67669e-08
1.25708e-07
1.53157e-07
3.83172e-08
1.38423e-08
1.30407e-08
-5.62227e-08
-6.77383e-08
-2.38616e-08
7.34284e-08
4.06751e-08
-4.40778e-08
-9.69932e-08
1.40156e-08
2.05248e-07
1.42876e-07
-2.1643e-08
1.92556e-08
3.11297e-08
-9.18798e-08
9.28321e-09
-2.39919e-08
-1.03388e-07
6.65505e-08
9.96464e-08
1.06878e-07
4.9298e-08
5.22214e-08
1.82224e-07
2.01634e-07
5.76642e-08
2.43144e-08
1.22965e-07
-1.90824e-08
6.45662e-08
1.28849e-07
3.77637e-08
2.33808e-08
2.08393e-08
1.45339e-07
1.04175e-07
-4.91437e-08
-7.97808e-08
-9.80184e-08
-1.23833e-07
6.37083e-08
6.7539e-08
-1.18855e-07
-4.38045e-08
8.28867e-08
4.30779e-08
-1.4523e-08
-2.84758e-08
-2.13071e-08
2.02096e-09
-1.92499e-08
-9.3073e-08
-1.23438e-07
1.64996e-08
9.90647e-09
-1.34517e-08
1.15001e-07
1.44296e-07
3.83026e-08
1.50662e-08
1.54234e-08
-5.09148e-08
-6.07365e-08
-2.49891e-08
6.18092e-08
3.77363e-08
-3.6874e-08
-8.51071e-08
1.30136e-08
1.8954e-07
1.40473e-07
-1.24292e-08
1.41949e-08
2.9456e-08
-8.29017e-08
3.50383e-09
-2.11875e-08
-9.4439e-08
6.18282e-08
9.74256e-08
1.06099e-07
5.47507e-08
5.55298e-08
1.72046e-07
1.92285e-07
6.42587e-08
2.31636e-08
1.19255e-07
-6.94964e-09
5.80743e-08
1.22858e-07
4.21498e-08
3.10306e-08
2.2024e-08
1.30796e-07
1.00359e-07
-4.26132e-08
-7.81912e-08
-9.12308e-08
-1.16525e-07
5.23882e-08
6.44754e-08
-1.05971e-07
-4.52387e-08
7.13776e-08
4.00482e-08
-1.2035e-08
-2.65328e-08
-2.04831e-08
1.11745e-09
-1.93421e-08
-8.61277e-08
-1.169e-07
1.09963e-08
1.25101e-08
-1.01627e-08
1.04579e-07
1.35587e-07
3.84e-08
1.58217e-08
1.76679e-08
-4.56077e-08
-5.42984e-08
-2.56397e-08
5.11563e-08
3.48015e-08
-3.02449e-08
-7.37582e-08
1.24152e-08
1.7458e-07
1.3744e-07
-3.77113e-09
9.86215e-09
2.76614e-08
-7.41698e-08
-1.65189e-09
-1.8339e-08
-8.55944e-08
5.72632e-08
9.49964e-08
1.05125e-07
5.99754e-08
5.8651e-08
1.62387e-07
1.82851e-07
7.03604e-08
2.30022e-08
1.15118e-07
4.46627e-09
5.28348e-08
1.16963e-07
4.58431e-08
3.76433e-08
2.37267e-08
1.17184e-07
9.6141e-08
-3.6096e-08
-7.62035e-08
-8.48634e-08
-1.09203e-07
4.16716e-08
6.10008e-08
-9.38128e-08
-4.62325e-08
6.02983e-08
3.70214e-08
-9.76625e-09
-2.46007e-08
-1.96791e-08
1.6826e-10
-1.933e-08
-7.94e-08
-1.10375e-07
5.80999e-09
1.46647e-08
-6.92234e-09
9.46104e-08
1.27223e-07
3.85708e-08
1.61781e-08
1.96879e-08
-4.03391e-08
-4.84147e-08
-2.58186e-08
4.15306e-08
3.18677e-08
-2.42508e-08
-6.30645e-08
1.2205e-08
1.60485e-07
1.33825e-07
4.25742e-09
6.32351e-09
2.5754e-08
-6.57677e-08
-6.07339e-09
-1.55616e-08
-7.6923e-08
5.29222e-08
9.242e-08
1.03933e-07
6.48412e-08
6.15787e-08
1.53389e-07
1.73458e-07
7.58143e-08
2.32579e-08
1.10611e-07
1.52772e-08
4.84783e-08
1.1124e-07
4.88692e-08
4.31826e-08
2.58478e-08
1.04655e-07
9.1537e-08
-2.97186e-08
-7.37711e-08
-7.89781e-08
-1.01963e-07
3.173e-08
5.71233e-08
-8.24904e-08
-4.67625e-08
4.99952e-08
3.39917e-08
-7.76668e-09
-2.26929e-08
-1.88762e-08
-8.02927e-10
-1.92194e-08
-7.29424e-08
-1.0389e-07
9.99851e-10
1.63278e-08
-3.75694e-09
8.52111e-08
1.18686e-07
3.87838e-08
1.62217e-08
2.14016e-08
-3.51482e-08
-4.30518e-08
-2.55537e-08
3.29572e-08
2.89482e-08
-1.88982e-08
-5.30986e-08
1.23486e-08
1.47327e-07
1.297e-07
1.16042e-08
3.59944e-09
2.37441e-08
-5.77519e-08
-9.7138e-09
-1.29276e-08
-6.84766e-08
4.8875e-08
8.97629e-08
1.02521e-07
6.92552e-08
6.43044e-08
1.45111e-07
1.64219e-07
8.07393e-08
2.4399e-08
1.05811e-07
2.5318e-08
4.51504e-08
1.05749e-07
5.12778e-08
4.76626e-08
2.82639e-08
9.33108e-08
8.65875e-08
-2.36026e-08
-7.08774e-08
-7.35981e-08
-9.48838e-08
2.26814e-08
5.28835e-08
-7.20811e-08
-4.6826e-08
4.0325e-08
3.09321e-08
-6.08274e-09
-2.08372e-08
-1.80721e-08
-1.77824e-09
-1.90337e-08
-6.6803e-08
-9.74603e-08
-3.38323e-09
1.74856e-08
-6.98656e-10
7.64643e-08
1.10314e-07
3.9007e-08
1.60266e-08
2.27491e-08
-3.00795e-08
-3.81611e-08
-2.48778e-08
2.54335e-08
2.60603e-08
-1.419e-08
-4.38894e-08
1.27934e-08
1.3514e-07
1.25156e-07
1.8237e-08
1.67498e-09
2.16586e-08
-5.01884e-08
-1.25742e-08
-1.04749e-08
-6.02973e-08
4.51891e-08
8.70835e-08
1.00903e-07
7.31623e-08
6.68189e-08
1.37567e-07
1.55231e-07
8.45804e-08
2.61246e-08
1.00821e-07
3.44681e-08
4.28505e-08
1.00516e-07
5.31714e-08
5.11653e-08
3.08414e-08
8.32056e-08
8.13593e-08
-1.78594e-08
-6.75417e-08
-6.87264e-08
-8.80279e-08
1.45973e-08
4.83526e-08
-6.26367e-08
-4.64238e-08
3.18815e-08
2.78594e-08
-4.73367e-09
-1.90749e-08
-1.72774e-08
-2.7398e-09
-1.88154e-08
-6.10226e-08
-9.10987e-08
-7.29552e-09
1.82097e-08
2.2139e-09
6.84249e-08
1.02119e-07
3.92013e-08
1.56642e-08
2.3709e-08
-2.51844e-08
-3.36772e-08
-2.38008e-08
1.89358e-08
2.32222e-08
-1.01272e-08
-3.54541e-08
1.34795e-08
1.2394e-07
1.20291e-07
2.41381e-08
5.0831e-10
1.95427e-08
-4.31174e-08
-1.46855e-08
-8.21914e-09
-5.24215e-08
4.19127e-08
8.44294e-08
9.9096e-08
7.65354e-08
6.91281e-08
1.3074e-07
1.46591e-07
8.75522e-08
2.83789e-08
9.57586e-08
4.26353e-08
4.15161e-08
9.55713e-08
5.46535e-08
5.37791e-08
3.34533e-08
7.43458e-08
7.59405e-08
-1.25818e-08
-6.38195e-08
-6.43301e-08
-8.14419e-08
7.51004e-09
4.36269e-08
-5.41817e-08
-4.55923e-08
2.41186e-08
2.48086e-08
-3.68419e-09
-1.74533e-08
-1.64829e-08
-3.64937e-09
-1.86131e-08
-5.56437e-08
-8.48178e-08
-1.07066e-08
1.84879e-08
4.93768e-09
6.11249e-08
9.41404e-08
3.93266e-08
1.52064e-08
2.42705e-08
-2.05177e-08
-2.95446e-08
-2.23815e-08
1.34274e-08
2.04605e-08
-6.66908e-09
-2.78016e-08
1.43484e-08
1.13723e-07
1.15199e-07
2.93023e-08
3.95453e-11
1.7455e-08
-3.65727e-08
-1.60844e-08
-6.1673e-09
-4.48814e-08
3.90767e-08
8.184e-08
9.71278e-08
7.93649e-08
7.12256e-08
1.24586e-07
1.38392e-07
8.96696e-08
3.10554e-08
9.07328e-08
4.97564e-08
4.10498e-08
9.09513e-08
5.57955e-08
5.56055e-08
3.59869e-08
6.67666e-08
7.04384e-08
-7.8273e-09
-5.97892e-08
-6.03624e-08
-7.51612e-08
1.41688e-09
3.88205e-08
-4.66892e-08
-4.43877e-08
1.71956e-08
2.18054e-08
-2.91113e-09
-1.60072e-08
-1.56471e-08
-4.50291e-09
-1.84626e-08
-5.06767e-08
-7.86385e-08
-1.36029e-08
1.83664e-08
7.43038e-09
5.458e-08
8.6414e-08
3.93392e-08
1.47193e-08
2.44378e-08
-1.61316e-08
-2.57234e-08
-2.06818e-08
8.86476e-09
1.78101e-08
-3.78252e-09
-2.09309e-08
1.53445e-08
1.04464e-07
1.0997e-07
3.37385e-08
1.97052e-10
1.54574e-08
-3.05717e-08
-1.68223e-08
-4.32575e-09
-3.77062e-08
3.66969e-08
7.93482e-08
9.50294e-08
8.16523e-08
7.3097e-08
1.19049e-07
1.30711e-07
9.09698e-08
3.40293e-08
8.58452e-08
5.58014e-08
4.13306e-08
8.66742e-08
5.66681e-08
5.67585e-08
3.83456e-08
6.02717e-08
6.49687e-08
-3.63205e-09
-5.55364e-08
-5.67512e-08
-6.92142e-08
-3.71545e-09
3.40484e-08
-4.01033e-08
-4.288e-08
1.10795e-08
1.88644e-08
-2.41038e-09
-1.47511e-08
-1.47614e-08
-5.29832e-09
-1.83803e-08
-4.61223e-08
-7.25896e-08
-1.59871e-08
1.78891e-08
9.65717e-09
4.87852e-08
7.9015e-08
3.91952e-08
1.42582e-08
2.42407e-08
-1.20737e-08
-2.21829e-08
-1.87308e-08
5.19682e-09
1.53095e-08
-1.27325e-09
-1.48302e-08
1.64138e-08
9.61171e-08
1.04687e-07
3.74704e-08
8.98366e-10
1.36082e-08
-2.51152e-08
-1.69613e-08
-2.68382e-09
-3.09225e-08
3.47742e-08
7.69806e-08
9.28361e-08
8.34076e-08
7.47463e-08
1.1408e-07
1.23603e-07
9.15158e-08
3.7181e-08
8.11836e-08
6.07722e-08
4.2223e-08
8.27381e-08
5.73347e-08
5.73549e-08
4.04567e-08
5.48499e-08
5.96396e-08
-2.6116e-11
-5.11434e-08
-5.34166e-08
-6.36229e-08
-7.94674e-09
2.94064e-08
-3.43851e-08
-4.11396e-08
5.72094e-09
1.59988e-08
-2.16513e-09
-1.36824e-08
-1.38296e-08
-6.01924e-09
-1.83681e-08
-4.19804e-08
-6.67046e-08
-1.78739e-08
1.71053e-08
1.15944e-08
4.37265e-08
7.19959e-08
3.88556e-08
1.38647e-08
2.37192e-08
-8.3816e-09
-1.89026e-08
-1.66334e-08
2.36599e-09
1.29922e-08
7.57605e-10
-9.4743e-09
1.75045e-08
8.86257e-08
9.94262e-08
4.05335e-08
2.05725e-09
1.19515e-08
-2.02008e-08
-1.6567e-08
-1.21685e-09
-2.45518e-08
3.32942e-08
7.47563e-08
9.0587e-08
8.46486e-08
7.60495e-08
1.09627e-07
1.17101e-07
9.13863e-08
4.04155e-08
7.68231e-08
6.46961e-08
4.35904e-08
7.91589e-08
5.78436e-08
5.75068e-08
4.22686e-08
5.04086e-08
5.45456e-08
2.98617e-09
-4.66909e-08
-5.02871e-08
-5.84003e-08
-1.13577e-08
2.49551e-08
-2.94727e-08
-3.92232e-08
1.06302e-09
1.32195e-08
-2.14879e-09
-1.27905e-08
-1.28499e-08
-6.6583e-09
-1.84148e-08
-3.82464e-08
-6.10179e-08
-1.92846e-08
1.60726e-08
1.32285e-08
3.93744e-08
6.53584e-08
3.8296e-08
1.35635e-08
2.29223e-08
-5.07966e-09
-1.58693e-08
-1.44214e-08
3.09755e-10
1.08927e-08
2.38534e-09
-4.82202e-09
1.85742e-08
8.19179e-08
9.42544e-08
4.29717e-08
3.59715e-09
1.05257e-08
-1.58136e-08
-1.57071e-08
1.02253e-10
-1.86083e-08
3.2225e-08
7.26837e-08
8.83273e-08
8.54066e-08
7.71258e-08
1.05636e-07
1.11218e-07
9.06698e-08
4.36012e-08
7.28221e-08
6.76221e-08
4.53022e-08
7.59464e-08
5.82278e-08
5.73205e-08
4.37553e-08
4.68311e-08
4.97696e-08
5.44233e-09
-4.2258e-08
-4.73044e-08
-5.35512e-08
-1.404e-08
2.07318e-08
-2.52862e-08
-3.71711e-08
-2.95477e-09
1.05308e-08
-2.31749e-09
-1.20664e-08
-1.18437e-08
-7.20257e-09
-1.84986e-08
-3.49109e-08
-5.55627e-08
-2.02457e-08
1.48496e-08
1.45538e-08
3.56858e-08
5.91885e-08
3.75127e-08
1.33617e-08
2.19086e-08
-2.1776e-09
-1.3074e-08
-1.21578e-08
-1.04608e-09
9.04929e-09
3.67184e-09
-8.16305e-10
1.96037e-08
7.59111e-08
8.92231e-08
4.48331e-08
5.40649e-09
9.36564e-09
-1.1927e-08
-1.44511e-08
1.31288e-09
-1.30998e-08
3.15188e-08
7.07525e-08
8.61073e-08
8.57257e-08
7.79649e-08
1.02053e-07
1.05954e-07
8.94652e-08
4.666e-08
6.92208e-08
6.962e-08
4.72331e-08
7.30958e-08
5.85075e-08
5.68961e-08
4.49073e-08
4.39888e-08
4.53766e-08
7.37852e-09
-3.79136e-08
-4.44255e-08
-4.90734e-08
-1.60866e-08
1.67824e-08
-2.17432e-08
-3.5036e-08
-6.38747e-09
7.93986e-09
-2.63061e-09
-1.15081e-08
-1.08527e-08
-7.63858e-09
-1.85924e-08
-3.19577e-08
-5.03692e-08
-2.07895e-08
1.3493e-08
1.55717e-08
3.26055e-08
5.35095e-08
3.65109e-08
1.32547e-08
2.07414e-08
3.24628e-10
-1.05108e-08
-9.91248e-09
-1.81199e-09
7.50307e-09
4.67761e-09
2.60764e-09
2.05772e-08
7.05224e-08
8.43736e-08
4.61733e-08
7.41736e-09
8.48861e-09
-8.50551e-09
-1.28691e-08
2.43654e-09
-8.02782e-09
3.11211e-08
6.89393e-08
8.39757e-08
8.56633e-08
7.85706e-08
9.88218e-08
1.01274e-07
8.78769e-08
4.95169e-08
6.60448e-08
7.07808e-08
4.92607e-08
7.05874e-08
5.86844e-08
5.63232e-08
4.57342e-08
4.17669e-08
4.14084e-08
8.84064e-09
-3.37139e-08
-4.16178e-08
-4.49575e-08
-1.75874e-08
1.31271e-08
-1.87647e-08
-3.28641e-08
-9.27673e-09
5.46597e-09
-3.05154e-09
-1.11147e-08
-9.92199e-09
-7.96027e-09
-1.86686e-08
-2.93653e-08
-4.54637e-08
-2.09546e-08
1.2056e-08
1.62927e-08
3.00679e-08
4.83391e-08
3.53065e-08
1.32306e-08
1.94825e-08
2.43997e-09
-8.17645e-09
-7.74827e-09
-2.09777e-09
6.28697e-09
5.46211e-09
5.5101e-09
2.14688e-08
6.56765e-08
7.97375e-08
4.70552e-08
9.55496e-09
7.8971e-09
-5.50562e-09
-1.10295e-08
3.50585e-09
-3.38832e-09
3.09787e-08
6.7233e-08
8.19652e-08
8.52858e-08
7.89534e-08
9.58844e-08
9.71488e-08
8.60089e-08
5.21141e-08
6.33073e-08
7.12234e-08
5.12738e-08
6.8393e-08
5.87627e-08
5.56731e-08
4.62609e-08
4.00541e-08
3.78856e-08
9.88676e-09
-2.97034e-08
-3.88653e-08
-4.11873e-08
-1.86242e-08
9.77991e-09
-1.62744e-08
-3.06956e-08
-1.16628e-08
3.11894e-09
-3.54006e-09
-1.08709e-08
-9.09927e-09
-8.17184e-09
-1.8702e-08
-2.71085e-08
-4.08657e-08
-2.07838e-08
1.05657e-08
1.67355e-08
2.80019e-08
4.36807e-08
3.39259e-08
1.32758e-08
1.8185e-08
4.19158e-09
-6.06822e-09
-5.71232e-09
-1.98033e-09
5.41144e-09
6.0896e-09
7.94618e-09
2.226e-08
6.13066e-08
7.53287e-08
4.75429e-08
1.17525e-08
7.58337e-09
-2.88358e-09
-8.9972e-09
4.54544e-09
8.31502e-10
3.10444e-08
6.56244e-08
8.00889e-08
8.46579e-08
7.9131e-08
9.31844e-08
9.35168e-08
8.39606e-08
5.44161e-08
6.10079e-08
7.10553e-08
5.32027e-08
6.64855e-08
5.87513e-08
5.49965e-08
4.6521e-08
3.87489e-08
3.48117e-08
1.05833e-08
-2.59148e-08
-3.61614e-08
-3.77414e-08
-1.92686e-08
6.74834e-09
-1.42009e-08
-2.85589e-08
-1.35885e-08
8.98753e-10
-4.05351e-09
-1.07287e-08
-8.42626e-09
-8.28105e-09
-1.86691e-08
-2.51632e-08
-3.65874e-08
-2.03221e-08
9.16198e-09
1.69263e-08
2.63336e-08
3.95238e-08
3.24033e-08
1.33797e-08
1.68886e-08
5.60769e-09
-4.17634e-09
-3.83427e-09
-1.53225e-09
4.86424e-09
6.60279e-09
9.9688e-09
2.2948e-08
5.73546e-08
7.11521e-08
4.77002e-08
1.39561e-08
7.53227e-09
-5.91516e-10
-6.83354e-09
5.57542e-09
4.65604e-09
3.12768e-08
6.41e-08
7.83493e-08
8.38374e-08
7.9128e-08
9.06717e-08
9.03089e-08
8.18175e-08
5.64049e-08
5.91331e-08
7.03866e-08
5.49146e-08
6.48403e-08
5.86559e-08
5.4326e-08
4.6558e-08
3.77632e-08
3.21706e-08
1.09973e-08
-2.23682e-08
-3.35108e-08
-3.45931e-08
-1.95819e-08
4.02595e-09
-1.24783e-08
-2.64702e-08
-1.50959e-08
-1.19813e-09
-4.5855e-09
-1.06623e-08
-7.93526e-09
2.16594e-07
8.76178e-08
-1.41891e-07
-1.06322e-07
-4.9802e-08
-1.59639e-07
-1.84882e-09
3.06518e-07
4.97048e-08
-1.9645e-07
5.45029e-08
-2.46521e-08
-7.10804e-08
2.28001e-07
3.47392e-08
-1.82416e-07
5.52839e-08
1.12521e-08
-2.2405e-07
1.0755e-08
2.79303e-07
2.80511e-07
7.75472e-08
-4.23678e-08
-5.19616e-08
-5.50013e-08
-2.08489e-08
-1.3163e-07
4.26892e-08
7.83702e-08
1.24859e-07
1.58952e-07
-1.09032e-07
9.97076e-08
3.3312e-07
1.38937e-07
-1.07683e-07
-8.47228e-08
1.40933e-07
8.55579e-08
1.29019e-07
8.21643e-08
5.32789e-08
1.63201e-07
2.66906e-08
3.56677e-08
1.27935e-08
-2.89096e-08
-9.42937e-08
-2.56466e-07
-6.74501e-08
2.48461e-07
-2.57326e-08
-2.38798e-09
5.65399e-08
-2.0688e-07
-5.02585e-08
1.58535e-07
-7.05829e-08
-9.00196e-08
1.98076e-07
7.39723e-08
-1.39821e-07
-1.06308e-07
-4.843e-08
-1.42451e-07
9.89492e-09
2.87123e-07
3.71377e-08
-1.78904e-07
5.33891e-08
-2.31042e-08
-5.73761e-08
2.09106e-07
2.17413e-08
-1.6471e-07
5.30057e-08
-2.95215e-09
-2.0582e-07
2.38932e-08
2.76178e-07
2.63624e-07
6.38626e-08
-4.05244e-08
-5.09607e-08
-5.51208e-08
-1.93692e-08
-1.15799e-07
4.08132e-08
7.81609e-08
1.22867e-07
1.44505e-07
-9.00932e-08
1.11963e-07
3.14438e-07
1.24865e-07
-1.04696e-07
-6.90392e-08
1.39839e-07
8.53547e-08
1.28683e-07
8.29541e-08
5.18218e-08
1.47822e-07
2.81823e-08
3.61565e-08
1.33315e-08
-2.8528e-08
-9.26822e-08
-2.39335e-07
-5.62196e-08
2.30516e-07
-2.43691e-08
-3.87847e-09
4.2256e-08
-1.88072e-07
-3.77112e-08
1.40685e-07
-6.78034e-08
-7.61215e-08
1.87521e-07
7.09208e-08
-1.36213e-07
-1.06101e-07
-4.58515e-08
-1.33901e-07
1.00234e-08
2.75809e-07
3.59349e-08
-1.71036e-07
5.14407e-08
-2.03687e-08
-5.4358e-08
1.99093e-07
2.0386e-08
-1.56679e-07
4.88171e-08
-6.19283e-09
-1.95339e-07
2.67443e-08
2.70456e-07
2.55223e-07
6.07525e-08
-3.71823e-08
-4.94516e-08
-5.56242e-08
-1.6566e-08
-1.09812e-07
3.81174e-08
7.77488e-08
1.19412e-07
1.41014e-07
-7.96292e-08
1.12971e-07
3.03497e-07
1.21357e-07
-9.91566e-08
-6.34188e-08
1.37906e-07
8.44197e-08
1.28174e-07
8.3986e-08
4.91808e-08
1.42272e-07
3.05916e-08
3.66948e-08
1.38592e-08
-2.83042e-08
-8.95763e-08
-2.30829e-07
-5.67791e-08
2.21928e-07
-2.2114e-08
-6.26409e-09
3.90467e-08
-1.77631e-07
-3.6623e-08
1.31971e-07
-6.29244e-08
-7.26998e-08
1.76346e-07
6.9782e-08
-1.31318e-07
-1.05689e-07
-4.30349e-08
-1.25602e-07
7.47554e-09
2.6356e-07
3.76799e-08
-1.63624e-07
4.83865e-08
-1.67134e-08
-5.32946e-08
1.88664e-07
2.20407e-08
-1.48913e-07
4.3157e-08
-7.11634e-09
-1.84475e-07
2.74482e-08
2.62762e-07
2.4714e-07
5.98725e-08
-3.33274e-08
-4.7524e-08
-5.5593e-08
-1.33034e-08
-1.04906e-07
3.4924e-08
7.74423e-08
1.15251e-07
1.39317e-07
-6.89612e-08
1.11008e-07
2.92196e-07
1.19987e-07
-9.13816e-08
-5.91867e-08
1.35171e-07
8.33665e-08
1.27007e-07
8.50844e-08
4.63829e-08
1.37847e-07
3.36861e-08
3.71538e-08
1.43248e-08
-2.82904e-08
-8.58705e-08
-2.22254e-07
-6.02532e-08
2.13255e-07
-1.8851e-08
-9.39912e-09
3.77446e-08
-1.66789e-07
-3.81171e-08
1.23394e-07
-5.67671e-08
-7.09475e-08
1.63224e-07
6.84211e-08
-1.25286e-07
-1.05008e-07
-4.0018e-08
-1.15841e-07
4.59473e-09
2.49118e-07
4.00399e-08
-1.55214e-07
4.44145e-08
-1.2263e-08
-5.22106e-08
1.76057e-07
2.44667e-08
-1.39877e-07
3.64564e-08
-7.65577e-09
-1.71885e-07
2.80226e-08
2.53414e-07
2.37666e-07
5.90252e-08
-2.92889e-08
-4.50272e-08
-5.51357e-08
-9.75932e-09
-9.91281e-08
3.13032e-08
7.72204e-08
1.10571e-07
1.37313e-07
-5.68843e-08
1.08333e-07
2.79401e-07
1.18552e-07
-8.22539e-08
-5.44371e-08
1.31801e-07
8.24611e-08
1.25064e-07
8.64729e-08
4.35503e-08
1.32773e-07
3.72486e-08
3.76002e-08
1.48622e-08
-2.83003e-08
-8.17563e-08
-2.11941e-07
-6.4299e-08
2.02943e-07
-1.47624e-08
-1.3866e-08
3.63678e-08
-1.53545e-07
-4.00266e-08
1.13413e-07
-4.9706e-08
-6.88757e-08
1.48723e-07
6.67095e-08
-1.18377e-07
-1.04072e-07
-3.69441e-08
-1.04966e-07
1.77776e-09
2.331e-07
4.26907e-08
-1.46137e-07
3.9706e-08
-7.27614e-09
-5.10211e-08
1.61783e-07
2.73563e-08
-1.29904e-07
2.92093e-08
-7.89677e-09
-1.58184e-07
2.84694e-08
2.42914e-07
2.27207e-07
5.80907e-08
-2.53612e-08
-4.19781e-08
-5.43106e-08
-6.11248e-09
-9.24766e-08
2.74197e-08
7.70411e-08
1.05634e-07
1.34916e-07
-4.39662e-08
1.05244e-07
2.65614e-07
1.16993e-07
-7.23289e-08
-4.93844e-08
1.2799e-07
8.15674e-08
1.22411e-07
8.81628e-08
4.08189e-08
1.2712e-07
4.09899e-08
3.80658e-08
1.55363e-08
-2.81996e-08
-7.7383e-08
-2.00224e-07
-6.85618e-08
1.91189e-07
-1.00704e-08
-1.86608e-08
3.47693e-08
-1.39111e-07
-4.19886e-08
1.02442e-07
-4.22265e-08
-6.64393e-08
1.33561e-07
6.46883e-08
-1.10863e-07
-1.0291e-07
-3.40782e-08
-9.36806e-08
-7.85376e-10
2.16342e-07
4.55948e-08
-1.36725e-07
3.4404e-08
-2.10688e-09
-4.97099e-08
1.47128e-07
3.05518e-08
-1.19454e-07
2.18598e-08
-7.83762e-09
-1.44131e-07
2.86168e-08
2.31769e-07
2.16593e-07
5.71896e-08
-2.17966e-08
-3.85282e-08
-5.32088e-08
-2.6774e-09
-8.51565e-08
2.34748e-08
7.68853e-08
1.0079e-07
1.32235e-07
-3.09387e-08
1.01782e-07
2.51574e-07
1.15594e-07
-6.20653e-08
-4.44038e-08
1.23841e-07
8.06728e-08
1.19219e-07
9.00217e-08
3.84482e-08
1.21102e-07
4.46322e-08
3.85342e-08
1.63306e-08
-2.79296e-08
-7.29504e-08
-1.87615e-07
-7.28012e-08
1.78529e-07
-4.91125e-09
-2.33286e-08
3.28405e-08
-1.24563e-07
-4.37326e-08
9.10351e-08
-3.47863e-08
-6.37172e-08
1.18269e-07
6.22901e-08
-1.02964e-07
-1.015e-07
-3.16482e-08
-8.22862e-08
-2.95119e-09
1.99525e-07
4.86732e-08
-1.2712e-07
2.86673e-08
2.92052e-09
-4.81642e-08
1.32571e-07
3.38589e-08
-1.08867e-07
1.47582e-08
-7.58877e-09
-1.30256e-07
2.84582e-08
2.20322e-07
2.06287e-07
5.6357e-08
-1.87038e-08
-3.48218e-08
-5.1908e-08
2.79353e-10
-7.73453e-08
1.96155e-08
7.67228e-08
9.63378e-08
1.29333e-07
-1.82833e-08
9.79881e-08
2.37763e-07
1.14545e-07
-5.17253e-08
-3.95474e-08
1.1938e-07
7.98774e-08
1.15437e-07
9.19275e-08
3.66715e-08
1.14858e-07
4.79832e-08
3.89853e-08
1.71852e-08
-2.74755e-08
-6.86608e-08
-1.74494e-07
-7.67039e-08
1.65205e-07
5.81337e-10
-2.75993e-08
3.04482e-08
-1.10373e-07
-4.5004e-08
7.95478e-08
-2.77566e-08
-6.06827e-08
1.03238e-07
5.94415e-08
-9.48577e-08
-9.97772e-08
-2.97678e-08
-7.11257e-08
-4.66965e-09
1.82857e-07
5.17643e-08
-1.17365e-07
2.2679e-08
7.56433e-09
-4.63008e-08
1.18314e-07
3.6957e-08
-9.83713e-08
8.16318e-09
-7.25596e-09
-1.16866e-07
2.8042e-08
2.08753e-07
1.9635e-07
5.56375e-08
-1.60805e-08
-3.09502e-08
-5.04169e-08
2.70166e-09
-6.92327e-08
1.59561e-08
7.64958e-08
9.24512e-08
1.26275e-07
-6.27187e-09
9.39595e-08
2.24396e-07
1.13658e-07
-4.14018e-08
-3.46353e-08
1.14664e-07
7.92112e-08
1.11145e-07
9.3736e-08
3.56336e-08
1.08525e-07
5.09419e-08
3.94262e-08
1.80359e-08
-2.68324e-08
-6.46738e-08
-1.61171e-07
-8.00094e-08
1.5144e-07
6.24404e-09
-3.12368e-08
2.75594e-08
-9.68016e-08
-4.56779e-08
6.82655e-08
-2.13904e-08
-5.73116e-08
8.87685e-08
5.61112e-08
-8.67037e-08
-9.76714e-08
-2.84548e-08
-6.05029e-08
-5.91634e-09
1.66697e-07
5.49325e-08
-1.07463e-07
1.66399e-08
1.16531e-08
-4.40873e-08
1.04501e-07
3.96336e-08
-8.80832e-08
2.24719e-09
-6.89603e-09
-1.04042e-07
2.74013e-08
1.97171e-07
1.86805e-07
5.5086e-08
-1.38768e-08
-2.70585e-08
-4.86834e-08
4.53797e-09
-6.10003e-08
1.26214e-08
7.6126e-08
8.91902e-08
1.23132e-07
4.9661e-09
8.99178e-08
2.11536e-07
1.12847e-07
-3.11605e-08
-2.9748e-08
1.09758e-07
7.86748e-08
1.06476e-07
9.52812e-08
3.53966e-08
1.02245e-07
5.34604e-08
3.98119e-08
1.88413e-08
-2.59867e-08
-6.10394e-08
-1.47925e-07
-8.25354e-08
1.37414e-07
1.1883e-08
-3.4059e-08
2.42265e-08
-8.42085e-08
-4.57306e-08
5.73764e-08
-1.5842e-08
-5.36183e-08
7.51067e-08
5.23018e-08
-7.86543e-08
-9.5133e-08
-2.76717e-08
-5.06279e-08
-6.66989e-09
1.51195e-07
5.77439e-08
-9.74227e-08
1.07464e-08
1.50676e-08
-4.15285e-08
9.12624e-08
4.17642e-08
-7.80691e-08
-2.88072e-09
-6.51841e-09
-9.18252e-08
2.65583e-08
1.85671e-07
1.77685e-07
5.47244e-08
-1.20402e-08
-2.32688e-08
-4.66464e-08
5.79879e-09
-5.2799e-08
9.70082e-09
7.55444e-08
8.65424e-08
1.1995e-07
1.53656e-08
8.60344e-08
1.99206e-07
1.12067e-07
-2.11039e-08
-2.5191e-08
1.04724e-07
7.8255e-08
1.01558e-07
9.64061e-08
3.58752e-08
9.61577e-08
5.55139e-08
4.01239e-08
1.95845e-08
-2.49188e-08
-5.77997e-08
-1.34998e-07
-8.41602e-08
1.23261e-07
1.72885e-08
-3.5958e-08
2.05513e-08
-7.23284e-08
-4.51776e-08
4.70259e-08
-1.11983e-08
-4.96499e-08
6.24499e-08
4.80435e-08
-7.08523e-08
-9.21386e-08
-2.7351e-08
-4.16343e-08
-6.91727e-09
1.3645e-07
5.98942e-08
-8.72953e-08
5.16598e-09
1.77372e-08
-3.8651e-08
7.87215e-08
4.32771e-08
-6.83941e-08
-7.15329e-09
-6.10788e-09
-8.0308e-08
2.55649e-08
1.74343e-07
1.6897e-07
5.45192e-08
-1.05388e-08
-1.96597e-08
-4.42753e-08
6.51021e-09
-4.47553e-08
7.25222e-09
7.47056e-08
8.44532e-08
1.16755e-07
2.48859e-08
8.2411e-08
1.87425e-07
1.11275e-07
-1.13381e-08
-2.03441e-08
9.96494e-08
7.79476e-08
9.65084e-08
9.69912e-08
3.69747e-08
9.03793e-08
5.70946e-08
4.03651e-08
2.02607e-08
-2.36185e-08
-5.49608e-08
-1.22584e-07
-8.48187e-08
1.09125e-07
2.22618e-08
-3.69039e-08
1.66477e-08
-6.15737e-08
-4.40509e-08
3.73885e-08
-7.49527e-09
-4.54774e-08
5.09156e-08
4.34002e-08
-6.3424e-08
-8.86958e-08
-2.74048e-08
-3.35983e-08
-6.68483e-09
1.2256e-07
6.18143e-08
-7.71721e-08
2.58332e-11
1.96378e-08
-3.54945e-08
6.70267e-08
4.41399e-08
-5.91264e-08
-1.05445e-08
-5.67836e-09
-6.95447e-08
2.45005e-08
1.63272e-07
1.60623e-07
5.44444e-08
-9.25912e-09
-1.62944e-08
-4.1572e-08
6.7579e-09
-3.69838e-08
5.31521e-09
7.35748e-08
8.28465e-08
1.13569e-07
3.35103e-08
7.91221e-08
1.76217e-07
1.10427e-07
-1.87398e-09
-1.56819e-08
9.46103e-08
7.77293e-08
9.14558e-08
9.69686e-08
3.85906e-08
8.49914e-08
5.82133e-08
4.05414e-08
2.08672e-08
-2.20909e-08
-5.24905e-08
-1.10836e-07
-8.44964e-08
9.51637e-08
2.66322e-08
-3.6927e-08
1.26295e-08
-5.18364e-08
-4.23941e-08
2.85963e-08
-4.72498e-09
-4.11916e-08
4.05734e-08
3.84614e-08
-5.64686e-08
-8.48401e-08
-2.77431e-08
-2.65573e-08
-6.02367e-09
1.09599e-07
6.31066e-08
-6.71623e-08
-4.55152e-09
2.07847e-08
-3.21152e-08
5.6245e-08
4.43232e-08
-5.03271e-08
-1.3061e-08
-5.23425e-09
-5.957e-08
2.34366e-08
1.52539e-07
1.52602e-07
5.4476e-08
-8.10824e-09
-1.32179e-08
-3.85668e-08
6.64542e-09
-2.95918e-08
3.91379e-09
7.21429e-08
8.16355e-08
1.10424e-07
4.12474e-08
7.6223e-08
1.65601e-07
1.09481e-07
7.04235e-09
-1.09681e-08
8.96704e-08
7.756e-08
8.65301e-08
9.63361e-08
4.05624e-08
8.00477e-08
5.88973e-08
4.06585e-08
2.14002e-08
-2.03513e-08
-5.03231e-08
-9.98963e-08
-8.3221e-08
8.15653e-08
3.02605e-08
-3.60734e-08
8.67072e-09
-4.37221e-08
-4.02765e-08
2.07391e-08
-2.83178e-09
-3.68933e-08
3.14503e-08
3.33292e-08
-5.00734e-08
-8.06274e-08
-2.82482e-08
-2.05813e-08
-4.99656e-09
9.76236e-08
6.37472e-08
-5.73782e-08
-8.46014e-09
2.1226e-08
-2.85847e-08
4.6423e-08
4.38016e-08
-4.20479e-08
-1.47356e-08
-4.77373e-09
-5.03855e-08
2.24347e-08
1.42196e-07
1.44877e-07
5.45915e-08
-6.99548e-09
-1.04659e-08
-3.53104e-08