/*--------------------------------*- C++ -*----------------------------------*\
| =========                 |                                                 |
| \\      /  F ield         | OpenFOAM: The Open Source CFD Toolbox           |
|  \\    /   O peration     | Version:  2312                                  |
|   \\  /    A nd           | Website:  www.openfoam.com                      |
|    \\/     M anipulation  |                                                 |
\*---------------------------------------------------------------------------*/
FoamFile
{
    version     2.0;
    format      ascii;
    arch        "LSB;label=32;scalar=64";
    class       volScalarField;
    location    "300";
    object      pMean;
}
// * * * * * * * * * * * * * * * * * * * * * * * * * * * * * * * * * * * * * //

dimensions      [0 2 -2 0 0 0 0];

internalField   nonuniform List<scalar> 
144000
(
2.71085e-08
-1.96076e-08
-2.17559e-07
-2.77265e-07
1.02186e-07
-1.54643e-08
-8.53475e-08
2.91202e-07
3.47662e-07
8.62252e-08
-2.89168e-08
-8.68197e-09
-1.32709e-07
-2.3278e-07
-5.18436e-08
2.74746e-07
1.12678e-07
-1.71165e-07
-3.1101e-07
2.27072e-08
5.18451e-07
2.37392e-07
-1.96223e-07
7.76296e-08
7.21355e-08
-2.85328e-07
6.73211e-08
-2.57993e-08
-2.86976e-07
1.25271e-07
1.53483e-07
1.50376e-07
3.59354e-09
-1.37309e-08
3.48392e-07
3.76976e-07
-1.75703e-08
3.50258e-08
2.07362e-07
-1.89593e-07
1.47124e-07
2.53464e-07
-3.46774e-08
-1.25325e-07
-2.71539e-09
3.86218e-07
1.98027e-07
-1.45874e-07
-1.52876e-07
-2.32791e-07
-2.7656e-07
2.15048e-07
1.61868e-07
-3.49063e-07
-7.77388e-08
2.9876e-07
1.36123e-07
-4.79627e-08
-6.50877e-08
-3.36793e-08
2.7362e-08
-1.90999e-08
-2.14649e-07
-2.53531e-07
9.87407e-08
-1.35082e-08
-6.22051e-08
2.86627e-07
3.20825e-07
6.39082e-08
-2.60774e-08
-7.56854e-09
-1.30711e-07
-2.05681e-07
-3.19698e-08
2.44893e-07
8.95437e-08
-1.66083e-07
-2.83564e-07
4.1111e-08
4.87122e-07
2.1782e-07
-1.6696e-07
7.37801e-08
5.00663e-08
-2.57466e-07
6.33188e-08
-4.81608e-08
-2.61005e-07
1.2265e-07
1.53253e-07
1.50228e-07
5.41094e-09
9.9301e-09
3.43622e-07
3.52613e-07
-1.35012e-08
3.2192e-08
1.85418e-07
-1.62036e-07
1.42786e-07
2.29015e-07
-3.06294e-08
-9.68271e-08
1.70623e-08
3.56159e-07
1.7619e-07
-1.42911e-07
-1.52152e-07
-2.29744e-07
-2.52604e-07
2.09532e-07
1.39874e-07
-3.1933e-07
-5.79894e-08
2.68494e-07
1.13247e-07
-4.5542e-08
-6.43507e-08
-3.35972e-08
2.69855e-08
-1.88287e-08
-2.08533e-07
-2.44968e-07
9.2147e-08
-9.43134e-09
-5.43435e-08
2.76501e-07
3.07095e-07
5.94271e-08
-2.03113e-08
-5.80821e-09
-1.26658e-07
-1.91462e-07
-3.09624e-08
2.25336e-07
8.29184e-08
-1.55188e-07
-2.67507e-07
3.98797e-08
4.6453e-07
2.16474e-07
-1.50544e-07
6.5266e-08
4.54175e-08
-2.43028e-07
5.49923e-08
-5.2767e-08
-2.48231e-07
1.18031e-07
1.51823e-07
1.4971e-07
9.78514e-09
1.82772e-08
3.33145e-07
3.42613e-07
-6.34749e-09
2.74432e-08
1.80515e-07
-1.47329e-07
1.33964e-07
2.19249e-07
-2.19868e-08
-8.09728e-08
1.79398e-08
3.35898e-07
1.70742e-07
-1.36613e-07
-1.50627e-07
-2.22916e-07
-2.43926e-07
1.97964e-07
1.344e-07
-3.00414e-07
-5.65305e-08
2.4935e-07
1.06838e-07
-4.04442e-08
-6.19136e-08
-3.32708e-08
2.62039e-08
-1.90752e-08
-2.00386e-07
-2.38067e-07
8.36819e-08
-4.14762e-09
-4.90098e-08
2.6249e-07
2.94333e-07
5.92144e-08
-1.35607e-08
-3.54754e-09
-1.20938e-07
-1.78886e-07
-3.45352e-08
2.05146e-07
7.93015e-08
-1.41756e-07
-2.50866e-07
3.42605e-08
4.40116e-07
2.18725e-07
-1.34414e-07
5.47609e-08
4.42742e-08
-2.29247e-07
4.41202e-08
-5.27053e-08
-2.36098e-07
1.11939e-07
1.49722e-07
1.48915e-07
1.68159e-08
2.40398e-08
3.18669e-07
3.33622e-07
2.47081e-09
2.24404e-08
1.78355e-07
-1.32395e-07
1.22831e-07
2.11442e-07
-1.14755e-08
-6.62108e-08
1.49211e-08
3.14255e-07
1.68071e-07
-1.28212e-07
-1.48863e-07
-2.13801e-07
-2.36626e-07
1.82184e-07
1.31651e-07
-2.8043e-07
-5.97334e-08
2.29684e-07
1.03573e-07
-3.42495e-08
-5.87898e-08
-3.24931e-08
2.51807e-08
-1.96134e-08
-1.90501e-07
-2.29676e-07
7.42897e-08
1.74497e-09
-4.32428e-08
2.46142e-07
2.80065e-07
5.91915e-08
-6.76574e-09
-6.37086e-10
-1.13809e-07
-1.64625e-07
-3.84641e-08
1.82758e-07
7.50954e-08
-1.27167e-07
-2.31528e-07
2.86495e-08
4.12668e-07
2.20339e-07
-1.16571e-07
4.3338e-08
4.29423e-08
-2.1383e-07
3.19908e-08
-5.14155e-08
-2.22291e-07
1.04826e-07
1.47126e-07
1.47918e-07
2.51561e-08
3.00873e-08
3.01928e-07
3.225e-07
1.29812e-08
1.75079e-08
1.75363e-07
-1.15018e-07
1.10573e-07
2.0243e-07
-4.67704e-10
-5.01142e-08
1.22924e-08
2.89569e-07
1.64515e-07
-1.18471e-07
-1.46836e-07
-2.02939e-07
-2.27539e-07
1.63429e-07
1.28184e-07
-2.57303e-07
-6.36176e-08
2.07174e-07
9.97542e-08
-2.78305e-08
-5.52013e-08
-3.12606e-08
2.39617e-08
-2.01895e-08
-1.79212e-07
-2.19995e-07
6.39559e-08
7.81335e-09
-3.71565e-08
2.28353e-07
2.64738e-07
5.89105e-08
-5.82105e-10
2.89891e-09
-1.05605e-07
-1.4933e-07
-4.21551e-08
1.59176e-07
7.02267e-08
-1.12228e-07
-2.10397e-07
2.36761e-08
3.82965e-07
2.20608e-07
-9.77354e-08
3.1754e-08
4.10915e-08
-1.97342e-07
1.95782e-08
-4.91967e-08
-2.07243e-07
9.70297e-08
1.44076e-07
1.46769e-07
3.40393e-08
3.63152e-08
2.84035e-07
3.0937e-07
2.47687e-08
1.28847e-08
1.7132e-07
-9.57837e-08
9.79219e-08
1.92439e-07
1.03248e-08
-3.32567e-08
1.0651e-08
2.62971e-07
1.59857e-07
-1.07893e-07
-1.44466e-07
-1.90912e-07
-2.16878e-07
1.43339e-07
1.23941e-07
-2.32666e-07
-6.75147e-08
1.836e-07
9.51375e-08
-2.16533e-08
-5.12068e-08
-2.97024e-08
2.25451e-08
-2.06581e-08
-1.67011e-07
-2.09549e-07
5.30758e-08
1.37284e-08
-3.10381e-08
2.09816e-07
2.48913e-07
5.85472e-08
4.56923e-09
6.78309e-09
-9.67538e-08
-1.34314e-07
-4.54495e-08
1.35711e-07
6.4838e-08
-9.75376e-08
-1.88652e-07
1.94432e-08
3.52816e-07
2.1941e-07
-7.87778e-08
2.06624e-08
3.87396e-08
-1.80471e-07
7.56841e-09
-4.61117e-08
-1.91485e-07
8.88283e-08
1.40556e-07
1.45479e-07
4.3173e-08
4.24841e-08
2.65744e-07
2.94763e-07
3.71553e-08
8.95395e-09
1.66328e-07
-7.53993e-08
8.5517e-08
1.82035e-07
2.053e-08
-1.65485e-08
1.00998e-08
2.35905e-07
1.54288e-07
-9.68095e-08
-1.41685e-07
-1.78422e-07
-2.05229e-07
1.2264e-07
1.19094e-07
-2.07853e-07
-7.11029e-08
1.60353e-07
8.99293e-08
-1.59542e-08
-4.69908e-08
-2.8012e-08
2.09006e-08
-2.09688e-08
-1.54387e-07
-1.98632e-07
4.21309e-08
1.9195e-08
-2.49379e-08
1.91091e-07
2.32867e-07
5.82469e-08
8.57488e-09
1.07156e-08
-8.76363e-08
-1.20088e-07
-4.80452e-08
1.13349e-07
5.92757e-08
-8.35303e-08
-1.67084e-07
1.60344e-08
3.22973e-07
2.16735e-07
-6.02783e-08
1.05764e-08
3.58534e-08
-1.6358e-07
-3.57666e-09
-4.24281e-08
-1.75351e-07
8.05057e-08
1.36552e-07
1.43995e-07
5.23495e-08
4.85953e-08
2.47626e-07
2.79153e-07
4.94869e-08
6.04281e-09
1.60384e-07
-5.48589e-08
7.40143e-08
1.71486e-07
2.97414e-08
-1.01408e-09
1.0724e-08
2.09439e-07
1.47857e-07
-8.54741e-08
-1.38366e-07
-1.66052e-07
-1.93019e-07
1.0208e-07
1.13591e-07
-1.83644e-07
-7.39466e-08
1.37969e-07
8.4261e-08
-1.08388e-08
-4.26947e-08
-2.63065e-08
1.90067e-08
-2.11005e-08
-1.41704e-07
-1.874e-07
3.14875e-08
2.39814e-08
-1.88561e-08
1.72649e-07
2.1685e-07
5.8057e-08
1.15237e-08
1.44847e-08
-7.84939e-08
-1.06846e-07
-4.97287e-08
9.26716e-08
5.3725e-08
-7.05029e-08
-1.46195e-07
1.34842e-08
2.94119e-07
2.12608e-07
-4.26736e-08
1.83881e-09
3.24858e-08
-1.4698e-07
-1.35412e-08
-3.84803e-08
-1.59172e-07
7.23473e-08
1.32106e-07
1.42235e-07
6.13224e-08
5.45573e-08
2.30123e-07
2.62996e-07
6.12152e-08
4.33866e-09
1.53486e-07
-3.48339e-08
6.3922e-08
1.60962e-07
3.77111e-08
1.28574e-08
1.24888e-08
1.84332e-07
1.40585e-07
-7.41281e-08
-1.34354e-07
-1.54178e-07
-1.80562e-07
8.23019e-08
1.07349e-07
-1.60548e-07
-7.57934e-08
1.16694e-07
7.8273e-08
-6.3428e-09
-3.84111e-08
-2.46418e-08
1.6874e-08
-2.1058e-08
-1.29231e-07
-1.75968e-07
2.14057e-08
2.79429e-08
-1.28309e-08
1.54912e-07
2.01091e-07
5.795e-08
1.3575e-08
1.79317e-08
-6.94589e-08
-9.46617e-08
-5.04288e-08
7.39599e-08
4.82069e-08
-5.86285e-08
-1.26321e-07
1.17781e-08
2.66725e-07
2.07101e-07
-2.61942e-08
-5.34929e-09
2.87586e-08
-1.30942e-07
-2.21079e-08
-3.45576e-08
-1.43253e-07
6.4596e-08
1.2732e-07
1.40131e-07
6.98191e-08
6.02093e-08
2.13645e-07
2.467e-07
7.19145e-08
4.01479e-09
1.45756e-07
-1.5762e-08
5.55212e-08
1.50638e-07
4.4369e-08
2.48223e-08
1.52288e-08
1.61098e-07
1.32539e-07
-6.30247e-08
-1.29559e-07
-1.43014e-07
-1.68108e-07
6.37956e-08
1.00353e-07
-1.38941e-07
-7.66016e-08
9.67535e-08
7.21007e-08
-2.47453e-09
-3.42054e-08
-2.30369e-08
1.4554e-08
-2.08765e-08
-1.17177e-07
-1.64441e-07
1.20696e-08
3.09751e-08
-6.92932e-09
1.38221e-07
1.8572e-07
5.78739e-08
1.48898e-08
2.09165e-08
-6.06269e-08
-8.35507e-08
-5.01839e-08
5.73397e-08
4.27463e-08
-4.79862e-08
-1.07754e-07
1.0856e-08
2.41083e-07
2.00359e-07
-1.10347e-08
-1.08754e-08
2.47922e-08
-1.15657e-07
-2.91448e-08
-3.08598e-08
-1.27813e-07
5.74355e-08
1.2233e-07
1.37651e-07
7.75842e-08
6.54488e-08
1.98487e-07
2.30593e-07
8.12809e-08
5.0828e-09
1.37424e-07
1.96229e-09
4.89746e-08
1.40689e-07
4.97619e-08
3.48047e-08
1.87074e-08
1.40046e-07
1.23838e-07
-5.24202e-08
-1.23974e-07
-1.32674e-07
-1.5586e-07
4.69066e-08
9.26667e-08
-1.19093e-07
-7.63933e-08
7.84205e-08
6.58267e-08
7.22312e-10
-3.01374e-08
-2.14622e-08
1.21168e-08
-2.06087e-08
-1.05698e-07
-1.52913e-07
3.61145e-09
3.3031e-08
-1.23611e-09
1.2281e-07
1.70797e-07
5.77717e-08
1.5629e-08
2.33268e-08
-5.20921e-08
-7.34799e-08
-4.9082e-08
4.28533e-08
3.73998e-08
-3.8621e-08
-9.06665e-08
1.06273e-08
2.17375e-07
1.92581e-07
2.65875e-09
-1.47322e-08
2.0688e-08
-1.01309e-07
-3.45692e-08
-2.74929e-08
-1.12994e-07
5.10006e-08
1.17269e-07
1.34799e-07
8.44455e-08
7.02405e-08
1.84788e-07
2.14949e-07
8.91168e-08
7.4203e-09
1.28722e-07
1.79935e-08
4.43174e-08
1.3126e-07
5.40055e-08
4.28628e-08
2.26612e-08
1.21347e-07
1.14642e-07
-4.25391e-08
-1.17657e-07
-1.23202e-07
-1.4398e-07
3.18478e-08
8.44261e-08
-1.01165e-07
-7.52283e-08
6.18159e-08
5.94974e-08
3.21332e-09
-2.62812e-08
-1.98958e-08
9.63596e-09
-2.03198e-08
-9.49124e-08
-1.41464e-07
-3.87315e-09
3.41258e-08
4.15482e-09
1.08816e-07
1.56369e-07
5.7591e-08
1.59444e-08
2.50961e-08
-4.39515e-08
-6.43774e-08
-4.723e-08
3.04692e-08
3.2233e-08
-3.05036e-08
-7.51384e-08
1.09803e-08
1.95692e-07
1.83995e-07
1.47955e-08
-1.69981e-08
1.65578e-08
-8.80332e-08
-3.84299e-08
-2.44869e-08
-9.89045e-08
4.53898e-08
1.12255e-07
1.31615e-07
9.03084e-08
7.45649e-08
1.72558e-07
1.99992e-07
9.53277e-08
1.08275e-08
1.19893e-07
3.21375e-08
4.14566e-08
1.22442e-07
5.72534e-08
4.91424e-08
2.6827e-08
1.05051e-07
1.05153e-07
-3.35502e-08
-1.10727e-07
-1.14583e-07
-1.32596e-07
1.87134e-08
7.58201e-08
-8.52426e-08
-7.32011e-08
4.69891e-08
5.31648e-08
5.01536e-09
-2.27247e-08
-1.83384e-08
7.17968e-09
-2.00785e-08
-8.49092e-08
-1.30168e-07
-1.03197e-08
3.43364e-08
9.14573e-09
9.62954e-08
1.42515e-07
5.7277e-08
1.59705e-08
2.62111e-08
-3.62974e-08
-5.61526e-08
-4.47338e-08
2.00974e-08
2.73031e-08
-2.35809e-08
-6.11868e-08
1.17938e-08
1.76054e-07
1.74838e-07
2.53393e-08
-1.78121e-08
1.25305e-08
-7.5921e-08
-4.08386e-08
-2.18267e-08
-8.56226e-08
4.06531e-08
1.07384e-07
1.28157e-07
9.51473e-08
7.84097e-08
1.61722e-07
1.85909e-07
9.9921e-08
1.50758e-08
1.11175e-07
4.42822e-08
4.02001e-08
1.1429e-07
5.96935e-08
5.38439e-08
3.09678e-08
9.11075e-08
9.5597e-08
-2.55657e-08
-1.0334e-07
-1.06762e-07
-1.21803e-07
7.50351e-09
6.70659e-08
-7.13267e-08
-7.04401e-08
3.39345e-08
4.69233e-08
6.19465e-09
-1.95508e-08
-1.67913e-08
4.8092e-09
-1.994e-08
-7.57479e-08
-1.19105e-07
-1.56967e-08
3.37836e-08
1.36429e-08
8.52541e-08
1.29337e-07
5.67747e-08
1.58304e-08
2.67005e-08
-2.9213e-08
-4.87001e-08
-4.1692e-08
1.16112e-08
2.26585e-08
-1.77844e-08
-4.87856e-08
1.29485e-08
1.58425e-07
1.65336e-07
3.43012e-08
-1.73579e-08
8.73905e-09
-6.50108e-08
-4.19365e-08
-1.9475e-08
-7.32086e-08
3.67958e-08
1.02727e-07
1.24491e-07
9.89806e-08
8.1782e-08
1.52166e-07
1.72838e-07
1.02983e-07
1.99287e-08
1.02788e-07
5.44003e-08
4.02984e-08
1.06852e-07
6.14888e-08
5.71808e-08
3.48889e-08
7.93892e-08
8.61968e-08
-1.86438e-08
-9.56772e-08
-9.96399e-08
-1.11662e-07
-1.8561e-09
5.83869e-08
-5.93366e-08
-6.71015e-08
2.26044e-08
4.08479e-08
6.82234e-09
-1.68122e-08
-1.52461e-08
2.57186e-09
-1.99309e-08
-6.74505e-08
-1.08361e-07
-2.00101e-08
3.25955e-08
1.7569e-08
7.56528e-08
1.16923e-07
5.60395e-08
1.56261e-08
2.66192e-08
-2.27668e-08
-4.19472e-08
-3.8254e-08
4.86313e-09
1.83492e-08
-1.29994e-08
-3.78781e-08
1.43344e-08
1.42718e-07
1.55696e-07
4.17338e-08
-1.58393e-08
5.30555e-09
-5.53006e-08
-4.1884e-08
-1.73899e-08
-6.17019e-08
3.37883e-08
9.83365e-08
1.20693e-07
1.01853e-07
8.46774e-08
1.43759e-07
1.60874e-07
1.0465e-07
2.5134e-08
9.49151e-08
6.25386e-08
4.14744e-08
1.00154e-07
6.27722e-08
5.9379e-08
3.84415e-08
6.97148e-08
7.7156e-08
-1.27955e-08
-8.79112e-08
-9.31008e-08
-1.02214e-07
-9.49461e-09
4.9985e-08
-4.91387e-08
-6.33521e-08
1.29044e-08
3.49906e-08
6.958e-09
-1.4523e-08
-1.36979e-08
5.06502e-10
-2.00463e-08
-6.00118e-08
-9.80256e-08
-2.33028e-08
3.08987e-08
2.08741e-08
6.74184e-08
1.05362e-07
5.5037e-08
1.54299e-08
2.60469e-08
-1.7007e-08
-3.58318e-08
-3.45481e-08
-3.0829e-10
1.44284e-08
-9.10953e-09
-2.83849e-08
1.58522e-08
1.28806e-07
1.46099e-07
4.77225e-08
-1.3461e-08
2.33109e-09
-4.67508e-08
-4.08546e-08
-1.55206e-08
-5.11204e-08
3.15726e-08
9.42458e-08
1.1684e-07
1.0383e-07
8.71026e-08
1.36372e-07
1.50058e-07
1.05095e-07
3.04566e-08
8.77012e-08
6.88041e-08
4.34497e-08
9.41898e-08
6.36594e-08
6.06586e-08
4.15265e-08
6.1863e-08
6.86453e-08
-7.9938e-09
-8.01987e-08
-8.70258e-08
-9.34774e-08
-1.55784e-08
4.20137e-08
-4.05885e-08
-5.93472e-08
4.71049e-09
2.93913e-08
6.66875e-09
-1.26684e-08
-1.21757e-08
-1.35071e-09
-2.02582e-08
-5.34115e-08
-8.81816e-08
-2.56472e-08
2.88097e-08
2.35396e-08
6.0452e-08
9.47203e-08
5.37493e-08
1.52878e-08
2.50758e-08
-1.19578e-08
-3.03051e-08
-3.06838e-08
-4.07569e-09
1.09471e-08
-5.9905e-09
-2.02085e-08
1.74155e-08
1.16538e-07
1.36697e-07
5.23771e-08
-1.04497e-08
-1.11518e-10
-3.92913e-08
-3.90239e-08
-1.38113e-08
-4.14643e-08
3.00689e-08
9.04689e-08
1.13008e-07
1.04992e-07
8.90789e-08
1.29878e-07
1.40384e-07
1.04514e-07
3.5703e-08
8.12418e-08
7.33486e-08
4.59577e-08
8.89491e-08
6.42433e-08
6.12239e-08
4.4084e-08
5.55984e-08
6.07983e-08
-4.17226e-09
-7.26739e-08
-8.13152e-08
-8.54544e-08
-2.02952e-08
3.45698e-08
-3.35215e-08
-5.52157e-08
-2.11391e-09
2.40801e-08
6.03222e-09
-1.12149e-08
-1.07043e-08
-2.976e-09
-2.05227e-08
-4.76153e-08
-7.89008e-08
-2.71329e-08
2.64471e-08
2.55737e-08
5.46352e-08
8.50221e-08
5.21737e-08
1.52281e-08
2.38077e-08
-7.6179e-09
-2.53329e-08
-2.67774e-08
-6.61672e-09
7.9494e-09
-3.51518e-09
-1.3238e-08
1.89537e-08
1.05749e-07
1.27611e-07
5.58262e-08
-6.99046e-09
-1.98646e-09
-3.28316e-08
-3.65609e-08
-1.22049e-08
-3.27169e-08
2.91805e-08
8.70017e-08
1.09268e-07
1.05434e-07
9.06229e-08
1.24154e-07
1.31818e-07
1.0311e-07
4.06973e-08
7.55897e-08
7.63535e-08
4.87538e-08
8.44123e-08
6.45928e-08
6.12593e-08
4.61004e-08
5.06789e-08
5.37055e-08
-1.23178e-09
-6.54481e-08
-7.58953e-08
-7.81302e-08
-2.38352e-08
2.77144e-08
-2.7756e-08
-5.10609e-08
-7.71049e-09
1.90803e-08
5.12934e-09
-1.01197e-08
-9.32347e-09
-4.35883e-09
-2.07887e-08
-4.25746e-08
-7.02409e-08
-2.78577e-08
2.39255e-08
2.70031e-08
4.98316e-08
7.62695e-08
5.03277e-08
1.52654e-08
2.23482e-08
-3.96258e-09
-2.08885e-08
-2.29381e-08
-8.11301e-09
5.47198e-09
-1.56246e-09
-7.35212e-09
2.04161e-08
9.62693e-08
1.18931e-07
5.8208e-08
-3.27014e-09
-3.27697e-09
-2.72682e-08
-3.36231e-08
-1.06528e-08
-2.48457e-08
2.88018e-08
8.38232e-08
1.05685e-07
1.05257e-07
9.17543e-08
1.19091e-07
1.24293e-07
1.01087e-07
4.53159e-08
7.07624e-08
7.80232e-08
5.16368e-08
8.0538e-08
6.47552e-08
6.0925e-08
4.7593e-08
4.68672e-08
4.74176e-08
9.43682e-10
-5.86087e-08
-7.07174e-08
-7.14777e-08
-2.63791e-08
2.14846e-08
-2.31091e-08
-4.69699e-08
-1.22142e-08
1.44092e-08
4.03727e-09
-9.3379e-09
-8.08611e-09
-5.50032e-09
-2.10059e-08
-3.82293e-08
-6.22422e-08
-2.79233e-08
2.13465e-08
2.78708e-08
4.58935e-08
6.84532e-08
4.82564e-08
1.53902e-08
2.07946e-08
-9.48597e-10
-1.69448e-08
-1.92588e-08
-8.74853e-09
3.53569e-09
-2.46669e-11
-2.42906e-09
2.17668e-08
8.79398e-08
1.10717e-07
5.96656e-08
5.58968e-10
-3.99082e-09
-2.24917e-08
-3.03538e-08
-9.11306e-09
-1.7807e-08
2.88278e-08
8.0902e-08
1.02306e-07
1.04572e-07
9.25015e-08
1.14584e-07
1.17727e-07
9.86359e-08
4.94706e-08
6.67451e-08
7.85731e-08
5.44245e-08
7.7264e-08
6.47593e-08
6.03562e-08
4.86043e-08
4.39495e-08
4.19461e-08
2.47498e-09
-5.22164e-08
-6.57527e-08
-6.54562e-08
-2.80944e-08
1.58908e-08
-1.94094e-08
-4.30167e-08
-1.57471e-08
1.00868e-08
2.82528e-09
-8.82284e-09
-7.04247e-09
-6.41557e-09
-2.11325e-08
-3.45134e-08
-5.4929e-08
-2.74328e-08
1.87966e-08
2.82314e-08
4.26726e-08
6.1546e-08
4.60144e-08
1.55813e-08
1.92319e-08
1.4812e-09
-1.34716e-08
-1.58113e-08
-8.69936e-09
2.13799e-09
1.19853e-09
1.64858e-09
2.29761e-08
8.06156e-08
1.03005e-07
6.03422e-08
4.37443e-09
-4.15959e-09
-1.83917e-08
-2.68783e-08
-7.55073e-09
-1.15472e-08
2.91636e-08
7.82084e-08
9.91563e-08
1.03487e-07
9.28996e-08
1.1054e-07
1.12018e-07
9.59256e-08
5.31064e-08
6.35013e-08
7.82211e-08
5.69765e-08
7.45163e-08
6.4622e-08
5.96599e-08
4.9194e-08
4.17362e-08
3.72695e-08
3.48711e-09
-4.63073e-08
-6.09887e-08
-6.00168e-08
-2.91312e-08
1.09199e-08
-1.65051e-08
-3.92554e-08
-1.84211e-08
6.12677e-09
1.55414e-09
-8.52059e-09
-6.22997e-09
-7.13194e-09
-2.11382e-08
-3.13554e-08
-4.83078e-08
-2.64899e-08
1.63443e-08
2.81482e-08
4.00299e-08
5.54996e-08
4.36644e-08
1.58178e-08
1.77199e-08
3.39444e-09
-1.04347e-08
-1.26457e-08
-8.11614e-09
1.25731e-09
2.20246e-09
4.99248e-09
2.40242e-08
7.41681e-08
9.58109e-08
6.03758e-08
8.07676e-09
-3.83296e-09
-1.48611e-08
-2.33042e-08
-5.94272e-09
-6.00479e-09
2.97285e-08
7.57183e-08
9.62397e-08
1.02106e-07
9.29892e-08
1.06878e-07
1.0706e-07
9.31005e-08
5.62019e-08
6.09706e-08
7.7173e-08
5.91865e-08
7.22203e-08
6.43674e-08
5.89124e-08
4.94296e-08
4.00629e-08
3.33427e-08
4.10185e-09
-4.08964e-08
-5.64244e-08
-5.5109e-08
-2.96191e-08
6.54862e-09
-1.42588e-08
-3.57187e-08
-2.03448e-08
2.53272e-09
2.7339e-10
-8.37152e-09
-5.66761e-09
-7.68131e-09
-2.10039e-08
-2.86867e-08
-4.23689e-08
-2.51955e-08
1.40358e-08
2.76913e-08
3.7837e-08
5.02509e-08
4.12714e-08
1.60775e-08
1.63018e-08
4.86451e-09
-7.79282e-09
-9.79469e-09
-7.13074e-09
8.45881e-10
3.06146e-09
7.70864e-09
2.49064e-08
6.84849e-08
8.9131e-08
5.98944e-08
1.15936e-08
-3.07304e-09
-1.17983e-08
-1.97209e-08
-4.2794e-09
-1.11103e-09
3.04559e-08
7.34073e-08
9.35432e-08
1.00516e-07
9.28151e-08
1.03531e-07
1.02747e-07
9.02756e-08
5.87647e-08
5.90736e-08
7.56141e-08
6.09883e-08
7.03032e-08
6.40164e-08
5.81614e-08
4.93806e-08
3.87939e-08
3.0106e-08
4.43033e-09
-3.59805e-08
-5.20651e-08
-5.06799e-08
-2.96689e-08
2.73755e-09
-1.25508e-08
-3.24207e-08
-2.16239e-08
-6.98182e-10
-9.81659e-10
-8.32478e-09
-5.35499e-09
-8.09573e-09
-2.07202e-08
-2.64412e-08
-3.70883e-08
-2.36417e-08
1.19001e-08
2.69322e-08
3.59825e-08
4.57262e-08
3.88946e-08
1.63483e-08
1.5006e-08
5.96139e-09
-5.49788e-09
-7.26781e-09
-5.86719e-09
8.352e-10
3.83764e-09
9.89669e-09
2.56292e-08
6.34672e-08
8.2946e-08
5.90118e-08
1.48785e-08
-1.94728e-09
-9.11498e-09
-1.61998e-08
-2.56171e-09
3.20654e-09
3.12922e-08
7.12511e-08
9.10438e-08
9.87923e-08
9.2426e-08
1.00449e-07
9.89808e-08
8.75359e-08
6.08243e-08
5.77192e-08
7.37028e-08
6.2357e-08
6.86935e-08
6.3583e-08
5.74299e-08
4.91142e-08
3.78226e-08
2.74905e-08
4.56807e-09
-3.15419e-08
-4.79179e-08
-4.66771e-08
-2.9373e-08
-5.63233e-10
-1.12783e-08
-2.93619e-08
-2.2356e-08
-3.57351e-09
-2.18947e-09
-8.34245e-09
-5.27719e-09
3.50275e-07
1.46967e-07
-2.19416e-07
-1.68541e-07
-8.00344e-08
-2.47569e-07
7.07416e-09
4.97936e-07
9.04064e-08
-3.2096e-07
6.61717e-08
-4.35365e-08
-1.13162e-07
3.54335e-07
5.77789e-08
-2.91577e-07
7.80957e-08
9.5648e-09
-3.70271e-07
4.47134e-09
4.3842e-07
4.37206e-07
9.82771e-08
-9.70112e-08
-1.06063e-07
-1.0401e-07
-5.46551e-08
-2.19797e-07
5.17921e-08
1.08751e-07
1.81918e-07
2.20091e-07
-2.10637e-07
1.19428e-07
5.06594e-07
1.99674e-07
-2.08434e-07
-1.75459e-07
1.84555e-07
1.04664e-07
1.70981e-07
9.91602e-08
6.0801e-08
2.20977e-07
1.91871e-08
3.7228e-08
-6.56238e-10
-6.52224e-08
-1.62288e-07
-4.09017e-07
-1.01073e-07
4.00704e-07
-2.56186e-08
-4.09129e-09
8.95176e-08
-3.15884e-07
-7.00096e-08
2.60763e-07
-1.07924e-07
-1.31755e-07
3.20789e-07
1.25534e-07
-2.15996e-07
-1.68723e-07
-7.78153e-08
-2.20216e-07
2.52461e-08
4.67209e-07
7.12757e-08
-2.93491e-07
6.40395e-08
-4.07385e-08
-9.17938e-08
3.244e-07
3.79476e-08
-2.63771e-07
7.39874e-08
-1.25336e-08
-3.41299e-07
2.49684e-08
4.33061e-07
4.10624e-07
7.70291e-08
-9.40586e-08
-1.04512e-07
-1.0444e-07
-5.2075e-08
-1.94939e-07
4.86774e-08
1.08515e-07
1.78541e-07
1.97638e-07
-1.80625e-07
1.38392e-07
4.76952e-07
1.77832e-07
-2.03182e-07
-1.51112e-07
1.82552e-07
1.04438e-07
1.70387e-07
1.00572e-07
5.83352e-08
1.9675e-07
2.14057e-08
3.78998e-08
1.23595e-10
-6.47305e-08
-1.59489e-07
-3.81691e-07
-8.38974e-08
3.72363e-07
-2.30741e-08
-6.6378e-09
6.72776e-08
-2.86069e-07
-5.06549e-08
2.32546e-07
-1.03015e-07
-1.09871e-07
3.0144e-07
1.20844e-07
-2.08711e-07
-1.68229e-07
-7.32449e-08
-2.04978e-07
2.38313e-08
4.45764e-07
7.11305e-08
-2.79074e-07
5.96972e-08
-3.52949e-08
-8.73637e-08
3.05617e-07
3.73174e-08
-2.49075e-07
6.53323e-08
-1.71208e-08
-3.22105e-07
2.88034e-08
4.21348e-07
3.95813e-07
7.31439e-08
-8.76003e-08
-1.01581e-07
-1.05177e-07
-4.68223e-08
-1.84916e-07
4.32861e-08
1.07819e-07
1.71834e-07
1.9247e-07
-1.61231e-07
1.38469e-07
4.56787e-07
1.7269e-07
-1.91494e-07
-1.41753e-07
1.78288e-07
1.02882e-07
1.69106e-07
1.02502e-07
5.35312e-08
1.87477e-07
2.59956e-08
3.88282e-08
1.06261e-09
-6.45131e-08
-1.53771e-07
-3.66151e-07
-8.67744e-08
3.56373e-07
-1.81595e-08
-1.12602e-08
6.24631e-08
-2.66769e-07
-5.03929e-08
2.1669e-07
-9.32339e-08
-1.04234e-07
2.80704e-07
1.19141e-07
-1.98798e-07
-1.67132e-07
-6.82513e-08
-1.89912e-07
1.78386e-08
4.22027e-07
7.588e-08
-2.6476e-07
5.33834e-08
-2.83363e-08
-8.6002e-08
2.85689e-07
4.15156e-08
-2.34349e-07
5.41707e-08
-1.77536e-08
-3.018e-07
2.88589e-08
4.05626e-07
3.81149e-07
7.31055e-08
-8.00371e-08
-9.76075e-08
-1.0499e-07
-4.08331e-08
-1.76415e-07
3.68458e-08
1.07064e-07
1.638e-07
1.9021e-07
-1.41121e-07
1.3346e-07
4.35441e-07
1.71003e-07
-1.7594e-07
-1.34395e-07
1.72476e-07
1.01134e-07
1.66484e-07
1.04554e-07
4.85318e-08
1.8003e-07
3.17914e-08
3.97203e-08
2.07229e-09
-6.44713e-08
-1.47012e-07
-3.50061e-07
-9.45571e-08
3.39514e-07
-1.13745e-08
-1.71855e-08
6.05989e-08
-2.46227e-07
-5.43996e-08
2.00647e-07
-8.11259e-08
-1.01155e-07
2.56854e-07
1.16732e-07
-1.86915e-07
-1.65375e-07
-6.31411e-08
-1.72463e-07
1.17068e-08
3.94475e-07
8.1219e-08
-2.48445e-07
4.56161e-08
-2.03405e-08
-8.41991e-08
2.61924e-07
4.64395e-08
-2.17401e-07
4.1707e-08
-1.78483e-08
-2.78663e-07
2.8661e-08
3.87085e-07
3.64126e-07
7.30062e-08
-7.23694e-08
-9.25611e-08
-1.03893e-07
-3.45894e-08
-1.66149e-07
2.98096e-08
1.06223e-07
1.55092e-07
1.87172e-07
-1.18739e-07
1.27518e-07
4.11407e-07
1.69013e-07
-1.58143e-07
-1.25966e-07
1.65655e-07
9.94976e-08
1.62449e-07
1.06972e-07
4.37693e-08
1.71378e-07
3.80945e-08
4.05969e-08
3.33216e-09
-6.42484e-08
-1.39691e-07
-3.3095e-07
-1.02823e-07
3.19501e-07
-3.35065e-09
-2.45726e-08
5.81265e-08
-2.22212e-07
-5.84533e-08
1.82282e-07
-6.78835e-08
-9.72822e-08
2.30916e-07
1.13354e-07
-1.73614e-07
-1.62981e-07
-5.82352e-08
-1.53327e-07
6.1989e-09
3.64376e-07
8.6561e-08
-2.30715e-07
3.67583e-08
-1.18708e-08
-8.17642e-08
2.35903e-07
5.1523e-08
-1.98835e-07
2.88252e-08
-1.76276e-08
-2.53843e-07
2.82719e-08
3.66712e-07
3.45714e-07
7.26967e-08
-6.51567e-08
-8.66046e-08
-1.02014e-07
-2.84666e-08
-1.54153e-07
2.25348e-08
1.05249e-07
1.46244e-07
1.83207e-07
-9.51995e-08
1.21189e-07
3.85786e-07
1.66644e-07
-1.39137e-07
-1.16938e-07
1.58161e-07
9.80779e-08
1.57197e-07
1.0972e-07
3.95373e-08
1.61654e-07
4.43669e-08
4.14799e-08
4.8908e-09
-6.36288e-08
-1.32107e-07
-3.09454e-07
-1.10805e-07
2.96656e-07
5.46758e-09
-3.19809e-08
5.47454e-08
-1.96804e-07
-6.18918e-08
1.62358e-07
-5.44376e-08
-9.25336e-08
2.04272e-07
1.09085e-07
-1.59447e-07
-1.59977e-07
-5.39357e-08
-1.33724e-07
1.54792e-09
3.33231e-07
9.18668e-08
-2.12173e-07
2.71532e-08
-3.59089e-09
-7.87426e-08
2.09593e-07
5.65122e-08
-1.79557e-07
1.62509e-08
-1.71024e-08
-2.28633e-07
2.74443e-08
3.45352e-07
3.2718e-07
7.2409e-08
-5.87078e-08
-8.00604e-08
-9.95382e-08
-2.29934e-08
-1.40933e-07
1.54046e-08
1.04114e-07
1.37841e-07
1.78597e-07
-7.17909e-08
1.14524e-07
3.59841e-07
1.64368e-07
-1.19661e-07
-1.07861e-07
1.50123e-07
9.68271e-08
1.50933e-07
1.12533e-07
3.62378e-08
1.51345e-07
5.01758e-08
4.2323e-08
6.64647e-09
-6.25438e-08
-1.24593e-07
-2.86578e-07
-1.18061e-07
2.72143e-07
1.47583e-08
-3.86337e-08
5.04138e-08
-1.71748e-07
-6.44023e-08
1.41926e-07
-4.15661e-08
-8.70633e-08
1.77934e-07
1.03874e-07
-1.44877e-07
-1.5631e-07
-5.05467e-08
-1.1442e-07
-2.09482e-09
3.02369e-07
9.69359e-08
-1.93147e-07
1.72214e-08
3.9385e-09
-7.50524e-08
1.83833e-07
6.10227e-08
-1.60265e-07
4.58432e-09
-1.6445e-08
-2.03928e-07
2.62223e-08
3.23564e-07
3.09069e-07
7.22568e-08
-5.30814e-08
-7.32181e-08
-9.65865e-08
-1.8491e-08
-1.26958e-07
8.73829e-09
1.02758e-07
1.30327e-07
1.73525e-07
-4.93644e-08
1.07664e-07
3.34372e-07
1.62334e-07
-1.0018e-07
-9.87701e-08
1.41604e-07
9.57994e-08
1.43818e-07
1.15128e-07
3.41736e-08
1.4082e-07
5.52457e-08
4.30773e-08
8.45352e-09
-6.09827e-08
-1.1747e-07
-2.63142e-07
-1.24082e-07
2.46534e-07
2.41567e-08
-4.4025e-08
4.51205e-08
-1.47921e-07
-6.57214e-08
1.21691e-07
-2.98639e-08
-8.08929e-08
1.52624e-07
9.76944e-08
-1.30273e-07
-1.51867e-07
-4.81509e-08
-9.60684e-08
-4.6856e-09
2.72385e-07
1.0145e-07
-1.73823e-07
7.41613e-09
1.03416e-08
-7.06558e-08
1.59084e-07
6.45933e-08
-1.41415e-07
-5.73569e-09
-1.58057e-08
-1.80226e-07
2.47484e-08
3.01688e-07
2.91534e-07
7.23128e-08
-4.8187e-08
-6.63339e-08
-9.31526e-08
-1.50348e-08
-1.12661e-07
2.78976e-09
1.0109e-07
1.23898e-07
1.68137e-07
-2.83928e-08
1.00937e-07
3.09788e-07
1.60263e-07
-8.09621e-08
-8.95048e-08
1.32756e-07
9.49547e-08
1.36063e-07
1.17223e-07
3.3466e-08
1.30394e-07
5.94469e-08
4.37152e-08
1.02055e-08
-5.89332e-08
-1.10918e-07
-2.39834e-07
-1.28475e-07
2.20365e-07
3.32416e-08
-4.78133e-08
3.90109e-08
-1.2579e-07
-6.57578e-08
1.02236e-07
-1.97321e-08
-7.41043e-08
1.28833e-07
9.06021e-08
-1.15956e-07
-1.46558e-07
-4.6663e-08
-7.91635e-08
-6.22695e-09
2.4372e-07
1.05077e-07
-1.54357e-07
-1.84479e-09
1.54132e-08
-6.56127e-08
1.35706e-07
6.69519e-08
-1.23266e-07
-1.44373e-08
-1.52437e-08
-1.57767e-07
2.31466e-08
2.8e-07
2.74632e-07
7.25998e-08
-4.38794e-08
-5.96457e-08
-8.91702e-08
-1.26067e-08
-9.84259e-08
-2.25786e-09
9.89892e-08
1.18557e-07
1.62573e-07
-9.11087e-09
9.4685e-08
2.86269e-07
1.58014e-07
-6.22496e-08
-8.01374e-08
1.23778e-07
9.42511e-08
1.27963e-07
1.18556e-07
3.40466e-08
1.20344e-07
6.27383e-08
4.41983e-08
1.18434e-08
-5.63905e-08
-1.05e-07
-2.17222e-07
-1.31012e-07
1.9413e-07
4.15658e-08
-4.98522e-08
3.23437e-08
-1.05687e-07
-6.45535e-08
8.39254e-08
-1.13927e-08
-6.68784e-08
1.06979e-07
8.27106e-08
-1.02223e-07
-1.40374e-07
-4.59228e-08
-6.4005e-08
-6.75636e-09
2.16692e-07
1.07569e-07
-1.34963e-07
-1.02207e-08
1.90698e-08
-6.00525e-08
1.1397e-07
6.80069e-08
-1.06003e-07
-2.1388e-08
-1.47684e-08
-1.36725e-07
2.15235e-08
2.58753e-07
2.58372e-07
7.30708e-08
-4.00263e-08
-5.3336e-08
-8.46126e-08
-1.109e-08
-8.45683e-08
-6.28707e-09
9.63999e-08
1.142e-07
1.56936e-07
8.35185e-09
8.91482e-08
2.63948e-07
1.55514e-07
-4.43086e-08
-7.06956e-08
1.14849e-07
9.3646e-08
1.19776e-07
1.18937e-07
3.56857e-08
1.10892e-07
6.51298e-08
4.45307e-08
1.33329e-08
-5.33801e-08
-9.96945e-08
-1.95741e-07
-1.3162e-07
1.68236e-07
4.8737e-08
-5.01486e-08
2.5413e-08
-8.78469e-08
-6.22231e-08
6.70919e-08
-4.91085e-09
-5.94173e-08
8.72845e-08
7.4191e-08
-8.93336e-08
-1.33381e-07
-4.57222e-08
-5.07388e-08
-6.36883e-09
1.91544e-07
1.08804e-07
-1.15904e-07
-1.74542e-08
2.13265e-08
-5.41283e-08
9.41267e-08
6.77678e-08
-8.97905e-08
-2.65632e-08
-1.43325e-08
-1.17253e-07
2.00023e-08
2.38184e-07
2.4273e-07
7.36472e-08
-3.64909e-08
-4.7514e-08
-7.95215e-08
-1.03385e-08
-7.1344e-08
-9.2393e-09
9.33138e-08
1.10666e-07
1.513e-07
2.39437e-08
8.44562e-08
2.42936e-07
1.52713e-07
-2.73829e-08
-6.1178e-08
1.06147e-07
9.30839e-08
1.11745e-07
1.18286e-07
3.81269e-08
1.022e-07
6.66695e-08
4.47297e-08
1.46538e-08
-4.99596e-08
-9.49207e-08
-1.757e-07
-1.3036e-07
1.43101e-07
5.4468e-08
-4.8829e-08
1.84987e-08
-7.23885e-08
-5.89344e-08
5.19864e-08
-2.29824e-10
-5.19302e-08
6.98558e-08
6.52595e-08
-7.74874e-08
-1.25702e-07
-4.58488e-08
-3.94076e-08
-5.208e-09
1.68449e-07
1.08752e-07
-9.74788e-08
-2.33648e-08
2.22961e-08
-4.80021e-08
7.63191e-08
6.62996e-08
-7.47663e-08
-3.00256e-08
-1.39108e-08
-9.94451e-08
1.86969e-08
2.18492e-07
2.27672e-07
7.42511e-08
-3.3123e-08
-4.22418e-08
-7.39877e-08
-1.01438e-08
-5.8965e-08
-1.11001e-08
8.97842e-08
1.0777e-07
1.4574e-07
3.7678e-08
8.06573e-08
2.23323e-07
1.49587e-07
-1.16599e-08
-5.15884e-08
9.78306e-08
9.24931e-08
1.04095e-07
1.16633e-07
4.11044e-08
9.43618e-08
6.74351e-08
4.48106e-08
1.57926e-08
-4.62122e-08
-9.05543e-08
-1.57359e-07
-1.27391e-07
1.19123e-07
5.85751e-08
-4.61001e-08
1.18525e-08
-5.93165e-08
-5.49009e-08
3.87507e-08
2.8046e-09
-4.46264e-08
5.47108e-08
5.61471e-08
-6.68245e-08
-1.17494e-07
-4.61071e-08
-2.99785e-08
-3.43655e-09
1.47512e-07
1.07442e-07
-7.99523e-08
-2.78448e-08
2.21462e-08
-4.18413e-08
6.05937e-08
6.37082e-08
-6.10346e-08
-3.19028e-08
-1.34726e-08
-8.33276e-08
1.76799e-08
1.99825e-07
2.13174e-07
7.48108e-08
-2.97944e-08
-3.75432e-08
-6.81348e-08
-1.03158e-08
-4.75939e-08
-1.18963e-08
8.58972e-08
1.0533e-07
1.4033e-07
4.96108e-08
7.77441e-08
2.05161e-07
1.46131e-07
2.72865e-09
-4.19523e-08
9.00274e-08
9.17946e-08
9.70087e-08
1.14085e-07
4.43321e-08
8.74178e-08
6.75215e-08
4.47868e-08
1.67389e-08
-4.2239e-08
-8.64421e-08
-1.40816e-07
-1.22956e-07
9.6688e-08
6.09793e-08
-4.22287e-08
5.69512e-09
-4.85275e-08
-5.03668e-08
2.7416e-08
4.42401e-09
-3.76955e-08
4.1779e-08
4.70796e-08
-5.74312e-08
-1.08946e-07
-4.63327e-08
-2.23622e-08
-1.22636e-09
1.28775e-07
1.04968e-07
-6.35525e-08
-3.08679e-08
2.10842e-08
-3.58012e-08
4.69389e-08
6.01295e-08
-4.86651e-08
-3.2366e-08
-1.29721e-08
-6.88679e-08
1.69812e-08
1.8228e-07
1.99228e-07