/*--------------------------------*- C++ -*----------------------------------*\
| =========                 |                                                 |
| \\      /  F ield         | OpenFOAM: The Open Source CFD Toolbox           |
|  \\    /   O peration     | Version:  2312                                  |
|   \\  /    A nd           | Website:  www.openfoam.com                      |
|    \\/     M anipulation  |                                                 |
\*---------------------------------------------------------------------------*/
FoamFile
{
    version     2.0;
    format      ascii;
    arch        "LSB;label=32;scalar=64";
    class       volScalarField;
    location    "300";
    object      pPrime2Mean;
}
// * * * * * * * * * * * * * * * * * * * * * * * * * * * * * * * * * * * * * //

dimensions      [0 4 -4 0 0 0 0];

internalField   nonuniform List<scalar> 
144000
(
1.40428e-15
1.31852e-15
1.32701e-14
3.50785e-14
1.37261e-14
1.53441e-15
1.67288e-14
1.84841e-14
3.35631e-14
1.72577e-14
9.09143e-15
2.00604e-15
4.01612e-15
2.5449e-14
1.94498e-14
2.96896e-14
1.07198e-14
1.30946e-14
4.8709e-14
4.50062e-14
8.89698e-14
3.81474e-14
3.17709e-14
6.01869e-16
1.52582e-14
3.22176e-14
6.07495e-15
4.02718e-15
3.49518e-14
1.01073e-14
8.78635e-15
4.6004e-15
1.23955e-15
1.1608e-14
1.42256e-14
3.07509e-14
1.28585e-14
5.88465e-16
1.951e-14
1.7888e-14
1.84861e-15
2.24763e-14
1.13586e-14
2.02297e-14
6.43575e-15
4.07699e-14
3.90708e-14
2.50108e-14
1.50596e-14
1.50459e-14
2.52631e-14
2.15856e-14
2.10053e-14
3.30141e-14
1.86161e-14
3.84733e-14
2.15589e-14
4.98056e-15
4.12293e-15
5.22839e-16
1.35494e-15
1.24971e-15
1.25517e-14
2.65661e-14
1.24035e-14
1.64411e-15
1.16542e-14
1.70811e-14
2.46311e-14
1.17632e-14
8.41059e-15
2.0101e-15
3.76815e-15
1.77535e-14
1.36639e-14
2.16972e-14
5.81314e-15
1.20249e-14
3.72952e-14
3.78487e-14
7.32057e-14
2.83758e-14
2.40132e-14
4.62405e-16
1.05878e-14
2.37549e-14
5.07372e-15
2.03585e-15
2.65156e-14
9.26441e-15
8.50309e-15
4.42455e-15
1.13765e-15
6.83308e-15
1.301e-14
2.26636e-14
1.15211e-14
6.4589e-16
1.37836e-14
1.25351e-14
1.67993e-15
1.59655e-14
1.03029e-14
1.39791e-14
3.34879e-15
3.04137e-14
2.94946e-14
2.3239e-14
1.48579e-14
1.42877e-14
1.81603e-14
1.93969e-14
1.41901e-14
2.39722e-14
1.24173e-14
2.90485e-14
1.43581e-14
4.40549e-15
3.93863e-15
4.89539e-16
1.24927e-15
1.14976e-15
1.0714e-14
2.11283e-14
9.78074e-15
1.83742e-15
8.21724e-15
1.35203e-14
1.86556e-14
7.78719e-15
6.27291e-15
1.81459e-15
3.15761e-15
1.28485e-14
9.16608e-15
1.45359e-14
3.46217e-15
8.80622e-15
2.88208e-14
2.89102e-14
5.67622e-14
2.19155e-14
1.79195e-14
4.26938e-16
7.17781e-15
1.81169e-14
3.4554e-15
1.3607e-15
2.0984e-14
7.97256e-15
7.72356e-15
3.98903e-15
8.73389e-16
4.21231e-15
9.99451e-15
1.78389e-14
8.97283e-15
8.27671e-16
9.84432e-15
9.29572e-15
1.38733e-15
1.19987e-14
7.99386e-15
9.84969e-15
1.50426e-15
2.19763e-14
2.27722e-14
1.92788e-14
1.38562e-14
1.21845e-14
1.393e-14
1.42849e-14
1.07213e-14
1.67733e-14
8.29686e-15
2.06833e-14
1.07007e-14
3.10465e-15
3.16003e-15
4.48435e-16
1.10061e-15
9.79016e-16
8.89346e-15
1.71982e-14
7.38427e-15
2.00229e-15
5.86585e-15
1.02008e-14
1.44723e-14
5.10422e-15
4.29612e-15
1.51763e-15
2.54113e-15
9.56948e-15
6.10429e-15
9.48111e-15
2.24614e-15
6.10385e-15
2.25356e-14
2.13417e-14
4.38756e-14
1.75348e-14
1.31434e-14
8.11155e-16
4.78191e-15
1.4055e-14
2.32898e-15
1.22111e-15
1.70451e-14
6.70132e-15
6.86073e-15
3.589e-15
6.85838e-16
2.67299e-15
7.41498e-15
1.44579e-14
6.61557e-15
1.1022e-15
7.09227e-15
6.93333e-15
1.3366e-15
9.36694e-15
6.01035e-15
7.13822e-15
7.43141e-16
1.59965e-14
1.78472e-14
1.52887e-14
1.25405e-14
1.01675e-14
1.10118e-14
9.74569e-15
8.5787e-15
1.16755e-14
5.69151e-15
1.44971e-14
8.48512e-15
1.97499e-15
2.29586e-15
4.03117e-16
9.37643e-16
7.8421e-16
7.22708e-15
1.40729e-14
5.60849e-15
2.07659e-15
4.25917e-15
7.59262e-15
1.12535e-14
3.40761e-15
2.92304e-15
1.23546e-15
2.00225e-15
7.1023e-15
4.26571e-15
5.99202e-15
1.52788e-15
4.28376e-15
1.74825e-14
1.5958e-14
3.37151e-14
1.4463e-14
9.49645e-15
1.30275e-15
3.2258e-15
1.08614e-14
1.79061e-15
1.25971e-15
1.38924e-14
5.6432e-15
6.02549e-15
3.25504e-15
5.60649e-16
1.70527e-15
5.57656e-15
1.17144e-14
4.85813e-15
1.36467e-15
5.22399e-15
5.08385e-15
1.38207e-15
7.4425e-15
4.68606e-15
5.33595e-15
6.52936e-16
1.16422e-14
1.41301e-14
1.21142e-14
1.11796e-14
8.44093e-15
8.72324e-15
6.42428e-15
6.96693e-15
8.03309e-15
4.11017e-15
9.97206e-15
6.82769e-15
1.2868e-15
1.60771e-15
3.59222e-16
7.82724e-16
6.01112e-16
5.71158e-15
1.15152e-14
4.31428e-15
2.06684e-15
3.16999e-15
5.54694e-15
8.68431e-15
2.3469e-15
2.0051e-15
9.83231e-16
1.53662e-15
5.20065e-15
3.17493e-15
3.61173e-15
1.07834e-15
3.0724e-15
1.3428e-14
1.21547e-14
2.54427e-14
1.21546e-14
6.64288e-15
1.7206e-15
2.2291e-15
8.26797e-15
1.60723e-15
1.31043e-15
1.13001e-14
4.78904e-15
5.23466e-15
2.95021e-15
4.83952e-16
1.09355e-15
4.23688e-15
9.422e-15
3.5892e-15
1.55803e-15
3.94053e-15
3.60119e-15
1.4357e-15
6.0159e-15
3.81648e-15
4.07665e-15
8.29912e-16
8.4806e-15
1.13172e-14
9.65584e-15
9.8442e-15
6.95884e-15
6.87894e-15
4.0567e-15
5.6562e-15
5.36392e-15
3.1208e-15
6.62756e-15
5.49871e-15
9.20957e-16
1.08003e-15
3.1707e-16
6.4779e-16
4.4403e-16
4.3919e-15
9.39226e-15
3.37339e-15
2.00371e-15
2.42177e-15
3.9474e-15
6.61878e-15
1.66837e-15
1.38578e-15
7.72035e-16
1.14436e-15
3.76171e-15
2.4879e-15
2.07029e-15
7.9086e-16
2.26332e-15
1.02447e-14
9.37762e-15
1.88835e-14
1.02975e-14
4.50472e-15
2.01187e-15
1.57825e-15
6.17994e-15
1.59598e-15
1.3247e-15
9.16912e-15
4.09933e-15
4.50193e-15
2.66328e-15
4.50658e-16
7.05162e-16
3.23451e-15
7.5022e-15
2.69228e-15
1.66898e-15
3.02522e-15
2.49018e-15
1.47956e-15
4.94135e-15
3.22593e-15
3.22013e-15
1.07287e-15
6.28094e-15
9.15788e-15
7.7399e-15
8.57597e-15
5.71154e-15
5.38177e-15
2.40079e-15
4.54748e-15
3.47835e-15
2.45666e-15
4.23942e-15
4.40575e-15
7.42891e-16
6.98832e-16
2.77696e-16
5.34133e-16
3.19437e-16
3.30143e-15
7.62405e-15
2.70812e-15
1.90294e-15
1.90013e-15
2.73675e-15
4.97254e-15
1.22549e-15
9.68877e-16
6.04364e-16
8.28566e-16
2.69764e-15
2.01783e-15
1.15101e-15
6.05573e-16
1.72778e-15
7.79356e-15
7.3175e-15
1.38256e-14
8.71878e-15
2.99011e-15
2.16006e-15
1.15717e-15
4.53257e-15
1.64914e-15
1.3053e-15
7.42645e-15
3.54773e-15
3.8417e-15
2.39108e-15
4.53041e-16
4.62405e-16
2.4899e-15
5.91949e-15
2.08843e-15
1.69251e-15
2.35759e-15
1.71722e-15
1.50538e-15
4.1181e-15
2.81945e-15
2.68282e-15
1.29724e-15
4.82439e-15
7.48296e-15
6.26209e-15
7.39861e-15
4.69143e-15
4.17136e-15
1.3042e-15
3.59584e-15
2.20942e-15
1.97352e-15
2.5951e-15
3.49309e-15
6.65142e-16
4.42011e-16
2.44194e-16
4.38076e-16
2.248e-16
2.43208e-15
6.14887e-15
2.25142e-15
1.77347e-15
1.53351e-15
1.85994e-15
3.68113e-15
9.31064e-16
6.88168e-16
4.75651e-16
5.8542e-16
1.92775e-15
1.6661e-15
6.51252e-16
4.8593e-16
1.37618e-15
5.93919e-15
5.77024e-15
1.00081e-14
7.32433e-15
1.96882e-15
2.16794e-15
8.95222e-16
3.27279e-15
1.70031e-15
1.26588e-15
6.01237e-15
3.10848e-15
3.26335e-15
2.13082e-15
4.78189e-16
3.16254e-16
1.94539e-15
4.64633e-15
1.70317e-15
1.63282e-15
1.87129e-15
1.23239e-15
1.50303e-15
3.48172e-15
2.53246e-15
2.34895e-15
1.47457e-15
3.90752e-15
6.17794e-15
5.13593e-15
6.32256e-15
3.87327e-15
3.2034e-15
6.35634e-16
2.77957e-15
1.3965e-15
1.59534e-15
1.51457e-15
2.72813e-15
6.332e-16
2.82781e-16
2.1421e-16
3.5552e-16
1.56129e-16
1.75972e-15
4.91884e-15
1.94012e-15
1.62625e-15
1.275e-15
1.25297e-15
2.68137e-15
7.30241e-16
4.97549e-16
3.78731e-16
4.04895e-16
1.3771e-15
1.38282e-15
4.13967e-16
4.10477e-16
1.14482e-15
4.55819e-15
4.5937e-15
7.1854e-15
6.07449e-15
1.31786e-15
2.05581e-15
7.44038e-16
2.33414e-15
1.71177e-15
1.21692e-15
4.87431e-15
2.75451e-15
2.76742e-15
1.8826e-15
5.12013e-16
2.33094e-16
1.55051e-15
3.64746e-15
1.46632e-15
1.5108e-15
1.52568e-15
9.57721e-16
1.46723e-15
2.98677e-15
2.32145e-15
2.14816e-15
1.60335e-15
3.34865e-15
5.1625e-15
4.28521e-15
5.35462e-15
3.22167e-15
2.44012e-15
2.71416e-16
2.08983e-15
9.05533e-16
1.28254e-15
8.40871e-16
2.09198e-15
6.13549e-16
1.9443e-16
1.84979e-16
2.84648e-16
1.10418e-16
1.25831e-15
3.90099e-15
1.72145e-15
1.46867e-15
1.09255e-15
8.48425e-16
1.91763e-15
5.88473e-16
3.66647e-16
3.06352e-16
2.75915e-16
9.86277e-16
1.14437e-15
3.25591e-16
3.66003e-16
9.89086e-16
3.53997e-15
3.68968e-15
5.13635e-15
4.96119e-15
9.27899e-16
1.85518e-15
6.6763e-16
1.64981e-15
1.66945e-15
1.16439e-15
3.96624e-15
2.46143e-15
2.34918e-15
1.64861e-15
5.42508e-16
1.90283e-16
1.26283e-15
2.88129e-15
1.32001e-15
1.35445e-15
1.29027e-15
8.23233e-16
1.40227e-15
2.60127e-15
2.15873e-15
2.02676e-15
1.69138e-15
3.01191e-15
4.37832e-15
3.64332e-15
4.50185e-15
2.70418e-15
1.8478e-15
1.04403e-16
1.52304e-15
6.26426e-16
1.01661e-15
4.45413e-16
1.57136e-15
5.88139e-16
1.54023e-16
1.58087e-16
2.24846e-16
8.38256e-17
8.9769e-16
3.06881e-15
1.55739e-15
1.30863e-15
9.62876e-16
5.86325e-16
1.34466e-15
4.83892e-16
2.75649e-16
2.5227e-16
1.87899e-16
7.09994e-16
9.40483e-16
3.11948e-16
3.4327e-16
8.79864e-16
2.79282e-15
2.98879e-15
3.67188e-15
3.98685e-15
7.0852e-16
1.60223e-15
6.37875e-16
1.16562e-15
1.57809e-15
1.1119e-15
3.2472e-15
2.20969e-15
1.99968e-15
1.43179e-15
5.61468e-16
1.72432e-16
1.05109e-15
2.30502e-15
1.22176e-15
1.19034e-15
1.13868e-15
7.70288e-16
1.31864e-15
2.29948e-15
2.02628e-15
1.94312e-15
1.74783e-15
2.80182e-15
3.77999e-15
3.15585e-15
3.76888e-15
2.29324e-15
1.39563e-15
5.19228e-17
1.07486e-15
4.76107e-16
7.90445e-16
2.3056e-16
1.15474e-15
5.50874e-16
1.43318e-16
1.35326e-16
1.75375e-16
7.1606e-17
6.46181e-16
2.39781e-15
1.42255e-15
1.15381e-15
8.68161e-16
4.20065e-16
9.25839e-16
4.02449e-16
2.11213e-16
2.11796e-16
1.3102e-16
5.15199e-16
7.66548e-16
3.26896e-16
3.35068e-16
7.98719e-16
2.24398e-15
2.44105e-15
2.63914e-15
3.15305e-15
5.9077e-16
1.32933e-15
6.32634e-16
8.32159e-16
1.44988e-15
1.06035e-15
2.6806e-15
1.98573e-15
1.70877e-15
1.23475e-15
5.6474e-16
1.68768e-16
8.92288e-16
1.87721e-15
1.14487e-15
1.03897e-15
1.04649e-15
7.56064e-16
1.22828e-15
2.06014e-15
1.91389e-15
1.87868e-15
1.77967e-15
2.65583e-15
3.32863e-15
2.78037e-15
3.15483e-15
1.96409e-15
1.0562e-15
5.66873e-17
7.36485e-16
3.97802e-16
6.02102e-16
1.26021e-16
8.30209e-16
5.02482e-16
1.48443e-16
1.17061e-16
1.35205e-16
6.89085e-17
4.7515e-16
1.86536e-15
1.30097e-15
1.01055e-15
7.94754e-16
3.16141e-16
6.29278e-16
3.35483e-16
1.64753e-16
1.81664e-16
9.65161e-17
3.78473e-16
6.20301e-16
3.4519e-16
3.35618e-16
7.34117e-16
1.83754e-15
2.01e-15
1.91803e-15
2.45653e-15
5.2638e-16
1.06234e-15
6.34816e-16
6.08696e-16
1.29927e-15
1.01035e-15
2.2353e-15
1.78165e-15
1.46691e-15
1.05917e-15
5.51765e-16
1.72408e-16
7.70732e-16
1.56088e-15
1.07606e-15
9.12307e-16
9.92505e-16
7.53775e-16
1.14167e-15
1.86754e-15
1.81515e-15
1.82274e-15
1.79174e-15
2.53778e-15
2.98967e-15
2.48625e-15
2.65158e-15
1.69666e-15
8.05813e-16
8.3346e-17
4.92986e-16
3.54221e-16
4.50518e-16
8.36161e-17
5.8366e-16
4.45974e-16
1.59547e-16
1.03056e-16
1.03158e-16
7.17037e-17
3.61148e-16
1.45053e-15
1.18455e-15
8.83037e-16
7.32889e-16
2.51794e-16
4.25842e-16
2.78157e-16
1.30719e-16
1.59405e-16
7.70459e-17
2.83454e-16
5.00374e-16
3.5531e-16
3.40233e-16
6.7955e-16
1.53194e-15
1.66865e-15
1.41713e-15
1.88841e-15
4.84623e-16
8.20542e-16
6.32518e-16
4.63341e-16
1.14035e-15
9.6138e-16
1.88474e-15
1.59384e-15
1.26552e-15
9.05592e-16
5.24452e-16
1.78596e-16
6.75047e-16
1.32551e-15
1.01022e-15
8.14573e-16
9.59368e-16
7.49579e-16
1.06601e-15
1.7094e-15
1.72606e-15
1.7695e-15
1.78758e-15
2.42943e-15
2.73254e-15
2.25178e-15
2.24659e-15
1.47556e-15
6.24443e-16
1.12859e-16
3.2648e-16
3.23989e-16
3.33202e-16
7.25478e-17
4.00954e-16
3.85224e-16
1.7031e-16
9.29093e-17
7.84416e-17
7.70354e-17
2.86577e-16
1.13343e-15
1.07046e-15
7.73018e-16
6.76198e-16
2.12286e-16
2.90478e-16
2.28224e-16
1.05469e-16
1.43106e-16
6.69995e-17
2.18033e-16
4.04437e-16
3.54041e-16
3.45459e-16
6.31606e-16
1.29719e-15
1.39673e-15
1.06922e-15
1.43547e-15
4.48306e-16
6.14584e-16
6.18826e-16
3.71761e-16
9.85132e-16
9.12904e-16
1.60689e-15
1.42122e-15
1.09711e-15
7.73503e-16
4.86354e-16
1.84697e-16
5.98398e-16
1.14712e-15
9.46785e-16
7.45098e-16
9.34606e-16
7.39279e-16
1.0036e-15
1.57654e-15
1.64434e-15
1.71695e-15
1.77009e-15
2.32173e-15
2.53169e-15
2.0618e-15
1.92534e-15
1.28972e-15
4.95668e-16
1.36823e-16
2.18535e-16
2.96489e-16
2.45883e-16
7.44116e-17
2.69143e-16
3.24609e-16
1.77227e-16
8.54973e-17
6.01988e-17
8.28739e-17
2.38642e-16
8.95335e-16
9.59008e-16
6.80293e-16
6.2156e-16
1.88394e-16
2.03112e-16
1.84969e-16
8.66393e-17
1.3117e-16
6.25536e-17
1.73658e-16
3.29764e-16
3.42763e-16
3.48787e-16
5.88412e-16
1.11279e-15
1.17884e-15
8.26314e-16
1.08199e-15
4.09651e-16
4.47971e-16
5.91439e-16
3.16163e-16
8.421e-16
8.63136e-16
1.38452e-15
1.26388e-15
9.55388e-16
6.61573e-16
4.41547e-16
1.89028e-16
5.3584e-16
1.00856e-15
8.86813e-16
6.98536e-16
9.10147e-16
7.24037e-16
9.53691e-16
1.46271e-15
1.56849e-15
1.66421e-15
1.74216e-15
2.21569e-15
2.36754e-15
1.90578e-15
1.67309e-15
1.13276e-15
4.06235e-16
1.52948e-16
1.52596e-16
2.67987e-16
1.8325e-16
7.91824e-17
1.76741e-16
2.6781e-16
1.78848e-16
7.97322e-17
4.74239e-17
8.79214e-17
2.08076e-16
7.19225e-16
8.52118e-16
6.03353e-16
5.67829e-16
1.74402e-16
1.47916e-16
1.48397e-16
7.27192e-17
1.22255e-16
6.13059e-17
1.44073e-16
2.73361e-16
3.24604e-16
3.48642e-16
5.49067e-16
9.64874e-16
1.00322e-15
6.55066e-16
8.11516e-16
3.66746e-16
3.20092e-16
5.51197e-16
2.8385e-16
7.16268e-16
8.11966e-16
1.20421e-15
1.12196e-15
8.35214e-16
5.6782e-16
3.94037e-16
1.90949e-16
4.84003e-16
8.98259e-16
8.31393e-16
6.68547e-16
8.82393e-16
7.06958e-16
9.13898e-16
1.36386e-15
1.49755e-15
1.6112e-15
1.70653e-15
2.11052e-15
2.22649e-15
1.77581e-15
1.47613e-15
1.00056e-15
3.45652e-16
1.61943e-16
1.15146e-16
2.38351e-16
1.39917e-16
8.21198e-17
1.14109e-16
2.17185e-16
1.75162e-16
7.47105e-17
3.89556e-17
9.13982e-17
1.88383e-16
5.90283e-16
7.52164e-16
5.3988e-16
5.15269e-16
1.66574e-16
1.13548e-16
1.18626e-16
6.26599e-17
1.15181e-16
6.1833e-17
1.24876e-16
2.31834e-16
3.03056e-16
3.44069e-16
5.13111e-16
8.44081e-16
8.60782e-16
5.32768e-16
6.08163e-16
3.20975e-16
2.26145e-16
5.00923e-16
2.66005e-16
6.0968e-16
7.59411e-16
1.05588e-15
9.95217e-16
7.32511e-16
4.89837e-16
3.47185e-16
1.90364e-16
4.4061e-16
8.08293e-16
7.81196e-16
6.49198e-16
8.50552e-16
6.90908e-16
8.81236e-16
1.2773e-15
1.43102e-15
1.55821e-15
1.66464e-15
2.00779e-15
2.09979e-15
1.66605e-15
1.32236e-15
8.90072e-16
3.05841e-16
1.65558e-16
9.62489e-17
2.08685e-16
1.11044e-16
8.15815e-17
7.33543e-17
1.73789e-16
1.67006e-16
6.96858e-17
3.365e-17
9.29291e-17
1.75202e-16
4.96258e-16
6.61177e-16
4.87344e-16
4.6477e-16
1.6234e-16
9.23088e-17
9.55061e-17
5.55781e-17
1.08957e-16
6.33891e-17
1.12799e-16
2.02077e-16
2.80962e-16
3.35307e-16
4.79959e-16
7.44049e-16
7.44549e-16
4.44119e-16
4.57612e-16
2.74996e-16
1.5989e-16
4.44685e-16
2.56558e-16
5.22108e-16
7.06e-16
9.32162e-16
8.82899e-16
6.44128e-16
4.2504e-16
3.03445e-16
1.87587e-16
4.0387e-16
7.3345e-16
7.36149e-16
6.35836e-16
8.15352e-16
6.77672e-16
8.52988e-16
1.2012e-15
1.36855e-15
1.50546e-15
1.61855e-15
1.90883e-15
1.98268e-15
1.5719e-15
1.20177e-15
7.98668e-16
2.80698e-16
1.6564e-16
8.85367e-17
1.80365e-16
9.25479e-17
7.76469e-17
4.81029e-17
1.37703e-16
1.55663e-16
6.43579e-17
3.04942e-17
9.24683e-17
1.65736e-16
4.27241e-16
5.80444e-16
4.43356e-16
4.17385e-16
1.59908e-16
7.92276e-17
7.83942e-17
5.07702e-17
1.03029e-16
6.55746e-17
1.05559e-16
1.81247e-16
2.59948e-16
3.2325e-16
4.49298e-16
6.60352e-16
6.49056e-16
3.78788e-16
3.47635e-16
2.3139e-16
1.15091e-16
3.86718e-16
2.51343e-16
4.51908e-16
6.52573e-16
8.27642e-16
7.83874e-16
5.67712e-16
3.7093e-16
2.64206e-16
1.83066e-16
3.7243e-16
6.70238e-16
6.95625e-16
6.25077e-16
7.78732e-16
6.67713e-16
8.27141e-16
1.13423e-15
1.30987e-15
1.45319e-15
1.56972e-15
1.81453e-15
1.87272e-15
1.48953e-15
1.10632e-15
7.23884e-16
2.65566e-16
1.63769e-16
8.7043e-17
1.54702e-16
8.1029e-17
7.12351e-17
3.33521e-17
1.08337e-16
1.42464e-16
5.88114e-17
2.86945e-17
9.02938e-17
1.5827e-16
3.75724e-16
5.10374e-16
4.05903e-16
3.74058e-16
1.57984e-16
7.12951e-17
6.63457e-17
4.76966e-17
9.72336e-17
6.82032e-17
1.01515e-16
1.66821e-16
2.4093e-16
3.09179e-16
4.20751e-16
5.89798e-16
5.70056e-16
3.29755e-16
2.68258e-16
1.92053e-16
8.61047e-17
3.30592e-16
2.47543e-16
3.96659e-16
6.00114e-16
7.38326e-16
6.96829e-16
5.01432e-16
3.25315e-16
2.29988e-16
1.77324e-16
3.45313e-16
6.16254e-16
6.58843e-16
6.14838e-16
7.4272e-16
6.60499e-16
8.02446e-16
1.07537e-15
1.25476e-15
1.40173e-15
1.51921e-15
1.72545e-15
1.76889e-15
1.41575e-15
1.02976e-15
6.6333e-16
2.57117e-16
1.61128e-16
8.86161e-17
1.32332e-16
7.39147e-17
6.35366e-17
2.54394e-17
8.48132e-17
1.28378e-16
5.33628e-17
2.7702e-17
8.68716e-17
1.51809e-16
3.36165e-16
4.50635e-16
3.73431e-16
3.3535e-16
1.55698e-16
6.66359e-17
5.83185e-17
4.59439e-17
9.15669e-17
7.11063e-17
9.95061e-17
1.56938e-16
2.24505e-16
2.94269e-16
3.94181e-16
5.29921e-16
5.04281e-16
2.92172e-16
2.11618e-16
1.58089e-16
6.82083e-17
2.78926e-16
2.4349e-16
3.53682e-16
5.49661e-16
6.61268e-16
6.20402e-16
4.43725e-16
2.86406e-16
2.00747e-16
1.70883e-16
3.21784e-16
5.69703e-16
6.25165e-16
6.04029e-16
7.09046e-16
6.54964e-16
7.78681e-16
1.02357e-15
1.20309e-15
1.35131e-15
1.46778e-15
1.64167e-15
1.67088e-15
1.34821e-15
9.67309e-16
6.14723e-16
2.5298e-16
1.58511e-16
9.13818e-17
1.13693e-16
6.93686e-17
5.56505e-17
2.16355e-17
6.61735e-17
1.14084e-16
4.83755e-17
2.71692e-17
8.26635e-17
1.45819e-16
3.04714e-16
4.00373e-16
3.44819e-16
3.01454e-16
1.52596e-16
6.42126e-17
5.32756e-17
4.51767e-17
8.61662e-17
7.41147e-17
9.87558e-17
1.50237e-16
2.10875e-16
2.79504e-16
3.69531e-16
4.78852e-16
4.49192e-16
2.62738e-16
1.7166e-16
1.29924e-16
5.77854e-17
2.33455e-16
2.3827e-16
3.20388e-16
5.0211e-16
5.94237e-16
5.53294e-16
3.93322e-16
2.52824e-16
1.76095e-16
1.64208e-16
3.01282e-16
5.29233e-16
5.94109e-16
5.92237e-16
6.78741e-16
6.49949e-16
7.56071e-16
9.77874e-16
1.15467e-15
1.30215e-15
1.41616e-15
1.56304e-15
1.57869e-15
1.28525e-15
9.15352e-16
5.75725e-16
2.51543e-16
1.56397e-16
9.44158e-17
9.87491e-17
6.61855e-17
4.84001e-17
2.0163e-17
5.15387e-17
1.00176e-16
4.41602e-17
2.69018e-17
7.80848e-17
1.4006e-16
2.78806e-16
3.58439e-16
3.19288e-16
2.72253e-16
1.48577e-16
6.33875e-17
5.03303e-17
4.51579e-17
8.11829e-17
7.70542e-17
9.88573e-17
1.45721e-16
1.99876e-16
2.65494e-16
3.46715e-16
4.35083e-16
4.02818e-16
2.39191e-16
1.43812e-16
1.07459e-16
5.22318e-17
1.9498e-16
2.31546e-16
2.9448e-16
4.58111e-16
5.35551e-16
4.94329e-16
3.492e-16
2.23565e-16
1.55444e-16
1.57618e-16
2.83376e-16
4.9379e-16
5.65356e-16
5.79431e-16
6.52062e-16
6.44424e-16
7.34984e-16
9.37375e-16
1.1093e-15
1.25444e-15
1.36494e-15
1.48939e-15
1.49244e-15
1.22576e-15
8.71229e-16
5.44403e-16
2.51727e-16
1.55018e-16
9.72295e-17
8.72355e-17
6.36565e-17
4.22813e-17
1.97792e-17
4.01855e-17
8.71007e-17
4.08888e-17
4.32666e-14
2.8786e-14
2.16565e-14
9.47618e-15
4.1411e-15
3.39147e-14
4.58423e-14
9.22327e-14
3.28452e-14
4.37722e-14
1.75502e-15
1.54404e-15
1.7973e-14
4.1127e-14
1.56517e-14
3.01215e-14
3.57068e-15
5.00464e-15
5.92201e-14
4.28432e-14
6.13605e-14
6.37875e-14
3.51472e-14
2.19394e-14
1.24387e-14
4.14817e-15
2.88704e-15
2.86138e-14
1.52925e-14
6.17106e-15
1.11762e-14
1.22224e-14
3.78366e-14
2.36178e-14
7.01472e-14
3.80854e-14
4.84088e-14
3.00793e-14
2.17502e-15
1.19728e-15
3.11546e-15
5.63826e-15
1.53236e-15
2.26283e-14
8.05056e-15
7.97172e-15
9.26958e-15
6.36661e-15
9.80995e-15
5.01274e-14
4.61913e-14
6.32252e-14
2.8347e-15
2.6864e-16
1.11356e-14
3.05774e-14
1.602e-14
3.07376e-14
6.339e-15
1.27715e-14
3.28438e-14
2.06499e-14
2.00835e-14
9.42274e-15
4.05697e-15
2.50332e-14
3.83879e-14
7.59287e-14
2.3991e-14
3.40955e-14
1.60728e-15
1.37358e-15
1.27537e-14
3.1072e-14
9.98431e-15
2.20382e-14
2.88382e-15
2.85789e-15
4.65564e-14
3.4655e-14
5.78688e-14
5.0862e-14
2.79869e-14
2.06922e-14
1.19354e-14
4.13895e-15
2.71184e-15
2.10262e-14
1.39827e-14
6.12859e-15
1.03608e-14
7.55308e-15
2.76322e-14
1.77645e-14
5.583e-14
2.84328e-14
4.46097e-14
2.20823e-14
1.97657e-15
1.1647e-15
3.02313e-15
5.33633e-15
1.63719e-15
1.67288e-14
7.49234e-15
7.73939e-15
8.97713e-15
6.42063e-15
9.41435e-15
3.88237e-14
3.73032e-14
5.10349e-14
2.47658e-15
2.24817e-16
7.05549e-15
2.17862e-14
1.0802e-14
2.23425e-14
5.22825e-15
7.72985e-15
2.45792e-14
1.50416e-14
1.60952e-14
8.97327e-15
3.65245e-15
1.89259e-14
2.88248e-14
5.87178e-14
1.7266e-14
2.6821e-14
1.66979e-15
9.75261e-16
9.04978e-15
2.2235e-14
6.27961e-15
1.63467e-14
1.77142e-15
1.54071e-15
3.6291e-14
2.69345e-14
4.82176e-14
4.11617e-14
2.10063e-14
1.70346e-14
1.04746e-14
4.11441e-15
2.17667e-15
1.63063e-14
1.15454e-14
5.86859e-15
8.21917e-15
5.1667e-15
1.91007e-14
1.20061e-14
4.27893e-14
2.15387e-14
3.52512e-14
1.77381e-14
1.56035e-15
1.0009e-15
2.83539e-15
4.83882e-15
1.801e-15
1.2711e-14
6.35295e-15
7.12617e-15
8.37525e-15
6.48169e-15
8.34374e-15
3.07247e-14
2.71718e-14
4.10814e-14
2.27611e-15
1.90749e-16
4.58668e-15
1.45306e-14
6.75981e-15
1.63194e-14
3.18501e-15
4.9428e-15
1.82464e-14
1.10952e-14
1.21631e-14
8.34817e-15
3.27685e-15
1.45935e-14
2.07178e-14
4.509e-14
1.26149e-14
2.09223e-14
1.80591e-15
6.95032e-16
6.45361e-15
1.57575e-14
4.07058e-15
1.21182e-14
1.12624e-15
7.80834e-16
2.83584e-14
2.05336e-14
3.87043e-14
3.37141e-14
1.5358e-14
1.34258e-14
8.85214e-15
4.00527e-15
1.77918e-15
1.29483e-14
9.23889e-15
5.45439e-15
6.33856e-15
3.83714e-15
1.2993e-14
7.6558e-15
3.25387e-14
1.65091e-14
2.64222e-14
1.48966e-14
1.25255e-15
8.67882e-16
2.59104e-15
4.31987e-15
2.02223e-15
9.8693e-15
5.27968e-15
6.3807e-15
7.66729e-15
6.4192e-15
7.26246e-15
2.45621e-14
1.89894e-14
3.26632e-14
2.27444e-15
2.26965e-16
3.04e-15
9.51222e-15
4.12155e-15
1.18819e-14
1.73975e-15
3.26007e-15
1.32458e-14
8.2896e-15
8.99146e-15
7.62257e-15
2.94491e-15
1.11735e-14
1.50108e-14
3.41633e-14
9.61722e-15
1.60227e-14
1.93e-15
5.09099e-16
4.70672e-15
1.09339e-14
2.85447e-15
8.85424e-15
8.97557e-16
4.45512e-16
2.1944e-14
1.56687e-14
3.07695e-14
2.75501e-14
1.12757e-14
1.06191e-14
7.38479e-15
3.8033e-15
1.51117e-15
1.02967e-14
7.45692e-15
4.97838e-15
4.99505e-15
3.03193e-15
8.59935e-15
4.87154e-15
2.45034e-14
1.2766e-14
1.9589e-14
1.26331e-14
1.07429e-15
7.85559e-16
2.3147e-15
3.87374e-15
2.17122e-15
7.8143e-15
4.49925e-15
5.69751e-15
6.96629e-15
6.2121e-15
6.34727e-15
1.94203e-14
1.35148e-14
2.53871e-14
2.41502e-15
2.6989e-16
2.09059e-15
6.03008e-15
2.61603e-15
8.50815e-15
9.72314e-16
2.18407e-15
9.27794e-15
6.26493e-15
6.47923e-15
6.83237e-15
2.64849e-15
8.46749e-15
1.10602e-14
2.53186e-14
7.68402e-15
1.19422e-14
2.02547e-15
3.72355e-16
3.51226e-15
7.27723e-15
2.17786e-15
6.28319e-15
8.71003e-16
3.32194e-16
1.67434e-14
1.20657e-14
2.41943e-14
2.24116e-14
8.37958e-15
8.46228e-15
6.08504e-15
3.5321e-15
1.31709e-15
8.14198e-15
6.10432e-15
4.46879e-15
4.00945e-15
2.49707e-15
5.42702e-15
3.14786e-15
1.81637e-14
1.00057e-14
1.43707e-14
1.07086e-14
9.86709e-16
7.41637e-16
2.04125e-15
3.49754e-15
2.23599e-15
6.31493e-15
3.93972e-15
5.0912e-15
6.29273e-15
5.89322e-15
5.57703e-15
1.50585e-14
9.95804e-15
1.90653e-14
2.60904e-15
2.94112e-16
1.47817e-15
3.61801e-15
1.74902e-15
5.88193e-15
6.07014e-16
1.47525e-15
6.27868e-15
4.75389e-15
4.52874e-15
6.01391e-15
2.39675e-15
6.3783e-15
8.2558e-15
1.83312e-14
6.38684e-15
8.61605e-15
2.08916e-15
2.79161e-16
2.65698e-15
4.64074e-15
1.77019e-15
4.32705e-15
9.28762e-16
3.1746e-16
1.26168e-14
9.3687e-15
1.876e-14
1.8164e-14
6.29329e-15
6.77166e-15
4.96911e-15
3.2201e-15
1.17651e-15
6.38255e-15
5.07053e-15
3.95431e-15
3.26868e-15
2.10572e-15
3.22602e-15
2.06753e-15
1.32447e-14
7.94821e-15
1.03886e-14
9.04646e-15
9.60276e-16
7.2525e-16
1.79538e-15
3.18018e-15
2.23681e-15
5.20264e-15
3.52231e-15
4.56014e-15
5.66585e-15
5.49673e-15
4.92729e-15
1.14398e-14
7.58781e-15
1.37687e-14
2.79255e-15
3.02391e-16
1.04898e-15
2.04992e-15
1.21223e-15
3.91284e-15
4.64468e-16
9.90789e-16
4.11879e-15
3.59438e-15
3.0686e-15
5.19757e-15
2.19008e-15
4.81178e-15
6.23923e-15
1.30142e-14
5.45995e-15
5.98576e-15
2.11649e-15
2.24389e-16
2.02166e-15
2.83242e-15
1.48866e-15
2.89765e-15
1.01013e-15
3.48485e-16
9.41786e-15
7.33329e-15
1.43354e-14
1.46515e-14
4.77811e-15
5.43327e-15
4.04589e-15
2.88718e-15
1.07794e-15
4.96203e-15
4.27443e-15
3.45656e-15
2.71047e-15
1.7971e-15
1.78106e-15
1.39131e-15
9.51269e-15
6.38564e-15
7.41363e-15
7.59427e-15
9.75995e-16
7.25882e-16
1.59116e-15
2.91016e-15
2.19035e-15
4.37057e-15
3.20155e-15
4.10135e-15
5.09728e-15
5.05886e-15
4.38299e-15
8.53086e-15
5.95304e-15
9.51405e-15
2.91852e-15
2.98028e-16
7.3469e-16
1.10241e-15
8.56361e-16
2.50295e-15
4.36255e-16
6.54482e-16
2.62888e-15
2.68978e-15
2.01553e-15
4.4045e-15
2.02098e-15
3.66467e-15
4.77618e-15
9.07074e-15
4.72923e-15
3.97104e-15
2.09907e-15
1.97779e-16
1.53746e-15
1.65356e-15
1.26012e-15
1.89497e-15
1.07481e-15
3.97489e-16
6.99379e-15
5.79003e-15
1.07958e-14
1.1748e-14
3.6753e-15
4.36201e-15
3.30206e-15
2.54508e-15
1.01096e-15
3.83893e-15
3.64957e-15
2.98942e-15
2.28382e-15
1.54035e-15
8.92976e-16
9.68774e-16
6.74402e-15
5.17811e-15
5.25333e-15
6.32134e-15
1.02132e-15
7.36678e-16
1.43283e-15
2.67312e-15
2.11313e-15
3.74566e-15
2.94663e-15
3.70794e-15
4.58927e-15
4.60224e-15
3.92711e-15
6.27035e-15
4.7641e-15
6.24965e-15
2.9511e-15
2.85562e-16
5.05987e-16
5.66348e-16
6.05489e-16
1.53402e-15
4.49539e-16
4.25159e-16
1.63385e-15
1.98198e-15
1.28192e-15
3.65203e-15
1.87526e-15
2.83712e-15
3.70224e-15
6.22242e-15
4.09164e-15
2.49766e-15
2.02825e-15
1.90803e-16
1.16457e-15
9.3678e-16
1.05145e-15
1.22293e-15
1.09943e-15
4.49029e-16
5.197e-15
4.61206e-15
8.01807e-15
9.35208e-15
2.8704e-15
3.49436e-15
2.71191e-15
2.20524e-15
9.65362e-16
2.97255e-15
3.14457e-15
2.56181e-15
1.95006e-15
1.32e-15
3.95417e-16
7.00073e-16
4.73045e-15
4.22718e-15
3.73084e-15
5.2028e-15
1.08583e-15
7.52798e-16
1.3172e-15
2.45871e-15
2.02111e-15
3.27335e-15
2.73648e-15
3.37157e-15
4.13952e-15
4.1488e-15
3.54138e-15
4.57001e-15
3.84079e-15
3.87775e-15
2.86917e-15
2.72767e-16
3.46173e-16
2.85656e-16
4.21274e-16
9.02289e-16
4.59999e-16
2.7528e-16
9.9491e-16
1.43289e-15
7.91335e-16
2.96037e-15
1.74197e-15
2.2442e-15
2.90415e-15
4.21802e-15
3.50024e-15
1.4821e-15
1.89997e-15
1.95957e-16
8.79057e-16
5.35621e-16
8.54242e-16
7.95389e-16
1.07683e-15
4.9555e-16
3.89039e-15
3.7048e-15
5.88186e-15
7.37991e-15
2.27977e-15
2.78428e-15
2.24781e-15
1.88114e-15
9.3207e-16
2.3195e-15
2.72178e-15
2.18039e-15
1.68093e-15
1.12897e-15
1.55668e-16
5.22233e-16
3.29976e-15
3.46565e-15
2.69064e-15
4.22911e-15
1.15787e-15
7.70499e-16
1.23649e-15
2.26212e-15
1.92585e-15
2.91212e-15
2.55754e-15
3.08413e-15
3.74384e-15
3.71685e-15
3.20536e-15
3.32681e-15
3.08361e-15
2.24941e-15
2.67257e-15
2.66395e-16
2.40858e-16
1.51556e-16
2.85179e-16
5.11359e-16
4.49104e-16
1.82551e-16
5.95712e-16
1.01528e-15
4.78276e-16
2.34983e-15
1.61311e-15
1.81635e-15
2.30558e-15
2.84621e-15
2.94037e-15
8.31411e-16
1.71853e-15
2.09706e-16
6.63898e-16
3.35645e-16
6.7307e-16
5.39093e-16
1.01241e-15
5.33448e-16
2.95391e-15
2.99911e-15
4.27217e-15
5.764e-15
1.84195e-15
2.19976e-15
1.88384e-15
1.58457e-15
9.02672e-16
1.83655e-15
2.35646e-15
1.84938e-15
1.4573e-15
9.6401e-16
7.26262e-17
3.97814e-16
2.30687e-15
2.8482e-15
2.00153e-15
3.39692e-15
1.22561e-15
7.87371e-16
1.18163e-15
2.08223e-15
1.83463e-15
2.63089e-15
2.40145e-15
2.8374e-15
3.39714e-15
3.3195e-15
2.90275e-15
2.44115e-15
2.44503e-15
1.20825e-15
2.38069e-15
2.71867e-16
1.76224e-16
9.29729e-17
1.876e-16
2.81935e-16
4.15992e-16
1.29673e-16
3.53132e-16
7.06336e-16
2.8801e-16
1.83204e-15
1.48422e-15
1.50247e-15
1.85408e-15
1.92901e-15
2.4152e-15
4.54293e-16
1.49622e-15
2.29006e-16
5.05063e-16
2.52611e-16
5.1641e-16
3.96432e-16
9.18763e-16
5.61012e-16
2.28934e-15
2.44521e-15
3.08197e-15
4.4501e-15
1.51158e-15
1.71806e-15
1.59731e-15
1.32369e-15
8.72424e-16
1.48347e-15
2.03498e-15
1.56982e-15
1.26631e-15
8.22843e-16
7.50406e-17
3.06311e-16
1.63268e-15
2.34417e-15
1.55743e-15
2.70262e-15
1.27912e-15
8.01686e-16
1.14321e-15
1.9207e-15
1.75058e-15
2.40587e-15
2.2628e-15
2.62447e-15
3.09389e-15
2.96387e-15
2.62243e-15
1.82545e-15
1.90614e-15
5.99352e-16
2.02505e-15
2.90129e-16
1.39184e-16
6.85623e-17
1.21798e-16
1.53952e-16
3.68063e-16
1.02924e-16
2.08931e-16
4.84876e-16
1.78138e-16
1.40754e-15
1.35334e-15
1.26649e-15
1.51178e-15
1.32737e-15
1.93612e-15
2.65382e-16
1.25153e-15
2.51548e-16
3.90333e-16
2.29447e-16
3.91048e-16
3.24043e-16
8.10671e-16
5.77843e-16
1.81884e-15
2.00732e-15
2.21726e-15
3.39354e-15
1.25575e-15
1.32286e-15
1.36941e-15
1.10238e-15
8.38136e-16
1.22572e-15
1.75079e-15
1.33848e-15
1.0995e-15
7.03065e-16
1.15894e-16
2.37646e-16
1.18442e-15
1.9324e-15
1.27611e-15
2.13962e-15
1.31135e-15
8.12263e-16
1.11402e-15
1.77812e-15
1.67413e-15
2.22084e-15
2.13857e-15
2.43938e-15
2.82862e-15
2.6524e-15
2.35908e-15
1.40399e-15
1.46024e-15
2.83576e-16
1.64391e-15
3.17669e-16
1.18259e-16
5.70551e-17
8.10488e-17
8.62052e-17
3.14278e-16
9.16098e-17
1.24232e-16
3.31509e-16
1.18205e-16
1.07197e-15
1.22105e-15
1.08475e-15
1.25054e-15
9.37971e-16
1.51464e-15
1.94212e-16
1.00465e-15
2.74191e-16
3.0916e-16
2.30564e-16
2.99896e-16
2.90978e-16
7.01537e-16
5.84053e-16
1.48381e-15
1.65947e-15
1.59956e-15
2.55506e-15
1.05105e-15
1.00232e-15
1.18445e-15
9.19953e-16
7.97807e-16
1.03575e-15
1.5015e-15
1.14983e-15
9.5192e-16
6.01885e-16
1.66465e-16
1.87179e-16
8.91846e-16
1.59752e-15
1.09764e-15
1.6973e-15
1.31866e-15
8.19209e-16
1.08896e-15
1.65434e-15
1.60447e-15
2.06466e-15
2.02662e-15
2.27719e-15
2.59623e-15
2.38359e-15
2.11179e-15
1.1199e-15
1.10203e-15
1.49425e-16
1.27333e-15
3.47732e-16
1.05476e-16
4.96221e-17
5.83293e-17
5.24905e-17
2.6181e-16
8.77633e-17
7.4733e-17
2.29116e-16
8.77625e-17
8.1494e-16
1.0892e-15
9.41576e-16
1.04923e-15
6.87306e-16
1.15796e-15
1.87323e-16
7.73429e-16
2.93655e-16
2.52594e-16
2.3628e-16
2.40807e-16
2.76995e-16
6.01477e-16
5.80525e-16
1.24172e-15
1.3823e-15
1.16525e-15
1.90006e-15
8.81443e-16
7.4671e-16
1.03006e-15
7.73218e-16
7.51083e-16
8.93344e-16
1.28609e-15
9.9658e-16
8.20953e-16
5.16427e-16
2.11083e-16
1.52467e-16
7.0306e-16
1.32801e-15
9.80595e-16
1.36123e-15
1.30096e-15
8.23219e-16
1.06502e-15
1.54821e-15
1.53998e-15
1.92943e-15
1.9249e-15
2.13395e-15
2.39205e-15
2.15355e-15