/*--------------------------------*- C++ -*----------------------------------*\
| =========                 |                                                 |
| \\      /  F ield         | OpenFOAM: The Open Source CFD Toolbox           |
|  \\    /   O peration     | Version:  2312                                  |
|   \\  /    A nd           | Website:  www.openfoam.com                      |
|    \\/     M anipulation  |                                                 |
\*---------------------------------------------------------------------------*/
FoamFile
{
    version     2.0;
    format      ascii;
    arch        "LSB;label=32;scalar=64";
    class       volScalarField;
    location    "600";
    object      pMean;
}
// * * * * * * * * * * * * * * * * * * * * * * * * * * * * * * * * * * * * * //

dimensions      [0 2 -2 0 0 0 0];

internalField   nonuniform List<scalar> 
144000
(
1.61199e-09
1.4935e-09
4.03507e-10
-3.01287e-10
-2.85847e-10
-6.33596e-11
1.80783e-10
3.22281e-10
4.4601e-10
4.88654e-10
5.50109e-10
5.56576e-10
5.98968e-10
5.9207e-10
6.28798e-10
6.17318e-10
6.47124e-10
6.26111e-10
6.56758e-10
6.37997e-10
6.67893e-10
6.43469e-10
6.73581e-10
6.4967e-10
6.80891e-10
6.55982e-10
6.86654e-10
6.58089e-10
6.89792e-10
6.62014e-10
6.95616e-10
6.67828e-10
6.99784e-10
6.66608e-10
6.99763e-10
6.68869e-10
7.03342e-10
6.72317e-10
7.05814e-10
6.72507e-10
7.06528e-10
6.75892e-10
7.09931e-10
6.79984e-10
7.07196e-10
6.72706e-10
6.99309e-10
6.75577e-10
6.99325e-10
6.83398e-10
7.0146e-10
7.02051e-10
7.00797e-10
7.16787e-10
6.75299e-10
7.33505e-10
6.78994e-10
7.67505e-10
-6.23608e-10
1.05731e-10
1.64551e-09
1.51421e-09
3.94678e-10
-3.08246e-10
-2.87807e-10
-6.31335e-11
1.80854e-10
3.22259e-10
4.4561e-10
4.88274e-10
5.4958e-10
5.56242e-10
5.98524e-10
5.91819e-10
6.28433e-10
6.17173e-10
6.46812e-10
6.25967e-10
6.56465e-10
6.37938e-10
6.67641e-10
6.43416e-10
6.73341e-10
6.49671e-10
6.80679e-10
6.56012e-10
6.86446e-10
6.58119e-10
6.89584e-10
6.62081e-10
6.95428e-10
6.67928e-10
6.99593e-10
6.66688e-10
6.99561e-10
6.69001e-10
7.03156e-10
6.72472e-10
7.05625e-10
6.72667e-10
7.06339e-10
6.76097e-10
7.09776e-10
6.80243e-10
7.07038e-10
6.72943e-10
6.99143e-10
6.75905e-10
6.99202e-10
6.83749e-10
7.01401e-10
7.02461e-10
7.00878e-10
7.17077e-10
6.75496e-10
7.33092e-10
6.82885e-10
7.80604e-10
-6.43659e-10
7.71934e-11
1.70736e-09
1.52658e-09
3.71492e-10
-3.15753e-10
-2.8763e-10
-6.1552e-11
1.81801e-10
3.22576e-10
4.45634e-10
4.87846e-10
5.4912e-10
5.55675e-10
5.98116e-10
5.91315e-10
6.28094e-10
6.16804e-10
6.46606e-10
6.2559e-10
6.5623e-10
6.37655e-10
6.67509e-10
6.4314e-10
6.73206e-10
6.49467e-10
6.80599e-10
6.55839e-10
6.86397e-10
6.57941e-10
6.89528e-10
6.61942e-10
6.95399e-10
6.67829e-10
6.99604e-10
6.66559e-10
6.9953e-10
6.68932e-10
7.03168e-10
6.72432e-10
7.05656e-10
6.72629e-10
7.06349e-10
6.76111e-10
7.09827e-10
6.80344e-10
7.07153e-10
6.73024e-10
6.99198e-10
6.76081e-10
6.99362e-10
6.83912e-10
7.01611e-10
7.0264e-10
7.01354e-10
7.17092e-10
6.76473e-10
7.30432e-10
6.88014e-10
8.06612e-10
-6.89225e-10
5.0481e-11
1.78831e-09
1.51102e-09
3.37236e-10
-3.18142e-10
-2.84664e-10
-5.81078e-11
1.84043e-10
3.2388e-10
4.4635e-10
4.87714e-10
5.48723e-10
5.55048e-10
5.9766e-10
5.90708e-10
6.27662e-10
6.1635e-10
6.46382e-10
6.25114e-10
6.55898e-10
6.37278e-10
6.67351e-10
6.42788e-10
6.73013e-10
6.49193e-10
6.80496e-10
6.55616e-10
6.8635e-10
6.57708e-10
6.89448e-10
6.61751e-10
6.95367e-10
6.67699e-10
6.99657e-10
6.6639e-10
6.99487e-10
6.68826e-10
7.03204e-10
6.72368e-10
7.05733e-10
6.72555e-10
7.06384e-10
6.76083e-10
7.09941e-10
6.80425e-10
7.0743e-10
6.73048e-10
6.99359e-10
6.76167e-10
6.99736e-10
6.83916e-10
7.02111e-10
7.02472e-10
7.02533e-10
7.16202e-10
6.78984e-10
7.23935e-10
6.98951e-10
8.35197e-10
-7.55915e-10
4.65734e-11
1.87318e-09
1.44678e-09
2.96437e-10
-3.05475e-10
-2.76467e-10
-5.28721e-11
1.87431e-10
3.26296e-10
4.4793e-10
4.88047e-10
5.48423e-10
5.54412e-10
5.97121e-10
5.90027e-10
6.27093e-10
6.15826e-10
6.46093e-10
6.24564e-10
6.55411e-10
6.36823e-10
6.67118e-10
6.42382e-10
6.72704e-10
6.4887e-10
6.80313e-10
6.55369e-10
6.86248e-10
6.57456e-10
6.89281e-10
6.61538e-10
6.95267e-10
6.67574e-10
6.99691e-10
6.66224e-10
6.99365e-10
6.68715e-10
7.032e-10
6.7232e-10
7.05796e-10
6.72487e-10
7.0638e-10
6.76043e-10
7.10064e-10
6.80528e-10
7.07802e-10
6.73055e-10
6.99561e-10
6.76144e-10
7.00303e-10
6.8366e-10
7.02958e-10
7.01762e-10
7.04599e-10
7.14095e-10
6.83381e-10
7.13542e-10
7.16243e-10
8.59452e-10
-8.35999e-10
8.39112e-11
1.95621e-09
1.319e-09
2.50355e-10
-2.70199e-10
-2.60668e-10
-4.64697e-11
1.91502e-10
3.29673e-10
4.50335e-10
4.88835e-10
5.48229e-10
5.53762e-10
5.96504e-10
5.89281e-10
6.26398e-10
6.15236e-10
6.45735e-10
6.23956e-10
6.54775e-10
6.36294e-10
6.66802e-10
6.41934e-10
6.72271e-10
6.48497e-10
6.80042e-10
6.55102e-10
6.86082e-10
6.5719e-10
6.89018e-10
6.61305e-10
6.9509e-10
6.67456e-10
6.99694e-10
6.66074e-10
6.99153e-10
6.68601e-10
7.03145e-10
6.7229e-10
7.05829e-10
6.72429e-10
7.06321e-10
6.7599e-10
7.10173e-10
6.80638e-10
7.08261e-10
6.73031e-10
6.99819e-10
6.75958e-10
7.01096e-10
6.83067e-10
7.04225e-10
7.00332e-10
7.0773e-10
7.10427e-10
6.90088e-10
6.99163e-10
7.40151e-10
8.76754e-10
-9.27491e-10
1.73346e-10
2.0403e-09
1.1206e-09
1.95193e-10
-2.07849e-10
-2.346e-10
-3.93038e-11
1.9567e-10
3.33802e-10
4.53458e-10
4.9002e-10
5.48068e-10
5.53083e-10
5.95781e-10
5.88454e-10
6.25558e-10
6.14571e-10
6.45299e-10
6.23306e-10
6.54e-10
6.35698e-10
6.66406e-10
6.41464e-10
6.71722e-10
6.48083e-10
6.79686e-10
6.54826e-10
6.85851e-10
6.56926e-10
6.88661e-10
6.61058e-10
6.94836e-10
6.67352e-10
6.99656e-10
6.65951e-10
6.98846e-10
6.68484e-10
7.03029e-10
6.72278e-10
7.05821e-10
6.72388e-10
7.06202e-10
6.75916e-10
7.10263e-10
6.8074e-10
7.08803e-10
6.72954e-10
7.00149e-10
6.75557e-10
7.02134e-10
6.82053e-10
7.06009e-10
6.98025e-10
7.12081e-10
7.04953e-10
6.99356e-10
6.80905e-10
7.70039e-10
8.87452e-10
-1.03166e-09
3.1881e-10
2.13032e-09
8.51459e-10
1.2622e-10
-1.16994e-10
-1.96003e-10
-3.15526e-11
1.99395e-10
3.38449e-10
4.57161e-10
4.91486e-10
5.4787e-10
5.52301e-10
5.94892e-10
5.87519e-10
6.24553e-10
6.13809e-10
6.44757e-10
6.22618e-10
6.53087e-10
6.35034e-10
6.65918e-10
6.40983e-10
6.71064e-10
6.47639e-10
6.79246e-10
6.54554e-10
6.85552e-10
6.56678e-10
6.88213e-10
6.6081e-10
6.94506e-10
6.67273e-10
6.99569e-10
6.65872e-10
6.98449e-10
6.68375e-10
7.02851e-10
6.72294e-10
7.05764e-10
6.72368e-10
7.06026e-10
6.75822e-10
7.10344e-10
6.8082e-10
7.09422e-10
6.72809e-10
7.00585e-10
6.74878e-10
7.03459e-10
6.80548e-10
7.08378e-10
6.94752e-10
7.17693e-10
6.97698e-10
7.11029e-10
6.59597e-10
8.03968e-10
8.93317e-10
-1.148e-09
5.17294e-10
2.23163e-09
5.20204e-10
3.8469e-11
2.92827e-13
-1.43067e-10
-2.30086e-11
2.02209e-10
3.43364e-10
4.61329e-10
4.93177e-10
5.47569e-10
5.51366e-10
5.93786e-10
5.86441e-10
6.23353e-10
6.12927e-10
6.44072e-10
6.21882e-10
6.5203e-10
6.34297e-10
6.65318e-10
6.40491e-10
6.70293e-10
6.47167e-10
6.78717e-10
6.5429e-10
6.85178e-10
6.56456e-10
6.87676e-10
6.60569e-10
6.94101e-10
6.67227e-10
6.99426e-10
6.65849e-10
6.97972e-10
6.68275e-10
7.02607e-10
6.72342e-10
7.0566e-10
6.72371e-10
7.05802e-10
6.75704e-10
7.10425e-10
6.80861e-10
7.10125e-10
6.72573e-10
7.01155e-10
6.73895e-10
7.05084e-10
6.78531e-10
7.11319e-10
6.90529e-10
7.24432e-10
6.88961e-10
7.24524e-10
6.36625e-10
8.39265e-10
8.97038e-10
-1.27445e-09
7.57655e-10
2.34665e-09
1.42234e-10
-7.10485e-11
1.38873e-10
-7.50586e-11
-1.31962e-11
2.03746e-10
3.48275e-10
4.65849e-10
4.95033e-10
5.47119e-10
5.50231e-10
5.92428e-10
5.85199e-10
6.2194e-10
6.11898e-10
6.43209e-10
6.21083e-10
6.50825e-10
6.33478e-10
6.64587e-10
6.39982e-10
6.69409e-10
6.46664e-10
6.78093e-10
6.54032e-10
6.8472e-10
6.56259e-10
6.87054e-10
6.60339e-10
6.93621e-10
6.67215e-10
6.9922e-10
6.65881e-10
6.97423e-10
6.68186e-10
7.02304e-10
6.72419e-10
7.05512e-10
6.72392e-10
7.05546e-10
6.75555e-10
7.10516e-10
6.80847e-10
7.10908e-10
6.72233e-10
7.01879e-10
6.72614e-10
7.06984e-10
6.76035e-10
7.14757e-10
6.85536e-10
7.31996e-10
6.79299e-10
7.38933e-10
6.13783e-10
8.72867e-10
9.01358e-10
-1.40641e-09
1.02445e-09
2.47502e-09
-2.62753e-10
-2.03111e-10
2.90966e-10
7.62163e-12
-1.45912e-12
2.03791e-10
3.52888e-10
4.70588e-10
4.97006e-10
5.4649e-10
5.48888e-10
5.90804e-10
5.83784e-10
6.20304e-10
6.10713e-10
6.42145e-10
6.20211e-10
6.4947e-10
6.32574e-10
6.63711e-10
6.39448e-10
6.68409e-10
6.46126e-10
6.77365e-10
6.53778e-10
6.84173e-10
6.56085e-10
6.8635e-10
6.6012e-10
6.93068e-10
6.67233e-10
6.98945e-10
6.65965e-10
6.96815e-10
6.68106e-10
7.01943e-10
6.72518e-10
7.05322e-10
6.72421e-10
7.0527e-10
6.7537e-10
7.10621e-10
6.80774e-10
7.1176e-10
6.71796e-10
7.02746e-10
6.71069e-10
7.09095e-10
6.73162e-10
7.18549e-10
6.80042e-10
7.39943e-10
6.69418e-10
7.53179e-10
5.92891e-10
9.0207e-10
9.08417e-10
-1.53729e-09
1.29958e-09
2.61273e-09
-6.71788e-10
-3.55789e-10
4.47771e-10
1.03254e-10
1.29224e-11
2.02303e-10
3.56886e-10
4.75384e-10
4.99044e-10
5.45678e-10
5.47339e-10
5.8891e-10
5.82193e-10
6.1844e-10
6.09367e-10
6.40867e-10
6.19258e-10
6.47967e-10
6.31583e-10
6.62675e-10
6.38881e-10
6.67296e-10
6.45551e-10
6.7653e-10
6.53519e-10
6.83532e-10
6.55928e-10
6.85568e-10
6.59911e-10
6.92442e-10
6.67276e-10
6.98599e-10
6.66092e-10
6.96158e-10
6.68033e-10
7.01529e-10
6.72632e-10
7.0509e-10
6.72459e-10
7.04981e-10
6.75156e-10
7.10732e-10
6.80644e-10
7.12656e-10
6.71281e-10
7.03724e-10
6.69326e-10
7.11313e-10
6.70051e-10
7.22476e-10
6.74397e-10
7.47765e-10
6.60083e-10
7.66201e-10
5.75527e-10
9.24833e-10
9.19447e-10
-1.65916e-09
1.5654e-09
2.75382e-09
-1.06364e-09
-5.25143e-10
6.00185e-10
2.09121e-10
3.07525e-11
1.99492e-10
3.59995e-10
4.8005e-10
5.01106e-10
5.44696e-10
5.45599e-10
5.86754e-10
5.80427e-10
6.16356e-10
6.07866e-10
6.39374e-10
6.18222e-10
6.46326e-10
6.30509e-10
6.61479e-10
6.38273e-10
6.66075e-10
6.44939e-10
6.75587e-10
6.53251e-10
6.82796e-10
6.5578e-10
6.84713e-10
6.59708e-10
6.91744e-10
6.67337e-10
6.98181e-10
6.66254e-10
6.95458e-10
6.67965e-10
7.01061e-10
6.72756e-10
7.04816e-10
6.72501e-10
7.04679e-10
6.7492e-10
7.10842e-10
6.8047e-10
7.13562e-10
6.70724e-10
7.04765e-10
6.67471e-10
7.13514e-10
6.66904e-10
7.26287e-10
6.68976e-10
7.54947e-10
6.52003e-10
7.7708e-10
5.6287e-10
9.40143e-10
9.34493e-10
-1.76425e-09
1.80699e-09
2.89027e-09
-1.42112e-09
-7.04746e-10
7.40132e-10
3.21728e-10
5.27469e-11
1.95784e-10
3.61982e-10
4.84387e-10
5.03154e-10
5.4357e-10
5.43691e-10
5.84348e-10
5.78495e-10
6.14065e-10
6.06219e-10
6.37671e-10
6.17103e-10
6.44558e-10
6.29359e-10
6.60124e-10
6.37619e-10
6.64752e-10
6.44292e-10
6.74536e-10
6.52972e-10
6.81964e-10
6.55635e-10
6.83792e-10
6.5951e-10
6.90978e-10
6.6741e-10
6.97689e-10
6.66442e-10
6.94723e-10
6.67903e-10
7.00534e-10
6.72887e-10
7.04499e-10
6.72548e-10
7.04359e-10
6.74674e-10
7.10931e-10
6.80274e-10
7.14431e-10
6.7017e-10
7.05797e-10
6.65618e-10
7.15558e-10
6.6391e-10
7.29725e-10
6.64148e-10
7.61028e-10
6.45757e-10
7.8518e-10
5.55555e-10
9.47854e-10
9.52621e-10
-1.84628e-09
2.01331e-09
3.01367e-09
-1.73009e-09
-8.86714e-10
8.60991e-10
4.37075e-10
7.93628e-11
1.91736e-10
3.6267e-10
4.88164e-10
5.05135e-10
5.42326e-10
5.41643e-10
5.81713e-10
5.76411e-10
6.11582e-10
6.0444e-10
6.35766e-10
6.159e-10
6.42674e-10
6.28139e-10
6.58615e-10
6.36916e-10
6.63335e-10
6.43611e-10
6.73381e-10
6.52674e-10
6.81041e-10
6.55491e-10
6.82809e-10
6.59317e-10
6.90144e-10
6.6749e-10
6.97125e-10
6.66649e-10
6.93958e-10
6.67848e-10
6.99951e-10
6.73023e-10
7.04135e-10
6.72608e-10
7.04014e-10
6.74437e-10
7.10972e-10
6.80086e-10
7.15217e-10
6.69674e-10
7.06738e-10
6.63889e-10
7.17305e-10
6.61268e-10
7.32555e-10
6.60225e-10
7.65647e-10
6.41738e-10
7.9015e-10
5.5374e-10
9.48447e-10
9.72227e-10
-1.9002e-09
2.1768e-09
3.1158e-09
-1.98074e-09
-1.06284e-09
9.58045e-10
5.50994e-10
1.10747e-10
1.87987e-10
3.61949e-10
4.91153e-10
5.06982e-10
5.40991e-10
5.39484e-10
5.78868e-10
5.74186e-10
6.08924e-10
6.0254e-10
6.33669e-10
6.14618e-10
6.40685e-10
6.2686e-10
6.56961e-10
6.36162e-10
6.61831e-10
6.42902e-10
6.72128e-10
6.52356e-10
6.80032e-10
6.55343e-10
6.81772e-10
6.59129e-10
6.89246e-10
6.67573e-10
6.96491e-10
6.6687e-10
6.93165e-10
6.67806e-10
6.99309e-10
6.73166e-10
7.03714e-10
6.72688e-10
7.03631e-10
6.74232e-10
7.10937e-10
6.79939e-10
7.1587e-10
6.69293e-10
7.07509e-10
6.62396e-10
7.18627e-10
6.59145e-10
7.3458e-10
6.57445e-10
7.68571e-10
6.40149e-10
7.91933e-10
5.57152e-10
9.42979e-10
9.91679e-10
-1.9227e-09
2.29351e-09
3.18944e-09
-2.16796e-09
-1.22507e-09
1.02851e-09
6.59457e-10
1.46756e-10
1.85224e-10
3.59819e-10
4.9314e-10
5.08615e-10
5.39588e-10
5.37248e-10
5.75837e-10
5.71836e-10
6.06107e-10
6.00532e-10
6.31398e-10
6.13261e-10
6.38603e-10
6.25529e-10
6.55172e-10
6.35357e-10
6.60248e-10
6.42169e-10
6.70784e-10
6.52014e-10
6.78942e-10
6.55191e-10
6.80685e-10
6.58947e-10
6.88288e-10
6.67657e-10
6.95787e-10
6.67103e-10
6.92344e-10
6.67781e-10
6.98604e-10
6.73319e-10
7.0323e-10
6.72801e-10
7.03194e-10
6.74082e-10
7.10798e-10
6.79868e-10
7.16339e-10
6.69084e-10
7.08039e-10
6.61242e-10
7.19417e-10
6.57673e-10
7.35661e-10
6.55954e-10
7.69696e-10
6.41001e-10
7.90729e-10
5.6522e-10
9.32799e-10
1.00917e-09
-1.91218e-09
2.36327e-09
3.22939e-09
-2.29068e-09
-1.36662e-09
1.07145e-09
7.58966e-10
1.8694e-10
1.8411e-10
3.56367e-10
4.93939e-10
5.09949e-10
5.3814e-10
5.34969e-10
5.72645e-10
5.69372e-10
6.03149e-10
5.98429e-10
6.28967e-10
6.11835e-10
6.3644e-10
6.24155e-10
6.53261e-10
6.34501e-10
6.58594e-10
6.41414e-10
6.69354e-10
6.51649e-10
6.77779e-10
6.55032e-10
6.79553e-10
6.58772e-10
6.87275e-10
6.67739e-10
6.95017e-10
6.67346e-10
6.91496e-10
6.67777e-10
6.97835e-10
6.73488e-10
7.02676e-10
6.72957e-10
7.02689e-10
6.74011e-10
7.10532e-10
6.79902e-10
7.16579e-10
6.69099e-10
7.08269e-10
6.6051e-10
7.19595e-10
6.5694e-10
7.35724e-10
6.5582e-10
7.69038e-10
6.4415e-10
7.86945e-10
5.77141e-10
9.19437e-10
1.02301e-09
-1.86898e-09
2.3884e-09
3.23175e-09
-2.35078e-09
-1.48162e-09
1.08773e-09
8.46544e-10
2.30546e-10
1.85204e-10
3.51755e-10
4.93395e-10
5.10892e-10
5.36663e-10
5.32683e-10
5.69319e-10
5.66807e-10
6.00065e-10
5.96245e-10
6.26394e-10
6.10345e-10
6.34207e-10
6.22747e-10
6.5124e-10
6.33597e-10
6.56876e-10
6.40642e-10
6.67848e-10
6.5126e-10
6.76548e-10
6.54867e-10
6.78381e-10
6.58605e-10
6.8621e-10
6.67818e-10
6.94183e-10
6.67598e-10
6.9062e-10
6.67802e-10
6.96997e-10
6.73679e-10
7.02044e-10
6.73168e-10
7.02103e-10
6.74038e-10
7.10111e-10
6.80073e-10
7.16562e-10
6.69378e-10
7.08153e-10
6.60252e-10
7.19123e-10
6.57e-10
7.34755e-10
6.57015e-10
7.66727e-10
6.49339e-10
7.81111e-10
5.92027e-10
9.0424e-10
1.03203e-09
-1.79447e-09
2.3727e-09
3.19461e-09
-2.35221e-09
-1.56569e-09
1.07925e-09
9.19928e-10
2.76589e-10
1.88916e-10
3.462e-10
4.91393e-10
5.11346e-10
5.35158e-10
5.30415e-10
5.65882e-10
5.64151e-10
5.96867e-10
5.93992e-10
6.23697e-10
6.08797e-10
6.31913e-10
6.21311e-10
6.49121e-10
6.32646e-10
6.55099e-10
6.39855e-10
6.66273e-10
6.50847e-10
6.75254e-10
6.54696e-10
6.77174e-10
6.58448e-10
6.85097e-10
6.67895e-10
6.93288e-10
6.6786e-10
6.89714e-10
6.67859e-10
6.9609e-10
6.73896e-10
7.01328e-10
6.73446e-10
7.01422e-10
6.74182e-10
7.0952e-10
6.80402e-10
7.16262e-10
6.69946e-10
7.07664e-10
6.60498e-10
7.17997e-10
6.57848e-10
7.32803e-10
6.59455e-10
7.62973e-10
6.56228e-10
7.73771e-10
6.08992e-10
8.8842e-10
1.03563e-09
-1.69114e-09
2.32077e-09
3.11726e-09
-2.30016e-09
-1.61582e-09
1.04891e-09
9.77597e-10
3.23938e-10
1.9548e-10
3.39957e-10
4.87875e-10
5.11215e-10
5.33617e-10
5.28188e-10
5.62355e-10
5.61413e-10
5.93567e-10
5.91676e-10
6.20891e-10
6.07197e-10
6.29566e-10
6.19851e-10
6.46918e-10
6.31649e-10
6.53268e-10
6.39056e-10
6.64636e-10
6.50411e-10
6.73907e-10
6.54518e-10
6.75936e-10
6.58301e-10
6.83937e-10
6.67971e-10
6.92336e-10
6.68134e-10
6.88776e-10
6.67953e-10
6.95112e-10
6.74147e-10
7.00523e-10
6.738e-10
7.00638e-10
6.74456e-10
7.08749e-10
6.80904e-10
7.15674e-10
6.70815e-10
7.06793e-10
6.61248e-10
7.16239e-10
6.59437e-10
7.29961e-10
6.62985e-10
7.58032e-10
6.64447e-10
7.65521e-10
6.27215e-10
8.72732e-10
1.03379e-09
-1.56171e-09
2.23719e-09
3.00088e-09
-2.20082e-09
-1.63093e-09
1.00024e-09
1.01893e-09
3.71427e-10
2.04954e-10
3.33298e-10
4.82839e-10
5.10417e-10
5.32023e-10
5.26019e-10
5.58761e-10
5.58603e-10
5.90175e-10
5.89305e-10
6.17992e-10
6.05552e-10
6.27174e-10
6.18372e-10
6.44641e-10
6.30609e-10
6.5139e-10
6.38245e-10
6.62944e-10
6.49951e-10
6.7251e-10
6.54336e-10
6.74669e-10
6.58164e-10
6.82737e-10
6.68045e-10
6.91332e-10
6.68421e-10
6.87803e-10
6.68087e-10
6.94063e-10
6.74434e-10
6.9963e-10
6.74235e-10
6.99747e-10
6.74865e-10
7.07793e-10
6.81584e-10
7.148e-10
6.71984e-10
7.05554e-10
6.6248e-10
7.13906e-10
6.61695e-10
7.2636e-10
6.67421e-10
7.52208e-10
6.73611e-10
7.5688e-10
6.46e-10
8.57607e-10
1.02681e-09
-1.40941e-09
2.12686e-09
2.84774e-09
-2.06185e-09
-1.61158e-09
9.37184e-10
1.04431e-09
4.17949e-10
2.17203e-10
3.2648e-10
4.76339e-10
5.0889e-10
5.30358e-10
5.2392e-10
5.55121e-10
5.55729e-10
5.86704e-10
5.86883e-10
6.15015e-10
6.03868e-10
6.24744e-10
6.16875e-10
6.423e-10
6.29532e-10
6.4947e-10
6.37421e-10
6.61205e-10
6.49468e-10
6.71071e-10
6.5415e-10
6.73379e-10
6.58039e-10
6.815e-10
6.68117e-10
6.90278e-10
6.68723e-10
6.86798e-10
6.6826e-10
6.92945e-10
6.7476e-10
6.98649e-10
6.74755e-10
6.98751e-10
6.75411e-10
7.06661e-10
6.82436e-10
7.13656e-10
6.73438e-10
7.0398e-10
6.64152e-10
7.11083e-10
6.64524e-10
7.22165e-10
6.72557e-10
7.45807e-10
6.83343e-10
7.48306e-10
6.6482e-10
8.43067e-10
1.01523e-09
-1.23748e-09
1.9948e-09
2.6618e-09
-1.8914e-09
-1.56017e-09
8.63806e-10
1.05498e-09
4.62588e-10
2.31951e-10
3.19697e-10
4.68442e-10
5.06574e-10
5.2859e-10
5.21888e-10
5.51444e-10
5.52795e-10
5.8316e-10
5.84406e-10
6.11967e-10
6.0215e-10
6.22282e-10
6.15356e-10
6.39902e-10
6.28418e-10
6.47511e-10
6.36584e-10
6.59423e-10
6.4896e-10
6.69595e-10
6.53961e-10
6.72069e-10
6.57923e-10
6.80231e-10
6.68183e-10
6.89178e-10
6.69043e-10
6.85762e-10
6.68472e-10
6.91763e-10
6.75123e-10
6.97584e-10
6.75361e-10
6.97658e-10
6.76089e-10
7.05366e-10
6.83445e-10
7.12268e-10
6.75154e-10
7.02124e-10
6.66201e-10
7.07871e-10
6.67812e-10
7.17571e-10
6.78179e-10
7.3915e-10
6.93315e-10
7.40171e-10
6.83415e-10
8.28817e-10
9.99753e-10
-1.04931e-09
1.84619e-09
2.44815e-09
-1.69643e-09
-1.48043e-09
7.83597e-10
1.05268e-09
5.04642e-10
2.48873e-10
3.13103e-10
4.59205e-10
5.03409e-10
5.26678e-10
5.19915e-10
5.47735e-10
5.498e-10
5.79542e-10
5.8187e-10
6.0885e-10
6.00404e-10
6.19794e-10
6.13814e-10
6.37449e-10
6.27272e-10
6.45515e-10
6.35731e-10
6.576e-10
6.48427e-10
6.68081e-10
6.53772e-10
6.70742e-10
6.57817e-10
6.78933e-10
6.68243e-10
6.88033e-10
6.69386e-10
6.84696e-10
6.68719e-10
6.90516e-10
6.7552e-10
6.96439e-10
6.76049e-10
6.96473e-10
6.76889e-10
7.03923e-10
6.84588e-10
7.10665e-10
6.77101e-10
7.00039e-10
6.68552e-10
7.04376e-10
6.71435e-10
7.12755e-10
6.84079e-10
7.32503e-10
7.03266e-10
7.32704e-10
7.01772e-10
8.14214e-10
9.81013e-10
-8.47944e-10
1.68509e-09
1.61217e-09
1.49412e-09
4.05446e-10
-2.99749e-10
-2.84891e-10
-6.16971e-11
1.82816e-10
3.24094e-10
4.47196e-10
4.89062e-10
5.4994e-10
5.56009e-10
5.98166e-10
5.91116e-10
6.2779e-10
6.1629e-10
6.46261e-10
6.25468e-10
6.56267e-10
6.37611e-10
6.67627e-10
6.4332e-10
6.73466e-10
6.49584e-10
6.80798e-10
6.55878e-10
6.86583e-10
6.58085e-10
6.89767e-10
6.61992e-10
6.95554e-10
6.67744e-10
6.99634e-10
6.66434e-10
6.99561e-10
6.68731e-10
7.03204e-10
6.72216e-10
7.05725e-10
6.72506e-10
7.06505e-10
6.75934e-10
7.09885e-10
6.79909e-10
7.06976e-10
6.72516e-10
6.98947e-10
6.75289e-10
6.98893e-10
6.83127e-10
7.00996e-10
7.01768e-10
7.00457e-10
7.16892e-10
6.7526e-10
7.34175e-10
6.79631e-10
7.6615e-10
-6.25143e-10
1.04676e-10
1.64572e-09
1.51486e-09
3.96522e-10
-3.06683e-10
-2.86811e-10
-6.14502e-11
1.8291e-10
3.24083e-10
4.46798e-10
4.88679e-10
5.49406e-10
5.55669e-10
5.97714e-10
5.90856e-10
6.27415e-10
6.16133e-10
6.45942e-10
6.25318e-10
6.5597e-10
6.37546e-10
6.67374e-10
6.43267e-10
6.73225e-10
6.49582e-10
6.80585e-10
6.55905e-10
6.86378e-10
6.58119e-10
6.89563e-10
6.6206e-10
6.95368e-10
6.67843e-10
6.99445e-10
6.66514e-10
6.9936e-10
6.68862e-10
7.03017e-10
6.7237e-10
7.05539e-10
6.72669e-10
7.06318e-10
6.76139e-10
7.09729e-10
6.80164e-10
7.06816e-10
6.7275e-10
6.98778e-10
6.75613e-10
6.98767e-10
6.83473e-10
7.00933e-10
7.02174e-10
7.00539e-10
7.1718e-10
6.75463e-10
7.33767e-10
6.83544e-10
7.79279e-10
-6.45207e-10
7.60811e-11
1.70767e-09
1.52778e-09
3.733e-10
-3.14295e-10
-2.86624e-10
-5.98564e-11
1.83885e-10
3.24421e-10
4.46833e-10
4.88251e-10
5.4894e-10
5.55092e-10
5.97296e-10
5.90339e-10
6.27064e-10
6.15748e-10
6.45725e-10
6.24934e-10
6.5573e-10
6.37256e-10
6.6724e-10
6.42991e-10
6.7309e-10
6.49375e-10
6.80504e-10
6.55729e-10
6.86333e-10
6.57948e-10
6.89512e-10
6.61925e-10
6.95343e-10
6.67744e-10
6.99458e-10
6.66387e-10
6.99329e-10
6.68793e-10
7.03029e-10
6.72327e-10
7.0557e-10
6.72634e-10
7.06331e-10
6.76153e-10
7.09779e-10
6.8026e-10
7.06928e-10
6.7283e-10
6.98829e-10
6.75782e-10
6.98925e-10
6.83636e-10
7.01142e-10
7.02346e-10
7.0102e-10
7.17198e-10
6.7644e-10
7.31104e-10
6.88659e-10
8.05537e-10
-6.90751e-10
4.87466e-11
1.78858e-09
1.51304e-09
3.38992e-10
-3.16881e-10
-2.83657e-10
-5.63936e-11
1.86155e-10
3.25745e-10
4.47569e-10
4.88123e-10
5.48538e-10
5.54455e-10
5.96829e-10
5.89718e-10
6.26617e-10
6.15273e-10
6.45485e-10
6.24446e-10
6.55392e-10
6.36869e-10
6.67079e-10
6.4264e-10
6.72899e-10
6.49097e-10
6.80399e-10
6.555e-10
6.86288e-10
6.57723e-10
6.89442e-10
6.61738e-10
6.95315e-10
6.67616e-10
6.99514e-10
6.6622e-10
6.99288e-10
6.68685e-10
7.03066e-10
6.72259e-10
7.05648e-10
6.72563e-10
7.0637e-10
6.76126e-10
7.09895e-10
6.80336e-10
7.072e-10
6.72853e-10
6.9899e-10
6.7586e-10
6.99296e-10
6.83632e-10
7.0164e-10
7.0216e-10
7.02199e-10
7.16308e-10
6.78943e-10
7.24636e-10
6.99575e-10
8.34507e-10
-7.57312e-10
4.39088e-11
1.87337e-09
1.44974e-09
2.98145e-10
-3.04495e-10
-2.7545e-10
-5.11325e-11
1.89602e-10
3.28202e-10
4.49176e-10
4.88471e-10
5.48239e-10
5.53812e-10
5.96279e-10
5.89024e-10
6.26034e-10
6.14726e-10
6.45174e-10
6.23879e-10
6.54897e-10
6.36403e-10
6.6684e-10
6.42235e-10
6.72593e-10
6.48772e-10
6.80215e-10
6.55246e-10
6.86186e-10
6.57479e-10
6.89286e-10
6.61532e-10
6.95223e-10
6.67492e-10
6.99551e-10
6.66058e-10
6.99169e-10
6.68574e-10
7.03063e-10
6.72205e-10
7.05711e-10
6.725e-10
7.06373e-10
6.76089e-10
7.10022e-10
6.80436e-10
7.07569e-10
6.72857e-10
6.99193e-10
6.75832e-10
6.99862e-10
6.83372e-10
7.02496e-10
7.01432e-10
7.04259e-10
7.14194e-10
6.83326e-10
7.1427e-10
7.16844e-10
8.59187e-10
-8.37221e-10
8.0225e-11
1.95624e-09
1.32268e-09
2.51968e-10
-2.69494e-10
-2.59625e-10
-4.46808e-11
1.93738e-10
3.31629e-10
4.51621e-10
4.89276e-10
5.48046e-10
5.5316e-10
5.95655e-10
5.88265e-10
6.25327e-10
6.14113e-10
6.44791e-10
6.23253e-10
6.54251e-10
6.3586e-10
6.66516e-10
6.41788e-10
6.72165e-10
6.48396e-10
6.79943e-10
6.54971e-10
6.86017e-10
6.57219e-10
6.89036e-10
6.61306e-10
6.95054e-10
6.67378e-10
6.99558e-10
6.65911e-10
6.9896e-10
6.68459e-10
7.03009e-10
6.7217e-10
7.05741e-10
6.72446e-10
7.06322e-10
6.7604e-10
7.10139e-10
6.80543e-10
7.08026e-10
6.72827e-10
6.99455e-10
6.75637e-10
7.00653e-10
6.82768e-10
7.03766e-10
6.99984e-10
7.07388e-10
7.10512e-10
6.90002e-10
6.99863e-10
7.40703e-10
8.76897e-10
-9.28472e-10
1.68823e-10
2.04005e-09
1.12485e-09
1.96804e-10
-2.07401e-10
-2.33559e-10
-3.74702e-11
1.97969e-10
3.35817e-10
4.5479e-10
4.90487e-10
5.479e-10
5.52479e-10
5.9493e-10
5.8743e-10
6.24478e-10
6.13429e-10
6.44328e-10
6.22582e-10
6.53466e-10
6.3525e-10
6.66109e-10
6.41316e-10
6.71623e-10
6.47982e-10
6.79587e-10
6.54686e-10
6.85779e-10
6.56961e-10
6.88694e-10
6.61069e-10
6.9481e-10
6.67277e-10
6.99524e-10
6.65791e-10
6.98659e-10
6.68342e-10
7.02896e-10
6.72153e-10
7.0573e-10
6.72406e-10
7.06214e-10
6.75974e-10
7.10239e-10
6.80644e-10
7.08568e-10
6.72745e-10
6.9979e-10
6.75225e-10
7.01694e-10
6.81745e-10
7.05556e-10
6.97662e-10
7.11732e-10
7.05028e-10
6.99247e-10
6.81567e-10
7.70564e-10
8.87948e-10
-1.03237e-09
3.13685e-10
2.12969e-09
8.56074e-10
1.27891e-10
-1.16772e-10
-1.95005e-10
-2.96816e-11
2.0176e-10
3.40526e-10
4.58547e-10
4.91992e-10
5.47719e-10
5.51702e-10
5.94046e-10
5.86491e-10
6.23467e-10
6.12653e-10
6.43761e-10
6.21873e-10
6.52543e-10
6.34572e-10
6.65608e-10
6.40833e-10
6.70972e-10
6.47539e-10
6.79147e-10
6.54406e-10
6.85471e-10
6.56716e-10
6.88259e-10
6.60832e-10
6.9449e-10
6.67204e-10
6.99442e-10
6.65715e-10
6.98268e-10
6.68234e-10
7.02722e-10
6.72166e-10
7.05669e-10
6.72387e-10
7.06048e-10
6.75888e-10
7.10333e-10
6.80725e-10
7.09186e-10
6.72595e-10
7.00234e-10
6.74539e-10
7.03021e-10
6.80231e-10
7.07935e-10
6.94367e-10
7.17333e-10
6.97758e-10
7.10907e-10
6.60214e-10
8.04491e-10
8.94081e-10
-1.14845e-09
5.11842e-10
2.23077e-09
5.24899e-10
4.01756e-11
3.21737e-13
-1.42136e-10
-2.11093e-11
2.04632e-10
3.45506e-10
4.62776e-10
4.93727e-10
5.47437e-10
5.50774e-10
5.92945e-10
5.85414e-10
6.22267e-10
6.11761e-10
6.43053e-10
6.21115e-10
6.51475e-10
6.33822e-10
6.64994e-10
6.40336e-10
6.70209e-10
6.47069e-10
6.78618e-10
6.54133e-10
6.85086e-10
6.56493e-10
6.87735e-10
6.60603e-10
6.94097e-10
6.67164e-10
6.99304e-10
6.65694e-10
6.97795e-10
6.68136e-10
7.02482e-10
6.7221e-10
7.05561e-10
6.72389e-10
7.05837e-10
6.75779e-10
7.10428e-10
6.80769e-10
7.09892e-10
6.72356e-10
7.00814e-10
6.7355e-10
7.04651e-10
6.78205e-10
7.10886e-10
6.90125e-10
7.24062e-10
6.88999e-10
7.24402e-10
6.37175e-10
8.39798e-10
8.9798e-10
-1.27473e-09
7.52206e-10
2.3457e-09
1.46725e-10
-6.93646e-11
1.38752e-10
-7.42183e-11
-1.12801e-11
2.06226e-10
3.50482e-10
4.67358e-10
4.95629e-10
5.47013e-10
5.49653e-10
5.916e-10
5.8418e-10
6.20858e-10
6.10727e-10
6.42172e-10
6.20297e-10
6.50258e-10
6.32991e-10
6.64248e-10
6.39821e-10
6.69331e-10
6.46569e-10
6.77994e-10
6.53869e-10
6.84616e-10
6.56294e-10
6.87124e-10
6.60384e-10
6.93629e-10
6.67157e-10
6.99103e-10
6.65729e-10
6.97252e-10
6.68049e-10
7.02184e-10
6.72284e-10
7.05407e-10
6.72408e-10
7.05592e-10
6.75639e-10
7.10535e-10
6.80761e-10
7.10681e-10
6.72013e-10
7.01549e-10
6.72265e-10
7.06559e-10
6.757e-10
7.14335e-10
6.85115e-10
7.31616e-10
6.79308e-10
7.3883e-10
6.14265e-10
8.73431e-10
9.02389e-10
-1.40668e-09
1.01933e-09
2.47414e-09
-2.58662e-10
-2.01509e-10
2.90741e-10
8.35879e-12
4.53537e-13
2.06318e-10
3.55158e-10
4.72155e-10
4.9765e-10
5.46414e-10
5.48328e-10
5.89991e-10
5.82777e-10
6.1923e-10
6.09542e-10
6.41095e-10
6.19408e-10
6.48893e-10
6.32074e-10
6.63357e-10
6.39279e-10
6.68337e-10
6.46035e-10
6.77267e-10
6.53608e-10
6.84057e-10
6.56114e-10
6.86429e-10
6.60176e-10
6.93089e-10
6.67182e-10
6.98833e-10
6.65815e-10
6.96649e-10
6.67972e-10
7.01829e-10
6.72381e-10
7.05213e-10
6.72434e-10
7.05327e-10
6.75464e-10
7.10657e-10
6.80694e-10
7.1154e-10
6.71573e-10
7.02429e-10
6.70718e-10
7.08679e-10
6.72819e-10
7.1814e-10
6.79601e-10
7.39555e-10
6.69391e-10
7.53108e-10
5.93301e-10
9.02682e-10
9.09476e-10
-1.5377e-09
1.29504e-09
2.61207e-09
-6.68202e-10
-3.54294e-10
4.47494e-10
1.03873e-10
1.48061e-11
2.04864e-10
3.59209e-10
4.77003e-10
4.99733e-10
5.45633e-10
5.468e-10
5.88116e-10
5.81201e-10
6.17377e-10
6.08201e-10
6.39809e-10
6.18442e-10
6.47382e-10
6.31074e-10
6.62307e-10
6.38703e-10
6.67228e-10
6.45465e-10
6.76434e-10
6.53344e-10
6.83403e-10
6.55951e-10
6.85653e-10
6.59976e-10
6.92474e-10
6.67233e-10
6.98493e-10
6.65945e-10
6.95996e-10
6.67901e-10
7.01421e-10
6.72494e-10
7.04977e-10
6.72467e-10
7.05047e-10
6.75258e-10
7.10785e-10
6.80573e-10
7.12446e-10
6.71057e-10
7.0342e-10
6.68973e-10
7.10908e-10
6.697e-10
7.22081e-10
6.73937e-10
7.47373e-10
6.60016e-10
7.66172e-10
5.75872e-10
9.25498e-10
9.20506e-10
-1.65979e-09
1.5615e-09
2.75355e-09
-1.06065e-09
-5.23819e-10
5.99897e-10
2.09628e-10
3.25873e-11
2.02071e-10
3.62363e-10
4.81715e-10
5.01839e-10
5.44684e-10
5.45081e-10
5.85979e-10
5.79454e-10
6.15309e-10
6.0671e-10
6.38313e-10
6.17398e-10
6.45734e-10
6.29992e-10
6.61098e-10
6.38086e-10
6.66009e-10
6.44857e-10
6.75491e-10
6.53072e-10
6.82655e-10
6.55793e-10
6.84803e-10
6.59782e-10
6.91788e-10
6.67301e-10
6.98081e-10
6.6611e-10
6.953e-10
6.67835e-10
7.00957e-10
6.72618e-10
7.04702e-10
6.72504e-10
7.04752e-10
6.75029e-10
7.10913e-10
6.80408e-10
7.13362e-10
6.705e-10
7.04474e-10
6.67118e-10
7.1312e-10
6.66545e-10
7.25907e-10
6.68495e-10
7.54554e-10
6.51894e-10
7.77095e-10
5.63156e-10
9.4086e-10
9.35533e-10
-1.76523e-09
1.80382e-09
2.89055e-09
-1.41877e-09
-7.0367e-10
7.39873e-10
3.22137e-10
5.45173e-11
1.98365e-10
3.64381e-10
4.86088e-10
5.03925e-10
5.43588e-10
5.43195e-10
5.83594e-10
5.77544e-10
6.13035e-10
6.05075e-10
6.36612e-10
6.16273e-10
6.43962e-10
6.28835e-10
6.59731e-10
6.37422e-10
6.64687e-10
6.44214e-10
6.74442e-10
6.52789e-10
6.81812e-10
6.55638e-10
6.83884e-10
6.59592e-10
6.91032e-10
6.67381e-10
6.97595e-10
6.66301e-10
6.94569e-10
6.67774e-10
7.00436e-10
6.72749e-10
7.04383e-10
6.72546e-10
7.04439e-10
6.7479e-10
7.1102e-10
6.80222e-10
7.14244e-10
6.69947e-10
7.05521e-10
6.65266e-10
7.15178e-10
6.63546e-10
7.29358e-10
6.63646e-10
7.60636e-10
6.45605e-10
7.85237e-10
5.55791e-10
9.48626e-10
9.53622e-10
-1.8477e-09
2.01091e-09
3.01456e-09
-1.72835e-09
-8.85907e-10
8.60792e-10
4.37409e-10
8.10538e-11
1.94301e-10
3.65086e-10
4.89892e-10
5.05938e-10
5.42371e-10
5.41167e-10
5.8098e-10
5.75481e-10
6.10572e-10
6.03311e-10
6.34712e-10
6.15068e-10
6.42076e-10
6.27613e-10
6.58213e-10
6.3671e-10
6.6327e-10
6.43538e-10
6.73288e-10
6.52489e-10
6.8088e-10
6.55483e-10
6.82902e-10
6.59405e-10
6.90208e-10
6.67469e-10
6.97038e-10
6.6651e-10
6.93807e-10
6.6772e-10
6.99857e-10
6.72886e-10
7.04017e-10
6.72601e-10
7.041e-10
6.74559e-10
7.11077e-10
6.80043e-10
7.15043e-10
6.69453e-10
7.06476e-10
6.63538e-10
7.1694e-10
6.60897e-10
7.32202e-10
6.59705e-10
7.65256e-10
6.41546e-10
7.90247e-10
5.53938e-10
9.49275e-10
9.73191e-10
-1.90209e-09
2.17513e-09
3.1173e-09
-1.97954e-09
-1.06228e-09
9.57944e-10
5.51272e-10
1.12345e-10
1.90516e-10
3.64369e-10
4.92899e-10
5.07809e-10
5.41059e-10
5.39027e-10
5.78154e-10
5.73279e-10
6.07934e-10
6.01428e-10
6.32623e-10
6.13787e-10
6.40087e-10
6.26332e-10
6.56551e-10
6.35947e-10
6.61764e-10
6.42832e-10
6.72036e-10
6.52168e-10
6.79862e-10
6.55325e-10
6.81864e-10
6.59221e-10
6.89319e-10
6.6756e-10
6.9641e-10
6.66735e-10
6.93017e-10