/*--------------------------------*- C++ -*----------------------------------*\
| =========                 |                                                 |
| \\      /  F ield         | OpenFOAM: The Open Source CFD Toolbox           |
|  \\    /   O peration     | Version:  2312                                  |
|   \\  /    A nd           | Website:  www.openfoam.com                      |
|    \\/     M anipulation  |                                                 |
\*---------------------------------------------------------------------------*/
FoamFile
{
    version     2.0;
    format      ascii;
    arch        "LSB;label=32;scalar=64";
    class       volScalarField;
    location    "280";
    object      nut;
}
// * * * * * * * * * * * * * * * * * * * * * * * * * * * * * * * * * * * * * //

dimensions      [0 2 -1 0 0 0 0];

internalField   nonuniform List<scalar> 
144000
(
2.50224e-26
1.32144e-26
3.49228e-28
1.89315e-27
1.12575e-27
1.46348e-31
2.54574e-28
8.88929e-29
2.10585e-28
1.28902e-28
1.99255e-28
1.50218e-28
2.16114e-28
1.76586e-28
1.93479e-28
1.58595e-28
2.20884e-28
2.17214e-28
2.24814e-28
2.26134e-28
2.85168e-28
2.9716e-28
3.07063e-28
2.9893e-28
2.94369e-28
2.88058e-28
3.10323e-28
3.11914e-28
3.12477e-28
3.10819e-28
2.99956e-28
3.01974e-28
3.48302e-28
3.58058e-28
3.46166e-28
3.37144e-28
3.23725e-28
3.13695e-28
3.10557e-28
2.79582e-28
2.68484e-28
2.39622e-28
3.45106e-28
2.44392e-28
2.11964e-28
1.75858e-28
1.09995e-28
6.91204e-29
3.30586e-29
1.30983e-29
7.79329e-32
1.60587e-30
5.18056e-29
3.11564e-28
1.39949e-27
6.38319e-28
3.46037e-26
1.23156e-24
1.62252e-24
8.54134e-26
1.57381e-24
2.70494e-26
5.16209e-26
2.62092e-26
1.65438e-27
4.73152e-30
4.46689e-28
2.42142e-28
3.02715e-28
4.17536e-28
3.00356e-28
4.23928e-28
3.64771e-28
4.62505e-28
3.63618e-28
3.83667e-28
4.12972e-28
5.24708e-28
4.49272e-28
4.9666e-28
5.56151e-28
6.63632e-28
6.08966e-28
6.49856e-28
5.93262e-28
6.2537e-28
6.22312e-28
6.8314e-28
6.33453e-28
6.59977e-28
6.13026e-28
6.23599e-28
6.85521e-28
7.49799e-28
6.92028e-28
6.71485e-28
6.45745e-28
6.2005e-28
6.18168e-28
5.89745e-28
5.50391e-28
5.43627e-28
6.80672e-28
4.13023e-28
4.40071e-28
3.2728e-28
2.20873e-28
1.08734e-28
6.25424e-29
1.61628e-29
1.86489e-31
1.07372e-29
1.18179e-28
9.74422e-28
2.88412e-27
2.7581e-27
5.22773e-26
3.46682e-24
9.24307e-24
9.95285e-26
3.59058e-24
7.86722e-25
2.45056e-25
6.72585e-26
4.42508e-27
3.7982e-30
4.9173e-28
4.18567e-28
4.07772e-28
5.74667e-28
4.64892e-28
5.62922e-28
5.61e-28
6.05821e-28
5.4391e-28
5.29408e-28
6.15031e-28
7.03006e-28
6.63737e-28
6.8939e-28
8.11687e-28
9.07382e-28
8.83355e-28
9.05457e-28
8.51792e-28
8.84357e-28
8.89717e-28
9.53163e-28
9.02712e-28
9.28207e-28
8.64099e-28
8.95887e-28
9.64391e-28
1.04794e-27
9.74871e-28
9.53987e-28
9.11187e-28
8.96715e-28
8.90891e-28
8.62396e-28
8.30136e-28
7.88471e-28
9.44883e-28
5.7008e-28
6.62315e-28
4.53006e-28
3.18928e-28
1.60138e-28
8.97468e-29
2.56943e-29
2.47027e-31
1.10778e-29
1.75848e-28
1.17649e-27
3.78833e-27
2.96895e-27
1.48856e-25
5.66872e-24
1.02089e-23
1.49207e-24
1.11065e-23
6.30515e-24
7.17023e-25
3.99638e-25
4.81033e-27
7.18767e-30
5.02944e-28
4.38797e-28
4.29716e-28
5.823e-28
4.98832e-28
5.68115e-28
5.94206e-28
6.10888e-28
5.67954e-28
5.28577e-28
6.33393e-28
7.14508e-28
6.87066e-28
6.96612e-28
8.45668e-28
9.26285e-28
9.21296e-28
9.16301e-28
8.7837e-28
8.91084e-28
9.06707e-28
9.67024e-28
9.20179e-28
9.38512e-28
8.81813e-28
9.09562e-28
9.83058e-28
1.0835e-27
1.00158e-27
9.88328e-28
9.47468e-28
9.41808e-28
9.4317e-28
9.14318e-28
8.72802e-28
8.63174e-28
9.22248e-28
6.0108e-28
7.16012e-28
4.64618e-28
3.47527e-28
1.66208e-28
1.05172e-28
3.08289e-29
8.99525e-31
1.15559e-29
1.38318e-28
1.01752e-27
3.03475e-27
2.46251e-27
2.02585e-25
9.10611e-24
1.42877e-23
9.42947e-24
1.85227e-23
2.58138e-23
9.69698e-25
1.37769e-24
1.11744e-26
2.59897e-29
5.40128e-28
4.88042e-28
4.38204e-28
6.40667e-28
4.99194e-28
6.18327e-28
6.07823e-28
6.59202e-28
5.75459e-28
5.55639e-28
6.47251e-28
7.60367e-28
7.01259e-28
7.2841e-28
8.83416e-28
9.77069e-28
9.58714e-28
9.49545e-28
9.0817e-28
9.16471e-28
9.35605e-28
1.00119e-27
9.44506e-28
9.68833e-28
9.09362e-28
9.42008e-28
1.02817e-27
1.14928e-27
1.04676e-27
1.05054e-27
1.00342e-27
1.01258e-27
1.00235e-27
9.67742e-28
8.97632e-28
8.59568e-28
9.13352e-28
6.91369e-28
7.65426e-28
5.04266e-28
3.77951e-28
1.87556e-28
1.29716e-28
4.52655e-29
3.30959e-30
1.24459e-29
1.06837e-28
8.51514e-28
2.15253e-27
1.7997e-27
3.09369e-25
1.5013e-23
1.81927e-23
3.54227e-23
2.20821e-23
6.8848e-23
8.52816e-25
3.29527e-24
3.02401e-26
6.98527e-29
6.40346e-28
5.49403e-28
4.76764e-28
7.19027e-28
5.13778e-28
6.90762e-28
6.37114e-28
7.28987e-28
5.94859e-28
6.04452e-28
6.83398e-28
8.345e-28
7.3267e-28
7.95578e-28
9.49805e-28
1.07145e-27
1.02348e-27
1.02292e-27
9.66915e-28
9.8077e-28
9.98054e-28
1.07503e-27
1.00306e-27
1.03846e-27
9.7183e-28
1.01872e-27
1.12261e-27
1.26488e-27
1.13735e-27
1.1604e-27
1.10154e-27
1.12562e-27
1.08545e-27
1.03072e-27
9.10325e-28
9.33743e-28
9.82563e-28
8.38396e-28
8.49651e-28
5.88143e-28
4.28641e-28
2.38093e-28
1.74776e-28
8.0055e-29
1.28308e-29
2.03587e-29
8.58149e-29
6.78776e-28
1.32026e-27
1.05093e-27
4.55818e-25
2.33305e-23
2.27332e-23
8.86734e-23
2.28485e-23
1.42332e-22
5.47412e-25
6.35717e-24
7.69633e-26
1.35746e-28
8.36205e-28
5.97315e-28
5.44511e-28
7.95547e-28
5.50675e-28
7.61009e-28
6.88271e-28
8.00716e-28
6.26621e-28
6.61589e-28
7.38174e-28
9.19699e-28
7.77456e-28
8.83127e-28
1.03791e-27
1.19163e-27
1.1044e-27
1.12105e-27
1.04272e-27
1.07037e-27
1.08075e-27
1.17094e-27
1.07921e-27
1.13283e-27
1.05556e-27
1.12692e-27
1.2486e-27
1.41134e-27
1.25532e-27
1.30125e-27
1.22867e-27
1.26914e-27
1.18701e-27
1.11121e-27
9.39282e-28
9.81254e-28
1.0908e-27
1.0544e-27
9.81823e-28
7.15786e-28
5.0943e-28
3.30748e-28
2.59724e-28
1.604e-28
4.85308e-29
5.89779e-29
1.05511e-28
5.56752e-28
9.28149e-28
1.00754e-27
5.81696e-25
3.38989e-23
3.27226e-23
1.71914e-22
2.06582e-23
2.46963e-22
2.6366e-25
1.0501e-23
1.76371e-25
1.97333e-28
1.17859e-27
6.2192e-28
6.263e-28
8.81699e-28
6.01047e-28
8.30772e-28
7.57094e-28
8.73508e-28
6.69959e-28
7.23351e-28
8.06297e-28
1.01086e-27
8.32649e-28
9.82181e-28
1.14355e-27
1.33023e-27
1.19791e-27
1.23639e-27
1.13116e-27
1.1756e-27
1.17263e-27
1.28236e-27
1.16721e-27
1.24338e-27
1.15363e-27
1.25565e-27
1.39451e-27
1.58354e-27
1.39549e-27
1.47104e-27
1.38619e-27
1.44696e-27
1.31272e-27
1.20992e-27
9.78638e-28
1.0865e-27
1.22638e-27
1.34389e-27
1.17761e-27
9.04074e-28
6.40291e-28
4.96196e-28
4.23915e-28
3.44946e-28
1.69112e-28
2.19051e-28
2.85487e-28
7.76007e-28
1.97645e-27
4.8938e-27
6.94234e-25
4.68713e-23
5.03487e-23
2.77753e-22
1.99407e-23
3.78057e-22
1.56241e-25
1.53915e-23
3.71117e-25
2.40575e-28
1.81483e-27
6.02437e-28
7.15212e-28
9.9131e-28
6.576e-28
9.08557e-28
8.42016e-28
9.51114e-28
7.22318e-28
7.91302e-28
8.91555e-28
1.10741e-27
8.988e-28
1.09342e-27
1.27314e-27
1.4853e-27
1.30452e-27
1.36878e-27
1.23289e-27
1.29497e-27
1.27968e-27
1.40653e-27
1.26394e-27
1.37169e-27
1.26641e-27
1.40716e-27
1.56863e-27
1.78567e-27
1.56204e-27
1.68291e-27
1.59062e-27
1.68416e-27
1.49773e-27
1.37238e-27
1.0783e-27
1.28002e-27
1.33156e-27
1.76858e-27
1.47197e-27
1.19282e-27
8.53923e-28
7.9501e-28
7.51332e-28
7.57364e-28
5.2603e-28
7.87977e-28
1.11638e-27
2.34722e-27
8.66155e-27
2.60176e-26
7.46959e-25
6.27261e-23
8.86319e-23
3.91651e-22
2.21595e-23
5.3168e-22
3.48693e-25
2.06712e-23
7.30717e-25
3.66137e-28
2.86043e-27
5.37032e-28
8.08313e-28
1.13694e-27
7.16649e-28
1.00064e-27
9.39763e-28
1.03845e-27
7.84474e-28
8.66747e-28
9.90214e-28
1.21157e-27
9.7782e-28
1.21828e-27
1.42535e-27
1.65824e-27
1.42932e-27
1.51774e-27
1.35149e-27
1.42824e-27
1.39803e-27
1.54532e-27
1.37534e-27
1.51725e-27
1.39931e-27
1.58442e-27
1.77119e-27
2.02724e-27
1.76934e-27
1.95259e-27
1.868e-27
2.01576e-27
1.78158e-27
1.65765e-27
1.39008e-27
1.26565e-27
1.33263e-27
2.35627e-27
1.92097e-27
1.64189e-27
1.20966e-27
1.3345e-27
1.39237e-27
1.64805e-27
1.47652e-27
2.47595e-27
4.0201e-27
8.41633e-27
3.30351e-26
9.48598e-26
7.63015e-25
8.28816e-23
1.60205e-22
5.01429e-22
3.34544e-23
6.99737e-22
1.00476e-24
2.58293e-23
1.3035e-24
9.89003e-28
4.73543e-27
3.98442e-28
9.28107e-28
1.31532e-27
7.81088e-28
1.10606e-27
1.05343e-27
1.13656e-27
8.54067e-28
9.53447e-28
1.10394e-27
1.32526e-27
1.06866e-27
1.36066e-27
1.60499e-27
1.84995e-27
1.57206e-27
1.68629e-27
1.48739e-27
1.57726e-27
1.53462e-27
1.69784e-27
1.50158e-27
1.68534e-27
1.5556e-27
1.79374e-27
2.01414e-27
2.3143e-27
2.02502e-27
2.29369e-27
2.22954e-27
2.443e-27
2.14922e-27
2.0344e-27
1.70129e-27
1.566e-27
1.4592e-27
2.92084e-27
2.73799e-27
2.27796e-27
1.82057e-27
2.26904e-27
2.60097e-27
3.48631e-27
3.73858e-27
6.76952e-27
1.2071e-26
2.60023e-26
9.78847e-26
2.61958e-25
7.15794e-25
1.09345e-22
2.92843e-22
5.79659e-22
5.59161e-23
9.01716e-22
2.50326e-24
3.10357e-23
2.17181e-24
3.90184e-27
7.24316e-27
2.43952e-28
1.06022e-27
1.55323e-27
8.4252e-28
1.2334e-27
1.178e-27
1.25222e-27
9.30127e-28
1.05382e-27
1.22745e-27
1.45356e-27
1.17045e-27
1.52461e-27
1.80825e-27
2.06662e-27
1.73459e-27
1.87819e-27
1.64262e-27
1.74444e-27
1.68308e-27
1.87011e-27
1.64948e-27
1.8785e-27
1.73982e-27
2.03852e-27
2.29826e-27
2.65861e-27
2.34175e-27
2.72108e-27
2.69783e-27
3.00407e-27
2.68537e-27
2.75899e-27
2.44181e-27
2.69242e-27
1.34564e-27
3.79536e-27
3.90162e-27
3.26485e-27
2.83843e-27
3.84239e-27
4.78439e-27
7.0392e-27
8.57064e-27
1.62472e-26
3.05874e-26
6.66034e-26
2.35591e-25
5.81211e-25
6.5111e-25
1.45671e-22
4.904e-22
6.07978e-22
1.0802e-22
1.09193e-21
5.09506e-24
3.6726e-23
3.32073e-24
1.44238e-26
1.04145e-26
1.0294e-28
1.22838e-27
1.85771e-27
9.00267e-28
1.38375e-27
1.31738e-27
1.38654e-27
1.00906e-27
1.17108e-27
1.36597e-27
1.59721e-27
1.28186e-27
1.71521e-27
2.04298e-27
2.31144e-27
1.9148e-27
2.10131e-27
1.81517e-27
1.93309e-27
1.85401e-27
2.06417e-27
1.815e-27
2.10657e-27
1.95256e-27
2.32733e-27
2.64392e-27
3.07517e-27
2.73979e-27
3.29586e-27
3.37939e-27
3.92563e-27
3.85471e-27
5.0192e-27
6.01443e-27
3.04043e-27
4.25855e-28
6.28028e-27
4.85624e-27
5.17158e-27
4.34315e-27
6.5078e-27
8.57203e-27
1.33447e-26
1.78316e-26
3.47233e-26
6.67862e-26
1.44401e-25
4.7703e-25
1.08076e-24
5.77027e-25
2.00106e-22
8.20392e-22
5.94838e-22
1.99933e-22
1.2565e-21
9.6284e-24
4.57061e-23
4.61334e-24
4.32301e-26
1.42662e-26
1.70136e-29
1.47679e-27
2.22422e-27
9.59011e-28
1.55562e-27
1.4754e-27
1.53818e-27
1.09855e-27
1.3036e-27
1.5154e-27
1.76017e-27
1.40753e-27
1.93546e-27
2.30477e-27
2.59139e-27
2.11975e-27
2.35732e-27
2.01007e-27
2.14718e-27
2.04012e-27
2.28817e-27
2.00448e-27
2.37079e-27
2.2003e-27
2.66802e-27
3.04749e-27
3.58843e-27
3.2478e-27
4.06173e-27
4.34119e-27
5.30656e-27
5.90609e-27
9.57506e-27
1.29425e-26
1.56978e-28
9.56082e-28
6.42376e-27
6.69061e-27
7.89082e-27
6.58317e-27
1.07669e-26
1.47705e-26
2.35801e-26
3.4085e-26
6.66066e-26
1.28675e-25
2.72254e-25
8.43186e-25
1.74603e-24
5.43235e-25
2.81757e-22
1.32031e-21
5.75103e-22
3.80155e-22
1.52237e-21
1.28325e-23
5.76782e-23
5.94135e-24
1.13931e-25
1.7619e-26
1.24356e-30
1.84403e-27
2.65232e-27
1.02252e-27
1.74329e-27
1.66615e-27
1.70086e-27
1.20169e-27
1.45068e-27
1.6869e-27
1.93872e-27
1.55042e-27
2.18758e-27
2.60689e-27
2.90514e-27
2.35228e-27
2.65149e-27
2.22871e-27
2.38965e-27
2.25183e-27
2.5405e-27
2.21426e-27
2.67677e-27
2.47696e-27
3.05925e-27
3.49953e-27
4.15057e-27
3.76308e-27
4.78894e-27
5.07304e-27
6.0483e-27
6.75555e-27
1.10682e-26
4.66482e-27
1.57081e-26
1.42227e-26
2.11498e-27
1.26781e-26
1.0047e-26
1.04703e-26
1.67491e-26
2.46147e-26
3.91054e-26
6.00925e-26
1.16451e-25
2.22562e-25
4.58954e-25
1.33473e-24
2.53641e-24
5.6369e-25
3.9725e-22
2.02072e-21
5.21401e-22
6.73478e-22
1.98327e-21
1.41956e-23
7.73358e-23
7.1414e-24
2.65659e-25
1.90749e-26
4.52517e-29
2.37425e-27
3.17095e-27
1.07777e-27
1.96498e-27
1.88286e-27
1.8841e-27
1.32135e-27
1.61434e-27
1.87571e-27
2.13956e-27
1.71371e-27
2.4759e-27
2.94606e-27
3.26176e-27
2.62047e-27
2.98653e-27
2.47819e-27
2.66371e-27
2.4798e-27
2.82815e-27
2.45446e-27
3.02595e-27
2.79489e-27
3.5186e-27
4.02232e-27
4.85163e-27
4.44675e-27
5.88123e-27
6.49534e-27
8.47141e-27
1.20023e-26
2.94067e-26
4.92197e-26
4.91805e-26
3.38704e-29
3.64405e-27
1.55948e-26
1.53843e-26
1.51892e-26
2.57352e-26
3.85932e-26
6.16427e-26
9.72562e-26
1.84909e-25
3.49523e-25
6.92663e-25
1.89458e-24
3.27519e-24
7.6305e-25
5.62378e-22
2.9094e-21
4.69061e-22
1.10493e-21
2.53852e-21
1.43008e-23
1.09611e-22
7.73141e-24
5.31713e-25
1.86263e-26
3.34836e-28
3.25347e-27
3.72941e-27
1.13272e-27
2.22006e-27
2.13627e-27
2.08907e-27
1.45258e-27
1.79853e-27
2.09616e-27
2.35875e-27
1.89821e-27
2.80401e-27
3.34324e-27
3.66084e-27
2.92417e-27
3.37291e-27
2.75714e-27
2.9697e-27
2.74246e-27
3.14819e-27
2.7176e-27
3.43273e-27
3.15251e-27
4.05988e-27
4.66325e-27
5.73765e-27
5.37948e-27
7.57161e-27
9.02682e-27
1.36229e-26
2.44275e-26
8.62212e-26
3.89818e-25
9.62383e-28
3.24643e-26
1.33813e-26
1.54109e-26
2.49637e-26
2.04596e-26
3.87099e-26
5.67467e-26
9.2245e-26
1.44695e-25
2.70026e-25
5.01286e-25
9.48016e-25
2.44607e-24
3.84147e-24
1.26957e-24
7.88404e-22
3.97067e-21
4.31548e-22
1.6984e-21
3.30254e-21
1.18892e-23
1.57069e-22
7.76575e-24
9.70791e-25
1.49735e-26
1.1231e-27
4.5642e-27
4.37458e-27
1.17196e-27
2.53338e-27
2.42084e-27
2.32072e-27
1.60559e-27
2.00389e-27
2.33935e-27
2.6054e-27
2.11188e-27
3.17712e-27
3.79252e-27
4.11516e-27
3.27655e-27
3.80846e-27
3.07482e-27
3.30854e-27
3.02937e-27
3.5045e-27
3.00694e-27
3.87817e-27
3.5366e-27
4.63e-27
5.28168e-27
6.54193e-27
6.0138e-27
8.41363e-27
9.36116e-27
1.26636e-26
1.79571e-26
4.46251e-26
7.57926e-26
5.96161e-26
1.02161e-29
7.669e-27
2.86524e-26
2.83747e-26
3.08316e-26
5.26413e-26
8.11313e-26
1.28743e-25
2.02712e-25
3.67283e-25
6.62623e-25
1.19737e-24
2.94294e-24
4.25894e-24
2.14045e-24
1.06747e-21
5.19044e-21
4.54503e-22
2.40237e-21
4.35519e-21
8.45281e-24
2.24496e-22
7.04798e-24
1.59977e-24
9.67206e-27
2.6673e-27
6.76329e-27
4.96535e-27
1.22488e-27
2.88292e-27
2.76845e-27
2.56247e-27
1.78806e-27
2.2266e-27
2.62595e-27
2.86809e-27
2.36189e-27
3.59507e-27
4.32215e-27
4.61653e-27
3.68473e-27
4.29691e-27
3.43389e-27
3.68212e-27
3.35918e-27
3.88884e-27
3.32426e-27
4.37525e-27
3.9584e-27
5.27167e-27
5.98143e-27
7.4478e-27
6.72487e-27
9.40583e-27
9.78173e-27
1.19046e-26
1.22546e-26
1.70731e-26
3.33766e-27
3.40559e-26
2.39574e-26
1.01277e-26
4.09666e-26
3.42652e-26
4.2175e-26
6.99906e-26
1.08507e-25
1.69522e-25
2.63884e-25
4.65573e-25
8.02392e-25
1.3952e-24
3.27258e-24
4.38161e-24
3.59853e-24
1.40436e-21
6.53402e-21
5.57124e-22
3.35696e-21
5.73889e-21
4.89563e-24
3.1909e-22
5.56542e-24
2.3645e-24
4.66093e-27
5.18535e-27
1.04892e-26
5.41121e-27
1.30023e-27
3.28987e-27
3.17363e-27
2.82631e-27
2.00921e-27
2.47194e-27
2.94424e-27
3.16039e-27
2.65671e-27
4.06773e-27
4.9255e-27
5.18009e-27
4.16406e-27
4.84191e-27
3.85174e-27
4.09147e-27
3.71955e-27
4.30254e-27
3.68726e-27
4.91262e-27
4.43912e-27
5.99969e-27
6.78418e-27
8.58071e-27
7.77784e-27
1.12405e-26
1.18715e-26
1.52867e-26
1.58881e-26
2.32814e-26
2.37881e-26
5.43312e-28
5.27e-27
3.86892e-26
3.92422e-26
4.74394e-26
5.08956e-26
9.11806e-26
1.34667e-25
2.09304e-25
3.178e-25
5.42388e-25
8.92019e-25
1.49914e-24
3.35328e-24
4.06617e-24
6.08828e-24
1.8079e-21
7.91422e-21
7.84868e-22
4.44873e-21
7.38088e-21
1.88898e-24
4.32131e-22
3.92058e-24
3.30328e-24
9.55418e-28
7.92135e-27
1.58546e-26
5.85073e-27
1.3617e-27
3.81468e-27
3.61096e-27
3.13464e-27
2.24923e-27
2.75142e-27
3.30397e-27
3.47969e-27
2.99157e-27
4.60313e-27
5.62801e-27
5.80586e-27
4.71026e-27
5.46016e-27
4.31963e-27
4.52748e-27
4.12275e-27
4.72999e-27
4.06961e-27
5.47599e-27
4.93022e-27
6.72348e-27
7.56467e-27
9.56877e-27
8.51186e-27
1.23556e-26
1.23853e-26
1.55501e-26
1.41826e-26
1.84499e-26
1.94821e-26
1.50544e-26
7.63374e-27
5.66989e-26
4.7418e-26
5.47866e-26
6.292e-26
1.09104e-25
1.59441e-25
2.4087e-25
3.56823e-25
5.89744e-25
9.2999e-25
1.47473e-24
3.18691e-24
3.42317e-24
1.00347e-23
2.26432e-21
9.06942e-21
1.23387e-21
5.62758e-21
9.35847e-21
5.55236e-25
5.60632e-22
2.37831e-24
4.26511e-24
8.64643e-30
1.04881e-26
2.36174e-26
6.22051e-27
1.42187e-27
4.47963e-27
4.06219e-27
3.49917e-27
2.50487e-27
3.06875e-27
3.69073e-27
3.84295e-27
3.37146e-27
5.20743e-27
6.42638e-27
6.51044e-27
5.32387e-27
6.1409e-27
4.82781e-27
4.99354e-27
4.55319e-27
5.17018e-27
4.46497e-27
6.04791e-27
5.44197e-27
7.44421e-27
8.36899e-27
1.05413e-26
9.18445e-27
1.33023e-26
1.24634e-26
1.50445e-26
1.17588e-26
1.24148e-26
9.54477e-27
1.75262e-26
2.16803e-26
6.03132e-26
5.75452e-26
5.97862e-26
7.44028e-26
1.23141e-25
1.77696e-25
2.59949e-25
3.74698e-25
5.96881e-25
9.11537e-25
1.29952e-24
2.76562e-24
2.61309e-24
1.50371e-23
2.7285e-21
1.00262e-20
2.0245e-21
6.65742e-21
1.17057e-20
7.49109e-25
7.06861e-22
1.27712e-24
5.10524e-24
4.47868e-28
1.31318e-26
3.56781e-26
6.26106e-27
1.54592e-27
5.171e-27
4.61074e-27
3.84703e-27
2.8011e-27
3.37972e-27
4.13844e-27
4.20814e-27
3.80547e-27
5.84209e-27
7.35588e-27
7.24908e-27
6.00363e-27
6.85279e-27
5.36684e-27
5.46345e-27
5.0122e-27
5.58419e-27
4.85489e-27
6.59415e-27
5.94318e-27
8.13001e-27
9.19153e-27
1.14669e-26
9.83533e-27
1.43431e-26
1.28161e-26
1.53608e-26
1.12615e-26
1.13027e-26
6.82979e-27
1.9697e-26
3.76927e-26
6.71569e-26
6.08233e-26
6.5622e-26
8.06283e-26
1.32344e-25
1.83422e-25
2.61148e-25
3.60204e-25
5.4376e-25
7.86207e-25
1.02453e-24
2.12467e-24
1.77289e-24
2.13466e-23
3.17125e-21
1.0458e-20
3.34786e-21
7.90665e-21
1.43187e-20
3.7694e-24
8.49375e-22
7.81157e-25
5.84444e-24
5.23649e-27
1.58548e-26
5.46458e-26
5.95465e-27
1.76759e-27
5.79818e-27
5.3675e-27
4.08835e-27
3.23873e-27
3.59773e-27
4.64958e-27
4.542e-27
4.35328e-27
6.44079e-27
8.44681e-27
7.98498e-27
6.82358e-27
7.54775e-27
5.99487e-27
5.90727e-27
5.481e-27
5.96122e-27
5.2645e-27
7.06823e-27
6.45483e-27
8.72699e-27
9.90713e-27
1.2289e-26
1.03438e-26
1.51472e-26
1.30687e-26
1.57091e-26
1.11352e-26
1.17407e-26
6.26366e-27
2.39363e-26
4.91597e-26
7.33207e-26
5.94342e-26
6.96631e-26
8.12846e-26
1.33989e-25
1.74676e-25
2.4199e-25
3.12372e-25
4.44437e-25
5.8837e-25
7.2042e-25
1.4308e-24
1.06954e-24
2.70486e-23
3.56015e-21
1.0844e-20
5.41157e-21
8.29386e-21
1.80441e-20
1.03026e-23
1.03472e-21
8.12199e-25
6.67147e-24
2.64703e-26
1.74292e-26
8.50902e-26
5.72209e-27
1.9987e-27
6.93947e-27
6.32438e-27
4.52103e-27
3.77892e-27
3.99926e-27
5.40534e-27
5.08198e-27
5.04495e-27
7.36886e-27
9.9737e-27
9.04506e-27
7.89558e-27
8.57657e-27
6.87537e-27
6.57976e-27
6.20453e-27
6.4996e-27
5.83382e-27
7.7264e-27
7.1606e-27
9.5109e-27
1.10135e-26
1.32327e-26
1.10185e-26
1.61266e-26
1.36781e-26
1.63479e-26
1.1646e-26
1.27368e-26
6.78077e-27
2.91491e-26
5.91647e-26
7.5189e-26
5.8572e-26
7.05118e-26
7.95746e-26
1.28513e-25
1.5922e-25
2.08195e-25
2.50777e-25
3.34464e-25
4.02134e-25
4.43973e-25
8.63383e-25
5.62531e-25
3.38631e-23
3.91071e-21
1.04674e-20
8.54857e-21
2.78024e-26
1.31833e-26
3.82107e-28
1.92115e-27
1.03533e-27
8.78773e-32
2.37216e-28
9.69952e-29
2.01632e-28
1.34183e-28
1.94508e-28
1.5359e-28
2.14241e-28
1.77697e-28
1.95529e-28
1.57723e-28
2.23592e-28
2.1522e-28
2.28628e-28
2.24907e-28
2.89361e-28
2.9713e-28
3.12306e-28
3.00067e-28
3.02592e-28
2.89731e-28
3.18794e-28
3.18698e-28
3.2096e-28
3.22664e-28
3.11749e-28
3.17477e-28
3.64883e-28
3.81985e-28
3.70146e-28
3.68498e-28
3.56996e-28
3.52317e-28
3.48176e-28
3.23565e-28
2.82685e-28
2.55836e-28
2.85997e-28
2.45483e-28
2.10333e-28
1.82056e-28
1.06255e-28
7.16716e-29
3.19828e-29
1.37389e-29
7.39164e-32
1.44657e-30
5.25246e-29
3.05039e-28
1.42746e-27
6.42575e-28
3.41503e-26
1.24829e-24
1.66397e-24
8.32273e-26
1.62399e-24
2.73165e-26
5.25258e-26
2.62991e-26
1.49152e-27
4.82251e-30
4.17661e-28
2.65187e-28
2.83808e-28
4.39374e-28
2.89293e-28
4.37402e-28
3.56971e-28
4.72294e-28
3.61369e-28
3.89305e-28
4.13279e-28
5.29515e-28
4.50665e-28
5.04025e-28
5.60105e-28
6.74028e-28
6.16773e-28
6.61261e-28
6.099e-28
6.3704e-28
6.4359e-28
7.04912e-28
6.56611e-28
6.9263e-28
6.44998e-28
6.6434e-28
7.29703e-28
8.11367e-28
7.52891e-28
7.46324e-28
7.24535e-28
7.06208e-28
7.0128e-28
6.79312e-28
5.87209e-28
5.92953e-28
5.45808e-28
4.45944e-28
4.23189e-28
3.42808e-28
2.11475e-28
1.14168e-28
5.96818e-29
1.723e-29
1.5362e-31
1.00185e-29
1.21382e-28
9.5523e-28
2.94738e-27
2.79153e-27
5.13678e-26
3.50117e-24
9.41576e-24
9.8581e-26
3.63521e-24
7.8836e-25
2.45487e-25
6.72273e-26
4.09085e-27
3.69852e-30
4.57653e-28
4.5742e-28
3.78957e-28
6.08329e-28
4.47534e-28
5.82228e-28
5.48725e-28
6.21314e-28
5.39812e-28
5.40491e-28
6.15447e-28
7.14729e-28
6.6441e-28
7.06998e-28
8.15454e-28
9.33124e-28
8.91932e-28
9.32815e-28
8.75431e-28
9.11517e-28
9.22895e-28
9.95545e-28
9.3966e-28
9.86412e-28
9.1557e-28
9.66254e-28
1.03652e-27
1.14874e-27
1.07126e-27
1.07296e-27
1.03129e-27
1.02805e-27
1.01535e-27
9.93297e-28
8.89131e-28
8.706e-28
7.16304e-28
6.62986e-28
6.07019e-28
4.86232e-28
2.99791e-28
1.70532e-28
8.3951e-29
2.76381e-29
1.86123e-31
1.02316e-29
1.82561e-28
1.14653e-27
3.8962e-27
2.97614e-27
1.4743e-25
5.7135e-24
1.03826e-23
1.49079e-24
1.11933e-23
6.31474e-24
7.18205e-25
3.98972e-25
4.5153e-27
6.45549e-30
4.77258e-28
4.74492e-28
4.02541e-28
6.17478e-28
4.80478e-28
5.90067e-28
5.80768e-28
6.3029e-28
5.6339e-28
5.45125e-28
6.35106e-28
7.30836e-28
6.89216e-28
7.2224e-28
8.50003e-28
9.63645e-28
9.28457e-28
9.57716e-28
9.02705e-28
9.32649e-28
9.43202e-28
1.02316e-27
9.60766e-28
1.01197e-27
9.38867e-28
9.95574e-28
1.06315e-27
1.20104e-27
1.10583e-27
1.12163e-27
1.0749e-27
1.08372e-27
1.07733e-27
1.0562e-27
9.58585e-28
8.88641e-28
6.99505e-28
7.19916e-28
6.28614e-28
5.14398e-28
3.18361e-28
1.81172e-28
9.59684e-29
3.37198e-29
6.81763e-31
1.05009e-29
1.45079e-28
9.83787e-28
3.13167e-27
2.45398e-27
2.01441e-25
9.14907e-24
1.45292e-23
9.4398e-24
1.86586e-23
2.5876e-23
9.72015e-25
1.37644e-24
1.08274e-26
2.33983e-29
5.22693e-28
5.20628e-28
4.16318e-28
6.78108e-28
4.81798e-28
6.44768e-28
5.94009e-28
6.84795e-28
5.70853e-28
5.7903e-28
6.49919e-28
7.81504e-28
7.06879e-28
7.60997e-28
8.9046e-28
1.02395e-27
9.66636e-28
1.00461e-27
9.33159e-28
9.71826e-28
9.74422e-28
1.06843e-27
9.87444e-28
1.05531e-27
9.68132e-28
1.0402e-27
1.10976e-27
1.27836e-27
1.15085e-27
1.19263e-27
1.13024e-27
1.16203e-27
1.14692e-27
1.12685e-27
1.01622e-27
8.91493e-28
7.14223e-28
7.93502e-28
6.60852e-28
5.69275e-28
3.3946e-28
2.08322e-28
1.16075e-28
5.01683e-29
2.64118e-30
1.14238e-29
1.12642e-28
8.17766e-28
2.23296e-27
1.77755e-27
3.08488e-25
1.50715e-23
1.85333e-23
3.55104e-23
2.22362e-23
6.90219e-23
8.55417e-25
3.29148e-24
2.96102e-26
6.26738e-29
6.22443e-28
5.81493e-28
4.59281e-28
7.59357e-28
4.97838e-28
7.2237e-28
6.23692e-28
7.61782e-28
5.90867e-28
6.35935e-28
6.86496e-28
8.61499e-28
7.42714e-28
8.34702e-28
9.60983e-28
1.12643e-27
1.0345e-27
1.09037e-27
9.93221e-28
1.04887e-27
1.03814e-27
1.15173e-27
1.0473e-27
1.13609e-27
1.02933e-27
1.12729e-27
1.20082e-27
1.40274e-27
1.23639e-27
1.30958e-27
1.22464e-27
1.28631e-27
1.2479e-27
1.23655e-27
1.10364e-27
9.60189e-28
7.76698e-28
8.93893e-28
7.41393e-28
6.65136e-28
3.83402e-28
2.66055e-28
1.55608e-28
8.89397e-29
1.09268e-29
2.01321e-29
8.97658e-29
6.5173e-28
1.37394e-27
1.02715e-27
4.56048e-25
2.34183e-23
2.31679e-23
8.89189e-23
2.30559e-23
1.42798e-22
5.49414e-25
6.35093e-24
7.61259e-26
1.27162e-28
8.20534e-28
6.28909e-28
5.30045e-28
8.40733e-28
5.34765e-28
7.99426e-28
6.74033e-28
8.42382e-28
6.22236e-28
7.02457e-28
7.39354e-28
9.54612e-28
7.90505e-28
9.29016e-28
1.05244e-27
1.25372e-27
1.11899e-27
1.19899e-27
1.06953e-27
1.14879e-27
1.12021e-27
1.25368e-27
1.12307e-27
1.23725e-27
1.10829e-27
1.24152e-27
1.3173e-27
1.55223e-27
1.34296e-27
1.45227e-27
1.34255e-27
1.44097e-27
1.37483e-27
1.38322e-27
1.23129e-27
1.07275e-27
8.64944e-28
1.02584e-27
8.77755e-28
8.01104e-28
4.60732e-28
3.66883e-28
2.33636e-28
1.76347e-28
4.35281e-29
6.24203e-29
1.06154e-28
5.46452e-28
9.49002e-28
1.00482e-27
5.83117e-25
3.4053e-23
3.33691e-23
1.72543e-22
2.08053e-23
2.47841e-22
2.62506e-25
1.04998e-23
1.74328e-25
1.91823e-28
1.17578e-27
6.49208e-28
6.16159e-28
9.32343e-28
5.84263e-28
8.77169e-28
7.40623e-28
9.25239e-28
6.63437e-28
7.74192e-28
8.03372e-28
1.05588e-27
8.46209e-28
1.03576e-27
1.15933e-27
1.39927e-27
1.21469e-27
1.32275e-27
1.15654e-27
1.26194e-27
1.20845e-27
1.3681e-27
1.20761e-27
1.34943e-27
1.19742e-27
1.37034e-27
1.44697e-27
1.71881e-27
1.46231e-27
1.61326e-27
1.47991e-27
1.62208e-27
1.52495e-27
1.57603e-27
1.402e-27
1.24407e-27
9.91811e-28
1.19425e-27
1.08068e-27
9.95729e-28
5.90868e-28
5.42161e-28
3.88352e-28
3.73191e-28
1.56752e-28
2.34841e-28
2.77439e-28
7.95806e-28
1.93965e-27
5.00645e-27
6.98991e-25
4.71178e-23
5.11073e-23
2.78861e-22
2.00937e-23
3.79472e-22
1.51875e-25
1.54005e-23
3.67766e-25
2.2957e-28
1.80634e-27
6.27163e-28
7.09794e-28
1.04737e-27
6.39696e-28
9.6339e-28
8.21886e-28
1.01378e-27
7.11897e-28
8.52629e-28
8.81595e-28
1.16457e-27
9.09739e-28
1.15591e-27
1.28658e-27
1.56168e-27
1.32085e-27
1.46209e-27
1.25393e-27
1.38692e-27
1.30805e-27
1.49236e-27
1.29725e-27
1.47426e-27
1.29621e-27
1.51436e-27
1.59591e-27
1.90304e-27
1.59461e-27
1.79878e-27
1.6431e-27
1.83798e-27
1.71483e-27
1.83502e-27
1.63034e-27
1.49286e-27
1.16924e-27
1.4154e-27
1.38392e-27
1.28502e-27
8.0959e-28
8.51699e-28
7.02952e-28
8.06103e-28
4.99329e-28
8.35571e-28
1.08249e-27
2.44094e-27
8.45794e-27
2.65803e-26
7.53984e-25
6.30555e-23
8.9723e-23
3.93284e-22
2.2338e-23
5.34072e-22
3.34249e-25
2.06841e-23
7.26478e-25
3.65908e-28
2.86025e-27
5.55613e-28
8.10561e-28
1.19635e-27
6.98572e-28
1.06309e-27
9.15509e-28
1.11189e-27
7.69006e-28
9.38885e-28
9.70829e-28
1.28249e-27
9.83193e-28
1.29115e-27
1.43247e-27
1.7429e-27
1.44184e-27
1.61689e-27
1.36484e-27
1.52403e-27
1.41478e-27
1.62907e-27
1.39701e-27
1.61146e-27
1.40856e-27
1.67604e-27
1.762e-27
2.11182e-27
1.74949e-27
2.01591e-27
1.84289e-27
2.09866e-27
1.94903e-27
2.18429e-27
1.94266e-27
1.80247e-27
1.41594e-27
1.71188e-27
1.82775e-27
1.72715e-27
1.18084e-27
1.39926e-27
1.32729e-27
1.72931e-27
1.4264e-27
2.58943e-27
3.92947e-27
8.69215e-27
3.24952e-26
9.67412e-26
7.71083e-25
8.32326e-23
1.6174e-22
5.03536e-22
3.38949e-23
7.03452e-22
9.62207e-25
2.58389e-23
1.29328e-24
9.86822e-28
4.7997e-27
4.06653e-28
9.41082e-28
1.37433e-27
7.64526e-28
1.17394e-27
1.0256e-27
1.21941e-27
8.33197e-28
1.03601e-27
1.07354e-27
1.41056e-27
1.06587e-27
1.44517e-27
1.60171e-27
1.94382e-27
1.57694e-27
1.79073e-27
1.48906e-27
1.67538e-27
1.53492e-27
1.7775e-27
1.50563e-27
1.76667e-27
1.53597e-27
1.8615e-27
1.95484e-27
2.34965e-27
1.93094e-27
2.27507e-27
2.0873e-27
2.41268e-27
2.24105e-27
2.63031e-27
2.29291e-27
2.28823e-27
1.7759e-27
2.09721e-27
2.49168e-27
2.39725e-27
1.80359e-27
2.34653e-27
2.51391e-27
3.61601e-27
3.6538e-27
7.0047e-27
1.18811e-26
2.66563e-26
9.6818e-26
2.66547e-25
7.23206e-25
1.09716e-22
2.95613e-22
5.82288e-22
5.6421e-23
9.06702e-22
2.44443e-24
3.10516e-23
2.15737e-24
3.898e-27
7.34026e-27
2.47769e-28
1.08152e-27
1.61212e-27
8.27866e-28
1.306e-27
1.1466e-27
1.344e-27
9.03143e-28
1.14695e-27
1.18469e-27
1.55429e-27
1.15672e-27
1.62267e-27
1.79005e-27
2.17145e-27
1.72728e-27
1.98797e-27
1.62809e-27
1.844e-27
1.66153e-27
1.94376e-27
1.6286e-27
1.94218e-27
1.68192e-27
2.07369e-27
2.17316e-27
2.62637e-27
2.14773e-27
2.58584e-27
2.38785e-27
2.7945e-27
2.60451e-27
3.23447e-27
2.76412e-27
2.85234e-27
2.30857e-27
2.62073e-27
3.44545e-27
3.4255e-27
2.83329e-27
3.94486e-27
4.67544e-27
7.23105e-27
8.44131e-27
1.66818e-26
3.0249e-26
6.78928e-26
2.33777e-25
5.89496e-25
6.60315e-25
1.46231e-22
4.94062e-22
6.11729e-22
1.08896e-22
1.09788e-21
5.00193e-24
3.66986e-23
3.30268e-24
1.44098e-26
1.05514e-26
1.0381e-28
1.25825e-27
1.91556e-27
8.88152e-28
1.45988e-27
1.28302e-27
1.4862e-27
9.76159e-28
1.27444e-27
1.31004e-27
1.7135e-27
1.2552e-27
1.82834e-27
2.00505e-27
2.42863e-27
1.89063e-27
2.21682e-27
1.77983e-27
2.03329e-27
1.80443e-27
2.12959e-27
1.761e-27
2.14792e-27
1.84586e-27
2.31956e-27
2.43143e-27
2.94828e-27
2.40191e-27
2.9663e-27
2.75502e-27
3.26336e-27
3.07128e-27
4.04951e-27
3.3543e-27
3.57275e-27
3.04567e-27
3.30925e-27
4.82813e-27
4.99148e-27
4.48573e-27
6.56754e-27
8.48152e-27
1.36013e-26
1.76628e-26
3.54629e-26
6.62572e-26
1.46675e-25
4.74371e-25
1.09419e-24
5.8647e-25
2.00817e-22
8.25813e-22
5.98787e-22
2.01935e-22
1.26557e-21
9.42489e-24
4.56013e-23
4.59674e-24
4.31728e-26
1.44622e-26
1.66913e-29
1.51464e-27
2.28197e-27
9.48999e-28
1.63505e-27
1.43789e-27
1.64518e-27
1.05971e-27
1.41708e-27
1.44518e-27
1.89233e-27
1.36609e-27
2.06504e-27
2.24205e-27
2.72254e-27
2.07405e-27
2.47905e-27
1.94917e-27
2.24726e-27
1.95656e-27
2.34302e-27
1.9096e-27
2.38508e-27
2.03382e-27
2.60586e-27
2.72158e-27
3.33169e-27
2.70581e-27
3.4268e-27
3.20003e-27
3.82843e-27
3.63445e-27
5.08582e-27
4.05864e-27
4.31945e-27
4.09587e-27
4.16966e-27
6.78716e-27
7.2638e-27
6.97875e-27
1.07178e-26
1.47544e-26
2.39211e-26
3.39142e-26
6.77653e-26
1.2797e-25
2.75947e-25
8.40238e-25
1.76734e-24
5.51586e-25
2.82493e-22
1.32856e-21
5.79285e-22
3.84513e-22
1.53428e-21
1.2542e-23
5.74519e-23
5.92957e-24
1.13809e-25
1.78671e-26
9.26976e-31
1.88922e-27
2.71169e-27
1.01382e-27
1.82624e-27
1.62488e-27
1.81483e-27
1.15632e-27
1.57441e-27
1.60144e-27
2.08658e-27
1.49242e-27
2.33506e-27
2.5147e-27
3.05196e-27
2.28013e-27
2.78082e-27
2.13716e-27
2.48918e-27
2.12885e-27
2.58396e-27
2.07272e-27
2.66331e-27
2.24438e-27
2.94257e-27
3.05741e-27
3.78223e-27
3.05878e-27
3.98123e-27
3.72094e-27
4.49802e-27
4.3142e-27
6.37685e-27
4.94669e-27
5.69984e-27
5.6573e-27
5.24957e-27
9.56493e-27
1.03755e-26
1.05913e-26
1.69917e-26
2.44473e-26
3.9754e-26
5.987e-26
1.18305e-25
2.21577e-25
4.64619e-25
1.33154e-24
2.56596e-24
5.71202e-25
3.98084e-22
2.03429e-21
5.25828e-22
6.79025e-22
1.99813e-21
1.39514e-23
7.70272e-23
7.14351e-24
2.66388e-25
1.92557e-26
4.29087e-29
2.41807e-27
3.23999e-27
1.06768e-27
2.05445e-27
1.83537e-27
2.00654e-27
1.26768e-27
1.7494e-27
1.77255e-27
2.30417e-27
1.63648e-27
2.64351e-27
2.81874e-27
3.42709e-27
2.51625e-27
3.12534e-27
2.35005e-27
2.76338e-27
2.31185e-27
2.86045e-27
2.25947e-27
2.98287e-27
2.48464e-27
3.33628e-27
3.43503e-27
4.32467e-27
3.4839e-27
4.66985e-27
4.37907e-27
5.3967e-27
5.28174e-27
8.3525e-27
7.01225e-27
7.16786e-27
7.30607e-27
7.02761e-27
1.30514e-26
1.48082e-26
1.5785e-26
2.58605e-26
3.85233e-26