/*--------------------------------*- C++ -*----------------------------------*\
| =========                 |                                                 |
| \\      /  F ield         | OpenFOAM: The Open Source CFD Toolbox           |
|  \\    /   O peration     | Version:  2312                                  |
|   \\  /    A nd           | Website:  www.openfoam.com                      |
|    \\/     M anipulation  |                                                 |
\*---------------------------------------------------------------------------*/
FoamFile
{
    version     2.0;
    format      ascii;
    arch        "LSB;label=32;scalar=64";
    class       volScalarField;
    location    "280";
    object      p;
}
// * * * * * * * * * * * * * * * * * * * * * * * * * * * * * * * * * * * * * //

dimensions      [0 2 -2 0 0 0 0];

internalField   nonuniform List<scalar> 
144000
(
5.81158e-10
3.12109e-10
-3.5926e-10
-7.35766e-10
-6.28637e-10
-4.27875e-10
-2.28628e-10
-1.26754e-10
-3.33975e-11
-1.41992e-11
2.93678e-11
2.11033e-11
5.05349e-11
3.41938e-11
6.04633e-11
4.37552e-11
6.60934e-11
4.29311e-11
6.91665e-11
4.90017e-11
7.62211e-11
5.08397e-11
7.83208e-11
5.47799e-11
8.11097e-11
5.77555e-11
8.23929e-11
5.53729e-11
8.05351e-11
5.43257e-11
7.98952e-11
5.33774e-11
7.69471e-11
4.47637e-11
6.95133e-11
4.00775e-11
6.48245e-11
3.59922e-11
5.89298e-11
2.89318e-11
5.06485e-11
2.44629e-11
4.5707e-11
1.78919e-11
3.66892e-11
1.07587e-11
2.78704e-11
1.05085e-11
2.24696e-11
1.09741e-11
1.66035e-11
1.77269e-11
3.3881e-12
1.04843e-11
-4.13331e-11
-6.31048e-12
-8.87738e-11
-1.74273e-10
-1.08338e-09
-2.4444e-10
6.14789e-10
3.2921e-10
-3.67892e-10
-7.42648e-10
-6.31433e-10
-4.281e-10
-2.2875e-10
-1.268e-10
-3.37088e-11
-1.44324e-11
2.89838e-11
2.09281e-11
5.02002e-11
3.40928e-11
6.01857e-11
4.37293e-11
6.58652e-11
4.28731e-11
6.89694e-11
4.89992e-11
7.60534e-11
5.08465e-11
7.81346e-11
5.48646e-11
8.09249e-11
5.78589e-11
8.22236e-11
5.54569e-11
8.03742e-11
5.44389e-11
7.97565e-11
5.35027e-11
7.68177e-11
4.48565e-11
6.93738e-11
4.02196e-11
6.46924e-11
3.6146e-11
5.87977e-11
2.9062e-11
5.04388e-11
2.44823e-11
4.54561e-11
1.80639e-11
3.65821e-11
1.09704e-11
2.77815e-11
1.07718e-11
2.24448e-11
1.1221e-11
1.66764e-11
1.80051e-11
3.64945e-12
1.0626e-11
-4.08861e-11
-6.18128e-12
-8.40635e-11
-1.65788e-10
-1.10594e-09
-2.65261e-10
6.56319e-10
3.41854e-10
-3.78257e-10
-7.49065e-10
-6.34567e-10
-4.2852e-10
-2.287e-10
-1.26905e-10
-3.38397e-11
-1.48309e-11
2.86401e-11
2.05361e-11
4.99164e-11
3.37843e-11
5.99459e-11
4.35336e-11
6.57604e-11
4.26242e-11
6.88627e-11
4.88011e-11
7.60376e-11
5.06635e-11
7.80655e-11
5.47956e-11
8.08594e-11
5.78152e-11
8.2202e-11
5.53792e-11
8.03508e-11
5.43949e-11
7.97626e-11
5.34671e-11
7.68818e-11
4.47706e-11
6.9392e-11
4.01971e-11
6.47309e-11
3.61434e-11
5.88481e-11
2.90587e-11
5.03553e-11
2.42738e-11
4.52721e-11
1.80172e-11
3.66825e-11
1.10884e-11
2.78603e-11
1.09477e-11
2.26236e-11
1.13759e-11
1.69083e-11
1.81904e-11
4.10993e-12
1.07752e-11
-4.02714e-11
-7.06711e-12
-7.91387e-11
-1.47687e-10
-1.14003e-09
-2.86758e-10
7.01603e-10
3.42896e-10
-3.88489e-10
-7.5246e-10
-6.38227e-10
-4.2915e-10
-2.28481e-10
-1.26818e-10
-3.37801e-11
-1.52413e-11
2.82318e-11
2.00284e-11
4.95625e-11
3.33882e-11
5.96247e-11
4.32826e-11
6.56684e-11
4.23029e-11
6.87182e-11
4.85267e-11
7.60554e-11
5.04194e-11
7.79821e-11
5.46932e-11
8.07923e-11
5.77529e-11
8.22064e-11
5.52675e-11
8.03336e-11
5.43142e-11
7.97912e-11
5.34008e-11
7.70201e-11
4.46338e-11
6.94363e-11
4.0126e-11
6.48252e-11
3.61035e-11
5.89791e-11
2.90468e-11
5.02992e-11
2.39583e-11
4.50278e-11
1.77909e-11
3.69061e-11
1.118e-11
2.80517e-11
1.10476e-11
2.30045e-11
1.13912e-11
1.73885e-11
1.8136e-11
5.09245e-12
1.0428e-11
-3.89472e-11
-9.8562e-12
-7.11821e-11
-1.23862e-10
-1.18269e-09
-3.02068e-10
7.43981e-10
3.20062e-10
-3.96877e-10
-7.46863e-10
-6.40752e-10
-4.29954e-10
-2.28136e-10
-1.26458e-10
-3.3523e-11
-1.56503e-11
2.76719e-11
1.93719e-11
4.90529e-11
3.28764e-11
5.91504e-11
4.29689e-11
6.55294e-11
4.19194e-11
6.8475e-11
4.81902e-11
7.60524e-11
5.01407e-11
7.78274e-11
5.4576e-11
8.06772e-11
5.76967e-11
8.21926e-11
5.51517e-11
8.02736e-11
5.42222e-11
7.97992e-11
5.33363e-11
7.71911e-11
4.4484e-11
6.94602e-11
4.0033e-11
6.49393e-11
3.60555e-11
5.91633e-11
2.90695e-11
5.02492e-11
2.36162e-11
4.46468e-11
1.73495e-11
3.72204e-11
1.12577e-11
2.83391e-11
1.10376e-11
2.36001e-11
1.11948e-11
1.818e-11
1.76926e-11
6.74908e-12
9.28688e-12
-3.64875e-11
-1.51407e-11
-5.92464e-11
-9.83416e-11
-1.23157e-09
-2.99662e-10
7.8171e-10
2.59394e-10
-4.04612e-10
-7.2664e-10
-6.39759e-10
-4.30837e-10
-2.27728e-10
-1.25764e-10
-3.30218e-11
-1.60443e-11
2.69301e-11
1.85313e-11
4.83468e-11
3.22193e-11
5.8491e-11
4.25541e-11
6.53128e-11
4.14615e-11
6.81097e-11
4.77746e-11
7.60025e-11
4.98245e-11
7.75812e-11
5.44303e-11
8.05e-11
5.76368e-11
8.21465e-11
5.50296e-11
8.01581e-11
5.41118e-11
7.97771e-11
5.32696e-11
7.73831e-11
4.43266e-11
6.94554e-11
3.99097e-11
6.50699e-11
3.59931e-11
5.94051e-11
2.91376e-11
5.02274e-11
2.32598e-11
4.40681e-11
1.66271e-11
3.76222e-11
1.13072e-11
2.87339e-11
1.08589e-11
2.44385e-11
1.07036e-11
1.93588e-11
1.67031e-11
9.24336e-12
7.0482e-12
-3.24577e-11
-2.34356e-11
-4.27074e-11
-7.41187e-11
-1.28703e-09
-2.67083e-10
8.18382e-10
1.49769e-10
-4.15924e-10
-6.87424e-10
-6.32584e-10
-4.31659e-10
-2.27384e-10
-1.24692e-10
-3.22204e-11
-1.63918e-11
2.60051e-11
1.74954e-11
4.74249e-11
3.1404e-11
5.7632e-11
4.20158e-11
6.49936e-11
4.09245e-11
6.76099e-11
4.72656e-11
7.58822e-11
4.94677e-11
7.723e-11
5.42424e-11
8.02502e-11
5.75625e-11
8.20551e-11
5.48977e-11
7.99793e-11
5.39753e-11
7.97185e-11
5.31944e-11
7.75835e-11
4.41648e-11
6.94192e-11
3.97461e-11
6.52158e-11
3.59055e-11
5.97132e-11
2.92507e-11
5.02964e-11
2.28918e-11
4.31912e-11
1.55525e-11
3.8117e-11
1.13085e-11
2.9258e-11
1.04502e-11
2.55535e-11
9.8332e-12
2.10104e-11
1.50108e-11
1.2739e-11
3.44858e-12
-2.64817e-11
-3.50255e-11
-2.13401e-11
-5.26386e-11
-1.35176e-09
-1.95396e-10
8.60475e-10
-1.51496e-11
-4.36555e-10
-6.2647e-10
-6.16929e-10
-4.32284e-10
-2.27318e-10
-1.23236e-10
-3.10777e-11
-1.66605e-11
2.49027e-11
1.62669e-11
4.62784e-11
3.04295e-11
5.65684e-11
4.13424e-11
6.45489e-11
4.03094e-11
6.69687e-11
4.66576e-11
7.56678e-11
4.90708e-11
7.67635e-11
5.4004e-11
7.99166e-11
5.74681e-11
8.19033e-11
5.47547e-11
7.97294e-11
5.38092e-11
7.96154e-11
5.31086e-11
7.77758e-11
4.40025e-11
6.93495e-11
3.95359e-11
6.53739e-11
3.57821e-11
6.00987e-11
2.94016e-11
5.05623e-11
2.2473e-11
4.18624e-11
1.40595e-11
3.87171e-11
1.124e-11
2.99362e-11
9.75574e-12
2.69764e-11
8.50855e-12
2.32114e-11
1.24887e-11
1.73519e-11
-1.6607e-12
-1.83634e-11
-4.98336e-11
4.35045e-12
-3.39063e-11
-1.42869e-09
-8.08923e-11
9.15991e-10
-2.36576e-10
-4.73079e-10
-5.42979e-10
-5.90025e-10
-4.32523e-10
-2.27817e-10
-1.21443e-10
-2.9576e-11
-1.68264e-11
2.36303e-11
1.48529e-11
4.49044e-11
2.93e-11
5.53021e-11
4.05294e-11
6.39605e-11
3.96199e-11
6.61848e-11
4.59511e-11
7.53396e-11
4.8636e-11
7.61763e-11
5.37107e-11
7.94903e-11
5.73498e-11
8.16781e-11
5.46004e-11
7.9403e-11
5.3612e-11
7.94604e-11
5.30116e-11
7.79441e-11
4.38424e-11
6.92456e-11
3.92746e-11
6.55416e-11
3.56098e-11
6.05789e-11
2.95736e-11
5.11872e-11
2.19464e-11
3.98662e-11
1.20847e-11
3.9443e-11
1.1081e-11
3.07921e-11
8.73455e-12
2.87267e-11
6.68072e-12
2.60107e-11
9.07417e-12
2.31044e-11
-8.27271e-12
-8.15914e-12
-6.73482e-11
3.32867e-11
-1.6934e-11
-1.52019e-09
7.54665e-11
9.91031e-10
-5.10555e-10
-5.30991e-10
-4.38194e-10
-5.50123e-10
-4.32035e-10
-2.2919e-10
-1.19429e-10
-2.77243e-11
-1.68758e-11
2.21946e-11
1.32617e-11
4.33028e-11
2.80213e-11
5.3839e-11
3.95768e-11
6.32141e-11
3.886e-11
6.52616e-11
4.51504e-11
7.48819e-11
4.81649e-11
7.54683e-11
5.33607e-11
7.89659e-11
5.72051e-11
8.13693e-11
5.44341e-11
7.89984e-11
5.33842e-11
7.92483e-11
5.29031e-11
7.80738e-11
4.36859e-11
6.91095e-11
3.89597e-11
6.57164e-11
3.53748e-11
6.11746e-11
2.97479e-11
5.23856e-11
2.12131e-11
3.69289e-11
9.58492e-12
4.03186e-11
1.08158e-11
3.18401e-11
7.3706e-12
3.08016e-11
4.34009e-12
2.93955e-11
4.79303e-12
2.98995e-11
-1.61954e-11
3.80159e-12
-8.66606e-11
6.37558e-11
-2.05435e-13
-1.62618e-09
2.67975e-10
1.08917e-09
-8.27597e-10
-6.14044e-10
-3.15679e-10
-4.9645e-10
-4.30282e-10
-2.31702e-10
-1.17371e-10
-2.55625e-11
-1.68042e-11
2.06026e-11
1.15008e-11
4.14755e-11
2.6598e-11
5.2186e-11
3.84866e-11
6.22998e-11
3.80328e-11
6.42045e-11
4.42615e-11
7.42836e-11
4.76587e-11
7.46429e-11
5.29535e-11
7.83405e-11
5.70319e-11
8.09705e-11
5.42554e-11
7.85161e-11
5.31268e-11
7.89748e-11
5.27834e-11
7.81532e-11
4.35339e-11
6.89431e-11
3.85925e-11
6.58934e-11
3.50651e-11
6.19095e-11
2.99062e-11
5.4436e-11
2.00516e-11
3.27127e-11
6.55217e-12
4.13612e-11
1.0434e-11
3.30754e-11
5.67751e-12
3.3171e-11
1.52453e-12
3.32946e-11
-2.27345e-13
3.75123e-11
-2.50565e-11
1.69414e-11
-1.06587e-10
9.38311e-11
1.78974e-11
-1.74424e-09
4.86891e-10
1.21068e-09
-1.17356e-09
-7.23156e-10
-1.80623e-10
-4.29018e-10
-4.26624e-10
-2.3554e-10
-1.15505e-10
-2.31686e-11
-1.66176e-11
1.88619e-11
9.5773e-12
3.94247e-11
2.50334e-11
5.03504e-11
3.72622e-11
6.12105e-11
3.71398e-11
6.30199e-11
4.32917e-11
7.35371e-11
4.71165e-11
7.37055e-11
5.24897e-11
7.76134e-11
5.68285e-11
8.04782e-11
5.40636e-11
7.79586e-11
5.28425e-11
7.86371e-11
5.26537e-11
7.81725e-11
4.33882e-11
6.87473e-11
3.81784e-11
6.60662e-11
3.46698e-11
6.28082e-11
3.00203e-11
5.78162e-11
1.82669e-11
2.67441e-11
3.01544e-12
4.25665e-11
9.92753e-12
3.44667e-11
3.69623e-12
3.57663e-11
-1.67667e-12
3.75744e-11
-5.77124e-12
4.56072e-11
-3.43369e-11
3.05026e-11
-1.25779e-10
1.21434e-10
3.87764e-11
-1.87e-09
7.22623e-10
1.35373e-09
-1.53189e-09
-8.56982e-10
-3.91933e-11
-3.48451e-10
-4.20261e-10
-2.40728e-10
-1.14091e-10
-2.06522e-11
-1.63271e-11
1.69854e-11
7.50154e-12
3.71563e-11
2.3331e-11
4.83408e-11
3.59085e-11
5.99434e-11
3.61819e-11
6.17145e-11
4.22489e-11
7.26388e-11
4.65367e-11
7.26625e-11
5.1971e-11
7.67856e-11
5.65936e-11
7.98915e-11
5.38583e-11
7.73283e-11
5.25349e-11
7.82324e-11
5.25163e-11
7.81232e-11
4.32516e-11
6.85198e-11
3.77288e-11
6.62212e-11
3.41913e-11
6.38616e-11
3.0098e-11
6.30444e-11
1.56196e-11
1.85643e-11
-8.67183e-13
4.39469e-11
9.31685e-12
3.59657e-11
1.49654e-12
3.84691e-11
-5.12743e-12
4.20457e-11
-1.15493e-11
5.3769e-11
-4.34292e-11
4.36363e-11
-1.42894e-10
1.44893e-10
6.33456e-11
-1.99887e-09
9.55843e-10
1.51342e-09
-1.89207e-09
-1.01262e-09
1.01461e-10
-2.56549e-10
-4.10414e-10
-2.47134e-10
-1.13391e-10
-1.81584e-11
-1.59511e-11
1.49919e-11
5.28745e-12
3.46791e-11
2.1496e-11
4.61682e-11
3.44325e-11
5.84984e-11
3.51602e-11
6.02963e-11
4.11415e-11
7.1588e-11
4.59172e-11
7.15216e-11
5.14007e-11
7.58596e-11
5.63261e-11
7.92106e-11
5.36399e-11
7.66285e-11
5.22093e-11
7.77587e-11
5.23742e-11
7.79962e-11
4.31298e-11
6.8253e-11
3.7267e-11
6.63276e-11
3.36699e-11
6.49745e-11
3.02399e-11
7.04681e-11
1.1153e-11
7.77293e-12
-4.7928e-12
4.55444e-11
8.67527e-12
3.75344e-11
-8.15587e-13
4.11595e-11
-8.65702e-12
4.6477e-11
-1.72245e-11
6.15467e-11
-5.17106e-11
5.55219e-11
-1.56785e-10
1.63026e-10
9.14734e-11
-2.12414e-09
1.1773e-09
1.68263e-09
-2.22526e-09
-1.18583e-09
2.33507e-10
-1.56439e-10
-3.96456e-10
-2.54474e-10
-1.1367e-10
-1.58726e-11
-1.55207e-11
1.29032e-11
2.95107e-12
3.20036e-11
1.95332e-11
4.38437e-11
3.28419e-11
5.68794e-11
3.4076e-11
5.87729e-11
3.99781e-11
7.03876e-11
4.52564e-11
7.02902e-11
5.07824e-11
7.48391e-11
5.60256e-11
7.84373e-11
5.34099e-11
7.58618e-11
5.18715e-11
7.72137e-11
5.22317e-11
7.7783e-11
4.30313e-11
6.79351e-11
3.68215e-11
6.63507e-11
3.31596e-11
6.60187e-11
3.04432e-11
8.12166e-11
3.29118e-12
-7.03512e-12
-8.80762e-12
4.72307e-11
8.03603e-12
3.91384e-11
-3.11334e-12
4.37025e-11
-1.206e-11
5.06069e-11
-2.24491e-11
6.84935e-11
-5.86017e-11
6.54445e-11
-1.66598e-10
1.75254e-10
1.2222e-10
-2.23765e-09
1.37478e-09
1.85085e-09
-2.52269e-09
-1.369e-09
3.50427e-10
-5.16863e-11
-3.77889e-10
-2.62296e-10
-1.15146e-10
-1.40094e-11
-1.50818e-11
1.07415e-11
5.09207e-13
2.91404e-11
1.74465e-11
4.13774e-11
3.1145e-11
5.5092e-11
3.29306e-11
5.71516e-11
3.8767e-11
6.90425e-11
4.45529e-11
6.8975e-11
5.01205e-11
7.37283e-11
5.56922e-11
7.75738e-11
5.31706e-11
7.50311e-11
5.15279e-11
7.65959e-11
5.20932e-11
7.74778e-11
4.29619e-11
6.75602e-11
3.64069e-11
6.62829e-11
3.26777e-11
6.69574e-11
3.02796e-11
9.94363e-11
-1.22439e-12
-2.68594e-11
-1.31769e-11
4.84558e-11
7.3457e-12
4.0583e-11
-5.2781e-12
4.59474e-11
-1.51234e-11
5.41714e-11
-2.68942e-11
7.42048e-11
-6.361e-11
7.28606e-11
-1.71802e-10
1.81446e-10
1.5425e-10
-2.33154e-09
1.53856e-09
2.00647e-09
-2.77199e-09
-1.55245e-09
4.47154e-10
5.38788e-11
-3.54397e-10
-2.69994e-10
-1.17969e-10
-1.27961e-11
-1.46917e-11
8.53109e-12
-2.018e-12
2.61019e-11
1.52406e-11
3.87793e-11
2.93503e-11
5.31448e-11
3.17262e-11
5.544e-11
3.7516e-11
6.75602e-11
4.38063e-11
6.7582e-11
4.94198e-11
7.25321e-11
5.53268e-11
7.66237e-11
5.2925e-11
7.41383e-11
5.11851e-11
7.59039e-11
5.19644e-11
7.70741e-11
4.29338e-11
6.71089e-11
3.60663e-11
6.60506e-11
3.24034e-11
6.74093e-11
3.00398e-11
1.11692e-10
-2.00931e-14
-4.05955e-11
-1.64229e-11
4.91092e-11
6.69723e-12
4.18506e-11
-7.16397e-12
4.77573e-11
-1.76611e-11
5.69444e-11
-3.02933e-11
7.83573e-11
-6.64009e-11
7.74763e-11
-1.72273e-10
1.8206e-10
1.85945e-10
-2.39981e-09
1.66226e-09
2.13907e-09
-2.96423e-09
-1.72675e-09
5.19814e-10
1.56128e-10
-3.2597e-10
-2.76909e-10
-1.22209e-10
-1.24621e-11
-1.44212e-11
6.29574e-12
-4.60752e-12
2.29022e-11
1.29213e-11
3.60606e-11
2.74674e-11
5.10473e-11
3.0465e-11
5.36457e-11
3.62325e-11
6.59485e-11
4.30173e-11
6.61172e-11
4.86857e-11
7.12565e-11
5.49309e-11
7.55905e-11
5.26768e-11
7.31857e-11
5.08504e-11
7.51371e-11
5.1852e-11
7.65631e-11
4.29635e-11
6.6554e-11
3.58598e-11
6.55445e-11
3.25725e-11
6.68011e-11
3.07002e-11
9.8837e-11
1.03523e-12
-2.57957e-11
-1.62876e-11
4.94474e-11
6.25967e-12
4.29248e-11
-8.62321e-12
4.90172e-11
-1.95094e-11
5.87586e-11
-3.23703e-11
8.07389e-11
-6.68087e-11
7.92215e-11
-1.68167e-10
1.77946e-10
2.15739e-10
-2.43849e-09
1.74209e-09
2.2406e-09
-3.09359e-09
-1.88302e-09
5.66147e-10
2.51194e-10
-2.9289e-10
-2.82375e-10
-1.27846e-10
-1.32155e-11
-1.43497e-11
4.05702e-12
-7.23362e-12
1.95574e-11
1.0495e-11
3.32316e-11
2.55054e-11
4.88109e-11
2.91502e-11
5.17758e-11
3.49233e-11
6.42165e-11
4.21877e-11
6.45856e-11
4.79231e-11
6.99075e-11
5.45065e-11
7.44784e-11
5.24297e-11
7.21763e-11
5.05292e-11
7.42974e-11
5.17595e-11
7.59458e-11
4.30513e-11
6.59032e-11
3.57693e-11
6.48258e-11
3.3022e-11
6.55232e-11
3.13905e-11
7.99618e-11
6.66247e-12
-3.85114e-12
-1.42581e-11
4.91256e-11
5.96593e-12
4.36563e-11
-9.58816e-12
4.96118e-11
-2.05528e-11
5.94889e-11
-3.30184e-11
8.12526e-11
-6.47982e-11
7.81556e-11
-1.59875e-10
1.69792e-10
2.42829e-10
-2.44248e-09
1.77604e-09
2.29945e-09
-3.15693e-09
-2.01412e-09
5.85325e-10
3.35597e-10
-2.55773e-10
-2.85812e-10
-1.34782e-10
-1.52402e-11
-1.45719e-11
1.82532e-12
-9.87347e-12
1.60818e-11
7.9665e-12
3.03005e-11
2.34719e-11
4.64474e-11
2.77845e-11
4.98364e-11
3.35941e-11
6.23731e-11
4.13192e-11
6.29916e-11
4.71358e-11
6.84909e-11
5.40558e-11
7.32916e-11
5.21869e-11
7.11133e-11
5.02265e-11
7.33875e-11
5.16901e-11
7.52247e-11
4.31962e-11
6.51658e-11
3.57737e-11
6.39714e-11
3.35628e-11
6.41328e-11
3.15639e-11
6.78496e-11
1.50994e-11
1.209e-11
-1.18503e-11
4.81659e-11
5.81232e-12
4.39471e-11
-9.99817e-12
4.94737e-11
-2.07159e-11
5.90759e-11
-3.22049e-11
7.99214e-11
-6.04538e-11
7.44731e-11
-1.47797e-10
1.58807e-10
2.64653e-10
-2.41047e-09
1.76389e-09
2.31192e-09
-3.15407e-09
-2.11111e-09
5.77625e-10
4.06367e-10
-2.15568e-10
-2.86788e-10
-1.42851e-10
-1.8679e-11
-1.51906e-11
-4.00696e-13
-1.25072e-11
1.24899e-11
5.34028e-12
2.72736e-11
2.13732e-11
4.39694e-11
2.63711e-11
4.7832e-11
3.22492e-11
6.04277e-11
4.04141e-11
6.13379e-11
4.6327e-11
6.7012e-11
5.35809e-11
7.20359e-11
5.19512e-11
6.9999e-11
4.99457e-11
7.24096e-11
5.1648e-11
7.4402e-11
4.34062e-11
6.43344e-11
3.5888e-11
6.29568e-11
3.42106e-11
6.25357e-11
3.17356e-11
6.01249e-11
1.92837e-11
2.35929e-11
-8.73776e-12
4.70677e-11
5.94267e-12
4.37916e-11
-9.79302e-12
4.85949e-11
-1.99724e-11
5.75317e-11
-2.99795e-11
7.68481e-11
-5.39701e-11
6.8578e-11
-1.32594e-10
1.45722e-10
2.80971e-10
-2.34231e-09
1.7076e-09
2.27563e-09
-3.08847e-09
-2.17141e-09
5.44649e-10
4.61732e-10
-1.73347e-10
-2.85e-10
-1.51802e-10
-2.3601e-11
-1.62955e-11
-2.62579e-12
-1.51146e-11
8.79938e-12
2.62333e-12
2.41592e-11
1.92146e-11
4.13898e-11
2.49143e-11
4.57678e-11
3.08918e-11
5.83893e-11
3.9475e-11
5.96255e-11
4.54991e-11
6.54771e-11
5.30827e-11
7.07164e-11
5.17243e-11
6.88367e-11
4.96888e-11
7.13689e-11
5.16336e-11
7.3485e-11
4.36782e-11
6.34184e-11
3.60977e-11
6.18118e-11
3.49185e-11
6.08473e-11
3.20253e-11
5.46496e-11
2.13318e-11
3.21784e-11
-4.90379e-12
4.59391e-11
6.39316e-12
4.31647e-11
-8.97119e-12
4.69942e-11
-1.83476e-11
5.49202e-11
-2.64405e-11
7.21059e-11
-4.56541e-11
6.10408e-11
-1.15036e-10
1.31351e-10
2.91495e-10
-2.23945e-09
1.61116e-09
2.19016e-09
-2.96672e-09
-2.1935e-09
4.90063e-10
5.01007e-10
-1.30252e-10
-2.80336e-10
-1.61364e-10
-3.00173e-11
-1.79626e-11
-4.85956e-12
-1.76795e-11
5.02831e-12
-1.76671e-13
2.09668e-11
1.69992e-11
3.87207e-11
2.34196e-11
4.36492e-11
2.95229e-11
5.6266e-11
3.8505e-11
5.78627e-11
4.46524e-11
6.38922e-11
5.25609e-11
6.93383e-11
5.15074e-11
6.76314e-11
4.94559e-11
7.02717e-11
5.16436e-11
7.24826e-11
4.40068e-11
6.24349e-11
3.63744e-11
6.05865e-11
3.56145e-11
5.92156e-11
3.23164e-11
5.08091e-11
2.24472e-11
3.83856e-11
-6.91189e-13
4.47417e-11
7.15099e-12
4.20529e-11
-7.56981e-12
4.47208e-11
-1.59051e-11
5.13407e-11
-2.17265e-11
6.62561e-11
-3.59149e-11
5.23433e-11
-9.5789e-11
1.16088e-10
2.96152e-10
-2.10403e-09
1.47967e-09
2.05792e-09
-2.79739e-09
-2.17795e-09
4.18765e-10
5.24369e-10
-8.73782e-11
-2.72868e-10
-1.71309e-10
-3.7918e-11
-2.02671e-11
-7.12423e-12
-2.01974e-11
1.18729e-12
-3.05725e-12
1.77025e-11
1.47242e-11
3.59705e-11
2.18923e-11
4.14819e-11
2.81404e-11
5.40631e-11
3.75063e-11
5.60508e-11
4.37848e-11
6.22621e-11
5.20136e-11
6.7906e-11
5.13006e-11
6.63882e-11
4.92452e-11
6.91253e-11
5.16734e-11
7.14029e-11
4.43882e-11
6.13975e-11
3.66992e-11
5.93099e-11
3.62737e-11
5.76724e-11
3.25616e-11
4.81001e-11
2.31819e-11
4.26038e-11
3.62987e-12
4.34652e-11
8.2205e-12
4.04895e-11
-5.64279e-12
4.18605e-11
-1.2741e-11
4.70002e-11
-1.60583e-11
5.95101e-11
-2.51723e-11
4.29831e-11
-7.52915e-11
9.99594e-11
2.95212e-10
-1.93921e-09
1.31904e-09
1.88375e-09
-2.58873e-09
-2.12752e-09
3.34148e-10
5.32713e-10
-4.56302e-11
-2.6275e-10
-1.81427e-10
-4.7284e-11
-2.32823e-11
-9.44809e-12
-2.26641e-11
-2.71861e-12
-6.01705e-12
1.4367e-11
1.23845e-11
3.31419e-11
2.03407e-11
3.92695e-11
2.67434e-11
5.17829e-11
3.64833e-11
5.41909e-11
4.28953e-11
6.05879e-11
5.14404e-11
6.64212e-11
5.11056e-11
6.51091e-11
4.90553e-11
6.79335e-11
5.17185e-11
7.02522e-11
4.48204e-11
6.03165e-11
3.70609e-11
5.79936e-11
3.68958e-11
5.62068e-11
3.27853e-11
4.61711e-11
2.38154e-11
4.51927e-11
7.92236e-12
4.21185e-11
9.60664e-12
3.85307e-11
-3.26118e-12
3.85237e-11
-8.98463e-12
4.21107e-11
-9.70338e-12
5.21764e-11
-1.37865e-11
3.33683e-11
-5.37441e-11
8.26155e-11
2.89078e-10
-1.7485e-09
1.13478e-09
5.85113e-10
3.11915e-10
-3.60539e-10
-7.36327e-10
-6.28937e-10
-4.27166e-10
-2.27455e-10
-1.25641e-10
-3.27228e-11
-1.41011e-11
2.90675e-11
2.05633e-11
4.98643e-11
3.34366e-11
5.96956e-11
4.29847e-11
6.54927e-11
4.25109e-11
6.88823e-11
4.87725e-11
7.61078e-11
5.07865e-11
7.83136e-11
5.47397e-11
8.11005e-11
5.76712e-11
8.24097e-11
5.53718e-11
8.05915e-11
5.42684e-11
7.99144e-11
5.32211e-11
7.69113e-11
4.4505e-11
6.94835e-11
3.97982e-11
6.49281e-11
3.5743e-11
5.92849e-11
2.89793e-11
5.16222e-11
2.54925e-11
4.61231e-11
1.83794e-11
3.69136e-11
1.06936e-11
2.77317e-11
1.03792e-11
2.2414e-11
1.0968e-11
1.66972e-11
1.78697e-11
3.858e-12
1.11895e-11
-4.02574e-11
-4.76993e-12
-8.70465e-11
-1.74252e-10
-1.08774e-09
-2.44542e-10
6.18798e-10
3.29075e-10
-3.69197e-10
-7.4319e-10
-6.31709e-10
-4.27381e-10
-2.27559e-10
-1.2568e-10
-3.30308e-11
-1.43377e-11
2.86775e-11
2.03798e-11
4.95217e-11
3.33262e-11
5.94085e-11
4.2947e-11
6.52588e-11
4.24477e-11
6.86817e-11
4.87645e-11
7.59396e-11
5.07929e-11
7.81265e-11
5.48222e-11
8.09143e-11
5.77726e-11
8.22433e-11
5.54605e-11
8.04336e-11
5.43852e-11
7.97766e-11
5.3349e-11
7.67817e-11
4.46033e-11
6.93409e-11
3.99469e-11
6.47903e-11
3.59074e-11
5.91479e-11
2.91329e-11
5.1455e-11
2.55875e-11
4.59441e-11
1.8579e-11
3.68099e-11
1.09049e-11
2.76428e-11
1.06407e-11
2.2389e-11
1.12144e-11
1.67692e-11
1.81454e-11
4.12282e-12
1.13352e-11
-3.98029e-11
-4.63008e-12
-8.23148e-11
-1.65736e-10
-1.11034e-09
-2.65418e-10
6.60325e-10
3.41804e-10
-3.79587e-10
-7.49567e-10
-6.3481e-10
-4.27796e-10
-2.2749e-10
-1.25776e-10
-3.31566e-11
-1.4741e-11
2.83251e-11
1.99758e-11
4.92274e-11
3.30048e-11
5.91565e-11
4.27345e-11
6.51436e-11
4.21907e-11
6.85705e-11
4.8559e-11
7.59229e-11
5.06103e-11
7.80579e-11
5.47504e-11
8.08484e-11
5.77258e-11
8.22256e-11
5.53893e-11
8.04166e-11
5.43455e-11
7.97862e-11
5.33157e-11
7.68473e-11
4.45231e-11
6.93579e-11
3.99297e-11
6.48248e-11
3.59125e-11
5.91971e-11
2.91393e-11
5.14364e-11
2.54688e-11
4.5882e-11
1.86113e-11
3.69226e-11
1.10187e-11
2.7721e-11
1.08142e-11
2.2567e-11
1.13676e-11
1.70005e-11
1.83262e-11
4.58614e-12
1.14873e-11
-3.91884e-11
-5.51433e-12
-7.73617e-11
-1.47536e-10
-1.14444e-09
-2.87073e-10
7.05527e-10
3.42942e-10
-3.89848e-10
-7.52911e-10
-6.38413e-10
-4.2842e-10
-2.27248e-10
-1.25674e-10
-3.30874e-11
-1.51539e-11
2.79074e-11
1.94552e-11
4.88612e-11
3.25938e-11
5.88211e-11
4.24632e-11
6.50353e-11
4.18578e-11
6.84198e-11
4.8275e-11
7.59375e-11
5.0367e-11
7.79761e-11
5.46453e-11
8.07804e-11
5.76594e-11
8.2232e-11
5.52857e-11
8.04075e-11
5.42715e-11
7.98187e-11
5.32539e-11
7.69855e-11
4.43949e-11
6.93991e-11
3.98673e-11
6.49119e-11
3.58816e-11
5.93235e-11
2.91162e-11
5.14695e-11
2.52402e-11
4.58116e-11
1.85461e-11
3.71773e-11
1.11024e-11
2.79126e-11
1.09126e-11
2.29471e-11
1.13812e-11
1.74806e-11
1.8266e-11
5.56822e-12
1.11435e-11
-3.78709e-11
-8.30688e-12
-6.93703e-11
-1.23564e-10
-1.18703e-09
-3.0259e-10
7.47732e-10
3.20194e-10
-3.98274e-10
-7.47268e-10
-6.40852e-10
-4.2921e-10
-2.26872e-10
-1.2529e-10
-3.28134e-11
-1.55607e-11
2.73394e-11
1.87861e-11
4.83394e-11
3.2067e-11
5.83319e-11
4.21267e-11
6.48744e-11
4.14594e-11
6.81684e-11
4.79272e-11
7.5928e-11
5.00892e-11
7.78239e-11
5.45263e-11
8.06632e-11
5.75983e-11
8.22161e-11
5.51798e-11
8.03561e-11
5.41901e-11
7.98294e-11
5.31984e-11
7.71523e-11
4.42595e-11
6.94143e-11
3.97911e-11
6.50096e-11
3.58493e-11
5.94924e-11
2.91025e-11
5.15316e-11
2.49389e-11
4.56631e-11
1.83837e-11
3.75522e-11
1.11696e-11
2.82026e-11
1.09046e-11
2.3543e-11
1.11836e-11
1.82727e-11
1.7816e-11
7.22068e-12
1.00068e-11
-3.54218e-11
-1.36e-11
-5.73981e-11
-9.7871e-11
-1.23577e-09
-3.00399e-10
7.85219e-10
2.59587e-10
-4.06054e-10
-7.27017e-10
-6.39765e-10
-4.30068e-10
-2.26429e-10
-1.24564e-10
-3.22869e-11
-1.59458e-11
2.6593e-11
1.79351e-11
4.76227e-11
3.13963e-11
5.76586e-11
4.16897e-11
6.4632e-11
4.09839e-11
6.77929e-11
4.74992e-11
7.58682e-11
4.97738e-11
7.75805e-11
5.43804e-11
8.04826e-11
5.7534e-11
8.21629e-11
5.50689e-11
8.02479e-11
5.40952e-11
7.98071e-11
5.31469e-11
7.73337e-11
4.41249e-11
6.93917e-11
3.96974e-11
6.51095e-11
3.58148e-11
5.97004e-11
2.91051e-11
5.16365e-11
2.45586e-11
4.53977e-11
1.80955e-11
3.80516e-11
1.1207e-11
2.86048e-11
1.07339e-11
2.43843e-11
1.06923e-11
1.94529e-11
1.68196e-11
9.70697e-12
7.77241e-12
-3.14025e-11
-2.19097e-11
-4.083e-11
-7.34668e-11
-1.29102e-09
-2.68006e-10
8.21608e-10
1.50005e-10
-4.17409e-10
-6.87823e-10
-6.3244e-10
-4.30845e-10
-2.26044e-10
-1.23452e-10
-3.14524e-11
-1.62768e-11
2.56677e-11
1.68924e-11
4.66931e-11
3.05707e-11
5.67878e-11
4.11316e-11
6.4285e-11
4.04275e-11
6.72809e-11
4.69775e-11
7.57346e-11
4.94173e-11
7.72319e-11
5.41947e-11
8.02278e-11
5.74566e-11
8.20591e-11
5.49491e-11
8.00734e-11
5.39798e-11
7.9744e-11
5.30946e-11
7.75151e-11
4.39962e-11
6.93249e-11
3.95805e-11
6.5205e-11
3.57748e-11
5.99452e-11
2.9127e-11
5.18082e-11
2.40831e-11
4.49793e-11
1.76561e-11
3.86828e-11
1.11942e-11
2.91429e-11
1.03416e-11
2.55064e-11
9.82396e-12
2.1107e-11
1.51209e-11
1.31913e-11
4.17644e-12
-2.5434e-11
-3.35184e-11
-1.94455e-11
-5.18086e-11
-1.3555e-09
-1.96464e-10
8.63374e-10
-1.4885e-11
-4.38062e-10
-6.26931e-10
-6.16893e-10
-4.31419e-10
-2.25934e-10
-1.2195e-10
-3.02703e-11
-1.65216e-11
2.45706e-11
1.56614e-11
4.55426e-11
2.95899e-11
5.57152e-11
4.04423e-11
6.38125e-11
3.97923e-11
6.66257e-11
4.63572e-11
7.55039e-11
4.90202e-11
7.67669e-11
5.39613e-11
7.98874e-11
5.73612e-11
8.18895e-11
5.48192e-11
7.9823e-11
5.38407e-11
7.96307e-11
5.30403e-11
7.76786e-11
4.38793e-11
6.92087e-11
3.94378e-11
6.52873e-11
3.57282e-11
6.02228e-11
2.917e-11
5.20768e-11
2.3488e-11
4.43709e-11
1.70501e-11
3.94529e-11
1.11071e-11
2.98434e-11
9.67358e-12
2.69418e-11
8.50413e-12
2.33132e-11
1.25933e-11
1.77908e-11
-9.30575e-13
-1.73174e-11
-4.83472e-11
6.2455e-12
-3.29155e-11
-1.43213e-09
-8.20484e-11
9.18601e-10
-2.36318e-10
-4.74621e-10
-5.43515e-10
-5.89842e-10
-4.31627e-10
-2.26395e-10
-1.20112e-10
-2.87256e-11
-1.66573e-11
2.33087e-11
1.42499e-11
4.41686e-11
2.8459e-11
5.44431e-11
3.96181e-11
6.3198e-11
3.90833e-11
6.58264e-11
4.56394e-11
7.51566e-11
4.85843e-11
7.61795e-11
5.3676e-11
7.94524e-11
5.72447e-11
8.16414e-11
5.46788e-11
7.94904e-11
5.36765e-11
7.94591e-11
5.29836e-11
7.78072e-11
4.3778e-11
6.90404e-11
3.92681e-11
6.53485e-11
3.56736e-11
6.05297e-11
2.9234e-11
5.24789e-11
2.27459e-11
4.35364e-11
1.6268e-11
4.03684e-11
1.09202e-11
3.07301e-11
8.68953e-12
2.87113e-11
6.68434e-12
2.61192e-11
9.17459e-12
2.3529e-11
-7.54255e-12
-7.10835e-12
-6.58822e-11
3.51791e-11
-1.58174e-11
-1.52335e-09
7.43164e-11
9.93425e-10
-5.10345e-10
-5.32574e-10
-4.3882e-10
-5.49954e-10
-4.31127e-10
-2.27732e-10
-1.18052e-10
-2.68294e-11
-1.66716e-11
2.18884e-11
1.26659e-11
4.25712e-11
2.7184e-11
5.29777e-11
3.86595e-11
6.24286e-11
3.83059e-11
6.48871e-11
4.48288e-11
7.46778e-11
4.81117e-11
7.5469e-11
5.33367e-11
7.89173e-11
5.7105e-11
8.13056e-11
5.45275e-11
7.90733e-11
5.34869e-11
7.92238e-11
5.29238e-11
7.78864e-11
4.36939e-11
6.88212e-11
3.90709e-11
6.53816e-11
3.56094e-11
6.08613e-11
2.93181e-11
5.30557e-11
2.18305e-11
4.24551e-11
1.53095e-11
4.14295e-11
1.06119e-11
3.18163e-11
7.3723e-12
3.0812e-11
4.35498e-12
2.95132e-11
4.89048e-12
3.03104e-11
-1.54681e-11
4.8635e-12
-8.5214e-11
6.56463e-11
1.0017e-12
-1.6291e-09
2.66947e-10
1.09144e-09
-8.2743e-10
-6.15637e-10
-3.16417e-10
-4.96334e-10
-4.29366e-10
-2.3021e-10
-1.15948e-10
-2.46239e-11
-1.65624e-11
2.03155e-11
1.09165e-11
4.07516e-11
2.57694e-11
5.13259e-11
3.75687e-11
6.1495e-11
3.7464e-11
6.38138e-11
4.3932e-11
7.40572e-11
4.76036e-11
7.46383e-11
5.29425e-11
7.82794e-11
5.69398e-11
8.08767e-11
5.43647e-11
7.85728e-11
5.32719e-11
7.89213e-11
5.28601e-11
7.79059e-11
4.36266e-11
6.85539e-11
3.88466e-11
6.53807e-11
3.55338e-11
6.12102e-11
2.94195e-11
5.38428e-11
2.07163e-11
4.11179e-11
1.41874e-11
4.26258e-11
1.01706e-11
3.30972e-11
5.73328e-12
3.32133e-11
1.55345e-12
3.34238e-11
-1.31794e-13
3.79105e-11
-2.43353e-11
1.80185e-11
-1.05156e-10
9.57153e-11
1.91839e-11
-1.74699e-09
4.8606e-10
1.21285e-09
-1.1734e-09
-7.247e-10
-1.81469e-10
-4.28989e-10
-4.2572e-10
-2.34024e-10
-1.14044e-10
-2.21901e-11
-1.63382e-11
1.85959e-11
9.00752e-12
3.87113e-11
2.42174e-11
4.94946e-11
3.63484e-11
6.03905e-11
3.65598e-11
6.26134e-11
4.29565e-11
7.32879e-11
4.70593e-11
7.36929e-11
5.24933e-11
7.75384e-11
5.67472e-11
8.03523e-11
5.41893e-11
7.79921e-11
5.30325e-11
7.85498e-11
5.27919e-11
7.78583e-11
4.35749e-11
6.82426e-11
3.85974e-11
6.53399e-11
3.54458e-11
6.15659e-11
2.953e-11
5.48663e-11
1.94118e-11
3.95279e-11
1.29268e-11
4.39308e-11
9.5992e-12
3.4546e-11
3.81273e-12
3.58425e-11
-1.63131e-12
3.77167e-11
-5.67672e-12
4.59938e-11
-3.36238e-11
3.15964e-11
-1.24356e-10
1.23298e-10
4.01461e-11
-1.87261e-09
7.21751e-10
1.35588e-09
-1.53175e-09
-8.58469e-10
-4.01366e-11
-3.48536e-10
-4.19391e-10
-2.39201e-10
-1.12598e-10
-1.96392e-11
-1.60121e-11
1.67409e-11
6.94808e-12
3.6455e-11
2.25311e-11
4.74921e-11
3.5003e-11
5.91122e-11
3.55945e-11
6.12935e-11
4.19103e-11
7.23673e-11
4.64776e-11
7.26396e-11
5.19901e-11
7.66956e-11
5.65249e-11
7.97328e-11
5.40004e-11
7.73351e-11
5.27703e-11
7.81086e-11
5.27185e-11
7.77387e-11
4.3537e-11
6.78907e-11
3.83276e-11
6.52526e-11
3.53467e-11
6.19119e-11
2.96381e-11
5.61256e-11
1.79528e-11
3.77182e-11
1.157e-11
4.53027e-11
8.91947e-12
3.61159e-11
1.6795e-12
3.85854e-11
-5.06382e-12
4.22015e-11
-1.14556e-11
5.41451e-11
-4.27267e-11
4.47475e-11
-1.41477e-10
1.46742e-10
6.47864e-11
-2.0014e-09
9.55124e-10
1.51559e-09
-1.8921e-09
-1.01405e-09
1.00444e-10
-2.56759e-10
-4.09595e-10
-2.45605e-10
-1.11874e-10
-1.71176e-11
-1.56041e-11
1.4768e-11
4.75081e-12
3.39904e-11
2.07141e-11
4.53286e-11
3.35384e-11
5.76598e-11
3.45689e-11
5.98622e-11
4.08019e-11
7.12953e-11
4.58564e-11
7.14868e-11
5.14352e-11
7.57543e-11
5.62711e-11
7.90198e-11
5.37975e-11
7.66067e-11
5.24885e-11
7.75982e-11
5.26396e-11
7.75428e-11
4.3512e-11
6.75005e-11
3.80448e-11
6.51115e-11
3.52409e-11
6.22237e-11
2.97306e-11
5.7573e-11
1.64313e-11
3.57843e-11
1.01732e-11
4.6679e-11
8.17059e-12
3.77468e-11
-5.69562e-13
4.13158e-11
-8.57431e-12
4.66448e-11
-1.71317e-11
6.19133e-11
-5.10209e-11
5.66496e-11
-1.55372e-10
1.64873e-10
9.29665e-11
-2.12664e-09
1.17674e-09
1.68484e-09
-2.22531e-09
-1.18717e-09
2.32463e-10
-1.5677e-10
-3.95707e-10
-2.52959e-10
-1.12138e-10
-1.48117e-11
-1.51467e-11
1.26977e-11
2.43061e-12
3.13271e-11
1.87703e-11
4.30145e-11
3.19616e-11
5.60366e-11
3.34838e-11
5.83275e-11
3.96398e-11
7.00755e-11
4.51942e-11
7.02425e-11
5.08315e-11
7.47187e-11
5.5984e-11
7.82161e-11
5.3581e-11
7.58117e-11
5.21906e-11
7.70195e-11
5.25554e-11
7.72681e-11
4.34999e-11
6.70727e-11
3.77581e-11
6.49089e-11
3.51344e-11
6.24709e-11
2.97894e-11
5.90735e-11
1.50188e-11
3.39151e-11
8.80378e-12
4.79787e-11
7.39858e-12
3.93716e-11
-2.81471e-12
4.38941e-11
-1.1962e-11
5.07839e-11
-2.23579e-11
6.88506e-11
-5.79263e-11
6.65844e-11
-1.65183e-10
1.77101e-10
1.23764e-10