/*--------------------------------*- C++ -*----------------------------------*\
| =========                 |                                                 |
| \\      /  F ield         | OpenFOAM: The Open Source CFD Toolbox           |
|  \\    /   O peration     | Version:  2312                                  |
|   \\  /    A nd           | Website:  www.openfoam.com                      |
|    \\/     M anipulation  |                                                 |
\*---------------------------------------------------------------------------*/
FoamFile
{
    version     2.0;
    format      ascii;
    arch        "LSB;label=32;scalar=64";
    class       volScalarField;
    location    "280";
    object      pMean;
}
// * * * * * * * * * * * * * * * * * * * * * * * * * * * * * * * * * * * * * //

dimensions      [0 2 -2 0 0 0 0];

internalField   nonuniform List<scalar> 
144000
(
1.46329e-09
6.1546e-10
-8.21192e-10
-1.34269e-09
-1.07171e-09
-6.88795e-10
-3.59733e-10
-1.79817e-10
-3.11723e-11
1.23983e-11
7.54552e-11
6.96039e-11
1.08865e-10
8.6719e-11
1.19978e-10
9.26394e-11
1.20609e-10
8.309e-11
1.12628e-10
7.77713e-11
1.09346e-10
6.89294e-11
1.02137e-10
6.21564e-11
9.86191e-11
5.73443e-11
9.49856e-11
4.91287e-11
8.91409e-11
4.33902e-11
8.72594e-11
4.06759e-11
8.46989e-11
3.11171e-11
7.73849e-11
2.50402e-11
7.46662e-11
2.07089e-11
7.11121e-11
1.29874e-11
6.43891e-11
8.28794e-12
6.28387e-11
1.64429e-12
5.48679e-11
-7.75175e-12
4.57444e-11
-8.9629e-12
4.28677e-11
-4.34191e-12
4.18428e-11
1.46049e-11
4.08245e-11
4.00013e-11
1.7544e-11
8.62396e-11
5.16803e-11
2.86192e-10
-1.83685e-09
-4.51561e-10
1.51581e-09
6.49552e-10
-8.3495e-10
-1.35313e-09
-1.0744e-09
-6.8872e-10
-3.60007e-10
-1.80309e-10
-3.19693e-11
1.16572e-11
7.46715e-11
6.90483e-11
1.08274e-10
8.63314e-11
1.19525e-10
9.24138e-11
1.2025e-10
8.28849e-11
1.123e-10
7.76812e-11
1.09081e-10
6.8855e-11
1.01882e-10
6.21531e-11
9.83962e-11
5.73807e-11
9.47745e-11
4.91719e-11
8.89241e-11
4.34735e-11
8.70588e-11
4.08031e-11
8.44961e-11
3.12289e-11
7.71553e-11
2.5213e-11
7.44479e-11
2.0912e-11
7.08822e-11
1.3188e-11
6.40447e-11
8.43392e-12
6.24754e-11
1.96171e-12
5.45865e-11
-7.37363e-12
4.54178e-11
-8.46241e-12
4.25509e-11
-3.78592e-12
4.15166e-11
1.52695e-11
4.05399e-11
4.05909e-11
1.71312e-11
8.55032e-11
5.67411e-11
3.09152e-10
-1.86755e-09
-5.00739e-10
1.58937e-09
6.51689e-10
-8.58985e-10
-1.35328e-09
-1.07281e-09
-6.87022e-10
-3.59242e-10
-1.80447e-10
-3.2438e-11
1.06365e-11
7.37807e-11
6.80708e-11
1.0763e-10
8.55352e-11
1.19044e-10
9.18452e-11
1.19996e-10
8.23509e-11
1.12034e-10
7.72755e-11
1.08975e-10
6.84816e-11
1.01777e-10
6.18545e-11
9.83752e-11
5.71293e-11
9.47948e-11
4.89148e-11
8.89283e-11
4.32548e-11
8.71067e-11
4.0641e-11
8.4601e-11
3.10235e-11
7.71954e-11
2.50661e-11
7.4546e-11
2.0794e-11
7.09947e-11
1.3073e-11
6.39867e-11
8.15089e-12
6.23879e-11
1.87617e-12
5.47187e-11
-7.31732e-12
4.54641e-11
-8.29547e-12
4.26673e-11
-3.58589e-12
4.1596e-11
1.55148e-11
4.07904e-11
4.06216e-11
1.77006e-11
8.14121e-11
6.14271e-11
3.44875e-10
-1.9241e-09
-5.29684e-10
1.66462e-09
5.87865e-10
-8.85807e-10
-1.33257e-09
-1.06545e-09
-6.83769e-10
-3.57156e-10
-1.79504e-10
-3.22385e-11
9.76089e-12
7.27396e-11
6.68346e-11
1.06763e-10
8.4518e-11
1.18346e-10
9.11071e-11
1.1964e-10
8.1659e-11
1.1159e-10
7.67383e-11
1.08797e-10
6.80046e-11
1.01564e-10
6.14695e-11
9.8286e-11
5.68286e-11
9.4792e-11
4.86048e-11
8.88733e-11
4.29876e-11
8.71155e-11
4.046e-11
8.47272e-11
3.07943e-11
7.71858e-11
2.48909e-11
7.46359e-11
2.06761e-11
7.11261e-11
1.29906e-11
6.38708e-11
7.80617e-12
6.21831e-11
1.65862e-12
5.49021e-11
-7.24483e-12
4.55151e-11
-8.1635e-12
4.291e-11
-3.51964e-12
4.18988e-11
1.53619e-11
4.18562e-11
3.93819e-11
2.04758e-11
7.12749e-11
7.45435e-11
3.7398e-10
-1.99769e-09
-5.02793e-10
1.72864e-09
4.29639e-10
-9.11229e-10
-1.27515e-09
-1.04922e-09
-6.79967e-10
-3.54434e-10
-1.77432e-10
-3.12673e-11
9.12679e-12
7.1532e-11
6.53875e-11
1.05628e-10
8.32928e-11
1.17372e-10
9.02169e-11
1.19118e-10
8.08375e-11
1.10905e-10
7.60846e-11
1.0848e-10
6.74624e-11
1.01165e-10
6.10286e-11
9.80607e-11
5.65148e-11
9.46879e-11
4.82933e-11
8.86751e-11
4.2715e-11
8.70028e-11
4.03231e-11
8.47919e-11
3.06115e-11
7.70328e-11
2.47512e-11
7.46295e-11
2.06291e-11
7.11891e-11
1.30504e-11
6.36021e-11
7.57051e-12
6.16955e-11
1.33236e-12
5.49962e-11
-7.02796e-12
4.54549e-11
-8.02807e-12
4.31846e-11
-3.60118e-12
4.24552e-11
1.463e-11
4.39816e-11
3.6321e-11
2.63554e-11
5.43488e-11
9.88724e-11
3.87655e-10
-2.08399e-09
-3.94644e-10
1.7853e-09
1.64944e-10
-9.39105e-10
-1.17468e-09
-1.02086e-09
-6.7684e-10
-3.52017e-10
-1.74571e-10
-2.97032e-11
8.66074e-12
7.00961e-11
6.36965e-11
1.04202e-10
8.18528e-11
1.1612e-10
8.91679e-11
1.18423e-10
7.99158e-11
1.09988e-10
7.53242e-11
1.08014e-10
6.68734e-11
1.00586e-10
6.05359e-11
9.76941e-11
5.61987e-11
9.44721e-11
4.79956e-11
8.83227e-11
4.24491e-11
8.67594e-11
4.02364e-11
8.47683e-11
3.04944e-11
7.67199e-11
2.46509e-11
7.45023e-11
2.06708e-11
7.11582e-11
1.33043e-11
6.31621e-11
7.48736e-12
6.08324e-11
8.42243e-13
5.49336e-11
-6.64962e-12
4.52814e-11
-7.91042e-12
4.35104e-11
-3.91228e-12
4.33643e-11
1.30772e-11
4.74781e-11
3.09545e-11
3.61236e-11
3.0378e-11
1.34831e-10
3.84426e-10
-2.18714e-09
-1.96123e-10
1.84559e-09
-2.03175e-10
-9.78555e-10
-1.03052e-09
-9.77227e-10
-6.74784e-10
-3.50798e-10
-1.71289e-10
-2.77106e-11
8.22446e-12
6.83271e-11
6.1683e-11
1.0243e-10
8.01784e-11
1.14577e-10
8.79467e-11
1.17544e-10
7.8911e-11
1.08856e-10
7.44694e-11
1.07403e-10
6.62653e-11
9.98373e-11
6.00086e-11
9.71925e-11
5.58994e-11
9.41388e-11
4.77353e-11
8.78219e-11
4.22082e-11
8.63823e-11
4.02132e-11
8.46454e-11
3.04665e-11
7.62504e-11
2.46053e-11
7.42472e-11
2.08165e-11
7.10307e-11
1.37766e-11
6.26158e-11
7.59307e-12
5.94671e-11
1.17079e-13
5.47194e-11
-6.10336e-12
4.50134e-11
-7.87227e-12
4.39185e-11
-4.5563e-12
4.47459e-11
1.05358e-11
5.25187e-11
2.30487e-11
4.98338e-11
5.17459e-13
1.79812e-10
3.67644e-10
-2.30873e-09
8.68935e-11
1.91824e-09
-6.53849e-10
-1.0372e-09
-8.48535e-10
-9.16266e-10
-6.73625e-10
-3.5147e-10
-1.67936e-10
-2.5429e-11
7.72116e-12
6.61513e-11
5.92665e-11
1.00235e-10
7.82305e-11
1.12706e-10
8.65254e-11
1.16439e-10
7.78208e-11
1.07514e-10
7.35229e-11
1.06632e-10
6.56507e-11
9.89296e-11
5.94626e-11
9.6557e-11
5.56312e-11
9.36875e-11
4.75328e-11
8.71816e-11
4.20108e-11
8.58743e-11
4.02695e-11
8.44115e-11
3.05452e-11
7.56315e-11
2.46215e-11
7.38678e-11
2.10669e-11
7.0826e-11
1.44753e-11
6.20904e-11
7.86705e-12
5.74245e-11
-9.28937e-13
5.43659e-11
-5.40879e-12
4.46943e-11
-7.96451e-12
4.44502e-11
-5.60248e-12
4.66513e-11
6.95253e-12
5.902e-11
1.29704e-11
6.66712e-11
-3.26154e-11
2.28232e-10
3.43991e-10
-2.44461e-09
4.29766e-10
2.00897e-09
-1.15393e-09
-1.12029e-09
-6.40202e-10
-8.37403e-10
-6.72515e-10
-3.54568e-10
-1.64909e-10
-2.30094e-11
7.09155e-12
6.34909e-11
5.64117e-11
9.75809e-11
7.59744e-11
1.1048e-10
8.48732e-11
1.15063e-10
7.66305e-11
1.05954e-10
7.24801e-11
1.05676e-10
6.50264e-11
9.78601e-11
5.89042e-11
9.57818e-11
5.53966e-11
9.31104e-11
4.73995e-11
8.64064e-11
4.18705e-11
8.5241e-11
4.04121e-11
8.40606e-11
3.07393e-11
7.4883e-11
2.47036e-11
7.33757e-11
2.14053e-11
7.05842e-11
1.53819e-11
6.17991e-11
8.26784e-12
5.44623e-11
-2.35989e-12
5.39188e-11
-4.58913e-12
4.43662e-11
-8.21558e-12
4.51158e-11
-7.03181e-12
4.9044e-11
2.49375e-12
6.6606e-11
1.49891e-12
8.50685e-11
-6.56555e-11
2.73801e-10
3.20802e-10
-2.58672e-09
7.97125e-10
2.11672e-09
-1.66618e-09
-1.22916e-09
-4.20178e-10
-7.41875e-10
-6.7028e-10
-3.60329e-10
-1.62604e-10
-2.0573e-11
6.31787e-12
6.03641e-11
5.31244e-11
9.44596e-11
7.3407e-11
1.07892e-10
8.29894e-11
1.13388e-10
7.53242e-11
1.04177e-10
7.13362e-11
1.04516e-10
6.43836e-11
9.6629e-11
5.83305e-11
9.4859e-11
5.51988e-11
9.23964e-11
4.73272e-11
8.55007e-11
4.17875e-11
8.44849e-11
4.06416e-11
8.35846e-11
3.10484e-11
7.40181e-11
2.48481e-11
7.27838e-11
2.18171e-11
7.03384e-11
1.64694e-11
6.20031e-11
8.69077e-12
5.02849e-11
-4.2259e-12
5.34329e-11
-3.67324e-12
4.40645e-11
-8.61913e-12
4.5892e-11
-8.76589e-12
5.1778e-11
-2.49432e-12
7.46544e-11
-1.01987e-11
1.03102e-10
-9.5132e-11
3.11092e-10
3.03312e-10
-2.7229e-09
1.15575e-09
2.23425e-09
-2.15104e-09
-1.36109e-09
-2.04217e-10
-6.32588e-10
-6.65549e-10
-3.68678e-10
-1.61415e-10
-1.83103e-11
5.4068e-12
5.68052e-11
4.94336e-11
9.08865e-11
7.05433e-11
1.04957e-10
8.08748e-11
1.11408e-10
7.39003e-11
1.02185e-10
7.00933e-11
1.03143e-10
6.37121e-11
9.52362e-11
5.77403e-11
9.37829e-11
5.50263e-11
9.15393e-11
4.73122e-11
8.44727e-11
4.17651e-11
8.36065e-11
4.09518e-11
8.29802e-11
3.14597e-11
7.30553e-11
2.50561e-11
7.20975e-11
2.22715e-11
7.01438e-11
1.77074e-11
6.30203e-11
8.88773e-12
4.45482e-11
-6.54457e-12
5.29565e-11
-2.67358e-12
4.37794e-11
-9.12795e-12
4.6692e-11
-1.06579e-11
5.45928e-11
-7.55661e-12
8.24199e-11
-2.09112e-11
1.18887e-10
-1.18206e-10
3.36444e-10
2.94188e-10
-2.83913e-09
1.47539e-09
2.35038e-09
-2.57827e-09
-1.50897e-09
-6.00002e-12
-5.13713e-10
-6.57e-10
-3.79225e-10
-1.617e-10
-1.64034e-11
4.36536e-12
5.28705e-11
4.53843e-11
8.68889e-11
6.74077e-11
1.01689e-10
7.85465e-11
1.09124e-10
7.23599e-11
9.99883e-11
6.87602e-11
1.01553e-10
6.30034e-11
9.36859e-11
5.71311e-11
9.25506e-11
5.48744e-11
9.05361e-11
4.73455e-11
8.33281e-11
4.17988e-11
8.26078e-11
4.13321e-11
8.22533e-11
3.19616e-11
7.20013e-11
2.53228e-11
7.13261e-11
2.27365e-11
7.00447e-11
1.90345e-11
6.53868e-11
8.62793e-12
3.67586e-11
-9.25568e-12
5.25299e-11
-1.61348e-12
4.34693e-11
-9.65563e-12
4.74325e-11
-1.25158e-11
5.71795e-11
-1.21869e-11
8.91727e-11
-2.95018e-11
1.30914e-10
-1.32966e-10
3.48228e-10
2.93822e-10
-2.92338e-09
1.73321e-09
2.45244e-09
-2.92492e-09
-1.66303e-09
1.63349e-10
-3.90247e-10
-6.43513e-10
-3.91259e-10
-1.63734e-10
-1.5087e-11
3.19578e-12
4.86302e-11
4.10332e-11
8.25082e-11
6.40255e-11
9.81168e-11
7.60187e-11
1.06548e-10
7.07098e-11
9.76062e-11
6.7348e-11
9.97492e-11
6.22535e-11
9.19874e-11
5.65066e-11
9.11677e-11
5.47342e-11
8.93935e-11
4.74175e-11
8.20737e-11
4.18822e-11
8.14917e-11
4.17717e-11
8.14018e-11
3.25423e-11
7.08667e-11
2.56459e-11
7.04693e-11
2.31993e-11
7.00383e-11
2.04402e-11
6.97202e-11
7.60088e-12
2.64013e-11
-1.21893e-11
5.21882e-11
-4.89385e-13
4.30898e-11
-1.01132e-11
4.79426e-11
-1.41073e-11
5.92357e-11
-1.59115e-11
9.42716e-11
-3.51604e-11
1.38224e-10
-1.38602e-10
3.46585e-10
3.0033e-10
-2.96635e-09
1.91614e-09
2.5288e-09
-3.17789e-09
-1.81303e-09
2.96496e-10
-2.67463e-10
-6.2432e-10
-4.03875e-10
-1.67664e-10
-1.45791e-11
1.88677e-12
4.4157e-11
3.6446e-11
7.77885e-11
6.04386e-11
9.42775e-11
7.33229e-11
1.03702e-10
6.89625e-11
9.50599e-11
6.58682e-11
9.77418e-11
6.14618e-11
9.01533e-11
5.58711e-11
8.9641e-11
5.45995e-11
8.81177e-11
4.75194e-11
8.0718e-11
4.2011e-11
8.02661e-11
4.22603e-11
8.04253e-11
3.31917e-11
6.96532e-11
2.60388e-11
6.95055e-11
2.36908e-11
7.00204e-11
2.19814e-11
7.64631e-11
4.80011e-12
1.30522e-11
-1.50702e-11
5.19936e-11
7.49196e-13
4.2618e-11
-1.03891e-11
4.81089e-11
-1.52228e-11
6.05028e-11
-1.83366e-11
9.72718e-11
-3.7428e-11
1.4046e-10
-1.35308e-10
3.33246e-10
3.10619e-10
-2.96287e-09
2.02032e-09
2.56924e-09
-3.33313e-09
-1.94852e-09
3.89884e-10
-1.5044e-10
-5.99144e-10
-4.16106e-10
-1.73513e-10
-1.51012e-11
4.05659e-13
3.95214e-11
3.16858e-11
7.27755e-11
5.66781e-11
9.02027e-11
7.04838e-11
1.00609e-10
6.71279e-11
9.23686e-11
6.43335e-11
9.55477e-11
6.06269e-11
8.81969e-11
5.5227e-11
8.7981e-11
5.44649e-11
8.67168e-11
4.76439e-11
7.9273e-11
4.21811e-11
7.89395e-11
4.27892e-11
7.93286e-11
3.39037e-11
6.83618e-11
2.6513e-11
6.84224e-11
2.42378e-11
6.99076e-11
2.34926e-11
8.70573e-11
-6.77198e-13
-4.49607e-12
-1.79649e-11
5.17889e-11
2.08397e-12
4.20088e-11
-1.03708e-11
4.78249e-11
-1.56976e-11
6.0789e-11
-1.92285e-11
9.79556e-11
-3.61982e-11
1.37807e-10
-1.24071e-10
3.10632e-10
3.21425e-10
-2.91134e-09
2.04842e-09
2.56665e-09
-3.39429e-09
-2.06038e-09
4.43357e-10
-4.36725e-11
-5.68222e-10
-4.26987e-10
-1.81175e-10
-1.68597e-11
-1.30128e-12
3.47834e-11
2.68127e-11
6.75144e-11
5.27695e-11
8.59237e-11
6.75255e-11
9.72981e-11
6.52159e-11
8.95514e-11
6.27558e-11
9.31854e-11
5.97503e-11
8.61323e-11
5.45772e-11
8.62005e-11
5.43253e-11
8.52025e-11
4.77864e-11
7.775e-11
4.23878e-11
7.75225e-11
4.33477e-11
7.81222e-11
3.46653e-11
6.70067e-11
2.7055e-11
6.72456e-11
2.48165e-11
6.97325e-11
2.43826e-11
1.04481e-10
-2.65791e-12
-2.72164e-11
-2.10416e-11
5.09236e-11
3.38057e-12
4.11332e-11
-1.00093e-11
4.69885e-11
-1.54299e-11
5.99849e-11
-1.84917e-11
9.63164e-11
-3.16661e-11
1.3088e-10
-1.06362e-10
2.81723e-10
3.29805e-10
-2.81367e-09
2.00844e-09
2.51628e-09
-3.36934e-09
-2.14105e-09
4.59415e-10
4.92494e-11
-5.32287e-10
-4.35683e-10
-1.90442e-10
-2.0025e-11
-3.30516e-12
2.9992e-11
2.1883e-11
6.20463e-11
4.87366e-11
8.147e-11
6.44719e-11
9.37979e-11
6.3237e-11
8.66275e-11
6.11453e-11
9.06764e-11
5.88332e-11
8.39718e-11
5.39228e-11
8.43123e-11
5.41767e-11
8.3589e-11
4.79417e-11
7.61615e-11
4.26263e-11
7.60248e-11
4.39296e-11
7.68148e-11
3.54768e-11
6.55761e-11
2.7702e-11
6.58956e-11
2.56418e-11
6.89842e-11
2.52727e-11
1.14621e-10
-3.78363e-14
-4.12617e-11
-2.24072e-11
4.94926e-11
4.73473e-12
4.00238e-11
-9.22456e-12
4.55695e-11
-1.43655e-11
5.80718e-11
-1.61607e-11
9.25321e-11
-2.42447e-11
1.20609e-10
-8.38615e-11
2.49392e-10
3.33433e-10
-2.67369e-09
1.91078e-09
2.41766e-09
-3.27012e-09
-2.18607e-09
4.42518e-10
1.25766e-10
-4.92404e-10
-4.415e-10
-2.00996e-10
-2.47073e-11
-5.68278e-12
2.51877e-11
1.69494e-11
5.64132e-11
4.46002e-11
7.68704e-11
6.1342e-11
9.01352e-11
6.12014e-11
8.36155e-11
5.9511e-11
8.80401e-11
5.78779e-11
8.1732e-11
5.32655e-11
8.23339e-11
5.4015e-11
8.18891e-11
4.81047e-11
7.45188e-11
4.2893e-11
7.44561e-11
4.45311e-11
7.54086e-11
3.63458e-11
6.40488e-11
2.851e-11
6.42513e-11
2.69641e-11
6.70123e-11
2.72854e-11
1.00491e-10
1.63625e-12
-2.85724e-11
-1.98258e-11
4.79527e-11
6.34438e-12
3.87716e-11
-7.94014e-12
4.35966e-11
-1.24995e-11
5.5131e-11
-1.23753e-11
8.69345e-11
-1.45248e-11
1.08065e-10
-5.83231e-11
2.16015e-10
3.30742e-10
-2.49765e-09
1.76766e-09
2.2726e-09
-3.11082e-09
-2.19316e-09
3.98482e-10
1.84407e-10
-4.49925e-10
-4.43955e-10
-2.12435e-10
-3.0956e-11
-8.51508e-12
2.03962e-11
1.20578e-11
5.06551e-11
4.03828e-11
7.21498e-11
5.81518e-11
8.63354e-11
5.91173e-11
8.05322e-11
5.78598e-11
8.52966e-11
5.6886e-11
7.9425e-11
5.26053e-11
8.02787e-11
5.38367e-11
8.01163e-11
4.82707e-11
7.28339e-11
4.31823e-11
7.28299e-11
4.51419e-11
7.39216e-11
3.72491e-11
6.24583e-11
2.94226e-11
6.24324e-11
2.85491e-11
6.44168e-11
2.93176e-11
7.92142e-11
7.08294e-12
-7.13954e-12
-1.5194e-11
4.58612e-11
8.00728e-12
3.72589e-11
-6.21181e-12
4.10835e-11
-9.91419e-12
5.1289e-11
-7.38856e-12
7.99615e-11
-3.197e-12
9.43034e-11
-3.14214e-11
1.83647e-10
3.21004e-10
-2.2926e-09
1.59169e-09
2.08578e-09
-2.90599e-09
-2.1625e-09
3.33723e-10
2.24813e-10
-4.06305e-10
-4.42818e-10
-2.24351e-10
-3.87651e-11
-1.18866e-11
1.56239e-11
7.24279e-12
4.48068e-11
3.6097e-11
6.73273e-11
5.49142e-11
8.24235e-11
5.69916e-11
7.73917e-11
5.61963e-11
8.2464e-11
5.58589e-11
7.70621e-11
5.19415e-11
7.81601e-11
5.36391e-11
7.82841e-11
4.84357e-11
7.1118e-11
4.34883e-11
7.11592e-11
4.57535e-11
7.23713e-11
3.81706e-11
6.08349e-11
3.03879e-11
6.0553e-11
3.01434e-11
6.17904e-11
3.06192e-11
6.50419e-11
1.55227e-11
8.66277e-12
-1.05753e-11
4.31078e-11
9.6088e-12
3.54394e-11
-4.10421e-12
3.80908e-11
-6.72303e-12
4.67453e-11
-1.49218e-12
7.20954e-11
9.03142e-12
8.0362e-11
-4.6256e-12
1.53841e-10
3.04334e-10
-2.06646e-09
1.39484e-09
1.8623e-09
-2.66964e-09
-2.09542e-09
2.55043e-10
2.47468e-10
-3.63062e-10
-4.38123e-10
-2.36346e-10
-4.80731e-11
-1.58758e-11
1.08599e-11
2.52933e-12
3.88985e-11
3.1754e-11
6.24194e-11
5.16381e-11
7.8422e-11
5.48308e-11
7.42057e-11
5.45229e-11
7.95598e-11
5.47963e-11
7.46532e-11
5.12719e-11
7.59901e-11
5.34201e-11
7.64053e-11
4.85954e-11
6.93802e-11
4.38055e-11
6.94533e-11
4.63615e-11
7.07691e-11
3.91094e-11
5.91785e-11
3.14092e-11
5.86008e-11
3.17475e-11
5.91094e-11
3.1682e-11
5.57606e-11
2.08133e-11
1.95042e-11
-5.72183e-12
4.03388e-11
1.12975e-11
3.34086e-11
-1.64019e-12
3.47439e-11
-3.05725e-12
4.1722e-11
4.99848e-12
6.38214e-11
2.15042e-11
6.71154e-11
2.08674e-11
1.27371e-10
2.81571e-10
-1.82612e-09
1.18712e-09
1.6084e-09
-2.41528e-09
-1.99515e-09
1.68949e-10
2.5376e-10
-3.21551e-10
-4.30101e-10
-2.48046e-10
-5.87585e-11
-2.05395e-11
6.08709e-12
-2.06531e-12
3.2959e-11
2.73654e-11
5.74412e-11
4.83301e-11
7.435e-11
5.26399e-11
7.09856e-11
5.28402e-11
7.65991e-11
5.37001e-11
7.2208e-11
5.05938e-11
7.37803e-11
5.31767e-11
7.44918e-11
4.87461e-11
6.76298e-11
4.41276e-11
6.77239e-11
4.69575e-11
6.91316e-11
4.00523e-11
5.75069e-11
3.24606e-11
5.66093e-11
3.33116e-11
5.64604e-11
3.27045e-11
4.92246e-11
2.38876e-11
2.7111e-11
-4.54341e-13
3.78239e-11
1.3107e-11
3.12159e-11
1.10503e-12
3.11642e-11
9.28162e-13
3.64477e-11
1.17598e-11
5.5611e-11
3.3641e-11
5.52337e-11
4.42089e-11
1.04591e-10
2.5378e-10
-1.57806e-09
9.7737e-10
1.33066e-09
-2.15541e-09
-1.86608e-09
8.15079e-11
2.45805e-10
-2.82864e-10
-4.19144e-10
-2.59135e-10
-7.06482e-11
-2.59099e-11
1.28384e-12
-6.53248e-12
2.70141e-11
2.29417e-11
5.24078e-11
4.49927e-11
7.02248e-11
5.04249e-11
6.77424e-11
5.1146e-11
7.35947e-11
5.25717e-11
6.97353e-11
4.99032e-11
7.15414e-11
5.29054e-11
7.25546e-11
4.88843e-11
6.58769e-11
4.44477e-11
6.59839e-11
4.7531e-11
6.7475e-11
4.09844e-11
5.5845e-11
3.35037e-11
5.46333e-11
3.47637e-11
5.39735e-11
3.3641e-11
4.44843e-11
2.58456e-11
3.24036e-11
4.99432e-12
3.55587e-11
1.49826e-11
2.88867e-11
4.02714e-12
2.74696e-11
5.07341e-12
3.11696e-11
1.84924e-11
4.78642e-11
4.49707e-11
4.52112e-11
6.48284e-11
8.54312e-11
2.21898e-10
-1.32789e-09
7.73722e-10
1.03643e-09
-1.90196e-09
-1.71399e-09
-2.25957e-12
2.26372e-10
-2.47728e-10
-4.05725e-10
-2.69385e-10
-8.357e-11
-3.20087e-11
-3.58338e-12
-1.08792e-11
2.10776e-11
1.84852e-11
4.73279e-11
4.16207e-11
6.60562e-11
4.81895e-11
6.44848e-11
4.94347e-11
7.05549e-11
5.14117e-11
6.72425e-11
4.91942e-11
6.92818e-11
5.26016e-11
7.06017e-11
4.90069e-11
6.41304e-11
4.47591e-11
6.42445e-11
4.8072e-11
6.58128e-11
4.18954e-11
5.4212e-11
3.45112e-11
5.27057e-11
3.60732e-11
5.16962e-11
3.44561e-11
4.10339e-11
2.72747e-11
3.58971e-11
1.03406e-11
3.35143e-11
1.68883e-11
2.64779e-11
7.03155e-12
2.37903e-11
9.23194e-12
2.61143e-11
2.49389e-11
4.09046e-11
5.5162e-11
3.73796e-11
8.24392e-11
6.97422e-11
1.86445e-10
-1.08075e-09
5.84037e-10
7.33636e-10
-1.66412e-09
-1.54518e-09
-7.85089e-11
1.98392e-10
-2.16584e-10
-3.90335e-10
-2.78631e-10
-9.73626e-11
-3.88526e-11
-8.5547e-12
-1.51167e-11
1.51546e-11
1.3996e-11
4.22027e-11
3.82068e-11
6.18477e-11
4.59386e-11
6.12183e-11
4.77023e-11
6.7483e-11
5.02232e-11
6.47332e-11
4.84624e-11
6.70052e-11
5.2262e-11
6.86381e-11
4.91128e-11
6.23956e-11
4.50564e-11
6.25129e-11
4.85726e-11
6.41543e-11
4.27808e-11
5.26201e-11
3.54664e-11
5.08376e-11
3.72401e-11
4.96217e-11
3.51619e-11
3.85198e-11
2.84573e-11
3.79735e-11
1.54119e-11
3.1688e-11
1.88113e-11
2.40632e-11
1.0029e-11
2.02418e-11
1.3267e-11
2.14613e-11
3.08885e-11
3.4972e-11
6.40048e-11
3.19342e-11
9.69111e-11
5.73126e-11
1.47889e-10
-8.41388e-10
4.14502e-10
1.46591e-09
6.19044e-10
-8.18527e-10
-1.34097e-09
-1.07011e-09
-6.858e-10
-3.56042e-10
-1.76417e-10
-2.86931e-11
1.36858e-11
7.57891e-11
6.92715e-11
1.08134e-10
8.57079e-11
1.18848e-10
9.14279e-11
1.19561e-10
8.22655e-11
1.1202e-10
7.72675e-11
1.09016e-10
6.87112e-11
1.02021e-10
6.20287e-11
9.85457e-11
5.72009e-11
9.49596e-11
4.91141e-11
8.92158e-11
4.33635e-11
8.73189e-11
4.05592e-11
8.46931e-11
3.08912e-11
7.73665e-11
2.47847e-11
7.47572e-11
2.04734e-11
7.13992e-11
1.30635e-11
6.5268e-11
9.42666e-12
6.32328e-11
2.10718e-12
5.48132e-11
-8.21313e-12
4.49063e-11
-9.82071e-12
4.17233e-11
-5.44752e-12
4.03648e-11
1.31746e-11
3.90639e-11
3.86415e-11
1.57466e-11
8.5415e-11
5.10864e-11
2.8424e-10
-1.83926e-09
-4.53406e-10
1.51853e-09
6.53455e-10
-8.32365e-10
-1.35146e-09
-1.07276e-09
-6.85701e-10
-3.56285e-10
-1.76894e-10
-2.94844e-11
1.29422e-11
7.49994e-11
6.8707e-11
1.07535e-10
8.53093e-11
1.18384e-10
9.11887e-11
1.19194e-10
8.2055e-11
1.11687e-10
7.71715e-11
1.0875e-10
6.86366e-11
1.01765e-10
6.2023e-11
9.8321e-11
5.72347e-11
9.47508e-11
4.91625e-11
8.90018e-11
4.34506e-11
8.71189e-11
4.06885e-11
8.44897e-11
3.10079e-11
7.71335e-11
2.49626e-11
7.45342e-11
2.06848e-11
7.1165e-11
1.32845e-11
6.49714e-11
9.64123e-12
6.29347e-11
2.44274e-12
5.45293e-11
-7.83735e-12
4.45777e-11
-9.32533e-12
4.14026e-11
-4.89605e-12
4.00308e-11
1.38302e-11
3.87774e-11
3.92252e-11
1.53394e-11
8.46958e-11
5.61768e-11
3.0729e-10
-1.86997e-09
-5.02847e-10
1.59237e-09
6.56349e-10
-8.56515e-10
-1.35181e-09
-1.07116e-09
-6.83977e-10
-3.55474e-10
-1.77008e-10
-2.99324e-11
1.19249e-11
7.41017e-11
6.77176e-11
1.06878e-10
8.44997e-11
1.1789e-10
9.06009e-11
1.18926e-10
8.15114e-11
1.11416e-10
7.67573e-11
1.08642e-10
6.82635e-11
1.0166e-10
6.17213e-11
9.82989e-11
5.69787e-11
9.47737e-11
4.89122e-11
8.90134e-11
4.32362e-11
8.71702e-11
4.05278e-11
8.45956e-11
3.08074e-11
7.7173e-11
2.48195e-11
7.4628e-11
2.05725e-11
7.12759e-11
1.3175e-11
6.49801e-11
9.44805e-12
6.29627e-11
2.42498e-12
5.46643e-11
-7.78532e-12
4.46185e-11
-9.16187e-12
4.15118e-11
-4.698e-12
4.01054e-11
1.4067e-11
3.90266e-11
3.92506e-11
1.59066e-11
8.0587e-11
6.09232e-11
3.43411e-10
-1.9267e-09
-5.32699e-10
1.66786e-09
5.93635e-10
-8.83405e-10
-1.33137e-09
-1.06383e-09
-6.8069e-10
-3.53338e-10
-1.76016e-10
-2.97011e-11
1.10599e-11
7.30568e-11
6.64696e-11
1.06e-10
8.34676e-11
1.17177e-10
8.98396e-11
1.18549e-10
8.08056e-11
1.10965e-10
7.6209e-11
1.08459e-10
6.77871e-11
1.01449e-10
6.13335e-11
9.82086e-11
5.66716e-11
9.47706e-11
4.86101e-11
8.89678e-11
4.2976e-11
8.71847e-11
4.03492e-11
8.4722e-11
3.05852e-11
7.71612e-11
2.46507e-11
7.47108e-11
2.046e-11
7.14008e-11
1.3073e-11
6.49537e-11
9.19247e-12
6.29305e-11
2.37063e-12
5.48711e-11
-7.72393e-12
4.46713e-11
-9.03242e-12
4.17515e-11
-4.63811e-12
4.04075e-11
1.38893e-11
4.01047e-11
3.79945e-11
1.86911e-11
7.04188e-11
7.40664e-11
3.73089e-10
-2.00039e-09
-5.07032e-10
1.73166e-09
4.36462e-10
-9.08796e-10
-1.27422e-09
-1.04761e-09
-6.76897e-10
-3.50536e-10
-1.73873e-10
-2.86722e-11
1.04489e-11
7.18533e-11
6.5015e-11
1.04853e-10
8.22279e-11
1.16188e-10
8.8924e-11
1.18e-10
7.9966e-11
1.10271e-10
7.55422e-11
1.08133e-10
6.72457e-11
1.01054e-10
6.08911e-11
9.7981e-11
5.63503e-11
9.46612e-11
4.83077e-11
8.87805e-11
4.27152e-11
8.70771e-11
4.02198e-11
8.4782e-11
3.04155e-11
7.70003e-11
2.45251e-11
7.46871e-11
2.04239e-11
7.14445e-11
1.30773e-11
6.48094e-11
8.98859e-12
6.26668e-11
2.35034e-12
5.50247e-11
-7.5244e-12
4.46144e-11
-8.89881e-12
4.2033e-11
-4.72507e-12
4.09706e-11
1.31428e-11
4.22399e-11
3.49056e-11
2.45685e-11
5.34619e-11
9.84082e-11
3.87266e-10
-2.08665e-09
-4.00103e-10
1.78806e-09
1.72552e-10
-9.36562e-10
-1.17399e-09
-1.01925e-09
-6.73752e-10
-3.48042e-10
-1.70924e-10
-2.70473e-11
1.00132e-11
7.04256e-11
6.33199e-11
1.03421e-10
8.07786e-11
1.14924e-10
8.7852e-11
1.17275e-10
7.9024e-11
1.09343e-10
7.47686e-11
1.07654e-10
6.66573e-11
1.00479e-10
6.03992e-11
9.76113e-11
5.60271e-11
9.44343e-11
4.80198e-11
8.84375e-11
4.24664e-11
8.68354e-11
4.01475e-11
8.47463e-11
3.03205e-11
7.66686e-11
2.44531e-11
7.45295e-11
2.04853e-11
7.13771e-11
1.32308e-11
6.45279e-11
8.85663e-12
6.20896e-11
2.35236e-12
5.50776e-11
-7.17183e-12
4.44496e-11
-8.7765e-12
4.23728e-11
-5.04148e-12
4.1898e-11
1.15683e-11
4.57422e-11
2.95114e-11
3.43308e-11
2.94397e-11
1.34344e-10
3.84523e-10
-2.18961e-09
-2.02429e-10
1.84777e-09
-1.95142e-10
-9.75816e-10
-1.03002e-09
-9.75652e-10
-6.71669e-10
-3.46748e-10
-1.67558e-10
-2.4982e-11
9.6265e-12
6.86763e-11
6.13107e-11
1.01647e-10
7.90993e-11
1.13373e-10
8.66121e-11
1.16366e-10
7.79981e-11
1.08199e-10
7.39013e-11
1.07027e-10
6.60492e-11
9.97354e-11
5.9876e-11
9.7105e-11
5.57229e-11
9.4084e-11
4.77703e-11
8.79419e-11
4.22489e-11
8.64542e-11
4.01483e-11
8.46028e-11
3.03262e-11
7.61664e-11
2.44553e-11
7.42234e-11
2.06681e-11
7.11848e-11
1.35598e-11
6.41266e-11
8.80619e-12
6.11329e-11
2.36289e-12
5.50338e-11
-6.66159e-12
4.41989e-11
-8.72225e-12
4.28032e-11
-5.68451e-12
4.33069e-11
9.00831e-12
5.07919e-11
2.15871e-11
4.80382e-11
-4.85998e-13
1.79298e-10
3.68137e-10
-2.31085e-09
8.00966e-11
1.91971e-09
-6.45756e-10
-1.03418e-09
-8.48148e-10
-9.14757e-10
-6.70484e-10
-3.4735e-10
-1.64125e-10
-2.26273e-11
9.18282e-12
6.65243e-11
5.89024e-11
9.94564e-11
7.71525e-11
1.11498e-10
8.51781e-11
1.15234e-10
7.68874e-11
1.06843e-10
7.29429e-11
1.06237e-10
6.5434e-11
9.88307e-11
5.93376e-11
9.64622e-11
5.54528e-11
9.361e-11
4.75793e-11
8.73006e-11
4.20824e-11
8.59351e-11
4.02388e-11
8.43351e-11
3.04531e-11
7.54967e-11
2.45403e-11
7.37669e-11
2.09813e-11
7.08702e-11
1.40784e-11
6.36558e-11
8.82541e-12
5.97701e-11
2.35324e-12
5.48972e-11
-6.01676e-12
4.39019e-11
-8.78549e-12
4.33675e-11
-6.72558e-12
4.52436e-11
5.41383e-12
5.73035e-11
1.14872e-11
6.48901e-11
-3.36944e-11
2.27702e-10
3.44786e-10
-2.44636e-09
4.22823e-10
2.0098e-09
-1.14618e-09
-1.11702e-09
-6.39838e-10
-8.35955e-10
-6.69355e-10
-3.50386e-10
-1.61016e-10
-2.01264e-11
8.61739e-12
6.3895e-11
5.60619e-11
9.68115e-11
7.49033e-11
1.09272e-10
8.35203e-11
1.13833e-10
7.56786e-11
1.05268e-10
7.18905e-11
1.05261e-10
6.48088e-11
9.77624e-11
5.87903e-11
9.56784e-11
5.522e-11
9.30049e-11
4.7459e-11
8.65176e-11
4.198e-11
8.52827e-11
4.04258e-11
8.39375e-11
3.07104e-11
7.4677e-11
2.47172e-11
7.31636e-11
2.14268e-11
7.04533e-11
1.47799e-11
6.31724e-11
8.89706e-12
5.79724e-11
2.33243e-12
5.46919e-11
-5.27357e-12
4.36022e-11
-8.99514e-12
4.40756e-11
-8.14324e-12
4.76734e-11
9.50112e-13
6.49032e-11
-7.4036e-15
8.33103e-11
-6.68227e-11
2.73261e-10
3.21757e-10
-2.58819e-09
7.90464e-10
2.1171e-09
-1.65915e-09
-1.22575e-09
-4.19776e-10
-7.40488e-10
-6.67111e-10
-3.56095e-10
-1.58631e-10
-1.76122e-11
7.90725e-12
6.08031e-11
5.27937e-11
9.37031e-11
7.23489e-11
1.0669e-10
8.16377e-11
1.12139e-10
7.43578e-11
1.03476e-10
7.07394e-11
1.04079e-10
6.41649e-11
9.65295e-11
5.8231e-11
9.47449e-11
5.50282e-11
9.2259e-11
4.74016e-11
8.55983e-11
4.19404e-11
8.44998e-11
4.07085e-11
8.34049e-11
3.1097e-11
7.37221e-11
2.49871e-11
7.24217e-11
2.1999e-11
6.99317e-11
1.56601e-11
6.27408e-11
8.98176e-12
5.57217e-11
2.29115e-12
5.4438e-11
-4.46298e-12
4.33337e-11
-9.34617e-12
4.49035e-11
-9.85862e-12
5.0453e-11
-4.03554e-12
7.29713e-11
-1.17277e-11
1.01383e-10
-9.63888e-11
3.10558e-10
3.04304e-10
-2.72425e-09
1.1498e-09
2.23446e-09
-2.14493e-09
-1.35769e-09
-2.03731e-10
-6.31256e-10
-6.62386e-10
-3.64406e-10
-1.57371e-10
-1.52792e-11
7.0568e-12
5.72804e-11
4.91257e-11
9.0146e-11
6.95035e-11
1.03765e-10
7.95303e-11
1.10146e-10
7.29242e-11
1.01471e-10
6.94923e-11
1.02685e-10
6.3493e-11
9.51317e-11
5.76571e-11
9.3656e-11
5.48654e-11
9.13677e-11
4.74027e-11
8.4549e-11
4.1965e-11
8.35878e-11
4.108e-11
8.27343e-11
3.15986e-11
7.26503e-11
2.53488e-11
7.155e-11
2.26849e-11
6.9322e-11
1.67002e-11
6.2419e-11
9.03781e-12
5.30389e-11
2.22346e-12
5.41452e-11
-3.59742e-12
4.30868e-11
-9.79419e-12
4.57628e-11
-1.17253e-11
5.33172e-11
-9.0903e-12
8.07636e-11
-2.24602e-11
1.17223e-10
-1.19544e-10
3.3593e-10
2.9513e-10
-2.8405e-09
1.47041e-09
2.35064e-09
-2.57318e-09
-1.50569e-09
-5.39341e-12
-5.12433e-10
-6.53862e-10
-3.7493e-10
-1.576e-10
-1.33154e-11
6.07045e-12
5.33815e-11
4.51009e-11
8.6168e-11
6.63906e-11
1.00511e-10
7.72146e-11
1.07853e-10
7.13789e-11
9.92623e-11
6.81579e-11
1.01074e-10
6.27844e-11
9.35741e-11
5.70666e-11
9.24096e-11
5.4726e-11
9.033e-11
4.74527e-11
8.33778e-11
4.20472e-11
8.2551e-11
4.15261e-11
8.19338e-11
3.21996e-11
7.14725e-11
2.57898e-11
7.05521e-11
2.34633e-11
6.86325e-11
1.78614e-11
6.22635e-11
9.05637e-12
4.99496e-11
2.15889e-12
5.38136e-11
-2.68451e-12
4.28283e-11
-1.02519e-11
4.65692e-11
-1.35525e-11
5.59561e-11
-1.37098e-11
8.75477e-11
-3.10667e-11
1.29313e-10
-1.34366e-10
3.47732e-10
2.94662e-10
-2.9249e-09
1.72928e-09
2.45298e-09
-2.92085e-09
-1.65999e-09
1.64096e-10
-3.89005e-10
-6.40419e-10
-3.86959e-10
-1.59595e-10
-1.19545e-11
4.94893e-12
4.91754e-11
4.07759e-11
8.1807e-11
6.30351e-11
9.69563e-11
7.47046e-11
1.05275e-10
6.97292e-11
9.687e-11
6.67476e-11
9.92509e-11
6.20357e-11
9.18662e-11
5.6461e-11
9.10122e-11
5.46002e-11
8.91528e-11
4.75413e-11
8.2094e-11
4.21782e-11
8.13953e-11
4.20327e-11
8.10066e-11
3.28829e-11
7.02057e-11
2.63008e-11
6.94401e-11
2.43169e-11
6.78592e-11
1.91067e-11
6.22925e-11
9.04736e-12
4.65148e-11
2.13049e-12
5.34147e-11
-1.71728e-12
4.25146e-11
-1.06326e-11
4.71497e-11
-1.51094e-11
5.80668e-11
-1.74181e-11
9.26803e-11
-3.67353e-11
1.36689e-10
-1.40046e-10
3.46107e-10
3.0104e-10
-2.96813e-09
1.91328e-09
2.52983e-09
-3.17483e-09
-1.81035e-09
2.97381e-10
-2.66237e-10
-6.21281e-10
-3.9959e-10
-1.63502e-10
-1.14159e-11
3.67943e-12
4.47322e-11
3.62138e-11
7.71065e-11
5.94764e-11
9.31351e-11
7.20296e-11
1.02431e-10
6.79863e-11
9.43161e-11
6.52726e-11
9.72269e-11
6.12457e-11
9.00215e-11
5.58437e-11
8.9471e-11
5.44805e-11
8.78447e-11
4.76584e-11
8.07082e-11
4.23514e-11
8.01317e-11
4.25855e-11
7.99597e-11
3.36294e-11
6.88668e-11
2.68753e-11
6.82233e-11
2.523e-11
6.69941e-11
2.03983e-11
6.24766e-11
9.07086e-12
4.28583e-11
2.18204e-12
5.29077e-11
-6.74214e-13
4.20947e-11
-1.08391e-11
4.73818e-11
-1.61904e-11
5.93885e-11
-1.98224e-11
9.57181e-11
-3.90075e-11
1.38992e-10
-1.36775e-10
3.32792e-10
3.1117e-10
-2.96501e-09
2.01851e-09
2.57087e-09
-3.33098e-09
-1.94628e-09
3.90907e-10
-1.49208e-10
-5.96169e-10
-4.11854e-10
-1.69345e-10
-1.19222e-11
2.2285e-12
4.0123e-11
3.14773e-11
7.21123e-11
5.57427e-11
8.90802e-11
6.92141e-11
9.93438e-11
6.61596e-11
9.16199e-11
6.3745e-11
9.50187e-11
6.04133e-11
8.80541e-11
5.52164e-11
8.77976e-11
5.43602e-11
8.64152e-11
4.77954e-11
7.92342e-11
4.25602e-11
7.87724e-11
4.31709e-11
7.88036e-11
3.44244e-11
6.7469e-11
2.75062e-11
6.69115e-11
2.61901e-11
6.60192e-11
2.16928e-11
6.26815e-11
9.25318e-12
3.92358e-11
2.36835e-12
5.22391e-11
4.65197e-13
4.1511e-11
-1.07648e-11
4.71558e-11
-1.66327e-11
5.97256e-11
-2.06912e-11
9.64395e-11
-3.77763e-11
1.36399e-10
-1.25537e-10
3.10202e-10
3.21808e-10
-2.91388e-09
2.04758e-09
2.56893e-09
-3.39293e-09
-2.05857e-09
4.4451e-10