/*--------------------------------*- C++ -*----------------------------------*\
| =========                 |                                                 |
| \\      /  F ield         | OpenFOAM: The Open Source CFD Toolbox           |
|  \\    /   O peration     | Version:  2312                                  |
|   \\  /    A nd           | Website:  www.openfoam.com                      |
|    \\/     M anipulation  |                                                 |
\*---------------------------------------------------------------------------*/
FoamFile
{
    version     2.0;
    format      ascii;
    arch        "LSB;label=32;scalar=64";
    class       volScalarField;
    location    "320";
    object      nut;
}
// * * * * * * * * * * * * * * * * * * * * * * * * * * * * * * * * * * * * * //

dimensions      [0 2 -1 0 0 0 0];

internalField   nonuniform List<scalar> 
144000
(
1.18939e-26
5.0106e-27
2.01347e-28
1.73979e-27
8.32753e-28
6.5098e-32
1.98393e-28
6.21618e-29
1.47594e-28
8.80428e-29
1.34448e-28
9.84522e-29
1.45678e-28
1.22145e-28
1.40768e-28
1.19999e-28
1.72476e-28
1.71822e-28
1.7321e-28
1.66024e-28
1.97896e-28
1.97297e-28
1.98161e-28
1.94049e-28
1.96596e-28
1.98575e-28
2.19892e-28
2.22773e-28
2.26616e-28
2.2731e-28
2.23291e-28
2.21417e-28
2.52217e-28
2.49812e-28
2.36655e-28
2.24577e-28
2.14464e-28
2.04408e-28
2.01995e-28
1.7758e-28
1.69042e-28
1.44061e-28
2.16711e-28
1.49907e-28
1.30131e-28
1.07043e-28
6.6166e-29
4.02011e-29
1.84824e-29
6.56449e-30
2.85506e-33
2.52602e-30
4.73795e-29
2.48425e-28
1.11417e-27
4.64772e-28
1.95901e-26
7.67545e-25
1.03822e-24
5.81379e-26
9.09078e-25
1.58341e-26
3.03983e-26
2.12223e-26
1.05353e-27
4.19318e-30
3.58176e-28
1.66512e-28
2.13661e-28
2.87224e-28
2.01923e-28
2.805e-28
2.43959e-28
3.18936e-28
2.61053e-28
2.82876e-28
3.16773e-28
4.05244e-28
3.44069e-28
3.59494e-28
3.88415e-28
4.41861e-28
3.97571e-28
4.2102e-28
3.95956e-28
4.24909e-28
4.36284e-28
4.8085e-28
4.53777e-28
4.75332e-28
4.49487e-28
4.50623e-28
4.9116e-28
5.21459e-28
4.71623e-28
4.45307e-28
4.25707e-28
4.00538e-28
3.99561e-28
3.72644e-28
3.46506e-28
3.30203e-28
4.32837e-28
2.45577e-28
2.71305e-28
1.96955e-28
1.33495e-28
6.11146e-29
3.49795e-29
7.60104e-30
2.4278e-32
1.25674e-29
1.00781e-28
7.54617e-28
2.2097e-27
2.04076e-27
2.84512e-26
2.08546e-24
5.96847e-24
5.81387e-26
2.1468e-24
4.03696e-25
1.49085e-25
4.20782e-26
2.87566e-27
4.26083e-30
4.06973e-28
2.85413e-28
2.89506e-28
3.91495e-28
3.13585e-28
3.68767e-28
3.77081e-28
4.12963e-28
3.90586e-28
3.86993e-28
4.72082e-28
5.40098e-28
5.07812e-28
4.97157e-28
5.67899e-28
6.01096e-28
5.77023e-28
5.83284e-28
5.67776e-28
5.9743e-28
6.22937e-28
6.66525e-28
6.45528e-28
6.6409e-28
6.32124e-28
6.43862e-28
6.90324e-28
7.23904e-28
6.62869e-28
6.2842e-28
5.98877e-28
5.75766e-28
5.74589e-28
5.43038e-28
5.25059e-28
4.78709e-28
6.04681e-28
3.33994e-28
4.10068e-28
2.70285e-28
1.9256e-28
8.97291e-29
5.01179e-29
1.24229e-29
4.63897e-32
1.30928e-29
1.52943e-28
9.15771e-28
2.96638e-27
2.10031e-27
8.34908e-26
3.41281e-24
6.50051e-24
8.2247e-25
7.08033e-24
3.46061e-24
4.60909e-25
2.36212e-25
2.98867e-27
8.04811e-30
4.1019e-28
3.0135e-28
3.01825e-28
3.91992e-28
3.33261e-28
3.67329e-28
3.98078e-28
4.13281e-28
4.10218e-28
3.87058e-28
4.90004e-28
5.49151e-28
5.26936e-28
4.99024e-28
5.87368e-28
6.04692e-28
5.95733e-28
5.8264e-28
5.83273e-28
5.98735e-28
6.35562e-28
6.74257e-28
6.59831e-28
6.6976e-28
6.47535e-28
6.51244e-28
7.02932e-28
7.41419e-28
6.77377e-28
6.43599e-28
6.19913e-28
5.99252e-28
6.07498e-28
5.7348e-28
5.52593e-28
5.27821e-28
5.8604e-28
3.49457e-28
4.45224e-28
2.75134e-28
2.11708e-28
9.27457e-29
6.0178e-29
1.52926e-29
2.33054e-31
1.37516e-29
1.23126e-28
8.15844e-28
2.41988e-27
1.76452e-27
1.11745e-25
5.40922e-24
9.19581e-24
5.2186e-24
1.24348e-23
1.48022e-23
6.56769e-25
8.17877e-25
7.06204e-27
2.71093e-29
4.34166e-28
3.37171e-28
3.05095e-28
4.25638e-28
3.29271e-28
3.94591e-28
4.04724e-28
4.43095e-28
4.18361e-28
4.08488e-28
5.04247e-28
5.83401e-28
5.38943e-28
5.16468e-28
6.07549e-28
6.26704e-28
6.12312e-28
5.94523e-28
6.00037e-28
6.11503e-28
6.5617e-28
6.95611e-28
6.78833e-28
6.89726e-28
6.69838e-28
6.71608e-28
7.33499e-28
7.79361e-28
7.03655e-28
6.77234e-28
6.5374e-28
6.40165e-28
6.45419e-28
6.05029e-28
5.67577e-28
5.22012e-28
5.72651e-28
4.03005e-28
4.76832e-28
2.97983e-28
2.32171e-28
1.05243e-28
7.61312e-29
2.35253e-29
1.20894e-30
1.3769e-29
9.64333e-29
7.01342e-28
1.76172e-27
1.29577e-27
1.68965e-25
8.912e-24
1.18515e-23
2.02633e-23
1.55622e-23
4.07407e-23
6.12455e-25
1.98398e-24
1.99776e-26
7.456e-29
5.09721e-28
3.81541e-28
3.2975e-28
4.71031e-28
3.33595e-28
4.35036e-28
4.20861e-28
4.86662e-28
4.34809e-28
4.44825e-28
5.36344e-28
6.40235e-28
5.6319e-28
5.57861e-28
6.45401e-28
6.74933e-28
6.44355e-28
6.30317e-28
6.35092e-28
6.49849e-28
7.00256e-28
7.44581e-28
7.22534e-28
7.37703e-28
7.17919e-28
7.23396e-28
7.99301e-28
8.50792e-28
7.60377e-28
7.41576e-28
7.15435e-28
7.08264e-28
6.98831e-28
6.41369e-28
5.72552e-28
5.64353e-28
6.09405e-28
4.9193e-28
5.2965e-28
3.48804e-28
2.65355e-28
1.35548e-28
1.05143e-28
4.37563e-29
5.90637e-30
1.75797e-29
7.54658e-29
5.69226e-28
1.11196e-27
7.67281e-28
2.50385e-25
1.40021e-23
1.4769e-23
5.24517e-23
1.66241e-23
8.6631e-23
4.20074e-25
3.90328e-24
4.97964e-26
1.44417e-28
6.50624e-28
4.1737e-28
3.74547e-28
5.12774e-28
3.51349e-28
4.72454e-28
4.50344e-28
5.31175e-28
4.59767e-28
4.87149e-28
5.83796e-28
7.06154e-28
5.96804e-28
6.12468e-28
6.95426e-28
7.36801e-28
6.83823e-28
6.79803e-28
6.80234e-28
7.04992e-28
7.58738e-28
8.0921e-28
7.79334e-28
8.03855e-28
7.82285e-28
7.98063e-28
8.87794e-28
9.42089e-28
8.34811e-28
8.24854e-28
7.95739e-28
7.95273e-28
7.63983e-28
6.88118e-28
5.875e-28
5.87327e-28
6.70843e-28
6.23909e-28
6.13138e-28
4.27557e-28
3.1792e-28
1.92071e-28
1.59752e-28
9.14219e-29
2.54024e-29
3.81509e-29
7.91683e-29
4.51751e-28
7.17191e-28
6.10294e-28
3.2515e-25
2.06638e-23
2.0624e-23
1.05193e-22
1.53513e-23
1.53994e-22
2.12215e-25
6.56792e-24
1.12056e-25
2.12049e-28
8.59092e-28
4.41669e-28
4.27554e-28
5.57846e-28
3.76662e-28
5.07426e-28
4.90322e-28
5.76039e-28
4.93289e-28
5.34441e-28
6.42195e-28
7.76828e-28
6.3767e-28
6.73539e-28
7.54077e-28
8.06741e-28
7.28063e-28
7.37803e-28
7.32366e-28
7.70495e-28
8.23629e-28
8.85434e-28
8.45233e-28
8.82553e-28
8.57959e-28
8.87857e-28
9.89935e-28
1.04942e-27
9.22693e-28
9.25268e-28
8.95215e-28
9.03861e-28
8.45096e-28
7.46456e-28
6.09863e-28
6.47998e-28
7.48059e-28
8.01159e-28
7.37565e-28
5.45104e-28
4.02886e-28
2.94054e-28
2.64794e-28
2.02263e-28
9.4065e-29
1.23856e-28
1.71729e-28
5.14082e-28
1.08968e-27
2.38448e-27
3.96262e-25
2.90185e-23
3.06012e-23
1.75398e-22
1.43643e-23
2.41527e-22
1.06631e-25
9.82554e-24
2.35447e-25
2.88733e-28
1.21945e-27
4.39998e-28
4.82694e-28
6.14465e-28
4.04764e-28
5.44833e-28
5.40062e-28
6.23141e-28
5.34041e-28
5.87272e-28
7.15063e-28
8.51977e-28
6.86169e-28
7.40807e-28
8.25398e-28
8.82581e-28
7.77194e-28
8.03608e-28
7.9185e-28
8.45267e-28
8.99261e-28
9.7145e-28
9.17931e-28
9.75163e-28
9.44877e-28
9.94286e-28
1.11095e-27
1.17532e-27
1.02618e-27
1.05136e-27
1.02442e-27
1.0504e-27
9.65372e-28
8.46964e-28
6.74714e-28
7.67673e-28
8.01003e-28
1.06246e-27
9.25737e-28
7.26677e-28
5.41495e-28
4.79587e-28
4.74626e-28
4.53474e-28
3.01113e-28
4.31296e-28
6.13471e-28
1.25678e-27
4.20352e-27
1.26944e-26
4.36856e-25
3.93195e-23
5.19479e-23
2.55928e-22
1.44904e-23
3.47221e-22
1.69823e-25
1.34456e-23
4.60156e-25
4.31698e-28
1.8243e-27
4.02828e-28
5.40766e-28
6.87527e-28
4.33873e-28
5.87781e-28
5.97693e-28
6.75098e-28
5.83202e-28
6.45936e-28
8.00203e-28
9.32704e-28
7.43885e-28
8.14391e-28
9.08004e-28
9.64065e-28
8.34239e-28
8.75974e-28
8.61167e-28
9.28565e-28
9.83022e-28
1.0684e-27
1.00182e-27
1.08103e-27
1.04672e-27
1.11914e-27
1.25033e-27
1.32604e-27
1.15429e-27
1.21251e-27
1.19874e-27
1.25599e-27
1.14949e-27
1.02864e-27
8.84674e-28
7.53022e-28
7.84615e-28
1.42481e-27
1.2137e-27
1.01157e-27
7.73364e-28
8.19537e-28
8.93382e-28
1.00528e-27
8.61155e-28
1.36633e-27
2.19239e-27
4.29094e-27
1.63308e-26
4.83165e-26
4.57555e-25
5.219e-23
9.09665e-23
3.38132e-22
1.96891e-23
4.65826e-22
4.85173e-25
1.71197e-23
8.25408e-25
8.821e-28
2.87257e-27
3.1708e-28
6.09817e-28
7.7607e-28
4.64917e-28
6.35651e-28
6.64956e-28
7.3227e-28
6.39402e-28
7.12851e-28
8.99609e-28
1.01983e-27
8.10137e-28
8.96022e-28
1.00467e-27
1.05033e-27
8.9889e-28
9.55974e-28
9.4056e-28
1.02091e-27
1.08038e-27
1.17491e-27
1.09721e-27
1.20332e-27
1.16597e-27
1.26658e-27
1.41644e-27
1.50468e-27
1.31071e-27
1.41555e-27
1.42352e-27
1.52095e-27
1.38711e-27
1.27027e-27
1.09142e-27
9.31944e-28
8.52747e-28
1.76583e-27
1.74023e-27
1.41964e-27
1.17239e-27
1.41564e-27
1.68494e-27
2.14803e-27
2.2128e-27
3.80529e-27
6.66947e-27
1.34433e-26
5.00569e-26
1.378e-25
4.43619e-25
6.91098e-23
1.65611e-22
4.08469e-22
3.01764e-23
6.00365e-22
1.43855e-24
2.09183e-23
1.37987e-24
2.56435e-27
4.29345e-27
2.11514e-28
6.82263e-28
8.92939e-28
4.93247e-28
6.92628e-28
7.38383e-28
7.98833e-28
7.02232e-28
7.89435e-28
1.00965e-27
1.1165e-27
8.84269e-28
9.87148e-28
1.11212e-27
1.14354e-27
9.72018e-28
1.04399e-27
1.03164e-27
1.12279e-27
1.18724e-27
1.29409e-27
1.20971e-27
1.3429e-27
1.30673e-27
1.43821e-27
1.60987e-27
1.7179e-27
1.50384e-27
1.67047e-27
1.71632e-27
1.87374e-27
1.73585e-27
1.74198e-27
1.5974e-27
1.6568e-27
7.70421e-28
2.29458e-27
2.49058e-27
2.05562e-27
1.83316e-27
2.4246e-27
3.08591e-27
4.31959e-27
5.16035e-27
9.29462e-27
1.72022e-26
3.534e-26
1.24225e-25
3.13534e-25
4.24336e-25
9.25745e-23
2.80534e-22
4.55672e-22
5.55789e-23
7.38612e-22
3.09289e-24
2.4775e-23
2.12169e-24
8.03851e-27
6.16525e-27
1.03489e-28
7.69254e-28
1.04041e-27
5.18286e-28
7.58731e-28
8.20008e-28
8.75257e-28
7.69012e-28
8.77965e-28
1.1347e-27
1.22264e-27
9.65194e-28
1.0898e-27
1.23473e-27
1.24384e-27
1.05171e-27
1.14249e-27
1.13342e-27
1.235e-27
1.31176e-27
1.42609e-27
1.33732e-27
1.5058e-27
1.4709e-27
1.63937e-27
1.84688e-27
1.97607e-27
1.75085e-27
2.02088e-27
2.15631e-27
2.47851e-27
2.54548e-27
3.35262e-27
4.36586e-27
2.04941e-27
1.96918e-28
3.91017e-27
3.06456e-27
3.29703e-27
2.78931e-27
4.16798e-27
5.52058e-27
8.20532e-27
1.09075e-26
2.02317e-26
3.83602e-26
7.90492e-26
2.60174e-25
6.03814e-25
3.90224e-25
1.25859e-22
4.68531e-22
4.66885e-22
1.04171e-22
8.86076e-22
5.69882e-24
3.00415e-23
3.02144e-24
2.32384e-26
8.38378e-27
2.60911e-29
8.85732e-28
1.21839e-27
5.41494e-28
8.32989e-28
9.1122e-28
9.60655e-28
8.45176e-28
9.77279e-28
1.27125e-27
1.34067e-27
1.05617e-27
1.20464e-27
1.36868e-27
1.35378e-27
1.14184e-27
1.25199e-27
1.24891e-27
1.35866e-27
1.44909e-27
1.57546e-27
1.48596e-27
1.69167e-27
1.66486e-27
1.87325e-27
2.12426e-27
2.28858e-27
2.06292e-27
2.47404e-27
2.75673e-27
3.34373e-27
3.8887e-27
6.42472e-27
8.77247e-27
9.77307e-29
4.97567e-28
4.08794e-27
4.16519e-27
5.14368e-27
4.25422e-27
7.00164e-27
9.59579e-27
1.48599e-26
2.10347e-26
3.95772e-26
7.55341e-26
1.53704e-25
4.75307e-25
1.01151e-24
3.71498e-25
1.74385e-22
7.53082e-22
4.62509e-22
1.99663e-22
1.05596e-21
8.26723e-24
3.71572e-23
3.96729e-24
5.93185e-26
1.06645e-26
5.2691e-31
1.06146e-27
1.41597e-27
5.67405e-28
9.09812e-28
1.02089e-27
1.05053e-27
9.32695e-28
1.087e-27
1.42766e-27
1.46762e-27
1.15897e-27
1.3319e-27
1.52121e-27
1.47101e-27
1.2432e-27
1.37379e-27
1.3783e-27
1.49428e-27
1.60717e-27
1.73999e-27
1.65447e-27
1.90348e-27
1.8853e-27
2.13547e-27
2.43466e-27
2.61624e-27
2.36872e-27
2.87229e-27
3.17234e-27
3.71064e-27
4.24732e-27
6.82918e-27
2.12872e-27
1.08905e-26
1.07418e-26
1.1463e-27
8.37374e-27
6.52556e-27
6.97733e-27
1.09627e-26
1.61924e-26
2.53599e-26
3.73258e-26
7.05523e-26
1.33474e-25
2.66588e-25
7.74671e-25
1.5163e-24
3.78893e-25
2.43539e-22
1.17194e-21
4.35749e-22
3.52614e-22
1.30806e-21
1.03744e-23
4.85002e-23
4.88768e-24
1.38867e-25
1.18625e-26
6.45721e-30
1.29058e-27
1.65971e-27
5.84935e-28
1.00078e-27
1.14232e-27
1.15168e-27
1.03275e-27
1.20906e-27
1.59905e-27
1.60894e-27
1.27512e-27
1.47351e-27
1.68809e-27
1.59921e-27
1.35872e-27
1.50692e-27
1.52534e-27
1.64271e-27
1.7797e-27
1.9239e-27
1.85208e-27
2.14131e-27
2.14343e-27
2.43773e-27
2.80055e-27
3.02708e-27
2.79977e-27
3.5144e-27
4.09878e-27
5.25929e-27
7.85407e-27
1.94421e-26
3.43157e-26
3.34724e-26
7.36523e-30
2.25897e-27
1.02595e-26
1.00756e-26
1.0171e-26
1.7029e-26
2.55885e-26
4.06124e-26
6.14428e-26
1.15078e-25
2.14418e-25
4.16427e-25
1.14047e-24
2.04576e-24
4.74424e-25
3.40742e-22
1.70806e-21
3.99542e-22
5.92464e-22
1.63317e-21
1.12075e-23
6.57397e-23
5.52758e-24
2.86316e-25
1.17846e-26
1.008e-28
1.64477e-27
1.93063e-27
5.95847e-28
1.10673e-27
1.27913e-27
1.2657e-27
1.14028e-27
1.34706e-27
1.79569e-27
1.76274e-27
1.40389e-27
1.63115e-27
1.87944e-27
1.73673e-27
1.48603e-27
1.65575e-27
1.68771e-27
1.80353e-27
1.97986e-27
2.1254e-27
2.07445e-27
2.41407e-27
2.44038e-27
2.78824e-27
3.25777e-27
3.54556e-27
3.40589e-27
4.5224e-27
5.78986e-27
8.63089e-27
1.67931e-26
6.0341e-26
3.09905e-25
5.84179e-28
2.78917e-26
8.72376e-27
9.83216e-27
1.65411e-26
1.36783e-26
2.58631e-26
3.78696e-26
6.10283e-26
9.36075e-26
1.72856e-25
3.14861e-25
5.90975e-25
1.52826e-24
2.50941e-24
7.15168e-25
4.74376e-22
2.3891e-21
3.5329e-22
9.58005e-22
2.0594e-21
1.05042e-23
9.24994e-23
5.75108e-24
5.2474e-25
1.02872e-26
4.56449e-28
2.21013e-27
2.21246e-27
6.00914e-28
1.23245e-27
1.42967e-27
1.39402e-27
1.26258e-27
1.50194e-27
2.00938e-27
1.93693e-27
1.54931e-27
1.80796e-27
2.08735e-27
1.88919e-27
1.62968e-27
1.81787e-27
1.86978e-27
1.97728e-27
2.1994e-27
2.34764e-27
2.32417e-27
2.70795e-27
2.76552e-27
3.14402e-27
3.69866e-27
3.97428e-27
3.79368e-27
4.90834e-27
5.91838e-27
7.73444e-27
1.18108e-26
2.8894e-26
5.33173e-26
4.19979e-26
9.78598e-30
4.08058e-27
1.87974e-26
1.8811e-26
2.08421e-26
3.54772e-26
5.46186e-26
8.57249e-26
1.33416e-25
2.39603e-25
4.27871e-25
7.7048e-25
1.89803e-24
2.87026e-24
1.17412e-24
6.46159e-22
3.18768e-21
3.25453e-22
1.42138e-21
2.60905e-21
8.31461e-24
1.29378e-22
5.491e-24
8.80097e-25
7.2919e-27
1.23307e-27
3.10953e-27
2.47687e-27
6.04542e-28
1.37406e-27
1.60613e-27
1.52926e-27
1.40323e-27
1.67281e-27
2.25491e-27
2.12505e-27
1.71412e-27
2.0036e-27
2.32314e-27
2.0514e-27
1.79044e-27
1.99491e-27
2.07052e-27
2.16406e-27
2.44916e-27
2.5869e-27
2.60206e-27
3.03354e-27
3.12618e-27
3.53391e-27
4.19833e-27
4.43969e-27
4.22935e-27
5.34928e-27
6.09983e-27
7.01317e-27
7.65423e-27
1.00615e-26
1.40319e-27
2.15768e-26
1.54587e-26
6.75134e-27
2.55927e-26
2.36294e-26
2.84068e-26
4.80726e-26
7.38339e-26
1.15059e-25
1.76724e-25
3.10923e-25
5.365e-25
9.31579e-25
2.19496e-24
3.09789e-24
1.94039e-24
8.54019e-22
4.06454e-21
3.29657e-22
1.94341e-21
3.37271e-21
5.559e-24
1.79996e-22
4.74851e-24
1.35434e-24
3.76352e-27
2.47025e-27
4.50938e-27
2.7123e-27
6.02903e-28
1.54919e-27
1.79739e-27
1.68203e-27
1.56681e-27
1.86557e-27
2.5208e-27
2.33905e-27
1.90104e-27
2.22369e-27
2.57643e-27
2.23073e-27
1.97196e-27
2.18677e-27
2.29469e-27
2.36649e-27
2.71731e-27
2.84752e-27
2.92121e-27
3.38718e-27
3.54052e-27
3.97603e-27
4.78561e-27
5.04807e-27
4.93031e-27
6.3289e-27
7.4983e-27
9.07838e-27
1.03441e-26
1.47007e-26
1.52624e-26
3.62817e-28
2.31865e-27
2.67102e-26
2.51193e-26
3.24355e-26
3.5122e-26
6.32453e-26
9.36576e-26
1.45471e-25
2.18874e-25
3.74981e-25
6.23102e-25
1.04206e-24
2.36356e-24
3.08193e-24
3.21662e-24
1.09837e-21
5.01662e-21
3.90853e-22
2.60328e-21
4.2746e-21
3.08856e-24
2.46256e-22
3.57251e-24
1.89585e-24
1.1877e-27
4.12852e-27
6.74425e-27
2.85836e-27
6.02802e-28
1.7625e-27
2.00018e-27
1.86046e-27
1.74095e-27
2.08847e-27
2.81438e-27
2.57871e-27
2.10305e-27
2.47194e-27
2.85394e-27
2.42731e-27
2.16644e-27
2.40013e-27
2.53239e-27
2.58172e-27
3.01189e-27
3.12126e-27
3.26134e-27
3.76162e-27
3.96833e-27
4.408e-27
5.35814e-27
5.54407e-27
5.42303e-27
6.82283e-27
7.87816e-27
9.054e-27
9.36944e-27
1.14516e-26
1.33592e-26
1.01064e-26
5.0839e-27
3.43849e-26
3.30003e-26
3.64811e-26
4.4898e-26
7.63388e-26
1.13677e-25
1.71212e-25
2.53193e-25
4.20686e-25
6.72298e-25
1.07848e-24
2.37492e-24
2.79598e-24
5.25403e-24
1.37645e-21
5.89162e-21
5.19461e-22
3.43279e-21
5.28241e-21
1.26135e-24
3.19524e-22
2.38971e-24
2.48659e-24
8.50962e-29
5.7661e-27
9.85937e-27
2.99237e-27
5.87813e-28
2.04738e-27
2.18952e-27
2.08059e-27
1.92018e-27
2.3492e-27
3.12137e-27
2.8578e-27
2.31854e-27
2.75318e-27
3.14515e-27
2.64885e-27
2.37042e-27
2.6311e-27
2.77769e-27
2.80753e-27
3.32026e-27
3.41115e-27
3.61609e-27
4.15019e-27
4.4127e-27
4.83446e-27
5.93933e-27
6.00685e-27
5.8584e-27
7.17722e-27
7.95705e-27
8.50499e-27
7.80318e-27
7.26252e-27
6.44533e-27
1.04301e-26
1.50929e-26
3.68069e-26
3.98455e-26
4.07304e-26
5.37196e-26
8.77718e-26
1.29238e-25
1.88615e-25
2.72542e-25
4.37319e-25
6.72168e-25
1.01578e-24
2.19037e-24
2.32367e-24
8.0129e-24
1.66707e-21
6.6303e-21
7.65416e-22
4.20037e-21
6.43191e-21
6.05316e-25
3.97464e-22
1.44055e-24
3.08162e-24
8.90971e-29
7.2468e-27
1.4373e-26
3.02264e-27
5.82219e-28
2.3511e-27
2.41025e-27
2.30154e-27
2.12391e-27
2.61851e-27
3.46637e-27
3.14994e-27
2.5487e-27
3.04612e-27
3.46217e-27
2.872e-27
2.57911e-27
2.86255e-27
3.02176e-27
3.02889e-27
3.63855e-27
3.69758e-27
3.96971e-27
4.53644e-27
4.8471e-27
5.24602e-27
6.53318e-27
6.45775e-27
6.30571e-27
7.61105e-27
8.24305e-27
8.56007e-27
7.6601e-27
6.57488e-27
4.94677e-27
1.17063e-26
2.55707e-26
4.17606e-26
4.23582e-26
4.5452e-26
5.95561e-26
9.58555e-26
1.36529e-25
1.94542e-25
2.71281e-25
4.16477e-25
6.09916e-25
8.58837e-25
1.81742e-24
1.7601e-24
1.15717e-23
1.94759e-21
7.08973e-21
1.22303e-21
5.12053e-21
7.73142e-21
1.35704e-24
4.82255e-22
7.74291e-25
3.60202e-24
1.80145e-27
9.00751e-27
2.1676e-26
2.85297e-27
6.10603e-28
2.61198e-27
2.7267e-27
2.46958e-27
2.42067e-27
2.83719e-27
3.86507e-27
3.43638e-27
2.83021e-27
3.31283e-27
3.81079e-27
3.08253e-27
2.82184e-27
3.06934e-27
3.28977e-27
3.23171e-27
3.94909e-27
3.97543e-27
4.33749e-27
4.89177e-27
5.27792e-27
5.60807e-27
7.03129e-27
6.85174e-27
6.65566e-27
7.88482e-27
8.40461e-27
8.55538e-27
7.63546e-27
6.67781e-27
4.53971e-27
1.42944e-26
3.29895e-26
4.5488e-26
4.26891e-26
4.85268e-26
6.21959e-26
9.87021e-26
1.34879e-25
1.86952e-25
2.48091e-25
3.60984e-25
4.96065e-25
6.57529e-25
1.36278e-24
1.24103e-24
1.48726e-23
2.18976e-21
7.4959e-21
1.98641e-21
5.50642e-21
9.38034e-21
2.64617e-24
6.03687e-22
3.91337e-25
4.10859e-24
9.97248e-27
1.07502e-26
3.43067e-26
2.64065e-27
6.39585e-28
3.08071e-27
3.12738e-27
2.75696e-27
2.7765e-27
3.20861e-27
4.4439e-27
3.8935e-27
3.18128e-27
3.75719e-27
4.31113e-27
3.42602e-27
3.13609e-27
3.40434e-27
3.65587e-27
3.5482e-27
4.40688e-27
4.37241e-27
4.82533e-27
5.39391e-27
5.84558e-27
6.11065e-27
7.7782e-27
7.36183e-27
7.11468e-27
8.27189e-27
8.8086e-27
8.73615e-27
8.06639e-27
7.12677e-27
4.96806e-27
1.73483e-26
3.98467e-26
4.64598e-26
4.3657e-26
4.95592e-26
6.34074e-26
9.68994e-26
1.2968e-25
1.67531e-25
2.12366e-25
2.89421e-25
3.71337e-25
4.55541e-25
9.40127e-25
7.9419e-25
1.91711e-23
2.42686e-21
7.48971e-21
3.24444e-21
1.33979e-26
4.99618e-27
2.17909e-28
1.76307e-27
7.61259e-28
6.71955e-32
1.84217e-28
6.84295e-29
1.40633e-28
9.21583e-29
1.30587e-28
1.00686e-28
1.44334e-28
1.22734e-28
1.42376e-28
1.19105e-28
1.74654e-28
1.69987e-28
1.76158e-28
1.64921e-28
2.00872e-28
1.97193e-28
2.01641e-28
1.94811e-28
2.0238e-28
1.99818e-28
2.26049e-28
2.28082e-28
2.32775e-28
2.36686e-28
2.32286e-28
2.33721e-28
2.64839e-28
2.68158e-28
2.54438e-28
2.47896e-28
2.38967e-28
2.33044e-28
2.29887e-28
2.10285e-28
1.80185e-28
1.5717e-28
1.75833e-28
1.51132e-28
1.27408e-28
1.12164e-28
6.31075e-29
4.22299e-29
1.75759e-29
7.03171e-30
2.23892e-33
2.27703e-30
4.83327e-29
2.42243e-28
1.13685e-27
4.69276e-28
1.9317e-26
7.78e-25
1.0653e-24
5.65995e-26
9.39472e-25
1.60438e-26
3.08575e-26
2.12747e-26
9.44682e-28
4.5501e-30
3.3389e-28
1.83484e-28
1.99167e-28
3.03157e-28
1.93509e-28
2.90173e-28
2.37988e-28
3.25908e-28
2.59068e-28
2.87006e-28
3.16647e-28
4.08804e-28
3.44652e-28
3.64915e-28
3.90775e-28
4.49235e-28
4.02446e-28
4.29043e-28
4.07404e-28
4.33552e-28
4.51507e-28
4.97599e-28
4.70545e-28
5.00864e-28
4.73629e-28
4.82728e-28
5.24513e-28
5.68806e-28
5.16768e-28
5.01328e-28
4.83807e-28
4.64893e-28
4.61341e-28
4.40479e-28
3.74525e-28
3.69303e-28
3.37502e-28
2.69765e-28
2.56402e-28
2.09689e-28
1.25487e-28
6.55417e-29
3.25209e-29
8.41156e-30
1.82556e-32
1.15573e-29
1.04677e-28
7.35059e-28
2.26445e-27
2.06865e-27
2.78958e-26
2.10662e-24
6.08213e-24
5.73677e-26
2.17183e-24
4.0437e-25
1.49087e-25
4.20146e-26
2.653e-27
4.41454e-30
3.77976e-28
3.1314e-28
2.67817e-28
4.15114e-28
3.0067e-28
3.82784e-28
3.67239e-28
4.24351e-28
3.86541e-28
3.95709e-28
4.71246e-28
5.49432e-28
5.07015e-28
5.10609e-28
5.69303e-28
6.19709e-28
5.81769e-28
6.0268e-28
5.83684e-28
6.17585e-28
6.46429e-28
6.98996e-28
6.72274e-28
7.09383e-28
6.70992e-28
6.99208e-28
7.44823e-28
8.0146e-28
7.34475e-28
7.17733e-28
6.87621e-28
6.74449e-28
6.67283e-28
6.43028e-28
5.69334e-28
5.43982e-28
4.41048e-28
3.9896e-28
3.67985e-28
2.95877e-28
1.76947e-28
9.80778e-29
4.53556e-29
1.39513e-29
3.95419e-32
1.18092e-29
1.6102e-28
8.84115e-28
3.06449e-27
2.10418e-27
8.26134e-26
3.44e-24
6.61455e-24
8.20162e-25
7.13067e-24
3.46358e-24
4.61175e-25
2.35523e-25
2.75742e-27
7.80745e-30
3.8681e-28
3.272e-28
2.81491e-28
4.16312e-28
3.19686e-28
3.83155e-28
3.86957e-28
4.27751e-28
4.0519e-28
4.00298e-28
4.89516e-28
5.62701e-28
5.26526e-28
5.18976e-28
5.88433e-28
6.3194e-28
5.98835e-28
6.12092e-28
5.99205e-28
6.29698e-28
6.61226e-28
7.17496e-28
6.89236e-28
7.27068e-28
6.90857e-28
7.18998e-28
7.63671e-28
8.31871e-28
7.54878e-28
7.43599e-28
7.14125e-28
7.05955e-28
7.0729e-28
6.81626e-28
6.15861e-28
5.53983e-28
4.26038e-28
4.31121e-28
3.81546e-28
3.11549e-28
1.89136e-28
1.04151e-28
5.29942e-29
1.74751e-29
1.59548e-31
1.21796e-29
1.31162e-28
7.80562e-28
2.50981e-27
1.75466e-27
1.11081e-25
5.43254e-24
9.35934e-24
5.21877e-24
1.25164e-23
1.48299e-23
6.57873e-25
8.1602e-25
6.8009e-27
2.57813e-29
4.15998e-28
3.61662e-28
2.88374e-28
4.51534e-28
3.16373e-28
4.13403e-28
3.93032e-28
4.62204e-28
4.12748e-28
4.26992e-28
5.04044e-28
6.01333e-28
5.40561e-28
5.42112e-28
6.09868e-28
6.61086e-28
6.15251e-28
6.33795e-28
6.1597e-28
6.52985e-28
6.83361e-28
7.47891e-28
7.09955e-28
7.57652e-28
7.14742e-28
7.49288e-28
7.95636e-28
8.78825e-28
7.81025e-28
7.83671e-28
7.47317e-28
7.52127e-28
7.51947e-28
7.24602e-28
6.5353e-28
5.50664e-28
4.30507e-28
4.74393e-28
4.01132e-28
3.44597e-28
2.0313e-28
1.20575e-28
6.5759e-29
2.71109e-29
8.76325e-31
1.21995e-29
1.03392e-28
6.66124e-28
1.83857e-27
1.27561e-27
1.68503e-25
8.94083e-24
1.20839e-23
2.02997e-23
1.5656e-23
4.08232e-23
6.13945e-25
1.98038e-24
1.97105e-26
7.02538e-29
4.94642e-28
4.05442e-28
3.16017e-28
4.99065e-28
3.21627e-28
4.57307e-28
4.09172e-28
5.1113e-28
4.29195e-28
4.69888e-28
5.36029e-28
6.63354e-28
5.67678e-28
5.88924e-28
6.50023e-28
7.15483e-28
6.48719e-28
6.78652e-28
6.5146e-28
7.01349e-28
7.28182e-28
8.04986e-28
7.5452e-28
8.15218e-28
7.62002e-28
8.0985e-28
8.59024e-28
9.57227e-28
8.33822e-28
8.53043e-28
8.05691e-28
8.27494e-28
8.16415e-28
7.91563e-28
7.09177e-28
5.88315e-28
4.65901e-28
5.3338e-28
4.50678e-28
4.03875e-28
2.31355e-28
1.5596e-28
9.06353e-29
5.01792e-29
4.7253e-30
1.66416e-29
8.04104e-29
5.40132e-28
1.16687e-27
7.46258e-28
2.50667e-25
1.40457e-23
1.50629e-23
5.25677e-23
1.67468e-23
8.68735e-23
4.21416e-25
3.89981e-24
4.9273e-26
1.34575e-28
6.34431e-28
4.4186e-28
3.62342e-28
5.44502e-28
3.39203e-28
4.99325e-28
4.37809e-28
5.62217e-28
4.53467e-28
5.201e-28
5.81467e-28
7.362e-28
6.03136e-28
6.4923e-28
7.0177e-28
7.82848e-28
6.89939e-28
7.35988e-28
6.96429e-28
7.65018e-28
7.85942e-28
8.75475e-28
8.10799e-28
8.87981e-28
8.22595e-28
8.90227e-28
9.40222e-28
1.05137e-27
8.99497e-28
9.37533e-28
8.78254e-28
9.21094e-28
8.96772e-28
8.81289e-28
7.90928e-28
6.54112e-28
5.18617e-28
6.10419e-28
5.36236e-28
4.88745e-28
2.80982e-28
2.18499e-28
1.39884e-28
1.03e-28
2.19014e-29
3.97548e-29
8.09094e-29
4.37242e-28
7.44519e-28
6.03744e-28
3.26251e-25
2.07448e-23
2.10434e-23
1.05528e-22
1.54351e-23
1.54473e-22
2.11605e-25
6.56402e-24
1.11093e-25
2.00526e-28
8.42021e-28
4.65783e-28
4.17258e-28
5.93954e-28
3.6357e-28
5.39722e-28
4.75955e-28
6.145e-28
4.85028e-28
5.75738e-28
6.36149e-28
8.15665e-28
6.43958e-28
7.16658e-28
7.60641e-28
8.58146e-28
7.34985e-28
8.0046e-28
7.47001e-28
8.37519e-28
8.47781e-28
9.55492e-28
8.73669e-28
9.69603e-28
8.90963e-28
9.81548e-28
1.0298e-27
1.15563e-27
9.71729e-28
1.03175e-27
9.61651e-28
1.03013e-27
9.90955e-28
1.00061e-27
9.01574e-28
7.58981e-28
5.96703e-28
7.0835e-28
6.65284e-28
6.10759e-28
3.64799e-28
3.27874e-28
2.37561e-28
2.228e-28
8.49113e-29
1.33705e-28
1.66677e-28
5.22564e-28
1.07693e-27
2.44515e-27
3.99318e-25
2.91512e-23
3.10878e-23
1.76012e-22
1.44443e-23
2.42358e-22
1.03944e-25
9.8232e-24
2.3352e-25
2.79511e-28
1.2065e-27
4.61318e-28
4.75432e-28
6.54759e-28
3.90473e-28
5.82913e-28
5.2281e-28
6.69645e-28
5.22524e-28
6.37352e-28
7.02957e-28
9.01238e-28
6.89995e-28
7.91e-28
8.29667e-28
9.3949e-28
7.83152e-28
8.71737e-28
8.02871e-28
9.17771e-28
9.17434e-28
1.04322e-27
9.40343e-28
1.0614e-27
9.66485e-28
1.08429e-27
1.13151e-27
1.2702e-27
1.04986e-27
1.13964e-27
1.05954e-27
1.16021e-27
1.10973e-27
1.16299e-27
1.05067e-27
9.15026e-28
7.06248e-28
8.37524e-28
8.59479e-28
7.9266e-28
5.06048e-28
5.21659e-28
4.36829e-28
4.88675e-28
2.80781e-28
4.62593e-28
5.89289e-28
1.31373e-27
4.08868e-27
1.30267e-26
4.41246e-25
3.94946e-23
5.26211e-23
2.56894e-22
1.45958e-23
3.48646e-22
1.61848e-25
1.34458e-23
4.56261e-25
4.26631e-28
1.82113e-27
4.19494e-28
5.37988e-28
7.3073e-28
4.18914e-28
6.31131e-28
5.77114e-28
7.29583e-28
5.67523e-28
7.05074e-28
7.80112e-28
9.93614e-28
7.43024e-28
8.72594e-28
9.07241e-28
1.02689e-27
8.3709e-28
9.48757e-28
8.66264e-28
1.00534e-27
9.91979e-28
1.14023e-27
1.01458e-27
1.16293e-27
1.05193e-27
1.1999e-27
1.24325e-27
1.39947e-27
1.13985e-27
1.26561e-27
1.17834e-27
1.31768e-27
1.25509e-27
1.38404e-27
1.25464e-27
1.11004e-27
8.58081e-28
1.01202e-27
1.14445e-27
1.07264e-27
7.46972e-28
8.6807e-28
8.39083e-28
1.06377e-27
8.22547e-28
1.4428e-27
2.12475e-27
4.46615e-27
1.59896e-26
4.94431e-26
4.62817e-25
5.23851e-23
9.1961e-23
3.39543e-22
1.99465e-23
4.68151e-22
4.61064e-25
1.71223e-23
8.1847e-25
8.77177e-28
2.89299e-27
3.27426e-28
6.12914e-28
8.19927e-28
4.50332e-28
6.82835e-28
6.4127e-28
7.93874e-28
6.19164e-28
7.80795e-28
8.70196e-28
1.09274e-27
8.02673e-28
9.62884e-28
9.96215e-28
1.11937e-27
8.96307e-28
1.03264e-27
9.3713e-28
1.10077e-27
1.07641e-27
1.24525e-27
1.09585e-27
1.27777e-27
1.1486e-27
1.33236e-27
1.37182e-27
1.54583e-27
1.24391e-27
1.41585e-27
1.32251e-27
1.50774e-27
1.43516e-27
1.66775e-27
1.47978e-27
1.41988e-27
1.08129e-27
1.24033e-27
1.57183e-27
1.50092e-27
1.15279e-27
1.4752e-27
1.61275e-27
2.24981e-27
2.14385e-27
3.96718e-27
6.52258e-27
1.38681e-26
4.93365e-26
1.40583e-25
4.48669e-25
6.93223e-23
1.67384e-22
4.10399e-22
3.04306e-23
6.03797e-22
1.39446e-24
2.09225e-23
1.37083e-24
2.56167e-27
4.33255e-27
2.17493e-28
6.90476e-28
9.37238e-28
4.79406e-28
7.43085e-28
7.11537e-28
8.6729e-28
6.76693e-28
8.66353e-28
9.69654e-28
1.20202e-27
8.68178e-28
1.06357e-27
1.09328e-27
1.21954e-27
9.61446e-28
1.12444e-27
1.01676e-27
1.20481e-27
1.16636e-27
1.3616e-27
1.18897e-27
1.40669e-27
1.25985e-27
1.48281e-27
1.5165e-27
1.71486e-27
1.36776e-27
1.5955e-27
1.49902e-27
1.73884e-27
1.65771e-27
2.0545e-27
1.7803e-27
1.77695e-27
1.41727e-27
1.55325e-27
2.18565e-27
2.16166e-27
1.8226e-27
2.50668e-27
3.00456e-27
4.48553e-27
5.04713e-27
9.59874e-27
1.69342e-26
3.62029e-26
1.23002e-25
3.18941e-25
4.30325e-25
9.28607e-23
2.82624e-22
4.5798e-22
5.60664e-23
7.42868e-22
3.019e-24
2.47542e-23
2.11119e-24
8.03798e-27
6.22951e-27
1.06136e-28
7.82278e-28
1.0846e-27
5.0572e-28
8.1149e-28
7.90482e-28
9.49774e-28
7.38155e-28
9.6371e-28
1.08322e-27
1.32071e-27
9.39094e-28
1.17639e-27
1.20285e-27
1.32726e-27
1.03076e-27
1.22713e-27
1.10406e-27
1.31822e-27
1.26966e-27
1.48927e-27
1.29142e-27
1.5557e-27
1.38635e-27
1.65492e-27
1.68847e-27
1.90914e-27
1.51317e-27
1.81467e-27
1.71478e-27
2.02251e-27
1.94435e-27
2.57806e-27
2.14563e-27
2.23238e-27
1.88967e-27
1.96658e-27
3.07197e-27
3.1724e-27
2.89779e-27
4.21891e-27
5.44401e-27
8.41721e-27
1.07589e-26
2.0746e-26
3.79333e-26
8.06021e-26
2.58322e-25
6.12745e-25
3.96454e-25
1.26227e-22
4.71765e-22
4.69429e-22
1.05265e-22
8.91905e-22
5.57081e-24
2.99899e-23
3.01098e-24
2.32173e-26
8.4846e-27
2.66558e-29
9.02775e-28
1.26292e-27
5.30111e-28
8.87646e-28
8.7907e-28
1.04066e-27
8.08895e-28
1.07183e-27
1.20713e-27
1.45148e-27
1.0188e-27
1.30194e-27
1.3211e-27
1.44505e-27
1.10803e-27
1.34015e-27
1.2022e-27
1.44225e-27
1.38192e-27
1.63276e-27
1.40943e-27
1.72412e-27
1.53416e-27
1.85161e-27
1.88317e-27
2.13702e-27
1.68904e-27
2.07694e-27
1.97721e-27
2.36127e-27
2.28749e-27
3.22721e-27
2.54845e-27
2.7014e-27
2.57782e-27
2.48123e-27
4.33252e-27
4.66979e-27
4.55875e-27
6.96151e-27
9.55651e-27
1.51168e-26
2.0872e-26
4.03789e-26
7.49491e-26
1.56256e-25
4.73019e-25
1.02548e-24
3.77376e-25
1.74796e-22
7.58441e-22
4.65744e-22
2.02127e-22
1.06361e-21
8.06942e-24
3.70305e-23
3.95999e-24
5.93096e-26
1.07927e-26
4.50338e-31
1.08132e-27
1.46191e-27
5.56635e-28
9.66296e-28
9.85798e-28
1.13549e-27
8.90626e-28
1.19045e-27
1.34998e-27
1.59111e-27
1.10907e-27
1.4405e-27
1.45553e-27
1.57039e-27
1.194e-27
1.46547e-27
1.31147e-27
1.57788e-27
1.51147e-27
1.79073e-27
1.54303e-27
1.91757e-27
1.70399e-27
2.07771e-27
2.11207e-27
2.39893e-27
1.89613e-27
2.38706e-27
2.28492e-27
2.75229e-27
2.6928e-27
4.00353e-27
3.05896e-27
3.61921e-27
3.62402e-27
3.12096e-27
6.13852e-27
6.76066e-27
7.00716e-27
1.11495e-26
1.60436e-26
2.58536e-26
3.70595e-26
7.18391e-26
1.32665e-25
2.70543e-25
7.71892e-25
1.53594e-24
3.84024e-25
2.43955e-22
1.18078e-21
4.39241e-22
3.55811e-22
1.31798e-21
1.0176e-23
4.83079e-23
4.89123e-24
1.39492e-25
1.1939e-26
5.52924e-30
1.30739e-27
1.7121e-27
5.73168e-28
1.06087e-27
1.10284e-27
1.24243e-27
9.83787e-28
1.32213e-27
1.50595e-27
1.74599e-27
1.21077e-27
1.5945e-27
1.60134e-27
1.70757e-27
1.29152e-27
1.60313e-27
1.4352e-27
1.72669e-27
1.65192e-27
1.9681e-27
1.70053e-27
2.13537e-27
1.90277e-27
2.33554e-27
2.37424e-27
2.70767e-27
2.15111e-27
2.76506e-27
2.6781e-27
3.27072e-27
3.28317e-27
5.22216e-27
4.42236e-27
4.50348e-27
4.7388e-27
4.23708e-27
8.43384e-27
9.7078e-27
1.04982e-26
1.71529e-26