/*--------------------------------*- C++ -*----------------------------------*\
| =========                 |                                                 |
| \\      /  F ield         | OpenFOAM: The Open Source CFD Toolbox           |
|  \\    /   O peration     | Version:  2312                                  |
|   \\  /    A nd           | Website:  www.openfoam.com                      |
|    \\/     M anipulation  |                                                 |
\*---------------------------------------------------------------------------*/
FoamFile
{
    version     2.0;
    format      ascii;
    arch        "LSB;label=32;scalar=64";
    class       volScalarField;
    location    "320";
    object      pMean;
}
// * * * * * * * * * * * * * * * * * * * * * * * * * * * * * * * * * * * * * //

dimensions      [0 2 -2 0 0 0 0];

internalField   nonuniform List<scalar> 
144000
(
1.34737e-09
5.76786e-10
-7.57734e-10
-1.25918e-09
-1.01081e-09
-6.53134e-10
-3.42255e-10
-1.72981e-10
-3.20867e-11
8.42622e-12
6.8743e-11
6.28657e-11
1.00729e-10
7.95216e-11
1.11809e-10
8.58397e-11
1.12932e-10
7.72716e-11
1.06039e-10
7.31289e-11
1.03614e-10
6.53112e-11
9.72779e-11
5.94978e-11
9.4403e-11
5.54423e-11
9.12868e-11
4.79844e-11
8.60027e-11
4.29492e-11
8.44791e-11
4.07324e-11
8.21174e-11
3.17218e-11
7.51568e-11
2.61783e-11
7.25429e-11
2.21727e-11
6.89721e-11
1.47688e-11
6.22413e-11
1.02375e-11
6.03629e-11
3.66204e-12
5.2355e-11
-5.40548e-12
4.33636e-11
-6.4755e-12
4.02623e-11
-2.29432e-12
3.87708e-11
1.51797e-11
3.63912e-11
3.65419e-11
1.07165e-11
7.47934e-11
3.44988e-11
2.28752e-10
-1.73183e-09
-4.2291e-10
1.39721e-09
6.08585e-10
-7.70755e-10
-1.26911e-09
-1.01349e-09
-6.531e-10
-3.42512e-10
-1.73417e-10
-3.28224e-11
7.75102e-12
6.80119e-11
6.23592e-11
1.00175e-10
7.91691e-11
1.11383e-10
8.56388e-11
1.12591e-10
7.70873e-11
1.05727e-10
7.30533e-11
1.03361e-10
6.52487e-11
9.70332e-11
5.95027e-11
9.41891e-11
5.54839e-11
9.10831e-11
4.80312e-11
8.57942e-11
4.30345e-11
8.42868e-11
4.08589e-11
8.19225e-11
3.18319e-11
7.49381e-11
2.63464e-11
7.23364e-11
2.2368e-11
6.8756e-11
1.49591e-11
6.19157e-11
1.03663e-11
6.00162e-11
3.95888e-12
5.20976e-11
-5.05117e-12
4.3069e-11
-6.00801e-12
3.99833e-11
-1.77949e-12
3.84951e-11
1.57941e-11
3.61739e-11
3.70761e-11
1.04109e-11
7.41738e-11
3.94778e-11
2.49772e-10
-1.7613e-09
-4.68284e-10
1.46636e-09
6.11974e-10
-7.92966e-10
-1.27003e-09
-1.01248e-09
-6.51673e-10
-3.41844e-10
-1.7355e-10
-3.32515e-11
6.81255e-12
6.71913e-11
6.14587e-11
9.95801e-11
7.84341e-11
1.10939e-10
8.51172e-11
1.12358e-10
7.65938e-11
1.05479e-10
7.26809e-11
1.03262e-10
6.49041e-11
9.69335e-11
5.92301e-11
9.41674e-11
5.52547e-11
9.10998e-11
4.77957e-11
8.57954e-11
4.28362e-11
8.43289e-11
4.07135e-11
8.2018e-11
3.16448e-11
7.49726e-11
2.62164e-11
7.24262e-11
2.22647e-11
6.88607e-11
1.48584e-11
6.18552e-11
1.00934e-11
5.99181e-11
3.87806e-12
5.22266e-11
-4.9893e-12
4.31207e-11
-5.84241e-12
4.01072e-11
-1.58604e-12
3.85921e-11
1.60323e-11
3.64473e-11
3.71247e-11
1.09831e-11
7.0511e-11
4.41663e-11
2.83053e-10
-1.81474e-09
-4.96069e-10
1.53747e-09
5.56433e-10
-8.17604e-10
-1.25238e-09
-1.0065e-09
-6.48913e-10
-3.40002e-10
-1.72715e-10
-3.30753e-11
6.00001e-12
6.62319e-11
6.0319e-11
9.87843e-11
7.74948e-11
1.10298e-10
8.44402e-11
1.12038e-10
7.59543e-11
1.0507e-10
7.21864e-11
1.03101e-10
6.44628e-11
9.67372e-11
5.88765e-11
9.40874e-11
5.49782e-11
9.11002e-11
4.7509e-11
8.57458e-11
4.25906e-11
8.43396e-11
4.05481e-11
8.214e-11
3.14321e-11
7.49662e-11
2.60568e-11
7.25156e-11
2.21573e-11
6.89917e-11
1.47853e-11
6.17474e-11
9.75373e-12
5.97105e-11
3.66072e-12
5.24156e-11
-4.91666e-12
4.31903e-11
-5.71627e-12
4.03655e-11
-1.52517e-12
3.89131e-11
1.58959e-11
3.74931e-11
3.60083e-11
1.35646e-11
6.13525e-11
5.6583e-11
3.1122e-10
-1.88408e-09
-4.74384e-10
1.59844e-09
4.15741e-10
-8.40798e-10
-1.20166e-09
-9.92655e-10
-6.45696e-10
-3.37589e-10
-1.7086e-10
-3.22019e-11
5.39945e-12
6.51098e-11
5.89778e-11
9.77365e-11
7.63594e-11
1.09399e-10
8.36226e-11
1.11568e-10
7.51948e-11
1.04438e-10
7.15843e-11
1.02816e-10
6.3961e-11
9.63708e-11
5.8471e-11
9.38844e-11
5.46895e-11
9.10107e-11
4.722e-11
8.55664e-11
4.23384e-11
8.42418e-11
4.04219e-11
8.22114e-11
3.12592e-11
7.48314e-11
2.5926e-11
7.25234e-11
2.2111e-11
6.90696e-11
1.48407e-11
6.15075e-11
9.50584e-12
5.92394e-11
3.3229e-12
5.25381e-11
-4.71974e-12
4.31746e-11
-5.59992e-12
4.06771e-11
-1.61753e-12
3.94918e-11
1.52099e-11
3.95426e-11
3.3211e-11
1.89886e-11
4.59807e-11
7.92638e-11
3.26129e-10
-1.96526e-09
-3.79736e-10
1.65243e-09
1.77775e-10
-8.66032e-10
-1.1117e-09
-9.67823e-10
-6.43077e-10
-3.35434e-10
-1.68275e-10
-3.07822e-11
4.94807e-12
6.37674e-11
5.74025e-11
9.64133e-11
7.50186e-11
1.08236e-10
8.26536e-11
1.10938e-10
7.43398e-11
1.03588e-10
7.0881e-11
1.02394e-10
6.34144e-11
9.58357e-11
5.80159e-11
9.35521e-11
5.43973e-11
9.08208e-11
4.69419e-11
8.52463e-11
4.20897e-11
8.40264e-11
4.03394e-11
8.22075e-11
3.11435e-11
7.45532e-11
2.58264e-11
7.24279e-11
2.21403e-11
6.9073e-11
1.50708e-11
6.11219e-11
9.38901e-12
5.84166e-11
2.80859e-12
5.25349e-11
-4.38524e-12
4.3073e-11
-5.5187e-12
4.10623e-11
-1.9443e-12
4.04235e-11
1.37442e-11
4.28864e-11
2.82745e-11
2.79892e-11
2.41127e-11
1.12641e-10
3.26156e-10
-2.06192e-09
-2.02762e-10
1.7094e-09
-1.56088e-10
-9.01744e-10
-9.81419e-10
-9.28993e-10
-6.4139e-10
-3.34329e-10
-1.65276e-10
-2.89529e-11
4.52843e-12
6.21131e-11
5.55224e-11
9.47634e-11
7.34538e-11
1.06798e-10
8.15194e-11
1.10136e-10
7.34033e-11
1.02533e-10
7.00853e-11
1.01836e-10
6.28466e-11
9.51419e-11
5.75252e-11
9.30949e-11
5.41177e-11
9.0524e-11
4.66953e-11
8.47897e-11
4.18599e-11
8.36901e-11
4.03118e-11
8.21178e-11
3.11054e-11
7.41345e-11
2.57698e-11
7.22228e-11
2.22572e-11
6.90004e-11
1.54967e-11
6.06551e-11
9.43516e-12
5.71194e-11
2.04718e-12
5.24112e-11
-3.9098e-12
4.29046e-11
-5.53364e-12
4.1552e-11
-2.60566e-12
4.18227e-11
1.13342e-11
4.76948e-11
2.09639e-11
4.06557e-11
-3.2767e-12
1.54459e-10
3.14065e-10
-2.17571e-09
5.24395e-11
1.7777e-09
-5.68383e-10
-9.55237e-10
-8.15609e-10
-8.74035e-10
-6.40468e-10
-3.34905e-10
-1.62168e-10
-2.68314e-11
4.0595e-12
6.00832e-11
5.32676e-11
9.27187e-11
7.16307e-11
1.05049e-10
8.01943e-11
1.09122e-10
7.23835e-11
1.01278e-10
6.91986e-11
1.01129e-10
6.22687e-11
9.42965e-11
5.70119e-11
9.25124e-11
5.38628e-11
9.01181e-11
4.64981e-11
8.42034e-11
4.16651e-11
8.32344e-11
4.03527e-11
8.19304e-11
3.11607e-11
7.35813e-11
2.57618e-11
7.19112e-11
2.24611e-11
6.88702e-11
1.61245e-11
6.02309e-11
9.62139e-12
5.51767e-11
9.55831e-13
5.2179e-11
-3.31303e-12
4.27099e-11
-5.69576e-12
4.21862e-11
-3.67102e-12
4.37434e-11
7.91817e-12
5.39086e-11
1.15812e-11
5.62996e-11
-3.38942e-11
1.99784e-10
2.95685e-10
-2.30336e-09
3.64807e-10
1.86323e-09
-1.03035e-09
-1.03186e-09
-6.24195e-10
-8.02176e-10
-6.39548e-10
-3.3766e-10
-1.59303e-10
-2.4547e-11
3.49213e-12
5.76103e-11
5.06076e-11
9.0247e-11
6.95195e-11
1.02965e-10
7.86507e-11
1.07853e-10
7.12679e-11
9.98151e-11
6.82168e-11
1.00246e-10
6.16778e-11
9.32966e-11
5.64812e-11
9.17982e-11
5.36348e-11
8.95948e-11
4.63605e-11
8.34909e-11
4.15169e-11
8.26634e-11
4.04681e-11
8.16382e-11
3.13171e-11
7.29111e-11
2.58051e-11
7.15028e-11
2.27356e-11
6.87196e-11
1.69361e-11
6.0055e-11
9.90443e-12
5.2351e-11
-5.28965e-13
5.18809e-11
-2.61759e-12
4.25287e-11
-6.03482e-12
4.29764e-11
-5.12975e-12
4.61598e-11
3.63323e-12
6.12025e-11
8.06818e-13
7.35468e-11
-6.47455e-11
2.42999e-10
2.77529e-10
-2.4381e-09
7.03376e-10
1.96582e-09
-1.50908e-09
-1.13341e-09
-4.20099e-10
-7.14286e-10
-6.37557e-10
-3.42833e-10
-1.5704e-10
-2.22063e-11
2.81246e-12
5.47115e-11
4.75486e-11
8.73407e-11
6.71182e-11
1.00542e-10
7.68879e-11
1.06305e-10
7.00428e-11
9.81458e-11
6.71357e-11
9.91707e-11
6.10664e-11
9.21425e-11
5.5931e-11
9.09446e-11
5.34365e-11
8.89433e-11
4.62755e-11
8.2656e-11
4.14159e-11
8.19788e-11
4.06583e-11
8.12329e-11
3.15742e-11
7.21359e-11
2.58963e-11
7.10086e-11
2.30664e-11
6.85798e-11
1.79055e-11
6.03812e-11
1.01807e-11
4.83519e-11
-2.45614e-12
5.15673e-11
-1.85062e-12
4.23938e-11
-6.54746e-12
4.3902e-11
-6.91498e-12
4.89436e-11
-1.21579e-12
6.90232e-11
-1.03198e-11
9.06816e-11
-9.26997e-11
2.79173e-10
2.64336e-10
-2.56933e-09
1.03854e-09
2.0796e-09
-1.96901e-09
-1.258e-09
-2.17454e-10
-6.12782e-10
-6.33237e-10
-3.5039e-10
-1.5574e-10
-1.99798e-11
2.02684e-12
5.14172e-11
4.41167e-11
8.40135e-11
6.44406e-11
9.77932e-11
7.4907e-11
1.0447e-10
6.87071e-11
9.62725e-11
6.59576e-11
9.7894e-11
6.04257e-11
9.08345e-11
5.53601e-11
8.99461e-11
5.32579e-11
8.81573e-11
4.62397e-11
8.1706e-11
4.13652e-11
8.11807e-11
4.09181e-11
8.07103e-11
3.1921e-11
7.12721e-11
2.60367e-11
7.0433e-11
2.34253e-11
6.85021e-11
1.9004e-11
6.15206e-11
1.02062e-11
4.28382e-11
-4.84218e-12
5.12827e-11
-1.02431e-12
4.22962e-11
-7.19113e-12
4.48841e-11
-8.89482e-12
5.186e-11
-6.21833e-12
7.66953e-11
-2.07003e-11
1.05995e-10
-1.15147e-10
3.04892e-10
2.58616e-10
-2.68456e-09
1.34285e-09
2.19488e-09
-2.38226e-09
-1.39957e-09
-2.87682e-11
-5.01294e-10
-6.25361e-10
-3.60014e-10
-1.55746e-10
-1.8035e-11
1.14076e-12
4.77777e-11
4.03519e-11
8.02892e-11
6.15086e-11
9.47302e-11
7.27233e-11
1.02348e-10
6.72617e-11
9.42057e-11
6.46906e-11
9.64108e-11
5.97478e-11
8.93768e-11
5.47668e-11
8.87998e-11
5.30948e-11
8.72338e-11
4.62454e-11
8.06459e-11
4.13613e-11
8.02703e-11
4.12382e-11
8.00748e-11
3.23472e-11
7.03259e-11
2.62225e-11
6.9783e-11
2.37829e-11
6.85279e-11
2.01747e-11
6.3999e-11
9.75546e-12
3.53218e-11
-7.63141e-12
5.10617e-11
-1.6013e-13
4.21962e-11
-7.88592e-12
4.58429e-11
-1.08922e-11
5.4625e-11
-1.09086e-11
8.35447e-11
-2.92844e-11
1.18086e-10
-1.30268e-10
3.18501e-10
2.60868e-10
-2.77284e-09
1.59523e-09
2.3005e-09
-2.72697e-09
-1.54953e-09
1.35553e-10
-3.84242e-10
-6.12857e-10
-3.71087e-10
-1.57325e-10
-1.65889e-11
1.55023e-13
4.38556e-11
3.63051e-11
7.62046e-11
5.83446e-11
9.13804e-11
7.03499e-11
9.99505e-11
6.57125e-11
9.19623e-11
6.33453e-11
9.47246e-11
5.90292e-11
8.77779e-11
5.41547e-11
8.75103e-11
5.29395e-11
8.61784e-11
4.6284e-11
7.94822e-11
4.1399e-11
7.92499e-11
4.16094e-11
7.93235e-11
3.2843e-11
6.93061e-11
2.6453e-11
6.9057e-11
2.41284e-11
6.86538e-11
2.14096e-11
6.84176e-11
8.52951e-12
2.52985e-11
-1.0657e-11
5.09365e-11
7.47077e-13
4.20498e-11
-8.54642e-12
4.6615e-11
-1.26902e-11
5.69532e-11
-1.48408e-11
8.89651e-11
-3.52968e-11
1.26022e-10
-1.37205e-10
3.19935e-10
2.69543e-10
-2.82552e-09
1.78235e-09
2.3858e-09
-2.99023e-09
-1.69864e-09
2.68312e-10
-2.66415e-10
-5.94966e-10
-3.82809e-10
-1.60638e-10
-1.58481e-11
-9.4216e-13
3.97164e-11
3.20353e-11
7.17989e-11
5.49863e-11
8.77764e-11
6.78151e-11
9.72949e-11
6.40705e-11
8.95623e-11
6.19323e-11
9.28438e-11
5.82689e-11
8.60496e-11
5.35281e-11
8.60837e-11
5.27864e-11
8.49965e-11
4.63478e-11
7.82227e-11
4.1475e-11
7.81264e-11
4.20229e-11
7.84552e-11
3.34e-11
6.82136e-11
2.67428e-11
6.82322e-11
2.44937e-11
6.8777e-11
2.27723e-11
7.52036e-11
5.53583e-12
1.23505e-11
-1.3642e-11
5.0967e-11
1.74981e-12
4.18329e-11
-9.06322e-12
4.70888e-11
-1.40838e-11
5.85924e-11
-1.76331e-11
9.25167e-11
-3.82659e-11
1.29398e-10
-1.35998e-10
3.10568e-10
2.8193e-10
-2.83738e-09
1.89961e-09
2.44106e-09
-3.16584e-09
-1.83728e-09
3.65543e-10
-1.52571e-10
-5.71371e-10
-3.94304e-10
-1.65735e-10
-1.60268e-11
-2.18268e-12
3.54243e-11
2.75992e-11
6.71133e-11
5.14613e-11
8.39471e-11
6.51413e-11
9.44024e-11
6.23442e-11
8.70234e-11
6.04636e-11
9.07833e-11
5.74657e-11
8.42044e-11
5.28896e-11
8.45293e-11
5.2631e-11
8.36954e-11
4.64308e-11
7.6878e-11
4.15865e-11
7.69067e-11
4.24717e-11
7.74731e-11
3.40138e-11
6.70479e-11
2.71052e-11
6.72938e-11
2.49085e-11
6.88097e-11
2.41168e-11
8.57686e-11
-2.2608e-13
-4.74649e-12
-1.6651e-11
5.10003e-11
2.83617e-12
4.14998e-11
-9.32337e-12
4.71556e-11
-1.49065e-11
5.93456e-11
-1.90414e-11
9.3958e-11
-3.80323e-11
1.28295e-10
-1.27407e-10
2.92441e-10
2.95088e-10
-2.80614e-09
1.948e-09
2.45893e-09
-3.25555e-09
-1.95664e-09
4.26347e-10
-4.70316e-11
-5.42216e-10
-4.04682e-10
-1.72553e-10
-1.733e-11
-3.61856e-12
3.10339e-11
2.30515e-11
6.21884e-11
4.77926e-11
7.9921e-11
6.23506e-11
9.12991e-11
6.05421e-11
8.43634e-11
5.89506e-11
8.856e-11
5.66204e-11
8.2255e-11
5.22423e-11
8.28583e-11
5.24687e-11
8.22852e-11
4.65288e-11
7.54583e-11
4.17302e-11
7.55999e-11
4.29469e-11
7.63857e-11
3.46737e-11
6.58207e-11
2.753e-11
6.62635e-11
2.53533e-11
6.87772e-11
2.48616e-11
1.03169e-10
-2.50329e-12
-2.69663e-11
-1.987e-11
5.04022e-11
3.88169e-12
4.09201e-11
-9.27095e-12
4.67079e-11
-1.50475e-11
5.9087e-11
-1.89433e-11
9.3236e-11
-3.47081e-11
1.23185e-10
-1.12651e-10
2.68134e-10
3.06304e-10
-2.73259e-09
1.93335e-09
2.43399e-09
-3.26486e-09
-2.04912e-09
4.52278e-10
4.66325e-11
-5.081e-10
-4.13147e-10
-1.80927e-10
-1.99326e-11
-5.31819e-12
2.6591e-11
1.84438e-11
5.70612e-11
4.40016e-11
7.57251e-11
5.9465e-11
8.80112e-11
5.86738e-11
8.15998e-11
5.74028e-11
8.61933e-11
5.57342e-11
8.02125e-11
5.15878e-11
8.10824e-11
5.2296e-11
8.07787e-11
4.66375e-11
7.39749e-11
4.19023e-11
7.42142e-11
4.34437e-11
7.51998e-11
3.53814e-11
6.45193e-11
2.80551e-11
6.50627e-11
2.60377e-11
6.81858e-11
2.55947e-11
1.13478e-10
-3.55595e-14
-4.08355e-11
-2.14613e-11
4.92457e-11
4.98058e-12
4.01168e-11
-8.81891e-12
4.57029e-11
-1.44362e-11
5.77726e-11
-1.73354e-11
9.04671e-11
-2.86116e-11
1.1484e-10
-9.31771e-11
2.40191e-10
3.13376e-10
-2.61934e-09
1.86393e-09
2.36463e-09
-3.20299e-09
-2.10974e-09
4.46736e-10
1.25714e-10
-4.69943e-10
-4.19017e-10
-1.90591e-10
-2.39576e-11
-7.35638e-12
2.21337e-11
1.38246e-11
5.177e-11
4.01072e-11
7.13858e-11
5.65021e-11
8.45633e-11
5.67484e-11
7.87498e-11
5.58291e-11
8.37011e-11
5.4809e-11
7.80925e-11
5.0928e-11
7.92174e-11
5.21096e-11
7.91875e-11
4.67528e-11
7.24376e-11
4.21008e-11
7.27577e-11
4.39596e-11
7.39162e-11
3.61454e-11
6.31218e-11
2.87368e-11
6.35724e-11
2.72108e-11
6.63986e-11
2.74402e-11
9.96438e-11
1.51597e-12
-2.80348e-11
-1.91869e-11
4.79622e-11
6.32675e-12
3.91679e-11
-7.88216e-12
4.41524e-11
-1.30459e-11
5.54514e-11
-1.43123e-11
8.59135e-11
-2.02348e-11
1.04184e-10
-7.05232e-11
2.10767e-10
3.14738e-10
-2.47127e-09
1.7499e-09
2.25132e-09
-3.08155e-09
-2.13543e-09
4.14479e-10
1.88461e-10
-4.28953e-10
-4.21795e-10
-2.01197e-10
-2.94741e-11
-9.81307e-12
1.76868e-11
9.23697e-12
4.63516e-11
3.61299e-11
6.6926e-11
5.3477e-11
8.09788e-11
5.47733e-11
7.58291e-11
5.42363e-11
8.11017e-11
5.38464e-11
7.59056e-11
5.02637e-11
7.72755e-11
5.19064e-11
7.75237e-11
4.68709e-11
7.08571e-11
4.23212e-11
7.12423e-11
4.4486e-11
7.25507e-11
3.69455e-11
6.16585e-11
2.95237e-11
6.19047e-11
2.86472e-11
6.39881e-11
2.93053e-11
7.88056e-11
6.96515e-12
-6.60989e-12
-1.49104e-11
4.6111e-11
7.73577e-12
3.79527e-11
-6.50101e-12
4.20539e-11
-1.0935e-11
5.2218e-11
-1.00736e-11
7.99425e-11
-1.0173e-11
9.214e-11
-4.61905e-11
1.81732e-10
3.09587e-10
-2.29407e-09
1.60197e-09
2.09707e-09
-2.91275e-09
-2.12542e-09
3.60974e-10
2.34144e-10
-3.86463e-10
-4.21213e-10
-2.12379e-10
-3.64998e-11
-1.27731e-11
1.32572e-11
4.71383e-12
4.08381e-11
3.20811e-11
6.23636e-11
5.04019e-11
7.7281e-11
5.2755e-11
7.28506e-11
5.26292e-11
7.84124e-11
5.28476e-11
7.36623e-11
4.95947e-11
7.52687e-11
5.16843e-11
7.57993e-11
4.69885e-11
6.92435e-11
4.2559e-11
6.96794e-11
4.50157e-11
7.11184e-11
3.77674e-11
6.01567e-11
3.03676e-11
6.01677e-11
3.01021e-11
6.1536e-11
3.04598e-11
6.49787e-11
1.53863e-11
9.10178e-12
-1.06056e-11
4.36072e-11
9.10858e-12
3.64192e-11
-4.7234e-12
3.94513e-11
-8.19269e-12
4.82379e-11
-4.86806e-12
7.29737e-11
9.49444e-13
7.9632e-11
-2.15028e-11
1.546e-10
2.97854e-10
-2.09432e-09
1.43047e-09
1.90552e-09
-2.70869e-09
-2.08e-09
2.92162e-10
2.62831e-10
-3.43899e-10
-4.17246e-10
-2.23772e-10
-4.49989e-11
-1.63169e-11
8.83531e-12
2.79242e-13
3.52573e-11
2.79712e-11
5.77137e-11
4.72856e-11
7.34912e-11
5.06995e-11
6.98251e-11
5.10106e-11
7.56492e-11
5.18128e-11
7.13716e-11
4.89193e-11
7.32083e-11
5.14415e-11
7.40261e-11
4.71022e-11
6.76047e-11
4.28096e-11
6.80772e-11
4.55453e-11
6.96298e-11
3.8611e-11
5.86154e-11
3.12735e-11
5.83474e-11
3.15787e-11
5.90106e-11
3.14059e-11
5.59518e-11
2.05048e-11
1.99689e-11
-6.00115e-12
4.10784e-11
1.05921e-11
3.46492e-11
-2.56106e-12
3.64513e-11
-4.92829e-12
4.37041e-11
1.02677e-12
6.544e-11
1.25414e-11
6.74526e-11
2.42928e-12
1.30121e-10
2.80173e-10
-1.87795e-09
1.24424e-09
1.68178e-09
-2.48137e-09
-2.00137e-09
2.1386e-10
2.75495e-10
-3.02562e-10
-4.10056e-10
-2.35025e-10
-5.48756e-11
-2.0505e-11
4.40589e-12
-4.04943e-12
2.96367e-11
2.38113e-11
5.29905e-11
4.41343e-11
6.96275e-11
4.8612e-11
6.67632e-11
4.93812e-11
7.28267e-11
5.07439e-11
6.90423e-11
4.82356e-11
7.11051e-11
5.11758e-11
7.22152e-11
4.72089e-11
6.59493e-11
4.30679e-11
6.64463e-11
4.60677e-11
6.80996e-11
3.94647e-11
5.7051e-11
3.22173e-11
5.64766e-11
3.30282e-11
5.64999e-11
3.2333e-11
4.95924e-11
2.34388e-11
2.76681e-11
-9.45407e-13
3.87668e-11
1.22186e-11
3.26807e-11
-7.88008e-14
3.31605e-11
-1.27832e-12
3.88214e-11
7.31946e-12
5.77678e-11
2.40675e-11
5.62612e-11
2.47836e-11
1.08677e-10
2.57436e-10
-1.65071e-09
1.0513e-09
1.43147e-09
-2.24228e-09
-1.89318e-09
1.31632e-10
2.73864e-10
-2.6354e-10
-3.99969e-10
-2.45831e-10
-6.59825e-11
-2.53749e-11
-5.12162e-14
-8.26279e-12
2.40006e-11
1.96109e-11
4.82082e-11
4.09508e-11
6.57065e-11
4.64983e-11
6.36752e-11
4.77394e-11
6.99571e-11
4.96424e-11
6.66827e-11
4.754e-11
6.89689e-11
5.0884e-11
7.03766e-11
4.73058e-11
6.42863e-11
4.33279e-11
6.47987e-11
4.6573e-11
6.65432e-11
4.03146e-11
5.54868e-11
3.31616e-11
5.46088e-11
3.43788e-11
5.41381e-11
3.31853e-11
4.49974e-11
2.52841e-11
3.306e-11
4.31258e-12
3.66629e-11
1.39396e-11
3.05338e-11
2.62902e-12
2.96866e-11
2.6116e-12
3.38163e-11
1.37325e-11
5.03459e-11
3.50751e-11
4.65365e-11
4.49902e-11
9.0243e-11
2.30462e-10
-1.41766e-09
8.59265e-10
1.16115e-09
-2.00271e-09
-1.76046e-09
5.04675e-11
2.60349e-10
-2.27599e-10
-3.87404e-10
-2.55965e-10
-7.81701e-11
-3.09554e-11
-4.56782e-12
-1.23665e-11
1.83623e-11
1.53727e-11
4.33752e-11
3.77302e-11
6.17376e-11
4.43622e-11
6.05695e-11
4.608e-11
6.70481e-11
4.85094e-11
6.42995e-11
4.68273e-11
6.68079e-11
5.05619e-11
6.85177e-11
4.73902e-11
6.26243e-11
4.35835e-11
6.31449e-11
4.7052e-11
6.4973e-11
4.11512e-11
5.39411e-11
3.40808e-11
5.2776e-11
3.56008e-11
5.19691e-11
3.39262e-11
4.167e-11
2.66187e-11
3.66404e-11
9.49482e-12
3.47407e-11
1.57255e-11
2.82615e-11
5.47442e-12
2.61526e-11
6.60347e-12
2.89077e-11
2.00173e-11
4.34926e-11
4.52279e-11
3.86224e-11
6.2754e-11
7.46831e-11
1.99742e-10
-1.18358e-09
6.75576e-10
8.78205e-10
-1.77157e-09
-1.60895e-09
-2.59049e-11
2.37581e-10
-1.95233e-10
-3.72803e-10
-2.65261e-10
-9.12973e-11
-3.72702e-11
-9.18221e-12
-1.63698e-11
1.27266e-11
1.10966e-11
3.84925e-11
3.44655e-11
5.77242e-11
4.2209e-11
5.74513e-11
4.43996e-11
6.4103e-11
4.73479e-11
6.1896e-11
4.60935e-11
6.46254e-11
5.02068e-11
6.66432e-11
4.74616e-11
6.0968e-11
4.383e-11
6.14916e-11
4.74976e-11
6.33978e-11
4.19704e-11
5.24259e-11
3.49587e-11
5.09892e-11
3.6694e-11
4.99854e-11
3.45687e-11
3.92523e-11
2.77243e-11
3.87862e-11
1.44356e-11
3.29988e-11
1.75661e-11
2.59344e-11
8.37182e-12
2.26708e-11
1.05639e-11
2.42774e-11
2.59607e-11
3.74527e-11
5.43001e-11
3.27337e-11
7.79456e-11
6.17581e-11
1.65731e-10
-9.5296e-10
5.06204e-10
1.3501e-09
5.7988e-10
-7.55561e-10
-1.25775e-09
-1.00946e-09
-6.50447e-10
-3.38905e-10
-1.69892e-10
-2.98517e-11
9.55431e-12
6.89928e-11
6.25066e-11
1.00008e-10
7.85458e-11
1.10729e-10
8.46883e-11
1.11943e-10
7.65006e-11
1.05472e-10
7.26608e-11
1.03313e-10
6.51134e-11
9.71747e-11
5.93805e-11
9.43367e-11
5.53059e-11
9.1265e-11
4.79705e-11
8.60739e-11
4.29181e-11
8.45326e-11
4.0611e-11
8.21077e-11
3.14932e-11
7.51374e-11
2.5922e-11
7.26361e-11
2.19384e-11
6.92684e-11
1.48433e-11
6.31305e-11
1.13584e-11
6.0762e-11
4.13056e-12
5.2339e-11
-5.81021e-12
4.26222e-11
-7.23137e-12
3.92661e-11
-3.24891e-12
3.75039e-11
1.39625e-11
3.49261e-11
3.54571e-11
9.29407e-12
7.4276e-11
3.41976e-11
2.27054e-10
-1.73445e-09
-4.24553e-10
1.40002e-09
6.11966e-10
-7.68655e-10
-1.26773e-09
-1.0121e-09
-6.5039e-10
-3.39134e-10
-1.70313e-10
-3.0582e-11
8.87657e-12
6.82557e-11
6.19913e-11
9.94447e-11
7.81826e-11
1.10292e-10
8.44741e-11
1.11596e-10
7.63109e-11
1.05157e-10
7.25793e-11
1.03058e-10
6.50507e-11
9.69288e-11
5.93831e-11
9.41212e-11
5.5345e-11
9.10638e-11
4.80224e-11
8.58682e-11
4.3007e-11
8.43409e-11
4.07395e-11
8.19122e-11
3.16081e-11
7.49154e-11
2.60954e-11
7.24248e-11
2.21422e-11
6.90479e-11
1.50543e-11
6.28518e-11
1.15565e-11
6.04811e-11
4.44666e-12
5.20799e-11
-5.45793e-12
4.2326e-11
-6.76849e-12
3.89837e-11
-2.73803e-12
3.72214e-11
1.45689e-11
3.47077e-11
3.59868e-11
8.9944e-12
7.36728e-11
3.92048e-11
2.48156e-10
-1.76393e-09
-4.70164e-10
1.46943e-09
6.16025e-10
-7.9097e-10
-1.26881e-09
-1.01108e-09
-6.48939e-10
-3.38422e-10
-1.70424e-10
-3.09926e-11
7.94033e-12
6.74281e-11
6.1079e-11
9.88383e-11
7.74344e-11
1.09835e-10
8.39338e-11
1.11349e-10
7.58081e-11
1.04904e-10
7.21986e-11
1.02956e-10
6.47065e-11
9.68296e-11
5.91074e-11
9.40984e-11
5.51114e-11
9.10833e-11
4.77936e-11
8.58765e-11
4.2813e-11
8.43864e-11
4.05956e-11
8.20089e-11
3.1426e-11
7.49493e-11
2.59694e-11
7.25103e-11
2.20448e-11
6.91509e-11
1.49597e-11
6.28573e-11
1.13733e-11
6.04989e-11
4.43442e-12
5.22128e-11
-5.40023e-12
4.23728e-11
-6.60618e-12
3.91012e-11
-2.54644e-12
3.73141e-11
1.47992e-11
3.49804e-11
3.60311e-11
9.56462e-12
6.99947e-11
4.39493e-11
2.81797e-10
-1.81752e-09
-4.98759e-10
1.54074e-09
5.61467e-10
-8.15671e-10
-1.2514e-09
-1.00512e-09
-6.46149e-10
-3.36534e-10
-1.69545e-10
-3.07876e-11
7.13676e-12
6.64643e-11
5.99274e-11
9.80304e-11
7.64802e-11
1.09179e-10
8.3234e-11
1.11009e-10
7.51551e-11
1.04488e-10
7.16932e-11
1.02791e-10
6.42657e-11
9.66355e-11
5.87509e-11
9.40173e-11
5.48289e-11
9.10837e-11
4.75148e-11
8.58361e-11
4.25742e-11
8.44026e-11
4.0433e-11
8.2131e-11
3.12204e-11
7.49405e-11
2.58164e-11
7.25927e-11
2.19433e-11
6.92757e-11
1.48684e-11
6.28385e-11
1.11225e-11
6.04633e-11
4.37867e-12
5.24258e-11
-5.3381e-12
4.24441e-11
-6.48239e-12
3.93568e-11
-2.49129e-12
3.76346e-11
1.46405e-11
3.6037e-11
3.49009e-11
1.21534e-11
6.08085e-11
5.63933e-11
3.10483e-10
-1.88695e-09
-4.78167e-10
1.60149e-09
4.21703e-10
-8.38842e-10
-1.20091e-09
-9.91271e-10
-6.42937e-10
-3.34048e-10
-1.67624e-10
-2.98619e-11
6.55656e-12
6.53447e-11
5.85783e-11
9.69718e-11
7.53304e-11
1.08265e-10
8.23914e-11
1.10513e-10
7.43781e-11
1.03847e-10
7.10783e-11
1.02497e-10
6.37648e-11
9.62725e-11
5.83439e-11
9.38121e-11
5.4533e-11
9.09894e-11
4.72348e-11
8.56673e-11
4.23336e-11
8.43095e-11
4.03143e-11
8.21978e-11
3.10608e-11
7.47979e-11
2.57e-11
7.25834e-11
2.19084e-11
6.9335e-11
1.48712e-11
6.27206e-11
1.09081e-11
6.02163e-11
4.34112e-12
5.26075e-11
-5.15742e-12
4.24316e-11
-6.36736e-12
3.96746e-11
-2.58851e-12
3.82193e-11
1.3941e-11
3.80945e-11
3.20797e-11
1.75743e-11
4.54089e-11
7.90896e-11
3.25849e-10
-1.96808e-09
-3.8461e-10
1.65522e-09
1.84431e-10
-8.63988e-10
-1.11115e-09
-9.66434e-10
-6.403e-10
-3.3182e-10
-1.64959e-10
-2.83861e-11
6.1326e-12
6.40089e-11
5.6998e-11
9.56416e-11
7.39798e-11
1.07091e-10
8.13998e-11
1.09854e-10
7.35032e-11
1.02986e-10
7.03621e-11
1.02062e-10
6.32188e-11
9.57417e-11
5.78895e-11
9.34768e-11
5.42341e-11
9.0789e-11
4.69667e-11
8.53564e-11
4.21017e-11
8.40957e-11
4.02462e-11
8.21822e-11
3.0967e-11
7.45012e-11
2.56286e-11
7.24577e-11
2.19584e-11
6.93023e-11
1.50062e-11
6.24884e-11
1.07467e-11
5.96818e-11
4.30807e-12
5.27166e-11
-4.8467e-12
4.23387e-11
-6.28108e-12
4.00724e-11
-2.91992e-12
3.91671e-11
1.24556e-11
4.14426e-11
2.71196e-11
2.65685e-11
2.34942e-11
1.1245e-10
3.26323e-10
-2.06454e-09
-2.08399e-10
1.71165e-09
-1.49056e-10
-8.99534e-10
-9.81043e-10
-9.27621e-10
-6.38583e-10
-3.30646e-10
-1.61882e-10
-2.64896e-11
5.75809e-12
6.23717e-11
5.5121e-11
9.39895e-11
7.24095e-11
1.05644e-10
8.02468e-11
1.09022e-10
7.2546e-11
1.01919e-10
6.95539e-11
1.01489e-10
6.26511e-11
9.50523e-11
5.74026e-11
9.30149e-11
5.39498e-11
9.04758e-11
4.6731e-11
8.49048e-11
4.18949e-11
8.37553e-11
4.02422e-11
8.20723e-11
3.09623e-11
7.40501e-11
2.56194e-11
7.2202e-11
2.21136e-11
6.91652e-11
1.52966e-11
6.21602e-11
1.06448e-11
5.87979e-11
4.26451e-12
5.27578e-11
-4.40415e-12
4.21872e-11
-6.27998e-12
4.05825e-11
-3.58019e-12
4.05904e-11
1.00286e-11
4.62576e-11
1.97932e-11
3.92316e-11
-3.95435e-12
1.54247e-10
3.14598e-10
-2.17801e-09
4.6358e-11
1.7793e-09
-5.61297e-10
-9.52787e-10
-8.15335e-10
-8.72712e-10
-6.37636e-10
-3.31155e-10
-1.58699e-10
-2.42995e-11
5.34395e-12
6.03631e-11
5.28729e-11
9.19477e-11
7.05865e-11
1.0389e-10
7.89086e-11
1.0798e-10
7.15059e-11
1.0065e-10
6.86554e-11
1.00764e-10
6.20726e-11
9.42096e-11
5.68964e-11
9.24252e-11
5.36931e-11
9.0048e-11
4.65455e-11
8.43175e-11
4.17301e-11
8.32887e-11
4.03168e-11
8.18518e-11
3.1065e-11
7.3447e-11
2.56795e-11
7.18138e-11
2.23816e-11
6.89259e-11
1.57549e-11
6.17834e-11
1.05889e-11
5.75368e-11
4.18349e-12
5.27353e-11
-3.85271e-12
4.20147e-11
-6.41356e-12
4.12467e-11
-4.64053e-12
4.25391e-11
6.60203e-12
5.24787e-11
1.03919e-11
5.48879e-11
-3.46404e-11
1.99558e-10
2.96501e-10
-2.3053e-09
3.58589e-10
1.86425e-09
-1.02356e-09
-1.0292e-09
-6.23949e-10
-8.00901e-10
-6.36695e-10
-3.33851e-10
-1.55757e-10
-2.19391e-11
4.83615e-12
5.79187e-11
5.02258e-11
8.94839e-11
6.84812e-11
1.01806e-10
7.73587e-11
1.06687e-10
7.03718e-11
9.91726e-11
6.76638e-11
9.98608e-11
6.14808e-11
9.32107e-11
5.63764e-11
9.17024e-11
5.34668e-11
8.94976e-11
4.64209e-11
8.35976e-11
4.16189e-11
8.26991e-11
4.04756e-11
8.15141e-11
3.12837e-11
7.2707e-11
2.58166e-11
7.12955e-11
2.27641e-11
6.86013e-11
1.63752e-11
6.14125e-11
1.05607e-11
5.58693e-11
4.07182e-12
5.26707e-11
-3.22699e-12
4.18623e-11
-6.71194e-12
4.20763e-11
-6.08814e-12
4.49886e-11
2.31223e-12
5.97829e-11
-4.02837e-13
7.21556e-11
-6.55711e-11
2.42766e-10
2.78499e-10
-2.43976e-09
6.97407e-10
1.96642e-09
-1.50293e-09
-1.13063e-09
-4.19833e-10
-7.13064e-10
-6.34693e-10
-3.38974e-10
-1.53418e-10
-1.95251e-11
4.21607e-12
5.50521e-11
4.71844e-11
8.65893e-11
6.60917e-11
9.93877e-11
7.55963e-11
1.0512e-10
6.91319e-11
9.74886e-11
6.65752e-11
9.87642e-11
6.08683e-11
9.20549e-11
5.584e-11
9.08382e-11
5.32743e-11
8.8815e-11
4.63507e-11
8.27495e-11
4.15605e-11
8.19883e-11
4.07182e-11
8.10534e-11
3.16172e-11
7.18432e-11
2.60316e-11
7.06532e-11
2.32558e-11
6.81886e-11
1.71537e-11
6.11084e-11
1.05225e-11
5.3777e-11
3.9213e-12
5.25819e-11
-2.55661e-12
4.17612e-11
-7.17299e-12
4.30503e-11
-7.85575e-12
4.78132e-11
-2.53511e-12
6.76192e-11
-1.15498e-11
8.93258e-11
-9.3606e-11
2.78945e-10
2.65349e-10
-2.57086e-09
1.03321e-09
2.08004e-09
-1.96368e-09
-1.25524e-09
-2.17129e-10
-6.11614e-10
-6.30378e-10
-3.46494e-10
-1.52051e-10
-1.7232e-11
3.48782e-12
5.17917e-11
4.37737e-11
8.3277e-11
6.34311e-11
9.66474e-11
7.36216e-11
1.03271e-10
6.7786e-11
9.56017e-11
6.53925e-11
9.7466e-11
6.02269e-11
9.07419e-11
5.52849e-11
8.98271e-11
5.31051e-11
8.79956e-11
4.63308e-11
8.17786e-11
4.15558e-11
8.11573e-11
4.10382e-11
8.04658e-11
3.2053e-11
7.08721e-11
2.63234e-11
6.98941e-11
2.38452e-11
6.77017e-11
1.80738e-11
6.09263e-11
1.04347e-11
5.12773e-11
3.72815e-12
5.24762e-11
-1.8539e-12
4.17027e-11
-7.75695e-12
4.4088e-11
-9.81179e-12
5.07741e-11
-7.53142e-12
7.53132e-11
-2.19486e-11
1.04689e-10
-1.16126e-10
3.04681e-10
2.59595e-10
-2.68609e-09
1.33838e-09
2.19536e-09
-2.37781e-09
-1.39692e-09
-2.83512e-11
-5.00181e-10
-6.22523e-10
-3.56095e-10
-1.52003e-10
-1.52327e-11
2.65433e-12
4.81859e-11
4.00321e-11
7.95711e-11
6.05204e-11
9.35972e-11
7.14495e-11
1.0114e-10
6.63349e-11
9.35225e-11
6.41237e-11
9.59618e-11
5.95489e-11
8.92769e-11
5.47097e-11
8.86668e-11
5.29542e-11
8.70381e-11
4.6353e-11
8.06926e-11
4.15996e-11
8.02096e-11
4.14231e-11
7.9758e-11
3.25771e-11
6.98038e-11
2.66812e-11
6.90205e-11
2.45137e-11
6.71464e-11
1.91006e-11
6.09186e-11
1.02903e-11
4.83928e-11
3.52108e-12
5.23507e-11
-1.12543e-12
4.16551e-11
-8.38321e-12
4.51084e-11
-1.17802e-11
5.3586e-11
-1.22125e-11
8.21885e-11
-3.05478e-11
1.16837e-10
-1.31303e-10
3.18305e-10
2.61766e-10
-2.77447e-09
1.59169e-09
2.30122e-09
-2.72342e-09
-1.54708e-09
1.36081e-10
-3.83176e-10
-6.10062e-10
-3.67163e-10
-1.53544e-10
-1.37436e-11
1.71484e-12
4.42961e-11
3.601e-11
7.55052e-11
5.73817e-11
9.02636e-11
6.90925e-11
9.87384e-11
6.47853e-11
9.12684e-11
6.27796e-11
9.42564e-11
5.8831e-11
8.76686e-11
5.41158e-11
8.73629e-11
5.28129e-11
8.59486e-11
4.64081e-11
7.95001e-11
4.16843e-11
7.91503e-11
4.18605e-11
7.8932e-11
3.31744e-11
6.86536e-11
2.70975e-11
6.80423e-11
2.52462e-11
6.65174e-11
2.02004e-11
6.11014e-11
1.01022e-11
4.51809e-11
3.33384e-12
5.21754e-11
-3.62801e-13
4.15748e-11
-8.96841e-12
4.59469e-11
-1.35457e-11
5.59634e-11
-1.61307e-11
8.76369e-11
-3.65705e-11
1.24833e-10
-1.38279e-10
3.19754e-10
2.70335e-10
-2.82737e-09
1.77976e-09
2.38695e-09
-2.98757e-09
-1.6965e-09
2.68953e-10
-2.65376e-10
-5.92224e-10
-3.78896e-10
-1.56834e-10
-1.29724e-11
6.56037e-13
4.01857e-11
3.1764e-11
7.1118e-11
5.40501e-11
8.66765e-11
6.65771e-11
9.60837e-11
6.31465e-11
8.88602e-11
6.13706e-11
9.23585e-11
5.80721e-11
8.59297e-11
5.3507e-11
8.59218e-11
5.26746e-11
8.47347e-11
4.64871e-11
7.82108e-11
4.18044e-11
7.79892e-11
4.23377e-11
7.79939e-11
3.38279e-11
6.74366e-11
2.75675e-11
6.69667e-11
2.60297e-11
6.58047e-11
2.13386e-11
6.14436e-11
9.93401e-12
4.17609e-11
3.2111e-12
5.19078e-11
4.57179e-13
4.14107e-11
-9.41705e-12
4.64827e-11
-1.49071e-11
5.76519e-11
-1.89051e-11
9.12202e-11
-3.95455e-11
1.28269e-10
-1.37092e-10
3.10408e-10
2.8259e-10
-2.83955e-09
1.89795e-09
2.44275e-09
-3.16398e-09
-1.83549e-09
3.66301e-10
-1.51541e-10
-5.68693e-10
-3.90422e-10
-1.61925e-10
-1.31348e-11
-5.54836e-13
3.59188e-11
2.73507e-11
6.64503e-11
5.05508e-11
8.2866e-11
6.39256e-11
9.31957e-11
6.14269e-11
8.63157e-11
5.99083e-11
9.02834e-11
5.72708e-11
8.40732e-11
5.28849e-11
8.43539e-11
5.25332e-11
8.34048e-11
4.65827e-11
7.68374e-11
4.19547e-11
7.67368e-11
4.28429e-11
7.69524e-11
3.45247e-11
6.61646e-11
2.80861e-11
6.58014e-11
2.68538e-11
6.49889e-11
2.24749e-11
6.18118e-11
9.91724e-12
3.83791e-11
3.2083e-12
5.14913e-11
1.35775e-12
4.11052e-11
-9.62244e-12
4.6604e-11
-1.57e-11
5.84508e-11
-2.02935e-11
9.26932e-11
-3.93125e-11
1.2722e-10
-1.285e-10
2.92303e-10
2.95605e-10
-2.80867e-09
1.94721e-09
2.46118e-09
-3.25438e-09