/*--------------------------------*- C++ -*----------------------------------*\
| =========                 |                                                 |
| \\      /  F ield         | OpenFOAM: The Open Source CFD Toolbox           |
|  \\    /   O peration     | Version:  2312                                  |
|   \\  /    A nd           | Website:  www.openfoam.com                      |
|    \\/     M anipulation  |                                                 |
\*---------------------------------------------------------------------------*/
FoamFile
{
    version     2.0;
    format      ascii;
    arch        "LSB;label=32;scalar=64";
    class       volScalarField;
    location    "320";
    object      pPrime2Mean;
}
// * * * * * * * * * * * * * * * * * * * * * * * * * * * * * * * * * * * * * //

dimensions      [0 4 -4 0 0 0 0];

internalField   nonuniform List<scalar> 
144000
(
7.46126e-18
9.59613e-18
8.811e-18
6.96221e-18
5.041e-18
3.67055e-18
2.77949e-18
2.06751e-18
1.53681e-18
1.26208e-18
1.17501e-18
1.06207e-18
9.02889e-19
7.23133e-19
6.01894e-19
5.06857e-19
4.6338e-19
3.98269e-19
3.6893e-19
3.2887e-19
2.95151e-19
2.44851e-19
2.46777e-19
1.8664e-19
1.96262e-19
1.55017e-19
1.55834e-19
1.2715e-19
1.24927e-19
9.88209e-20
1.03253e-19
7.60158e-20
8.61321e-20
6.28794e-20
6.61031e-20
6.60002e-20
3.5601e-20
7.37096e-20
2.53076e-20
4.76602e-20
6.03815e-20
6.92643e-21
9.31245e-20
2.27134e-20
6.79442e-20
1.02758e-19
4.03616e-20
1.40739e-19
1.0992e-19
1.17459e-19
2.12491e-19
1.86513e-19
2.72575e-19
3.93339e-19
4.90598e-19
7.26502e-19
1.16747e-18
2.02613e-18
4.42136e-18
5.25387e-18
7.82109e-18
9.81271e-18
9.04418e-18
7.13486e-18
5.12257e-18
3.71844e-18
2.81085e-18
2.08759e-18
1.54798e-18
1.26878e-18
1.18063e-18
1.06704e-18
9.06501e-19
7.25505e-19
6.03518e-19
5.08125e-19
4.64574e-19
3.99241e-19
3.69612e-19
3.29748e-19
2.95867e-19
2.45137e-19
2.47374e-19
1.87119e-19
1.9649e-19
1.55522e-19
1.56068e-19
1.27531e-19
1.25205e-19
9.90568e-20
1.03606e-19
7.6182e-20
8.64735e-20
6.32043e-20
6.6198e-20
6.68464e-20
3.53592e-20
7.4704e-20
2.57626e-20
4.76524e-20
6.22425e-20
6.41065e-21
9.49887e-20
2.39975e-20
6.82777e-20
1.06422e-19
4.11249e-20
1.44145e-19
1.14473e-19
1.20567e-19
2.19956e-19
1.94398e-19
2.82478e-19
4.09848e-19
5.11675e-19
7.57737e-19
1.21926e-18
2.09806e-18
4.62845e-18
5.37755e-18
8.05456e-18
9.98988e-18
9.12031e-18
7.18833e-18
5.14074e-18
3.73301e-18
2.82614e-18
2.09994e-18
1.55551e-18
1.27356e-18
1.1857e-18
1.07186e-18
9.10137e-19
7.27719e-19
6.0511e-19
5.09333e-19
4.66059e-19
4.00263e-19
3.70412e-19
3.30804e-19
2.96796e-19
2.45317e-19
2.4835e-19
1.87504e-19
1.97028e-19
1.56041e-19
1.56537e-19
1.2797e-19
1.2573e-19
9.93119e-20
1.04278e-19
7.63528e-20
8.71326e-20
6.3668e-20
6.64629e-20
6.81866e-20
3.50455e-20
7.64165e-20
2.64297e-20
4.79353e-20
6.51272e-20
5.82149e-21
9.81393e-20
2.59631e-20
6.93375e-20
1.12013e-19
4.27622e-20
1.49723e-19
1.21608e-19
1.25877e-19
2.3151e-19
2.06551e-19
2.97368e-19
4.33291e-19
5.40216e-19
7.95886e-19
1.27596e-18
2.17144e-18
4.80987e-18
5.50628e-18
7.94834e-18
9.8874e-18
8.92706e-18
7.01698e-18
5.0473e-18
3.68076e-18
2.80134e-18
2.08841e-18
1.54868e-18
1.26938e-18
1.18451e-18
1.07214e-18
9.10446e-19
7.27693e-19
6.05081e-19
5.0936e-19
4.66714e-19
4.00585e-19
3.7056e-19
3.31454e-19
2.97434e-19
2.45157e-19
2.49135e-19
1.87745e-19
1.97434e-19
1.56526e-19
1.56978e-19
1.28412e-19
1.26249e-19
9.95782e-20
1.05013e-19
7.65206e-20
8.78976e-20
6.41955e-20
6.67563e-20
6.97792e-20
3.46712e-20
7.84744e-20
2.72507e-20
4.8304e-20
6.85631e-20
5.22119e-21
1.01819e-19
2.84285e-20
7.05802e-20
1.18561e-19
4.48457e-20
1.56079e-19
1.29986e-19
1.31925e-19
2.44311e-19
2.20141e-19
3.12798e-19
4.57345e-19
5.67238e-19
8.27778e-19
1.31489e-18
2.18378e-18
4.88199e-18
5.47769e-18
7.53643e-18
9.62532e-18
8.50643e-18
6.63772e-18
4.8516e-18
3.55976e-18
2.7316e-18
2.04773e-18
1.5229e-18
1.2519e-18
1.1728e-18
1.06406e-18
9.04743e-19
7.23616e-19
6.02141e-19
5.07185e-19
4.65559e-19
3.99459e-19
3.69421e-19
3.31029e-19
2.97257e-19
2.44376e-19
2.49269e-19
1.87612e-19
1.9749e-19
1.56747e-19
1.57216e-19
1.28702e-19
1.26611e-19
9.97465e-20
1.05662e-19
7.66193e-20
8.86137e-20
6.46884e-20
6.69732e-20
7.13865e-20
3.42542e-20
8.0503e-20
2.81323e-20
4.86201e-20
7.20246e-20
4.68806e-21
1.05316e-19
3.10794e-20
7.16574e-20
1.24981e-19
4.70296e-20
1.61875e-19
1.38201e-19
1.37503e-19
2.55868e-19
2.32686e-19
3.25458e-19
4.76831e-19
5.87382e-19
8.46543e-19
1.33332e-18
2.13832e-18
4.8853e-18
5.36093e-18
7.04188e-18
9.50072e-18
7.99275e-18
6.15301e-18
4.59761e-18
3.39477e-18
2.62598e-18
1.98163e-18
1.4798e-18
1.22137e-18
1.14986e-18
1.04665e-18
8.9206e-19
7.14667e-19
5.95702e-19
5.02314e-19
4.62126e-19
3.9649e-19
3.66653e-19
3.29124e-19
2.95904e-19
2.42765e-19
2.48476e-19
1.86879e-19
1.97043e-19
1.56534e-19
1.57132e-19
1.28731e-19
1.26703e-19
9.97377e-20
1.06104e-19
7.65801e-20
8.91542e-20
6.50645e-20
6.70297e-20
7.28248e-20
3.37965e-20
8.22971e-20
2.89699e-20
4.88339e-20
7.51356e-20
4.25872e-21
1.08243e-19
3.35927e-20
7.24491e-20
1.30443e-19
4.90567e-20
1.66507e-19
1.45181e-19
1.42142e-19
2.64825e-19
2.42919e-19
3.34507e-19
4.90624e-19
5.99882e-19
8.5449e-19
1.33537e-18
2.05815e-18
4.90428e-18
5.29367e-18
6.55768e-18
9.65693e-18
7.46098e-18
5.63328e-18
4.30675e-18
3.19811e-18
2.49218e-18
1.89506e-18
1.42233e-18
1.17983e-18
1.11698e-18
1.02056e-18
8.72688e-19
7.00995e-19
5.85842e-19
4.94818e-19
4.56404e-19
3.91639e-19
3.62259e-19
3.25653e-19
2.93289e-19
2.4025e-19
2.46639e-19
1.8541e-19
1.95993e-19
1.55818e-19
1.56608e-19
1.28448e-19
1.26452e-19
9.95063e-20
1.06263e-19
7.63745e-20
8.94369e-20
6.52811e-20
6.68842e-20
7.39895e-20
3.33012e-20
8.37188e-20
2.9689e-20
4.89573e-20
7.77187e-20
3.92832e-21
1.10516e-19
3.57509e-20
7.30011e-20
1.34723e-19
5.07382e-20
1.69973e-19
1.50526e-19
1.45823e-19
2.71187e-19
2.50492e-19
3.40278e-19
4.98988e-19
6.0529e-19
8.54282e-19
1.32344e-18
1.95724e-18
4.96671e-18
5.35418e-18
6.11105e-18
1.00896e-17
6.94014e-18
5.11903e-18
3.9868e-18
2.97679e-18
2.33591e-18
1.79197e-18
1.3535e-18
1.12956e-18
1.07602e-18
9.87359e-19
8.47704e-19
6.83205e-19
5.72957e-19
4.84966e-19
4.48627e-19
3.85128e-19
3.56448e-19
3.20781e-19
2.89533e-19
2.36885e-19
2.43822e-19
1.8322e-19
1.94302e-19
1.54613e-19
1.55608e-19
1.27857e-19
1.25842e-19
9.90522e-20
1.06115e-19
7.60105e-20
8.94315e-20
6.53424e-20
6.65268e-20
7.48591e-20
3.27797e-20
8.47765e-20
3.02871e-20
4.89925e-20
7.98329e-20
3.65766e-21
1.12224e-19
3.75425e-20
7.33705e-20
1.37988e-19
5.19988e-20
1.7266e-19
1.54361e-19
1.48671e-19
2.75558e-19
2.55688e-19
3.4334e-19
5.02962e-19
6.04259e-19
8.47962e-19
1.29847e-18
1.84436e-18
5.06639e-18
5.52732e-18
5.7067e-18
1.0663e-17
6.44301e-18
4.6375e-18
3.6465e-18
2.73878e-18
2.16368e-18
1.67716e-18
1.27694e-18
1.07313e-18
1.0293e-18
9.48877e-19
8.18486e-19
6.62228e-19
5.57641e-19
4.73173e-19
4.39137e-19
3.77252e-19
3.49508e-19
3.14797e-19
2.84872e-19
2.32819e-19
2.40193e-19
1.80424e-19
1.91983e-19
1.52984e-19
1.54138e-19
1.26987e-19
1.24892e-19
9.84113e-20
1.05682e-19
7.55216e-20
8.91519e-20
6.52869e-20
6.59653e-20
7.54829e-20
3.22451e-20
8.5502e-20
3.08336e-20
4.89074e-20
8.16527e-20
3.38377e-21
1.13535e-19
3.9098e-20
7.34734e-20
1.40633e-19
5.27374e-20
1.74706e-19
1.57011e-19
1.50519e-19
2.78319e-19
2.58486e-19
3.43558e-19
5.02925e-19
5.96768e-19
8.35182e-19
1.26e-18
1.7254e-18
5.17007e-18
5.72018e-18
5.33712e-18
1.11815e-17
5.98005e-18
4.19598e-18
3.29941e-18
2.49277e-18
1.98304e-18
1.55578e-18
1.19615e-18
1.01326e-18
9.78986e-19
9.06944e-19
7.86496e-19
6.39093e-19
5.40625e-19
4.59971e-19
4.28351e-19
3.68319e-19
3.41716e-19
3.07995e-19
2.79612e-19
2.2824e-19
2.35977e-19
1.77211e-19
1.89093e-19
1.51044e-19
1.52239e-19
1.2588e-19
1.23639e-19
9.76313e-20
1.05002e-19
7.4947e-20
8.86227e-20
6.51668e-20
6.52009e-20
7.59073e-20
3.17101e-20
8.58852e-20
3.14341e-20
4.85926e-20
8.33583e-20
3.04688e-21
1.14411e-19
4.06006e-20
7.30386e-20
1.42858e-19
5.28222e-20
1.75839e-19
1.58615e-19
1.5079e-19
2.79145e-19
2.58601e-19
3.40057e-19
4.9815e-19
5.81456e-19
8.13744e-19
1.20341e-18
1.59989e-18
5.23199e-18
5.79103e-18
4.97856e-18
1.14131e-17
5.55571e-18
3.78375e-18
2.96034e-18
2.24822e-18
1.80161e-18
1.43284e-18
1.11461e-18
9.52429e-19
9.27131e-19
8.63314e-19
7.53058e-19
6.14788e-19
5.22656e-19
4.45933e-19
4.16704e-19
3.5869e-19
3.33296e-19
3.00619e-19
2.74023e-19
2.23342e-19
2.3137e-19
1.738e-19
1.85732e-19
1.48885e-19
1.4998e-19
1.2456e-19
1.2213e-19
9.67545e-20
1.04103e-19
7.4323e-20
8.78609e-20
6.50177e-20
6.42325e-20
7.61611e-20
3.1185e-20
8.58674e-20
3.21777e-20
4.79126e-20
8.50151e-20
2.61125e-21
1.14662e-19
4.21506e-20
7.17674e-20
1.4453e-19
5.21159e-20
1.75518e-19
1.59018e-19
1.48892e-19
2.77436e-19
2.55432e-19
3.31691e-19
4.87624e-19
5.57517e-19
7.81732e-19
1.12848e-18
1.4667e-18
5.19538e-18
5.63787e-18
4.6093e-18
1.12334e-17
5.16661e-18
3.39028e-18
2.64084e-18
2.01308e-18
1.62579e-18
1.31239e-18
1.03501e-18
8.92696e-19
8.75447e-19
8.19402e-19
7.19256e-19
5.9014e-19
5.04347e-19
4.31543e-19
4.04603e-19
3.48668e-19
3.24475e-19
2.92874e-19
2.68284e-19
2.18299e-19
2.2652e-19
1.7038e-19
1.82024e-19
1.46603e-19
1.47443e-19
1.23052e-19
1.20403e-19
9.58079e-20
1.02997e-19
7.36775e-20
8.68912e-20
6.4857e-20
6.30546e-20
7.62334e-20
3.0685e-20
8.536e-20
3.30805e-20
4.67646e-20
8.65731e-20
2.08063e-21
1.14093e-19
4.37295e-20
6.94213e-20
1.45427e-19
5.05699e-20
1.73356e-19
1.58079e-19
1.44566e-19
2.72801e-19
2.4882e-19
3.18344e-19
4.71196e-19
5.25489e-19
7.39114e-19
1.03878e-18
1.32745e-18
5.03181e-18
5.23066e-18
4.21136e-18
1.06222e-17
4.79881e-18
3.0074e-18
2.3478e-18
1.79314e-18
1.46069e-18
1.19742e-18
9.59204e-19
8.3555e-19
8.25271e-19
7.76345e-19
6.85986e-19
5.65746e-19
4.86172e-19
4.17209e-19
3.92405e-19
3.38543e-19
3.15484e-19
2.84939e-19
2.6251e-19
2.13253e-19
2.21537e-19
1.67088e-19
1.78113e-19
1.44276e-19
1.44732e-19
1.21389e-19
1.18502e-19
9.48033e-20
1.01692e-19
7.30332e-20
8.57254e-20
6.46817e-20
6.16925e-20
7.60929e-20
3.02266e-20
8.43096e-20
3.41104e-20
4.51753e-20
8.80372e-20
1.49418e-21
1.12655e-19
4.52724e-20
6.60548e-20
1.45389e-19
4.82715e-20
1.69279e-19
1.55804e-19
1.37904e-19
2.65368e-19
2.39171e-19
3.00627e-19
4.49758e-19
4.87383e-19
6.88188e-19
9.40451e-19
1.18553e-18
4.73975e-18
4.61276e-18
3.78309e-18
9.65752e-18
4.43867e-18
2.63496e-18
2.08402e-18
1.59201e-18
1.30925e-18
1.08991e-18
8.88302e-19
7.81965e-19
7.77521e-19
7.34992e-19
6.53858e-19
5.42113e-19
4.68495e-19
4.03254e-19
3.80389e-19
3.2858e-19
3.06537e-19
2.76972e-19
2.5677e-19
2.08312e-19
2.165e-19
1.64002e-19
1.74116e-19
1.4197e-19
1.41938e-19
1.19613e-19
1.16473e-19
9.3756e-20
1.00205e-19
7.24071e-20
8.43882e-20
6.44846e-20
6.0194e-20
7.57266e-20
2.98273e-20
8.27461e-20
3.52137e-20
4.32207e-20
8.95195e-20
9.15564e-22
1.10548e-19
4.6745e-20
6.18569e-20
1.4441e-19
4.54341e-20
1.63527e-19
1.52462e-19
1.29424e-19
2.55699e-19
2.27321e-19
2.79844e-19
4.24842e-19
4.45978e-19
6.32359e-19
8.41165e-19
1.046e-18
4.34864e-18
3.87926e-18
3.33502e-18
8.47809e-18
4.07588e-18
2.27994e-18
1.8491e-18
1.41139e-18
1.17282e-18
9.91008e-19
8.22824e-19
7.32427e-19
7.32793e-19
6.95856e-19
6.23265e-19
5.19554e-19
4.51512e-19
3.89876e-19
3.68757e-19
3.18948e-19
2.97795e-19
2.69122e-19
2.51115e-19
2.03556e-19
2.11468e-19
1.61149e-19
1.70127e-19
1.39729e-19
1.39134e-19
1.1778e-19
1.14368e-19
9.26873e-20
9.85647e-20
7.18135e-20
8.29181e-20
6.42616e-20
5.86246e-20
7.51481e-20
2.95108e-20
8.07464e-20
3.63619e-20
4.09679e-20
9.1388e-20
4.30892e-22
1.08303e-19
4.81701e-20
5.70815e-20
1.42624e-19
4.23341e-20
1.56444e-19
1.48426e-19
1.19774e-19
2.4451e-19
2.1426e-19
2.57425e-19
3.98149e-19
4.0405e-19
5.75065e-19
7.46856e-19
9.13428e-19
3.89846e-18
3.13289e-18
2.88863e-18
7.23195e-18
3.70792e-18
1.95269e-18
1.6408e-18
1.25156e-18
1.05161e-18
9.01146e-19
7.6282e-19
6.87044e-19
6.91307e-19
6.59216e-19
5.94442e-19
4.98206e-19
4.35332e-19
3.77189e-19
3.57633e-19
3.09752e-19
2.89374e-19
2.61511e-19
2.45582e-19
1.99041e-19
2.06494e-19
1.58525e-19
1.66212e-19
1.37583e-19
1.36381e-19
1.15946e-19
1.12234e-19
9.16213e-20
9.68156e-20
7.12585e-20
8.13654e-20
6.4013e-20
5.70524e-20
7.4389e-20
2.92992e-20
7.842e-20
3.75262e-20
3.84905e-20
9.42314e-20
1.18344e-22
1.06821e-19
4.95991e-20
5.19931e-20
1.4023e-19
3.92341e-20
1.48485e-19
1.44074e-19
1.09577e-19
2.32507e-19
2.00875e-19
2.34634e-19
3.71113e-19
3.63804e-19
5.19072e-19
6.61165e-19
7.90887e-19
3.43436e-18
2.46273e-18
2.46801e-18
6.03701e-18
3.33631e-18
1.66135e-18
1.45604e-18
1.11165e-18
9.44927e-19
8.20214e-19
7.08041e-19
6.45657e-19
6.53078e-19
6.2517e-19
5.67461e-19
4.78127e-19
4.20004e-19
3.65251e-19
3.47079e-19
3.01047e-19
2.81341e-19
2.54229e-19
2.402e-19
1.94802e-19
2.01617e-19
1.56115e-19
1.62411e-19
1.35546e-19
1.3372e-19
1.14154e-19
1.10113e-19
9.05819e-20
9.50053e-20
7.07465e-20
7.97769e-20
6.37486e-20
5.55215e-20
7.35059e-20
2.91705e-20
7.59343e-20
3.8569e-20
3.6068e-20
9.56763e-20
1.39138e-27
1.04482e-19
5.07999e-20
4.68547e-20
1.37399e-19
3.63404e-20
1.40037e-19
1.39704e-19
9.93417e-20
2.20265e-19
1.87838e-19
2.12405e-19
3.44857e-19
3.26548e-19
4.66078e-19
5.85695e-19
6.80167e-19
2.99058e-18
1.9156e-18
2.09639e-18
4.97317e-18
2.96806e-18
1.41038e-18
1.29184e-18
9.90132e-19
8.51634e-19
7.47803e-19
6.58113e-19
6.07969e-19
6.17987e-19
5.9369e-19
5.42311e-19
4.59309e-19
4.05529e-19
3.54065e-19
3.37117e-19
2.92851e-19
2.73727e-19
2.47336e-19
2.34989e-19
1.90853e-19
1.96886e-19
1.53897e-19
1.5876e-19
1.33623e-19
1.31177e-19
1.12437e-19
1.08039e-19
8.95888e-20
9.31787e-20
7.02796e-20
7.81929e-20
6.34819e-20
5.40589e-20
7.25594e-20
2.90933e-20
7.34357e-20
3.93671e-20
3.3929e-20
9.2388e-20
1.05866e-22
9.83627e-20
5.15706e-20
4.18684e-20
1.34293e-19
3.37958e-20
1.31397e-19
1.35517e-19
8.94373e-20
2.08167e-19
1.75588e-19
1.91344e-19
3.20014e-19
2.93032e-19
4.16978e-19
5.20336e-19
5.8238e-19
2.59069e-18
1.5072e-18
1.7892e-18
4.07734e-18
2.61243e-18
1.20011e-18
1.14568e-18
8.85081e-19
7.70436e-19
6.83373e-19
6.12618e-19
5.73622e-19
5.85827e-19
5.64664e-19
5.18926e-19
4.41721e-19
3.91873e-19
3.43605e-19
3.27738e-19
2.85154e-19
2.66535e-19
2.40861e-19
2.2996e-19
1.87196e-19
1.92326e-19
1.5185e-19
1.55269e-19
1.31813e-19
1.28763e-19
1.10815e-19
1.06038e-19
8.86544e-20
9.13753e-20
6.98558e-20
7.66497e-20
6.32197e-20
5.26947e-20
7.15803e-20
2.90929e-20
7.09568e-20
4.00373e-20
3.19573e-20
8.80824e-20
4.31464e-22
9.16515e-20
5.22508e-20
3.71285e-20
1.31034e-19
3.16809e-20
1.22787e-19
1.3163e-19
8.01069e-20
1.96476e-19
1.64366e-19
1.71789e-19
2.96897e-19
2.63444e-19
3.72055e-19
4.6423e-19
4.97867e-19
2.24502e-18
1.22817e-18
1.55327e-18
3.35138e-18
2.27876e-18
1.02649e-18
1.0155e-18
7.945e-19
6.99971e-19
6.26289e-19
5.71144e-19
5.42235e-19
5.56347e-19
5.37938e-19
4.972e-19
4.2528e-19
3.78983e-19
3.33831e-19
3.18923e-19
2.7793e-19
2.5975e-19
2.3481e-19
2.2512e-19
1.83818e-19
1.87955e-19
1.49955e-19
1.51943e-19
1.30113e-19
1.26485e-19
1.09298e-19
1.04128e-19
8.77855e-20
8.96242e-20
6.94729e-20
7.51734e-20
6.29676e-20
5.14465e-20
7.0594e-20
2.9189e-20
6.85188e-20
4.0701e-20
3.00595e-20
8.5034e-20
1.05951e-21
8.63454e-20
5.30535e-20
3.27029e-20
1.27696e-19
3.00404e-20
1.14363e-19
1.28095e-19
7.14947e-20
1.85294e-19
1.5427e-19
1.53865e-19
2.75589e-19
2.37626e-19
3.31139e-19
4.16114e-19
4.26316e-19
1.95382e-18
1.05322e-18
1.38554e-18
2.77286e-18
1.97348e-18
8.83126e-19
8.99577e-19
7.1633e-19
6.38945e-19
5.75862e-19
5.33309e-19
5.13439e-19
5.29278e-19
5.13337e-19
4.77013e-19
4.09893e-19
3.66802e-19
3.24697e-19
3.10645e-19
2.71149e-19
2.53347e-19
2.29175e-19
2.20467e-19
1.80701e-19
1.83785e-19
1.48194e-19
1.48782e-19
1.28519e-19
1.24342e-19
1.07891e-19
1.0232e-19
8.69845e-20
8.79436e-20
6.91295e-20
7.37802e-20
6.27334e-20
5.03143e-20
6.96285e-20
2.93624e-20
6.61781e-20
4.13509e-20
2.83064e-20
8.2759e-20
1.90049e-21
8.17727e-20
5.39373e-20
2.86673e-20
1.24331e-19
2.88686e-20
1.06229e-19
1.24916e-19
6.36707e-20
1.74693e-19
1.45309e-19
1.37575e-19
2.56054e-19
2.15205e-19
2.94035e-19
3.74704e-19
3.66933e-19
1.70944e-18
9.51567e-19
1.27777e-18
2.31116e-18
1.70005e-18
7.6273e-19
7.96383e-19
6.4874e-19
5.86157e-19
5.31436e-19
4.98777e-19
4.86906e-19
5.04359e-19
4.90683e-19
4.58243e-19
3.95471e-19
3.55272e-19
3.16153e-19
3.02866e-19
2.64776e-19
2.473e-19
2.23935e-19
2.16002e-19
1.77825e-19
1.79822e-19
1.46553e-19
1.45784e-19
1.27022e-19
1.22331e-19
1.06592e-19
1.0062e-19
8.62504e-20
8.63444e-20
6.88231e-20
7.24803e-20
6.25193e-20
4.92988e-20
6.86973e-20
2.96035e-20
6.396e-20
4.19708e-20
2.67596e-20
8.08717e-20
2.87473e-21
7.76042e-20
5.48639e-20
2.50504e-20
1.20978e-19
2.81396e-20
9.84512e-20
1.22067e-19
5.66599e-20
1.64688e-19
1.37421e-19
1.22853e-19
2.38194e-19
1.95799e-19
2.60402e-19
3.38964e-19
3.18489e-19
1.50176e-18
8.9378e-19
1.21857e-18
1.93363e-18
1.46037e-18
6.58755e-19
7.04559e-19
5.90086e-19
5.40531e-19
4.92385e-19
4.67267e-19
4.62354e-19
4.81352e-19
4.69804e-19
4.40777e-19
3.81926e-19
3.44335e-19
3.08149e-19
2.95554e-19
2.58776e-19
2.4158e-19
2.19066e-19
2.11718e-19
1.75165e-19
1.76066e-19
1.45017e-19
1.42941e-19
1.25615e-19
1.20446e-19
1.05396e-19
9.90319e-20
8.55805e-20
8.48337e-20
6.85501e-20
7.12796e-20
6.23251e-20
4.84006e-20
6.78054e-20
2.99116e-20
6.18656e-20
4.25679e-20
2.54285e-20
7.9176e-20
3.95014e-21
7.37317e-20
5.58352e-20
2.18475e-20
1.17659e-19
2.78174e-20
9.10737e-20
1.19509e-19
5.04558e-20
1.55259e-19
1.30526e-19
1.09594e-19
2.21897e-19
1.79039e-19
2.29981e-19
3.07935e-19
2.79545e-19
1.32042e-18
8.55906e-19
1.19656e-18
1.61415e-18
1.25483e-18
5.66411e-19
6.22959e-19
5.39044e-19
5.01163e-19
4.58146e-19
4.38536e-19
4.3955e-19
4.6004e-19
4.50536e-19
4.24503e-19
3.69173e-19
3.33938e-19
3.00636e-19
2.88671e-19
2.53119e-19
2.36162e-19
2.14538e-19
2.07609e-19
1.72701e-19
1.72514e-19
1.43573e-19
1.40248e-19
1.24291e-19
1.18681e-19
1.043e-19
9.75573e-20
8.4971e-20
8.34129e-20
6.83073e-20
7.01801e-20
6.21497e-20
4.76177e-20
6.69569e-20
3.02818e-20
5.98976e-20
4.3151e-20
2.43008e-20
7.75626e-20
5.11618e-21
7.01118e-20
5.68434e-20
1.90497e-20
1.14389e-19
2.78572e-20
8.41292e-20
1.17195e-19
4.50348e-20
1.46383e-19
1.24532e-19
9.76992e-20
2.07035e-19
1.64594e-19
2.0252e-19
2.80917e-19
2.48853e-19
1.15708e-18
8.20148e-19
1.20151e-18
1.33246e-18
1.08241e-18
4.82654e-19
5.50472e-19
4.94512e-19
4.67282e-19
4.28225e-19
4.12379e-19
4.18301e-19
4.40231e-19
4.32732e-19
4.0932e-19
3.57133e-19
3.24029e-19
2.93569e-19
2.82185e-19
2.47774e-19
2.31019e-19
2.10326e-19
2.03667e-19
1.70412e-19
1.69158e-19
1.42213e-19
1.37694e-19
1.23041e-19
1.1703e-19
1.03299e-19
9.61958e-20
8.44187e-20
8.2081e-20
6.80925e-20
6.91818e-20
6.19927e-20
4.6947e-20
6.61557e-20
3.07067e-20
5.80623e-20
4.37212e-20
2.33647e-20
7.60133e-20
6.36256e-21
6.6727e-20
5.78717e-20
1.66448e-20
1.11191e-19
2.82124e-20
7.76446e-20
1.15096e-19
4.03631e-20
1.38056e-19
1.19354e-19
8.70859e-20
1.93519e-19
1.52209e-19
1.77828e-19
2.57364e-19
2.25229e-19
1.00541e-18
7.74986e-19
7.47437e-18
9.62887e-18
8.84752e-18
6.98435e-18
5.05485e-18
3.67827e-18
2.78537e-18
2.07238e-18
1.54045e-18
1.26442e-18
1.1763e-18
1.06276e-18
9.03166e-19
7.23187e-19
6.01795e-19
5.06739e-19
4.63261e-19
3.98253e-19
3.68965e-19
3.28911e-19
2.95215e-19
2.44906e-19
2.46868e-19
1.86668e-19
1.96336e-19
1.55027e-19
1.55899e-19
1.27165e-19
1.25002e-19
9.88051e-20
1.03309e-19
7.59837e-20
8.61535e-20
6.28485e-20
6.61127e-20
6.59828e-20
3.56189e-20
7.37031e-20
2.53391e-20
4.76567e-20
6.04389e-20
6.91567e-21
9.31424e-20
2.26752e-20
6.80134e-20
1.02863e-19
4.0353e-20
1.40881e-19
1.0995e-19
1.17602e-19
2.12587e-19
1.86677e-19
2.72469e-19
3.93473e-19
4.90197e-19
7.26122e-19
1.16651e-18
2.02369e-18
4.44468e-18
5.26893e-18
7.83358e-18
9.84725e-18
9.08091e-18
7.1582e-18
5.13638e-18
3.72617e-18
2.81676e-18
2.09243e-18
1.55163e-18
1.27111e-18
1.18191e-18
1.06771e-18
9.0677e-19
7.25548e-19
6.03409e-19
5.07996e-19
4.6445e-19
3.99219e-19
3.69645e-19
3.29786e-19
2.9593e-19
2.45191e-19
2.47464e-19
1.87145e-19
1.96563e-19
1.55531e-19
1.56133e-19
1.27547e-19
1.2528e-19
9.90418e-20
1.03662e-19
7.6151e-20
8.64938e-20
6.31753e-20
6.62062e-20
6.6831e-20
3.53755e-20
7.46987e-20
2.57931e-20
4.76492e-20
6.23028e-20
6.3997e-21
9.50098e-20
2.39577e-20
6.83488e-20
1.06533e-19
4.11174e-20
1.4429e-19
1.14507e-19
1.20711e-19
2.20056e-19
1.94562e-19
2.82355e-19
4.09961e-19
5.11245e-19
7.57321e-19
1.21805e-18
2.09555e-18
4.6521e-18
5.3925e-18
8.07099e-18
1.00255e-17
9.15662e-18
7.21169e-18
5.1541e-18
3.7402e-18
2.83175e-18
2.10472e-18
1.5591e-18
1.27588e-18
1.18696e-18
1.07251e-18
9.1039e-19
7.27747e-19
6.04985e-19
5.0919e-19
4.65924e-19
4.00235e-19
3.70444e-19
3.30837e-19
2.96858e-19
2.45371e-19
2.4844e-19
1.87528e-19
1.971e-19
1.56049e-19
1.56604e-19
1.27989e-19
1.25808e-19
9.92985e-20
1.04335e-19
7.63233e-20
8.71522e-20
6.36417e-20
6.64706e-20
6.8174e-20
3.50608e-20
7.64148e-20
2.64603e-20
4.79315e-20
6.51923e-20
5.81016e-21
9.81689e-20
2.59181e-20
6.94148e-20
1.12135e-19
4.27586e-20
1.49874e-19
1.2165e-19
1.26028e-19
2.31627e-19
2.06731e-19
2.97266e-19
4.33466e-19
5.39818e-19
7.95509e-19
1.2747e-18
2.17014e-18
4.83282e-18
5.5228e-18
7.96555e-18
9.92483e-18
8.96049e-18
7.03867e-18
5.05966e-18
3.68687e-18
2.80664e-18
2.09298e-18
1.55222e-18
1.27163e-18
1.18574e-18
1.07275e-18
9.10666e-19
7.27698e-19
6.04936e-19
5.09195e-19
4.66564e-19
4.00547e-19
3.70587e-19
3.31483e-19
2.97493e-19
2.4521e-19
2.49225e-19
1.87767e-19
1.97505e-19
1.56532e-19
1.57043e-19
1.28434e-19
1.26328e-19
9.95676e-20
1.0507e-19
7.64935e-20
8.79153e-20
6.41725e-20
6.67609e-20
6.97707e-20
3.46843e-20
7.84726e-20
2.72815e-20
4.82999e-20
6.86434e-20
5.21037e-21
1.01858e-19
2.83704e-20
7.06686e-20
1.18697e-19
4.48478e-20
1.56245e-19
1.30045e-19
1.3209e-19
2.44465e-19
2.20363e-19
3.12738e-19
4.57595e-19
5.66991e-19
8.27635e-19
1.31403e-18
2.18438e-18
4.90693e-18
5.49549e-18
7.54857e-18
9.65983e-18
8.53494e-18
6.65623e-18
4.86219e-18
3.56561e-18
2.73626e-18
2.052e-18
1.52627e-18
1.25409e-18
1.17396e-18
1.06464e-18
9.04919e-19
7.23583e-19
6.01974e-19
5.06991e-19
4.65387e-19
3.99406e-19
3.69439e-19
3.31051e-19
2.97308e-19
2.44429e-19
2.49357e-19
1.87633e-19
1.97556e-19
1.56752e-19
1.57276e-19
1.28729e-19
1.26691e-19
9.97413e-20
1.05718e-19
7.6597e-20
8.86269e-20
6.46706e-20
6.69749e-20
7.13824e-20
3.42621e-20
8.0506e-20
2.81629e-20
4.86136e-20
7.21159e-20
4.67912e-21
1.05368e-19
3.09965e-20
7.17604e-20
1.25134e-19
4.70409e-20
1.62056e-19
1.38278e-19
1.37696e-19
2.56071e-19
2.32962e-19
3.25497e-19
4.7721e-19
5.8734e-19
8.4674e-19
1.33311e-18
2.13895e-18
4.91266e-18
5.37825e-18
7.05594e-18
9.5287e-18
8.01669e-18
6.16817e-18
4.60613e-18
3.39981e-18
2.63016e-18
1.98561e-18
1.48312e-18
1.22353e-18
1.15097e-18
1.04716e-18
8.92195e-19
7.14603e-19
5.95509e-19
5.02094e-19
4.61928e-19
3.96423e-19
3.66659e-19
3.29138e-19
2.95944e-19
2.42816e-19
2.48561e-19
1.86901e-19
1.97103e-19
1.5654e-19
1.57184e-19
1.28763e-19
1.26782e-19
9.97398e-20
1.06158e-19
7.65638e-20
8.91594e-20
6.50541e-20
6.70237e-20
7.28286e-20
3.37992e-20
8.23039e-20
2.89987e-20
4.88246e-20
7.52434e-20
4.2536e-21
1.0831e-19
3.34709e-20
7.25676e-20
1.30613e-19
4.90797e-20
1.667e-19
1.45278e-19
1.42364e-19
2.65066e-19
2.43251e-19
3.34624e-19
4.91126e-19
6.00006e-19
8.55005e-19
1.33564e-18
2.05947e-18
4.93269e-18
5.30843e-18
6.57151e-18
9.67725e-18
7.48071e-18
5.6455e-18
4.31394e-18
3.20239e-18
2.49598e-18
1.89892e-18
1.42559e-18
1.18194e-18
1.11802e-18
1.02101e-18
8.72785e-19
7.00904e-19
5.85625e-19
4.94574e-19
4.56179e-19
3.91553e-19
3.62253e-19
3.25658e-19
2.93316e-19
2.403e-19
2.46719e-19
1.85435e-19
1.96044e-19
1.55826e-19
1.56648e-19
1.28487e-19
1.26526e-19
9.95179e-20
1.06309e-19
7.63665e-20
8.94324e-20
6.528e-20
6.68677e-20
7.40041e-20
3.32949e-20
8.37286e-20
2.97128e-20
4.89394e-20
7.78427e-20
3.92911e-21
1.10599e-19
3.55738e-20
7.3136e-20
1.34909e-19
5.07732e-20
1.70174e-19
1.50642e-19
1.4607e-19
2.71462e-19
2.50873e-19
3.40459e-19
4.99605e-19
6.05523e-19
8.55052e-19
1.32403e-18
1.95889e-18
4.99487e-18
5.36597e-18
6.12428e-18
1.01033e-17
6.95597e-18
5.12882e-18
3.99283e-18
2.98035e-18
2.33936e-18
1.79574e-18
1.35673e-18
1.13162e-18
1.07703e-18
9.87757e-19
8.47767e-19
6.83089e-19
5.72721e-19
4.84703e-19
4.48376e-19
3.85025e-19
3.5643e-19
3.20779e-19
2.89545e-19
2.36935e-19
2.43895e-19
1.8325e-19
1.94343e-19
1.54624e-19
1.55635e-19
1.27903e-19
1.25908e-19
9.90757e-20
1.06151e-19
7.60136e-20
8.94128e-20
6.53534e-20
6.64966e-20
7.48842e-20
3.27585e-20
8.47942e-20
3.02998e-20
4.89637e-20
7.99643e-20
3.66605e-21
1.12355e-19
3.72884e-20
7.35177e-20
1.3818e-19
5.20444e-20
1.72867e-19
1.54492e-19
1.48939e-19
2.75859e-19
2.56112e-19
3.43569e-19
5.03653e-19
6.04563e-19
8.48905e-19
1.29913e-18
1.84606e-18
5.09311e-18
5.53643e-18
5.71931e-18
1.06722e-17
6.45545e-18
4.64521e-18
3.65147e-18
2.74169e-18
2.1668e-18
1.6808e-18
1.28009e-18
1.07515e-18
1.03027e-18
9.49233e-19
8.1852e-19
6.62093e-19
5.57383e-19
4.72896e-19
4.38863e-19
3.77135e-19
3.49477e-19
3.14789e-19
2.84867e-19
2.32869e-19
2.40257e-19
1.80461e-19
1.92012e-19
1.52999e-19
1.54149e-19
1.27043e-19
1.24949e-19
9.84483e-20
1.05707e-19
7.55379e-20
8.91161e-20
6.53134e-20
6.59164e-20
7.55189e-20
3.22035e-20
8.55322e-20
3.08203e-20
4.88637e-20
8.17769e-20
3.39941e-21
1.13705e-19
3.87403e-20
7.3626e-20
1.40842e-19
5.27924e-20
1.74914e-19
1.57154e-19
1.50799e-19
2.78632e-19
2.58938e-19
3.43818e-19
5.0366e-19
5.9709e-19
8.36205e-19
1.26076e-18
1.72708e-18
5.1946e-18
5.72756e-18
5.34906e-18
1.11887e-17
5.98951e-18
4.20213e-18
3.30342e-18
2.49513e-18
1.98585e-18
1.55928e-18
1.19921e-18
1.01523e-18
9.79927e-19
9.07274e-19
7.86508e-19
6.38943e-19
5.40358e-19
4.59684e-19
4.28058e-19
3.6819e-19
3.41672e-19
3.07983e-19
2.79592e-19
2.28292e-19
2.3603e-19
1.77257e-19
1.89111e-19
1.51064e-19
1.52234e-19
1.25945e-19
1.23685e-19
9.76828e-20
1.05012e-19
7.49782e-20
8.85663e-20
6.52104e-20
6.51305e-20
7.59611e-20
3.16408e-20
8.59347e-20
3.13838e-20
4.85494e-20
8.34363e-20
3.06785e-21
1.14663e-19
4.01077e-20
7.31891e-20
1.43079e-19
5.28845e-20
1.76043e-19
1.58765e-19
1.51073e-19
2.79463e-19
2.59058e-19
3.40314e-19
4.98891e-19
5.81781e-19
8.14782e-19
1.20414e-18
1.6015e-18
5.25398e-18
5.79792e-18
4.98984e-18
1.14197e-17
5.563e-18
3.78865e-18
2.9635e-18
2.25012e-18
1.80412e-18
1.43617e-18
1.1176e-18
9.54365e-19
9.28049e-19
8.63623e-19
7.53051e-19
6.14627e-19
5.2238e-19
4.45639e-19
4.16396e-19
3.58551e-19
3.33238e-19
3.00607e-19
2.73988e-19
2.23397e-19
2.31411e-19
1.73852e-19
1.85738e-19
1.48911e-19
1.49958e-19
1.24634e-19
1.22162e-19
9.6822e-20
1.04096e-19
7.43709e-20
8.77839e-20
6.50805e-20
6.41342e-20
7.62391e-20
3.10818e-20
8.59383e-20
3.20598e-20
4.78572e-20
8.49812e-20
2.63394e-21
1.14979e-19
4.14927e-20
7.19053e-20
1.4476e-19
5.21828e-20
1.7571e-19
1.5917e-19
1.49168e-19
2.77749e-19
2.55879e-19
3.31949e-19
4.88333e-19
5.57821e-19
7.82667e-19
1.12916e-18
1.46814e-18
5.2144e-18
5.64508e-18
4.62011e-18
1.12405e-17
5.17226e-18
3.39419e-18
2.64327e-18
2.01451e-18
1.62803e-18
1.31557e-18
1.03792e-18
8.94592e-19
8.76345e-19
8.19696e-19
7.19244e-19
5.8997e-19
5.04065e-19
4.31242e-19
4.04282e-19
3.4852e-19
3.24403e-19
2.9286e-19
2.68234e-19
2.18357e-19
2.26549e-19
1.70441e-19
1.82018e-19
1.46634e-19
1.47406e-19
1.23134e-19
1.20419e-19
9.58902e-20
1.02973e-19
7.37425e-20
8.67913e-20
6.49395e-20
6.2929e-20
7.63359e-20
3.05397e-20
8.54648e-20
3.28714e-20
4.67009e-20
8.63311e-20
2.10339e-21
1.14431e-19
4.28816e-20
6.95472e-20
1.45658e-19
5.06383e-20
1.73532e-19
1.58228e-19
1.44827e-19
2.731e-19
2.49237e-19
3.18588e-19
4.71837e-19
5.25769e-19
7.39877e-19
1.0394e-18
1.32869e-18
5.04782e-18
5.23851e-18
4.22165e-18
1.06299e-17
4.80335e-18
3.01047e-18
2.3496e-18
1.79425e-18
1.46265e-18
1.20043e-18
9.62029e-19
8.374e-19
8.26151e-19
7.76632e-19
6.85961e-19
5.65578e-19
4.8589e-19
4.16906e-19
3.92074e-19
3.38393e-19
3.15399e-19
2.84924e-19
2.62448e-19
2.13314e-19
2.21557e-19
1.67158e-19
1.78096e-19
1.44313e-19
1.44679e-19
1.21477e-19
1.18504e-19
9.48995e-20
1.01652e-19
7.31146e-20
8.56026e-20
6.47842e-20
6.15376e-20
7.62201e-20
3.0036e-20
8.44566e-20
3.37925e-20
4.50791e-20
8.73569e-20
1.5227e-21
1.12895e-19
4.42206e-20
6.61565e-20
1.45613e-19
4.83405e-20
1.69438e-19
1.55945e-19
1.38139e-19
2.65646e-19
2.39547e-19
3.00854e-19
4.50304e-19
4.87635e-19
6.88731e-19
9.41018e-19
1.18656e-18
4.75278e-18
4.62086e-18
3.79271e-18
9.66538e-18
4.44256e-18
2.63725e-18
2.08529e-18
1.59285e-18
1.31096e-18
1.09274e-18
8.9103e-19
7.83764e-19
7.78368e-19
7.35267e-19
6.53821e-19
5.4195e-19
4.68206e-19
4.02947e-19
3.80052e-19
3.28427e-19
3.0644e-19
2.76959e-19
2.56696e-19
2.08375e-19
2.1651e-19
1.6408e-19
1.74089e-19
1.42012e-19
1.41871e-19
1.19708e-19
1.1646e-19
9.38644e-20
1.0015e-19
7.25041e-20
8.42459e-20
6.46051e-20
6.00139e-20
7.58765e-20
2.95957e-20
8.29326e-20
3.4777e-20
4.30766e-20
8.79735e-20
9.62763e-22
1.10438e-19
4.54746e-20
6.1924e-20
1.44625e-19
4.55025e-20
1.63664e-19
1.52593e-19
1.29631e-19
2.55953e-19
2.27649e-19
2.8005e-19
4.25277e-19
4.46199e-19
6.32657e-19
8.41658e-19
1.04681e-18
4.35881e-18
3.88715e-18
3.34377e-18
8.48549e-18
4.0794e-18
2.2815e-18
1.84991e-18
1.41201e-18
1.1743e-18
9.93653e-19
8.25448e-19
7.34172e-19
7.33618e-19
6.96118e-19
6.23222e-19
5.19388e-19
4.51221e-19
3.89569e-19
3.68414e-19
3.18793e-19
2.97688e-19
2.69109e-19
2.5103e-19
2.03622e-19
2.1147e-19
1.61233e-19
1.70092e-19
1.39775e-19
1.39055e-19
1.17879e-19
1.14343e-19
9.28055e-20
9.84974e-20
7.19234e-20
8.27601e-20
6.43964e-20
5.84246e-20
7.53149e-20
2.92404e-20
8.09775e-20
3.5779e-20
4.08207e-20
8.8157e-20
4.9773e-22
1.07201e-19
4.66471e-20
5.71248e-20
1.42825e-19
4.23983e-20
1.5656e-19
1.48545e-19
1.19951e-19
2.44738e-19
2.14536e-19
2.5761e-19
3.9847e-19
4.04248e-19
5.75121e-19
7.47268e-19
9.14022e-19
3.90596e-18
3.14031e-18
2.89635e-18
7.23839e-18
3.71121e-18
1.95357e-18
1.64122e-18
1.25202e-18
1.05289e-18
9.03607e-19
7.65332e-19
6.88735e-19
6.92109e-19
6.59465e-19
5.94389e-19
4.98036e-19
4.35042e-19
3.76885e-19
3.57288e-19
3.09596e-19
2.89258e-19
2.615e-19
2.45489e-19
1.99108e-19
2.06488e-19
1.58614e-19
1.6617e-19
1.37632e-19
1.36292e-19
1.16047e-19
1.12198e-19
9.17471e-20
9.67382e-20
7.13788e-20
8.11956e-20
6.41597e-20
5.68345e-20
7.45743e-20
2.89846e-20
7.87109e-20
3.67651e-20
3.845e-20
8.79233e-20
1.89443e-22
1.03415e-19
4.77632e-20
5.20375e-20
1.40402e-19
3.92913e-20