/*--------------------------------*- C++ -*----------------------------------*\
| =========                 |                                                 |
| \\      /  F ield         | OpenFOAM: The Open Source CFD Toolbox           |
|  \\    /   O peration     | Version:  2312                                  |
|   \\  /    A nd           | Website:  www.openfoam.com                      |
|    \\/     M anipulation  |                                                 |
\*---------------------------------------------------------------------------*/
FoamFile
{
    version     2.0;
    format      ascii;
    arch        "LSB;label=32;scalar=64";
    class       volScalarField;
    location    "400";
    object      nut;
}
// * * * * * * * * * * * * * * * * * * * * * * * * * * * * * * * * * * * * * //

dimensions      [0 2 -1 0 0 0 0];

internalField   nonuniform List<scalar> 
144000
(
1.61147e-26
2.23325e-27
3.82166e-28
3.34884e-27
1.01288e-27
4.03553e-31
2.87842e-28
8.13591e-29
1.9214e-28
1.2438e-28
1.71172e-28
1.34826e-28
1.82378e-28
1.6411e-28
1.64599e-28
1.48749e-28
2.00463e-28
2.19234e-28
1.9454e-28
2.0057e-28
2.22506e-28
2.45928e-28
2.28139e-28
2.45391e-28
2.29158e-28
2.53651e-28
2.64202e-28
2.87237e-28
2.69176e-28
2.84584e-28
2.54168e-28
2.67605e-28
2.91381e-28
3.12704e-28
2.76971e-28
2.83753e-28
2.45875e-28
2.53043e-28
2.3776e-28
2.47701e-28
1.97068e-28
1.97067e-28
1.35815e-28
1.23379e-28
1.07825e-28
9.77823e-29
4.05266e-29
2.63067e-29
6.39825e-30
2.03874e-30
1.16905e-30
1.30738e-29
1.21351e-28
3.98544e-28
1.75533e-27
4.7578e-28
1.88421e-26
8.89938e-25
1.12317e-24
3.76212e-26
1.19628e-24
2.68621e-26
3.97837e-26
3.84616e-26
8.07037e-28
1.10546e-29
5.08072e-28
2.2296e-28
2.52263e-28
4.2656e-28
2.30947e-28
4.04536e-28
2.77846e-28
4.53462e-28
2.83207e-28
3.70514e-28
3.40514e-28
5.46806e-28
3.63654e-28
4.54521e-28
4.09712e-28
5.77878e-28
4.28777e-28
5.55797e-28
4.30907e-28
5.67061e-28
4.8917e-28
6.52534e-28
5.05846e-28
6.30972e-28
4.84423e-28
5.78439e-28
5.39418e-28
6.94787e-28
5.30072e-28
5.97752e-28
4.72206e-28
5.24316e-28
4.50973e-28
5.13241e-28
3.80157e-28
3.86782e-28
2.6753e-28
2.27409e-28
1.9242e-28
1.96004e-28
7.57557e-29
4.09802e-29
1.05102e-29
2.28815e-30
2.49298e-30
4.11889e-29
2.42914e-28
1.15374e-27
3.34444e-27
2.23076e-27
2.53681e-26
2.3139e-24
6.94035e-24
4.66493e-26
2.54924e-24
4.35167e-25
1.72098e-25
5.6515e-26
2.80468e-27
1.97136e-29
5.55435e-28
4.12431e-28
3.19159e-28
6.07607e-28
3.42937e-28
5.55796e-28
4.13604e-28
6.11606e-28
4.06635e-28
5.31043e-28
4.89911e-28
7.54243e-28
5.18479e-28
6.55616e-28
5.78858e-28
8.14714e-28
6.01314e-28
8.00757e-28
5.96794e-28
8.31226e-28
6.76561e-28
9.3972e-28
6.99286e-28
9.18262e-28
6.61951e-28
8.67025e-28
7.37721e-28
1.00524e-27
7.25114e-28
8.80499e-28
6.40955e-28
7.84466e-28
6.12683e-28
7.52653e-28
5.15606e-28
5.77993e-28
3.52879e-28
3.59465e-28
2.59152e-28
2.89502e-28
9.91648e-29
6.78802e-29
1.25979e-29
5.70381e-30
5.14523e-30
3.84283e-29
4.01274e-28
1.34333e-27
4.7267e-27
1.99642e-27
8.26917e-26
3.80042e-24
7.27791e-24
7.95158e-25
8.61732e-24
3.95394e-24
5.3671e-25
2.87949e-25
3.80377e-27
4.40528e-29
5.30382e-28
4.78259e-28
3.13963e-28
6.4503e-28
3.44416e-28
5.85191e-28
4.14128e-28
6.43676e-28
4.04205e-28
5.58159e-28
4.8187e-28
8.01343e-28
5.11668e-28
6.88483e-28
5.71297e-28
8.57393e-28
5.96047e-28
8.39801e-28
5.90344e-28
8.75606e-28
6.66407e-28
9.96085e-28
6.91164e-28
9.67407e-28
6.54401e-28
9.15608e-28
7.23352e-28
1.07256e-27
7.11919e-28
9.34939e-28
6.28189e-28
8.35901e-28
5.97357e-28
8.0967e-28
5.07068e-28
6.20593e-28
3.49395e-28
3.9064e-28
2.59407e-28
3.20206e-28
1.00046e-28
7.84556e-29
1.42324e-29
9.85711e-30
3.74786e-30
3.62642e-29
3.56734e-28
1.17765e-27
4.00693e-27
1.5649e-27
1.11012e-25
6.0103e-24
1.05047e-23
5.5578e-24
1.55561e-23
1.75275e-23
7.57972e-25
9.89266e-25
1.06167e-26
1.27386e-28
5.58021e-28
5.71935e-28
3.05563e-28
7.32811e-28
3.19444e-28
6.55766e-28
3.98167e-28
7.17009e-28
3.8868e-28
6.13358e-28
4.68892e-28
8.82368e-28
4.9564e-28
7.38811e-28
5.63602e-28
9.22295e-28
5.87015e-28
8.92149e-28
5.83755e-28
9.31917e-28
6.63255e-28
1.06713e-27
6.83217e-28
1.02997e-27
6.47505e-28
9.72267e-28
7.2087e-28
1.15548e-27
7.00754e-28
9.99221e-28
6.1852e-28
8.97311e-28
5.91111e-28
8.8081e-28
5.00497e-28
6.78484e-28
3.48372e-28
4.33407e-28
2.67165e-28
3.70305e-28
1.02708e-28
9.96196e-29
1.82091e-29
2.03994e-29
2.33892e-30
3.21551e-29
2.98549e-28
9.90934e-28
3.02465e-27
1.01151e-27
1.69321e-25
9.97825e-24
1.37904e-23
2.26812e-23
2.01701e-23
4.94513e-23
6.92111e-25
2.41146e-24
3.02744e-26
3.11961e-28
6.51021e-28
6.8255e-28
3.26397e-28
8.39254e-28
3.0552e-28
7.4681e-28
3.93009e-28
8.10613e-28
3.81136e-28
6.87746e-28
4.74304e-28
9.94627e-28
4.90817e-28
8.20729e-28
5.72454e-28
1.02249e-27
5.92579e-28
9.76004e-28
5.94852e-28
1.02254e-27
6.82863e-28
1.17435e-27
6.97727e-28
1.12563e-27
6.61815e-28
1.06469e-27
7.48593e-28
1.27529e-27
7.15109e-28
1.0972e-27
6.33397e-28
9.94339e-28
6.10721e-28
9.88968e-28
5.16081e-28
7.69853e-28
3.64158e-28
5.06676e-28
2.94384e-28
4.51901e-28
1.14585e-28
1.4049e-28
2.78202e-29
4.57754e-29
1.90515e-30
3.3278e-29
2.27683e-28
7.87542e-28
1.94223e-27
5.07962e-28
2.55523e-25
1.59884e-23
1.73711e-23
6.06879e-23
2.24016e-23
1.07888e-22
4.51867e-25
4.80037e-24
7.72752e-26
6.09055e-28
8.05402e-28
7.86344e-28
3.71995e-28
9.39679e-28
3.07097e-28
8.31838e-28
4.02166e-28
9.0331e-28
3.81438e-28
7.68581e-28
4.94441e-28
1.11814e-27
4.93771e-28
9.20066e-28
5.914e-28
1.14077e-27
6.03606e-28
1.07842e-27
6.14352e-28
1.1371e-27
7.14839e-28
1.30158e-27
7.2144e-28
1.24256e-27
6.87431e-28
1.18453e-27
7.9327e-28
1.41644e-27
7.42435e-28
1.21689e-27
6.63693e-28
1.11822e-27
6.49186e-28
1.12279e-27
5.4735e-28
8.91368e-28
3.96245e-28
6.14379e-28
3.43469e-28
5.70757e-28
1.40089e-28
2.13515e-28
5.05754e-29
1.0619e-28
4.75475e-30
5.47587e-29
1.65963e-28
6.03702e-28
1.09153e-27
4.56802e-28
3.40688e-25
2.42497e-23
2.40906e-23
1.25751e-22
2.16708e-23
1.96472e-22
1.90434e-25
8.20293e-24
1.76254e-25
9.97929e-28
1.00814e-27
8.73402e-28
4.28608e-28
1.04553e-27
3.16278e-28
9.11199e-28
4.20896e-28
9.93775e-28
3.89043e-28
8.54735e-28
5.22716e-28
1.24556e-27
5.01668e-28
1.02649e-27
6.15823e-28
1.26902e-27
6.17179e-28
1.19241e-27
6.38941e-28
1.26659e-27
7.49992e-28
1.44421e-27
7.50574e-28
1.37405e-27
7.1955e-28
1.32188e-27
8.44946e-28
1.57509e-27
7.7737e-28
1.35428e-27
7.05571e-28
1.26426e-27
6.99181e-28
1.28412e-27
5.951e-28
1.0458e-27
4.47216e-28
7.62663e-28
4.19359e-28
7.46095e-28
1.8834e-28
3.45917e-28
1.03644e-28
2.49629e-28
2.47779e-29
1.55735e-28
1.68308e-28
6.31023e-28
9.93116e-28
2.53885e-27
4.28741e-25
3.50938e-23
3.52284e-23
2.16168e-22
2.10725e-23
3.16495e-22
5.66003e-26
1.25389e-23
3.68488e-25
1.54411e-27
1.30027e-27
9.24898e-28
4.86772e-28
1.17167e-27
3.26918e-28
9.93075e-28
4.47268e-28
1.08452e-27
4.01373e-28
9.46982e-28
5.61898e-28
1.37532e-27
5.1426e-28
1.13909e-27
6.49518e-28
1.40361e-27
6.3325e-28
1.31752e-27
6.68921e-28
1.41006e-27
7.93785e-28
1.60009e-27
7.8269e-28
1.5233e-27
7.57778e-28
1.47907e-27
9.08354e-28
1.75264e-27
8.18228e-28
1.51494e-27
7.59771e-28
1.4375e-27
7.68398e-28
1.47957e-27
6.6149e-28
1.24821e-27
5.25105e-28
9.70984e-28
5.41178e-28
1.00955e-27
2.77527e-28
5.88364e-28
2.27993e-28
5.78466e-28
1.18504e-28
5.19559e-28
4.05768e-28
1.39537e-27
3.10315e-27
1.42397e-26
4.88488e-25
4.89297e-23
5.86744e-23
3.26204e-22
2.17126e-23
4.66644e-22
7.90995e-26
1.75526e-23
7.09692e-25
2.46505e-27
1.7958e-27
9.13743e-28
5.49012e-28
1.32521e-27
3.37073e-28
1.08268e-27
4.78255e-28
1.17962e-27
4.18823e-28
1.0451e-27
6.08442e-28
1.50901e-27
5.32431e-28
1.2576e-27
6.90201e-28
1.54418e-27
6.54972e-28
1.45221e-27
7.06845e-28
1.56702e-27
8.42783e-28
1.77168e-27
8.22451e-28
1.68879e-27
8.04792e-28
1.65699e-27
9.8012e-28
1.95432e-27
8.69704e-28
1.70345e-27
8.30478e-28
1.6465e-27
8.56985e-28
1.72443e-27
7.57166e-28
1.51565e-27
6.43037e-28
1.26812e-27
7.29517e-28
1.41392e-27
4.4337e-28
1.03081e-27
5.06909e-28
1.29472e-27
4.56847e-28
1.62338e-27
1.50285e-27
4.6135e-27
1.29438e-26
5.45076e-26
5.32361e-25
6.66217e-23
1.01351e-22
4.45224e-22
2.98813e-23
6.42419e-22
3.4386e-25
2.29777e-23
1.26028e-24
4.24236e-27
2.7227e-27
7.96472e-28
6.23508e-28
1.50359e-27
3.47255e-28
1.17959e-27
5.1466e-28
1.2798e-27
4.39158e-28
1.15323e-27
6.63439e-28
1.64825e-27
5.54738e-28
1.38547e-27
7.40036e-28
1.68956e-27
6.81531e-28
1.59875e-27
7.52467e-28
1.73908e-27
9.02654e-28
1.95646e-27
8.68957e-28
1.87494e-27
8.61371e-28
1.8604e-27
1.06676e-27
2.18201e-27
9.33135e-28
1.92853e-27
9.21245e-28
1.90197e-27
9.76644e-28
2.03156e-27
8.90361e-28
1.87707e-27
8.18535e-28
1.69792e-27
1.0256e-27
2.03571e-27
7.49626e-28
1.82236e-27
1.10262e-27
2.75628e-27
1.44694e-27
4.5262e-27
5.09074e-27
1.44355e-26
4.26782e-26
1.53464e-25
5.47288e-25
9.08566e-23
1.8676e-22
5.6145e-22
4.48151e-23
8.45737e-22
1.3226e-24
2.88643e-23
2.08603e-24
8.67006e-27
3.84018e-27
6.25439e-28
6.96996e-28
1.732e-27
3.52518e-28
1.29259e-27
5.51381e-28
1.39333e-27
4.61131e-28
1.27431e-27
7.21722e-28
1.79921e-27
5.79646e-28
1.52591e-27
7.94448e-28
1.84448e-27
7.13249e-28
1.75967e-27
8.06538e-28
1.92785e-27
9.67467e-28
2.15976e-27
9.26632e-28
2.0821e-27
9.29875e-28
2.09003e-27
1.16601e-27
2.44328e-27
1.01386e-27
2.19764e-27
1.03841e-27
2.21611e-27
1.12915e-27
2.42441e-27
1.07933e-27
2.36379e-27
1.07772e-27
2.31717e-27
1.48296e-27
3.00491e-27
1.31091e-27
3.1919e-27
2.30316e-27
5.57872e-27
3.8885e-27
1.1117e-26
1.43596e-26
3.82637e-26
1.1203e-25
3.47983e-25
5.70268e-25
1.24687e-22
3.18916e-22
6.56264e-22
7.84457e-23
1.06861e-21
3.08119e-24
3.50284e-23
3.18605e-24
2.01822e-26
5.169e-27
4.116e-28
7.78448e-28
2.01533e-27
3.52244e-28
1.42271e-27
5.89248e-28
1.52171e-27
4.81278e-28
1.41287e-27
7.86365e-28
1.96226e-27
6.05122e-28
1.68281e-27
8.56475e-28
2.00957e-27
7.46994e-28
1.94011e-27
8.67062e-28
2.13532e-27
1.04491e-27
2.38176e-27
9.91354e-28
2.31925e-27
1.0097e-27
2.35095e-27
1.28863e-27
2.74098e-27
1.11227e-27
2.52422e-27
1.1861e-27
2.60185e-27
1.33306e-27
2.92418e-27
1.3355e-27
3.02496e-27
1.4521e-27
3.20105e-27
2.1872e-27
4.45246e-27
2.23582e-27
5.52138e-27
4.56476e-27
1.07404e-26
9.06578e-27
2.44009e-26
3.43423e-26
8.70105e-26
2.46873e-25
6.81099e-25
5.68049e-25
1.70394e-22
5.30534e-22
6.97299e-22
1.44902e-22
1.31003e-21
5.94343e-24
4.31562e-23
4.51873e-24
4.73026e-26
6.72604e-27
1.96661e-28
8.84934e-28
2.34932e-27
3.48659e-28
1.56769e-27
6.28459e-28
1.66338e-27
5.03874e-28
1.56725e-27
8.52095e-28
2.14208e-27
6.3311e-28
1.85792e-27
9.20434e-28
2.1898e-27
7.85117e-28
2.13959e-27
9.36344e-28
2.36466e-27
1.12805e-27
2.63113e-27
1.06763e-27
2.58579e-27
1.1053e-27
2.64782e-27
1.42835e-27
3.08803e-27
1.23605e-27
2.91482e-27
1.37394e-27
3.07538e-27
1.59332e-27
3.56308e-27
1.6872e-27
3.9045e-27
1.9914e-27
4.44037e-27
3.22596e-27
6.53965e-27
3.68184e-27
9.30885e-27
8.51357e-27
1.95175e-26
1.88553e-26
4.80623e-26
7.12988e-26
1.71757e-25
4.68516e-25
1.1554e-24
6.01077e-25
2.37076e-22
8.61342e-22
7.12748e-22
2.79088e-22
1.55939e-21
9.20995e-24
5.40058e-23
5.90008e-24
1.04029e-25
8.37852e-27
4.75189e-29
1.04819e-27
2.70707e-27
3.46618e-28
1.71579e-27
6.76512e-28
1.80982e-27
5.29606e-28
1.73674e-27
9.25306e-28
2.33369e-27
6.63883e-28
2.05209e-27
9.91659e-28
2.38237e-27
8.27441e-28
2.36416e-27
1.01265e-27
2.61913e-27
1.22406e-27
2.90668e-27
1.15352e-27
2.89191e-27
1.21568e-27
2.98895e-27
1.59497e-27
3.48781e-27
1.38673e-27
3.38548e-27
1.60745e-27
3.65541e-27
1.93221e-27
4.36952e-27
2.15698e-27
5.07357e-27
2.74841e-27
6.15789e-27
4.74417e-27
9.5703e-27
6.02297e-27
1.50098e-26
1.50142e-26
3.34815e-26
3.53646e-26
8.63527e-26
1.31224e-25
3.02245e-25
7.86107e-25
1.75048e-24
6.84343e-25
3.33085e-22
1.3743e-21
6.96474e-22
4.89482e-22
1.90145e-21
1.23515e-23
7.03331e-23
7.28072e-24
2.23093e-25
8.80431e-27
1.86141e-30
1.24391e-27
3.14298e-27
3.36116e-28
1.88825e-27
7.25379e-28
1.97273e-27
5.58346e-28
1.92441e-27
9.99221e-28
2.54634e-27
6.97237e-28
2.2689e-27
1.06415e-27
2.59465e-27
8.75407e-28
2.61555e-27
1.09802e-27
2.90267e-27
1.32424e-27
3.21773e-27
1.25593e-27
3.23747e-27
1.34456e-27
3.37811e-27
1.78238e-27
3.95516e-27
1.57229e-27
3.94506e-27
1.89825e-27
4.3617e-27
2.35472e-27
5.38083e-27
2.78669e-27
6.58034e-27
3.78846e-27
8.45377e-27
6.84576e-27
1.38349e-26
9.65023e-27
2.32122e-26
2.50829e-26
5.42364e-26
6.05564e-26
1.42427e-25
2.18187e-25
4.81083e-25
1.19562e-24
2.4191e-24
9.06776e-25
4.65598e-22
2.029e-21
6.46793e-22
8.3009e-22
2.32784e-21
1.4029e-23
9.37796e-23
8.30543e-24
4.37179e-25
8.10105e-27
4.62063e-30
1.5419e-27
3.62213e-27
3.1964e-28
2.08516e-27
7.77474e-28
2.15304e-27
5.85165e-28
2.13479e-27
1.08161e-27
2.77547e-27
7.31317e-28
2.51065e-27
1.14541e-27
2.8239e-27
9.25161e-28
2.90135e-27
1.18889e-27
3.21675e-27
1.44034e-27
3.56379e-27
1.36841e-27
3.63728e-27
1.48754e-27
3.82177e-27
2.00796e-27
4.49031e-27
1.79036e-27
4.61539e-27
2.2483e-27
5.21162e-27
2.88946e-27
6.62299e-27
3.58612e-27
8.50232e-27
5.14184e-27
1.14469e-26
9.68019e-27
1.9475e-26
1.46758e-26
3.45303e-26
3.90347e-26
8.18445e-26
9.56663e-26
2.17156e-25
3.30491e-25
6.99495e-25
1.66183e-24
3.0716e-24
1.3306e-24
6.44525e-22
2.8851e-21
5.59383e-22
1.33312e-21
2.87192e-21
1.41118e-23
1.29617e-22
8.75962e-24
7.75641e-25
6.38711e-27
9.8581e-29
2.02087e-27
4.11291e-27
2.98997e-28
2.31299e-27
8.30268e-28
2.35034e-27
6.15531e-28
2.36662e-27
1.16372e-27
3.03167e-27
7.68456e-28
2.78111e-27
1.22685e-27
3.07931e-27
9.80131e-28
3.21832e-27
1.28847e-27
3.56599e-27
1.56304e-27
3.95606e-27
1.49429e-27
4.08462e-27
1.65239e-27
4.32465e-27
2.2595e-27
5.11174e-27
2.04941e-27
5.39597e-27
2.6687e-27
6.2148e-27
3.53335e-27
8.12401e-27
4.58697e-27
1.08688e-26
6.88266e-27
1.52266e-26
1.33687e-26
2.6588e-26
2.12974e-26
4.89184e-26
5.66756e-26
1.14662e-25
1.40928e-25
3.04735e-25
4.61869e-25
9.33535e-25
2.137e-24
3.61956e-24
2.11687e-24
8.76385e-22
3.93991e-21
4.76509e-22
2.04518e-21
3.51991e-21
1.24178e-23
1.79177e-22
8.44004e-24
1.25653e-24
4.02479e-27
4.56207e-28
2.85076e-27
4.51403e-27
2.8346e-28
2.54838e-27
8.96597e-28
2.54416e-27
6.52332e-28
2.61288e-27
1.25791e-27
3.29937e-27
8.10143e-28
3.07659e-27
1.31762e-27
3.35014e-27
1.04044e-27
3.56921e-27
1.39494e-27
3.95107e-27
1.70105e-27
4.38839e-27
1.6298e-27
4.59033e-27
1.83482e-27
4.89649e-27
2.54732e-27
5.81279e-27
2.34523e-27
6.30166e-27
3.15454e-27
7.38162e-27
4.30124e-27
9.8957e-27
5.78916e-27
1.37425e-26
9.03394e-27
1.98187e-26
1.79657e-26
3.51764e-26
2.95227e-26
6.64956e-26
7.82175e-26
1.53933e-25
1.91251e-25
3.99829e-25
5.96016e-25
1.15794e-24
2.56429e-24
4.02516e-24
3.34839e-24
1.16275e-21
5.17034e-21
3.99132e-22
2.93375e-21
4.34e-21
9.87362e-24
2.46717e-22
7.43955e-24
1.90067e-24
1.56096e-27
1.12708e-27
4.11124e-27
4.86566e-27
2.65482e-28
2.8267e-27
9.64575e-28
2.74973e-27
6.98188e-28
2.87813e-27
1.35384e-27
3.5923e-27
8.57943e-28
3.40198e-27
1.4088e-27
3.64569e-27
1.10955e-27
3.95168e-27
1.51246e-27
4.37758e-27
1.84255e-27
4.87188e-27
1.78628e-27
5.15063e-27
2.03805e-27
5.53561e-27
2.85366e-27
6.60965e-27
2.68441e-27
7.32547e-27
3.71343e-27
8.71843e-27
5.18191e-27
1.19294e-26
7.23405e-27
1.70412e-26
1.16059e-26
2.508e-26
2.32858e-26
4.49461e-26
3.9107e-26
8.61086e-26
1.02514e-25
1.96608e-25
2.42379e-25
4.91365e-25
7.13509e-25
1.33842e-24
2.88367e-24
4.23544e-24
5.20151e-24
1.50073e-21
6.46573e-21
3.5788e-22
3.98803e-21
5.30103e-21
7.17425e-24
3.3041e-22
5.83522e-24
2.65888e-24
2.54038e-28
2.00917e-27
6.04429e-27
5.10734e-27
2.47416e-28
3.1563e-27
1.03048e-27
2.97585e-27
7.44193e-28
3.1677e-27
1.45789e-27
3.90241e-27
9.07245e-28
3.75672e-27
1.5073e-27
3.96133e-27
1.18114e-27
4.37501e-27
1.63372e-27
4.84155e-27
1.99818e-27
5.39969e-27
1.95213e-27
5.78048e-27
2.25019e-27
6.23235e-27
3.19719e-27
7.48714e-27
3.05079e-27
8.47709e-27
4.324e-27
1.02063e-26
6.17316e-27
1.41871e-26
8.84268e-27
2.0724e-26
1.44338e-26
3.08146e-26
2.90448e-26
5.52444e-26
4.90097e-26
1.05829e-25
1.25744e-25
2.35386e-25
2.86176e-25
5.62866e-25
7.89477e-25
1.43598e-24
3.01828e-24
4.13002e-24
7.98916e-24
1.88098e-21
7.75977e-21
3.58498e-22
5.24144e-21
6.39112e-21
5.32445e-24
4.27536e-22
3.99284e-24
3.41903e-24
1.25209e-28
2.9741e-27
8.943e-27
5.22178e-27
2.30109e-28
3.55073e-27
1.08647e-27
3.22995e-27
7.89656e-28
3.47941e-27
1.56197e-27
4.24181e-27
9.58739e-28
4.13958e-27
1.60785e-27
4.30423e-27
1.25474e-27
4.8291e-27
1.758e-27
5.33753e-27
2.16013e-27
5.97375e-27
2.12254e-27
6.46319e-27
2.47394e-27
6.98578e-27
3.56166e-27
8.43326e-27
3.43919e-27
9.71469e-27
4.96606e-27
1.17899e-26
7.22112e-27
1.65872e-26
1.0525e-26
2.45819e-26
1.73541e-26
3.65802e-26
3.47406e-26
6.5082e-26
5.81261e-26
1.23021e-25
1.44385e-25
2.62891e-25
3.13125e-25
5.955e-25
8.06595e-25
1.41758e-24
2.92719e-24
3.69648e-24
1.18439e-23
2.27995e-21
8.94025e-21
4.28285e-22
6.55703e-21
7.51875e-21
4.87671e-24
5.26502e-22
2.40586e-24
4.13381e-24
1.46355e-27
3.91064e-27
1.33314e-26
5.10678e-27
2.25295e-28
3.91952e-27
1.16504e-27
3.43864e-27
8.46137e-28
3.76141e-27
1.68958e-27
4.5606e-27
1.01642e-27
4.50962e-27
1.7253e-27
4.63108e-27
1.33321e-27
5.27832e-27
1.88399e-27
5.83546e-27
2.33169e-27
6.55906e-27
2.289e-27
7.16912e-27
2.68852e-27
7.76537e-27
3.93013e-27
9.39606e-27
3.81649e-27
1.09773e-26
5.57695e-27
1.33894e-26
8.23522e-27
1.89802e-26
1.20787e-26
2.83644e-26
1.99355e-26
4.18681e-26
3.95076e-26
7.33127e-26
6.46708e-26
1.35292e-25
1.5433e-25
2.74551e-25
3.15074e-25
5.83702e-25
7.52974e-25
1.2721e-24
2.59907e-24
3.07116e-24
1.66413e-23
2.66192e-21
9.79531e-21
6.19243e-22
8.11983e-21
8.77885e-21
7.82454e-24
6.26566e-22
1.28056e-24
4.79341e-24
7.64022e-27
4.91691e-27
2.03331e-26
4.70177e-27
2.43159e-28
4.16648e-27
1.30478e-27
3.51066e-27
9.54035e-28
3.93407e-27
1.85228e-27
4.81551e-27
1.10528e-27
4.80255e-27
1.86841e-27
4.90705e-27
1.44164e-27
5.66664e-27
2.03725e-27
6.30086e-27
2.50244e-27
7.14088e-27
2.46972e-27
7.85261e-27
2.90653e-27
8.52708e-27
4.24513e-27
1.03949e-26
4.16878e-27
1.22006e-26
6.12021e-27
1.49521e-26
9.05249e-27
2.12897e-26
1.33284e-26
3.18188e-26
2.17979e-26
4.62407e-26
4.21022e-26
7.94471e-26
6.70693e-26
1.40939e-25
1.52238e-25
2.69148e-25
2.90094e-25
5.30839e-25
6.3923e-25
1.04494e-24
2.12427e-24
2.47696e-24
2.10579e-23
2.98415e-21
1.05616e-20
1.02181e-21
9.22634e-21
1.04492e-20
1.25543e-23
7.68276e-22
5.40576e-25
5.53178e-24
2.79781e-26
5.53167e-27
3.16404e-26
4.36594e-27
2.55264e-28
4.69257e-27
1.48005e-27
3.70484e-27
1.09711e-27
4.25401e-27
2.12326e-27
5.21471e-27
1.22844e-27
5.27304e-27
2.1143e-27
5.31783e-27
1.59872e-27
6.21642e-27
2.2745e-27
6.93246e-27
2.8015e-27
7.90039e-27
2.74271e-27
8.75377e-27
3.22674e-27
9.51359e-27
4.77082e-27
1.16249e-26
4.62593e-27
1.36631e-26
6.8378e-27
1.67086e-26
1.01418e-26
2.37178e-26
1.47644e-26
3.52779e-26
2.37523e-26
4.99716e-26
4.48632e-26
8.32679e-26
6.76895e-26
1.39829e-25
1.44853e-25
2.48439e-25
2.5172e-25
4.50879e-25
5.08267e-25
8.05135e-25
1.65774e-24
1.93656e-24
2.64967e-23
3.30847e-21
1.08697e-20
1.79515e-21
1.84076e-26
2.19484e-27
3.97439e-28
3.37284e-27
9.16059e-28
2.01252e-31
2.68879e-28
8.96511e-29
1.84558e-28
1.29812e-28
1.67352e-28
1.36914e-28
1.81929e-28
1.63425e-28
1.67982e-28
1.45829e-28
2.04061e-28
2.14031e-28
1.98386e-28
1.96209e-28
2.25492e-28
2.41787e-28
2.30839e-28
2.41409e-28
2.33676e-28
2.48753e-28
2.66826e-28
2.8491e-28
2.69193e-28
2.84908e-28
2.54398e-28
2.68204e-28
2.89826e-28
3.13796e-28
2.75938e-28
2.84617e-28
2.46646e-28
2.53162e-28
2.3737e-28
2.48898e-28
1.96719e-28
1.98605e-28
1.36777e-28
1.24425e-28
1.07485e-28
9.77443e-29
4.09897e-29
2.62893e-29
6.58304e-30
2.03894e-30
1.05207e-30
1.28994e-29
1.20383e-28
3.91257e-28
1.77763e-27
4.85687e-28
1.8381e-26
9.03057e-25
1.15655e-24
3.62512e-26
1.23886e-24
2.74059e-26
4.00408e-26
3.83215e-26
7.16165e-28
1.11559e-29
4.78113e-28
2.43828e-28
2.38192e-28
4.44311e-28
2.23933e-28
4.1336e-28
2.7351e-28
4.57582e-28
2.83225e-28
3.70785e-28
3.41842e-28
5.4266e-28
3.64398e-28
4.52504e-28
4.10764e-28
5.74591e-28
4.30673e-28
5.50518e-28
4.38071e-28
5.58479e-28
4.9568e-28
6.47123e-28
5.08005e-28
6.30063e-28
4.87611e-28
5.77861e-28
5.40037e-28
6.9509e-28
5.31307e-28
5.97838e-28
4.7583e-28
5.23782e-28
4.52783e-28
5.14972e-28
3.80879e-28
3.89273e-28
2.70062e-28
2.28978e-28
1.92827e-28
1.95978e-28
7.64347e-29
4.12243e-29
1.07171e-29
2.29217e-30
2.36544e-30
4.02318e-29
2.43532e-28
1.13457e-27
3.39123e-27
2.28967e-27
2.47065e-26
2.34185e-24
7.08243e-24
4.6479e-26
2.5801e-24
4.36285e-25
1.71296e-25
5.6094e-26
2.61913e-27
1.91999e-29
5.22668e-28
4.45335e-28
3.00154e-28
6.29877e-28
3.34592e-28
5.65123e-28
4.07894e-28
6.15676e-28
4.0647e-28
5.31934e-28
4.91622e-28
7.50141e-28
5.17747e-28
6.56121e-28
5.77508e-28
8.15903e-28
6.00109e-28
7.9747e-28
6.04632e-28
8.21355e-28
6.85252e-28
9.34909e-28
7.01636e-28
9.18102e-28
6.66985e-28
8.65549e-28
7.40813e-28
1.00458e-27
7.28853e-28
8.79374e-28
6.47686e-28
7.82287e-28
6.17276e-28
7.55034e-28
5.16832e-28
5.81726e-28
3.56361e-28
3.60927e-28
2.60798e-28
2.88562e-28
1.00277e-28
6.80301e-29
1.28008e-29
5.64762e-30
5.00003e-30
3.7743e-29
4.04294e-28
1.31404e-27
4.81872e-27
2.0327e-27
8.15036e-26
3.83845e-24
7.41018e-24
7.94229e-25
8.6834e-24
3.95634e-24
5.355e-25
2.86316e-25
3.61361e-27
4.25161e-29
5.08906e-28
5.06048e-28
2.99205e-28
6.63782e-28
3.38043e-28
5.91979e-28
4.09208e-28
6.46104e-28
4.04678e-28
5.59284e-28
4.85206e-28
7.95883e-28
5.11817e-28
6.91495e-28
5.69059e-28
8.62858e-28
5.91318e-28
8.41912e-28
5.95867e-28
8.70419e-28
6.74369e-28
9.94445e-28
6.91682e-28
9.70742e-28
6.58962e-28
9.16443e-28
7.27386e-28
1.07244e-27
7.16093e-28
9.34041e-28
6.36184e-28
8.33747e-28
6.04115e-28
8.11043e-28
5.08746e-28
6.24421e-28
3.53125e-28
3.92408e-28
2.61989e-28
3.17747e-28
1.01534e-28
7.82504e-29
1.44904e-29
9.62017e-30
3.62041e-30
3.60722e-29
3.57245e-28
1.15086e-27
4.07678e-27
1.58977e-27
1.09795e-25
6.04506e-24
1.06914e-23
5.5582e-24
1.56718e-23
1.75555e-23
7.57814e-25
9.85661e-25
1.03176e-26
1.22713e-28
5.44441e-28
5.94443e-28
2.96384e-28
7.48095e-28
3.1551e-28
6.60342e-28
3.94426e-28
7.18769e-28
3.89894e-28
6.14174e-28
4.73987e-28
8.73641e-28
4.98684e-28
7.41956e-28
5.62609e-28
9.28734e-28
5.81023e-28
8.99406e-28
5.8755e-28
9.31645e-28
6.70744e-28
1.06685e-27
6.82838e-28
1.03712e-27
6.51112e-28
9.75963e-28
7.24431e-28
1.15654e-27
7.04579e-28
1.00004e-27
6.26713e-28
8.96047e-28
5.99062e-28
8.80544e-28
5.02615e-28
6.82753e-28
3.51836e-28
4.36015e-28
2.69469e-28
3.66674e-28
1.04503e-28
9.91392e-29
1.85661e-29
1.98901e-29
2.19426e-30
3.2304e-29
2.95822e-28
9.71498e-28
3.07512e-27
1.02421e-27
1.68022e-25
1.00214e-23
1.40547e-23
2.27201e-23
2.03127e-23
4.95354e-23
6.93331e-25
2.40389e-24
2.97993e-26
3.02516e-28
6.41589e-28
7.00897e-28
3.21694e-28
8.51113e-28
3.0392e-28
7.48783e-28
3.91113e-28
8.11635e-28
3.83944e-28
6.89602e-28
4.80969e-28
9.81629e-28
4.98088e-28
8.21713e-28
5.74556e-28
1.02662e-27
5.88091e-28
9.86493e-28
5.98491e-28
1.02617e-27
6.90351e-28
1.17412e-27
6.97591e-28
1.13646e-27
6.64475e-28
1.07172e-27
7.5107e-28
1.27834e-27
7.18428e-28
1.10097e-27
6.41157e-28
9.95024e-28
6.19e-28
9.87515e-28
5.18746e-28
7.7517e-28
3.67315e-28
5.1067e-28
2.95963e-28
4.47812e-28
1.16793e-28
1.39976e-28
2.83742e-29
4.48652e-29
1.80446e-30
3.38442e-29
2.22966e-28
7.78646e-28
1.97446e-27
5.07811e-28
2.54685e-25
1.60556e-23
1.77063e-23
6.08143e-23
2.25909e-23
1.0816e-22
4.53901e-25
4.79075e-24
7.64924e-26
5.95476e-28
8.00463e-28
8.01033e-28
3.70457e-28
9.50754e-28
3.06525e-28
8.33089e-28
4.01204e-28
9.05307e-28
3.85305e-28
7.73571e-28
5.00886e-28
1.10245e-27
5.04671e-28
9.18074e-28
5.97002e-28
1.14061e-27
6.02436e-28
1.09027e-27
6.18929e-28
1.14289e-27
7.23082e-28
1.29944e-27
7.23244e-28
1.25538e-27
6.89741e-28
1.1939e-27
7.94627e-28
1.42155e-27
7.45704e-28
1.224e-27
6.70612e-28
1.12138e-27
6.57221e-28
1.1206e-27
5.5084e-28
8.98002e-28
3.98988e-28
6.20037e-28
3.43937e-28
5.67166e-28
1.42899e-28
2.13334e-28
5.14791e-29
1.04733e-28
4.84006e-30
5.60176e-29
1.61417e-28
6.06761e-28
1.11076e-27
4.46598e-28
3.4038e-25
2.43723e-23
2.45669e-23
1.26149e-22
2.18271e-23
1.97023e-22
1.90676e-25
8.19251e-24
1.74645e-25
9.82814e-28
1.01329e-27
8.80437e-28
4.31508e-28
1.05645e-27
3.161e-28
9.13343e-28
4.20074e-28
9.98179e-28
3.92886e-28
8.63395e-28
5.27889e-28
1.22997e-27
5.14981e-28
1.02236e-27
6.24662e-28
1.26439e-27
6.20013e-28
1.20417e-27
6.45131e-28
1.27359e-27
7.59429e-28
1.43927e-27
7.55275e-28
1.38697e-27
7.22223e-28
1.3326e-27
8.46403e-28
1.58203e-27
7.81231e-28
1.36427e-27
7.11759e-28
1.27043e-27
7.06861e-28
1.28195e-27
5.99478e-28
1.05385e-27
4.49563e-28
7.70636e-28
4.19033e-28
7.44256e-28
1.91909e-28
3.46785e-28
1.05041e-28
2.47722e-28
2.57599e-29
1.58418e-28
1.65451e-28
6.44674e-28
9.99021e-28
2.51921e-27
4.30164e-25
3.52941e-23
3.579e-23
2.16931e-22
2.12322e-23
3.17514e-22
5.51609e-26
1.2532e-23
3.65018e-25
1.52489e-27
1.31013e-27
9.23404e-28
4.95291e-28
1.18173e-27
3.27063e-28
9.96865e-28
4.46e-28
1.09261e-27
4.04367e-28
9.59798e-28
5.64385e-28
1.36303e-27
5.28475e-28
1.13438e-27
6.60468e-28
1.3954e-27
6.39964e-28
1.32863e-27
6.76826e-28
1.41765e-27
8.04357e-28
1.59177e-27
7.90976e-28
1.53453e-27
7.61617e-28
1.48982e-27
9.10762e-28
1.7607e-27
8.23495e-28
1.52686e-27
7.65713e-28
1.44654e-27
7.75758e-28
1.47771e-27
6.67032e-28
1.2575e-27
5.27243e-28
9.81762e-28
5.40011e-28
1.01062e-27
2.82187e-28
5.91108e-28
2.29992e-28
5.76327e-28
1.22154e-28
5.24892e-28
4.06157e-28
1.42149e-27
3.09468e-27
1.42446e-26
4.91214e-25
4.91984e-23
5.94263e-23
3.27491e-22
2.19065e-23
4.68438e-22
7.38999e-26
1.75534e-23
7.01926e-25
2.44209e-27
1.82504e-27
9.02744e-28
5.65521e-28
1.33113e-27
3.38382e-28
1.08715e-27
4.76806e-28
1.19137e-27
4.20852e-28
1.06246e-27
6.07505e-28
1.50277e-27
5.46417e-28
1.25417e-27
7.02145e-28
1.53397e-27
6.65066e-28
1.46257e-27
7.16396e-28
1.57523e-27
8.54302e-28
1.76021e-27
8.34527e-28
1.69725e-27
8.10517e-28
1.66724e-27
9.84173e-28
1.96287e-27
8.77141e-28
1.71613e-27
8.36965e-28
1.65815e-27
8.64369e-28
1.72287e-27
7.64402e-28
1.52584e-27
6.45496e-28
1.2826e-27
7.27414e-28
1.41917e-27
4.49738e-28
1.03656e-27
5.09826e-28
1.29305e-27
4.66619e-28
1.63222e-27
1.51409e-27
4.65991e-27
1.29318e-26
5.48249e-26
5.35871e-25
6.69201e-23
1.02392e-22
4.47143e-22
3.0412e-23
6.45388e-22
3.24293e-25
2.2992e-23
1.24737e-24
4.14493e-27
2.83413e-27
7.72603e-28
6.52002e-28
1.49905e-27
3.51297e-28
1.18206e-27
5.14144e-28
1.29367e-27
4.40707e-28
1.17447e-27
6.59193e-28
1.64918e-27
5.6779e-28
1.38453e-27
7.52121e-28
1.67877e-27
6.94369e-28
1.60861e-27
7.63411e-28
1.74794e-27
9.14699e-28
1.94261e-27
8.84558e-28
1.88039e-27
8.69291e-28
1.86989e-27
1.07291e-27
2.19056e-27
9.43167e-28
1.94101e-27
9.29008e-28
1.91561e-27
9.84447e-28
2.03015e-27
8.99787e-28
1.88796e-27
8.21889e-28
1.717e-27
1.02254e-27
2.04662e-27
7.5864e-28
1.83315e-27
1.10688e-27
2.75849e-27
1.46876e-27
4.54293e-27
5.13096e-27
1.45234e-26
4.27353e-26
1.54635e-25
5.50565e-25
9.12435e-23
1.88958e-22
5.64602e-22
4.54766e-23
8.50201e-22
1.28108e-24
2.88929e-23
2.06926e-24
8.41469e-27
4.01397e-27
5.97109e-28
7.3699e-28
1.71405e-27
3.59876e-28
1.29157e-27
5.52481e-28
1.40836e-27
4.62316e-28
1.29916e-27
7.14374e-28
1.80825e-27
5.91029e-28
1.52905e-27
8.05806e-28
1.83497e-27
7.28058e-28
1.76983e-27
8.18468e-28
1.93785e-27
9.79585e-28
2.14472e-27
9.45265e-28
2.0846e-27
9.40162e-28
2.09866e-27
1.17488e-27
2.45156e-27
1.02674e-27
2.209e-27
1.0482e-27
2.23117e-27
1.13793e-27
2.42288e-27
1.09168e-27
2.37472e-27
1.08298e-27
2.34164e-27
1.47965e-27
3.02373e-27
1.32479e-27
3.21035e-27
2.30974e-27
5.58943e-27
3.93256e-27
1.11516e-26
1.44629e-26
3.84263e-26
1.1235e-25
3.50633e-25
5.75282e-25
1.25282e-22
3.21726e-22
6.60442e-22
7.92578e-23
1.07452e-21
3.00744e-24
3.50428e-23
3.16426e-24
1.97814e-26
5.38637e-27
3.86259e-28
8.30272e-28
1.97971e-27
3.63681e-28
1.41556e-27
5.93288e-28
1.53576e-27
4.82864e-28
1.44006e-27
7.76664e-28
1.9788e-27
6.14761e-28
1.69083e-27
8.66541e-28
2.00265e-27
7.63134e-28
1.95069e-27
8.79732e-28
2.14672e-27
1.05663e-27
2.36679e-27
1.01235e-27
2.31942e-27
1.0224e-27
2.35881e-27
1.30056e-27
2.74886e-27
1.12803e-27
2.53404e-27
1.19865e-27
2.6177e-27
1.34336e-27
2.92259e-27
1.35141e-27
3.0359e-27
1.46073e-27
3.23184e-27
2.18484e-27
4.48201e-27
2.25584e-27
5.55218e-27
4.57547e-27
1.07695e-26
9.14628e-27
2.44801e-26
3.45549e-26
8.73205e-26
2.47716e-25
6.85962e-25
5.73047e-25
1.71041e-22
5.33795e-22
7.00864e-22
1.4667e-22
1.31812e-21
5.81257e-24
4.31571e-23
4.49408e-24
4.64653e-26
7.03156e-27
1.78415e-28
9.50567e-28
2.29195e-27
3.64502e-28
1.55218e-27
6.36437e-28
1.67445e-27
5.06658e-28
1.59555e-27
8.4056e-28
2.16535e-27
6.41181e-28
1.87119e-27
9.28648e-28
2.18648e-27
8.02066e-28
2.15003e-27
9.49733e-28
2.37748e-27
1.13925e-27
2.61695e-27
1.09075e-27
2.58406e-27
1.12063e-27
2.65512e-27
1.44299e-27
3.09561e-27
1.25496e-27
2.92249e-27
1.39005e-27
3.09142e-27
1.60581e-27
3.56122e-27
1.7081e-27
3.91491e-27
2.00586e-27
4.47841e-27
3.22554e-27
6.58223e-27
3.70847e-27
9.35713e-27
8.53531e-27
1.95777e-26
1.90053e-26
4.82242e-26
7.17213e-26
1.72367e-25
4.70549e-25
1.16398e-24
6.05123e-25
2.37846e-22
8.67077e-22
7.16969e-22
2.83561e-22
1.56999e-21
9.00097e-24
5.39412e-23
5.87648e-24
1.02474e-25
8.76944e-27
4.00948e-29
1.1302e-27
2.62657e-27
3.66794e-28
1.69041e-27
6.8947e-28
1.81608e-27
5.34225e-28
1.76497e-27
9.13034e-28
2.36248e-27
6.70733e-28
2.07072e-27
9.97971e-28
2.38331e-27
8.4478e-28
2.37556e-27
1.02653e-27
2.63344e-27
1.23492e-27
2.89397e-27
1.17848e-27
2.88894e-27
1.23365e-27
2.99611e-27
1.61272e-27
3.49501e-27
1.40883e-27
3.39096e-27
1.62797e-27
3.67115e-27
1.94803e-27
4.36755e-27
2.18417e-27
5.08401e-27
2.77126e-27
6.20482e-27
4.74837e-27
9.6301e-27
6.06346e-27
1.50824e-26
1.50573e-26
3.36e-26
3.5626e-26
8.66692e-26
1.31977e-25
3.03431e-25
7.89899e-25
1.7631e-24
6.86728e-25
3.34115e-22
1.3857e-21
7.02263e-22
4.95296e-22
1.91528e-21
1.21389e-23
7.02339e-23
7.26821e-24
2.21163e-25
9.1713e-27
1.22732e-30
1.33887e-27
3.04285e-27
3.59062e-28
1.85337e-27
7.43232e-28
1.97382e-27
5.64899e-28
1.95221e-27
9.86386e-28
2.58046e-27
7.02773e-28
2.29335e-27
1.06793e-27
2.60097e-27
8.92492e-28
2.62923e-27
1.11193e-27
2.91927e-27
1.3342e-27
3.20759e-27
1.28222e-27
3.2339e-27
1.36518e-27
3.38505e-27
1.8034e-27
3.96162e-27
1.59796e-27
3.94798e-27
1.9242e-27
4.37666e-27
2.37492e-27
5.37854e-27
2.82224e-27
6.5903e-27
3.82352e-27
8.50944e-27
6.85822e-27