/*--------------------------------*- C++ -*----------------------------------*\
| =========                 |                                                 |
| \\      /  F ield         | OpenFOAM: The Open Source CFD Toolbox           |
|  \\    /   O peration     | Version:  2312                                  |
|   \\  /    A nd           | Website:  www.openfoam.com                      |
|    \\/     M anipulation  |                                                 |
\*---------------------------------------------------------------------------*/
FoamFile
{
    version     2.0;
    format      ascii;
    arch        "LSB;label=32;scalar=64";
    class       volScalarField;
    location    "400";
    object      pMean;
}
// * * * * * * * * * * * * * * * * * * * * * * * * * * * * * * * * * * * * * //

dimensions      [0 2 -2 0 0 0 0];

internalField   nonuniform List<scalar> 
144000
(
1.91356e-09
1.77508e-09
3.61982e-10
-5.35161e-10
-5.17846e-10
-2.37053e-10
6.6132e-11
2.44063e-10
3.98546e-10
4.54939e-10
5.31789e-10
5.42277e-10
5.94957e-10
5.88292e-10
6.33144e-10
6.19894e-10
6.56347e-10
6.31218e-10
6.67617e-10
6.44208e-10
6.8e-10
6.50008e-10
6.86073e-10
6.56391e-10
6.94023e-10
6.62893e-10
7.00137e-10
6.64595e-10
7.03161e-10
6.68226e-10
7.0927e-10
6.73994e-10
7.13615e-10
6.7203e-10
7.1317e-10
6.73918e-10
7.17115e-10
6.77449e-10
7.19962e-10
6.7745e-10
7.20855e-10
6.81126e-10
7.25027e-10
6.85884e-10
7.22606e-10
6.78254e-10
7.14038e-10
6.81837e-10
7.14798e-10
6.92213e-10
7.18527e-10
7.16808e-10
7.21979e-10
7.44195e-10
7.03086e-10
7.83946e-10
7.39893e-10
9.25581e-10
-9.07839e-10
-7.40255e-11
1.9531e-09
1.80044e-09
3.51207e-10
-5.432e-10
-5.197e-10
-2.365e-10
6.63387e-11
2.44059e-10
3.98065e-10
4.54448e-10
5.31131e-10
5.41837e-10
5.94405e-10
5.87959e-10
6.32686e-10
6.19688e-10
6.55959e-10
6.31019e-10
6.6725e-10
6.44109e-10
6.79688e-10
6.49923e-10
6.85775e-10
6.5637e-10
6.93759e-10
6.62911e-10
6.9988e-10
6.64616e-10
7.02903e-10
6.68291e-10
7.09035e-10
6.741e-10
7.13378e-10
6.72117e-10
7.12917e-10
6.74066e-10
7.16877e-10
6.77629e-10
7.19719e-10
6.77639e-10
7.20606e-10
6.81369e-10
7.24811e-10
6.86197e-10
7.22382e-10
6.78548e-10
7.13788e-10
6.8224e-10
7.14585e-10
6.92652e-10
7.18362e-10
7.1731e-10
7.21944e-10
7.44534e-10
7.03113e-10
7.83074e-10
7.44071e-10
9.43391e-10
-9.30448e-10
-1.11149e-10
2.03245e-09
1.81351e-09
3.19393e-10
-5.51691e-10
-5.17946e-10
-2.33727e-10
6.78586e-11
2.44603e-10
3.98176e-10
4.53943e-10
5.30568e-10
5.41117e-10
5.93891e-10
5.87313e-10
6.32253e-10
6.192e-10
6.55688e-10
6.30531e-10
6.6695e-10
6.43734e-10
6.79515e-10
6.49561e-10
6.85601e-10
6.56092e-10
6.93654e-10
6.62674e-10
6.99816e-10
6.64377e-10
7.02829e-10
6.68097e-10
7.08995e-10
6.73956e-10
7.13387e-10
6.7194e-10
7.12873e-10
6.73957e-10
7.16885e-10
6.77557e-10
7.19748e-10
6.77571e-10
7.20605e-10
6.81362e-10
7.24852e-10
6.86295e-10
7.22491e-10
6.78624e-10
7.13817e-10
6.82422e-10
7.14729e-10
6.92812e-10
7.18555e-10
7.17461e-10
7.22433e-10
7.44406e-10
7.04249e-10
7.78989e-10
7.49758e-10
9.77765e-10
-9.87493e-10
-1.4456e-10
2.13847e-09
1.78618e-09
2.7098e-10
-5.52617e-10
-5.11469e-10
-2.2796e-10
7.13174e-11
2.4658e-10
3.99275e-10
4.53888e-10
5.30119e-10
5.40344e-10
5.93322e-10
5.8655e-10
6.31702e-10
6.18607e-10
6.55381e-10
6.29918e-10
6.66522e-10
6.43238e-10
6.79298e-10
6.49105e-10
6.85345e-10
6.55725e-10
6.93508e-10
6.62375e-10
6.99742e-10
6.6407e-10
7.02718e-10
6.67837e-10
7.08941e-10
6.73775e-10
7.13437e-10
6.71715e-10
7.12806e-10
6.73802e-10
7.1691e-10
6.77456e-10
7.1982e-10
6.77459e-10
7.20619e-10
6.81301e-10
7.24956e-10
6.86363e-10
7.22779e-10
6.78624e-10
7.13961e-10
6.8248e-10
7.15118e-10
6.92759e-10
7.19098e-10
7.17134e-10
7.23815e-10
7.43006e-10
7.0748e-10
7.69488e-10
7.63079e-10
1.01391e-09
-1.07312e-09
-1.44009e-10
2.25055e-09
1.69008e-09
2.12153e-10
-5.32457e-10
-4.9699e-10
-2.19342e-10
7.6475e-11
2.50144e-10
4.01609e-10
4.5453e-10
5.29859e-10
5.39602e-10
5.9267e-10
5.85714e-10
6.3099e-10
6.1793e-10
6.54985e-10
6.29214e-10
6.65895e-10
6.42644e-10
6.78975e-10
6.48579e-10
6.84934e-10
6.55294e-10
6.93251e-10
6.62045e-10
6.99586e-10
6.6374e-10
7.02484e-10
6.6755e-10
7.0879e-10
6.736e-10
7.13445e-10
6.715e-10
7.12626e-10
6.73642e-10
7.16867e-10
6.77379e-10
7.19853e-10
6.7736e-10
7.20565e-10
6.81231e-10
7.25046e-10
6.86463e-10
7.23151e-10
6.78605e-10
7.14125e-10
6.824e-10
7.15713e-10
6.9237e-10
7.20061e-10
7.16084e-10
7.26323e-10
7.39953e-10
7.13238e-10
7.54644e-10
7.84677e-10
1.04223e-09
-1.1766e-09
-8.41878e-11
2.36105e-09
1.5065e-09
1.449e-10
-4.8137e-10
-4.71591e-10
-2.08872e-10
8.26201e-11
2.55029e-10
4.05096e-10
4.55844e-10
5.29803e-10
5.38892e-10
5.91954e-10
5.8483e-10
6.30142e-10
6.17188e-10
6.54503e-10
6.28449e-10
6.65087e-10
6.41963e-10
6.78541e-10
6.48005e-10
6.84365e-10
6.54801e-10
6.92874e-10
6.6169e-10
6.99337e-10
6.63393e-10
7.0212e-10
6.6724e-10
7.0853e-10
6.73438e-10
7.13396e-10
6.71307e-10
7.12319e-10
6.73485e-10
7.16742e-10
6.77332e-10
7.19825e-10
6.77283e-10
7.20421e-10
6.81154e-10
7.2509e-10
6.86579e-10
7.23591e-10
6.78557e-10
7.14329e-10
6.82121e-10
7.16555e-10
6.91555e-10
7.21531e-10
7.14098e-10
7.30184e-10
7.34816e-10
7.22064e-10
7.34478e-10
8.14832e-10
1.05942e-09
-1.29525e-09
4.81207e-11
2.47397e-09
1.2283e-09
6.44419e-11
-3.93981e-10
-4.31987e-10
-1.97236e-10
8.88689e-11
2.60896e-10
4.09551e-10
4.57729e-10
5.29843e-10
5.38194e-10
5.91137e-10
5.83876e-10
6.29135e-10
6.16374e-10
6.53929e-10
6.27647e-10
6.64117e-10
6.41212e-10
6.78006e-10
6.47412e-10
6.83651e-10
6.54266e-10
6.92384e-10
6.6133e-10
6.98998e-10
6.63055e-10
7.01632e-10
6.66921e-10
7.0816e-10
6.73299e-10
7.13279e-10
6.71157e-10
7.11882e-10
6.73333e-10
7.16519e-10
6.77315e-10
7.19721e-10
6.77238e-10
7.20177e-10
6.81067e-10
7.25079e-10
6.86699e-10
7.24094e-10
6.78456e-10
7.14588e-10
6.81589e-10
7.17663e-10
6.9022e-10
7.23626e-10
7.10988e-10
7.3559e-10
7.27311e-10
7.3424e-10
7.09267e-10
8.52532e-10
1.06645e-09
-1.43058e-09
2.56002e-10
2.59528e-09
8.58099e-10
-3.48494e-11
-2.692e-10
-3.75556e-10
-1.84793e-10
9.44302e-11
2.67373e-10
4.14746e-10
4.6e-10
5.29868e-10
5.37394e-10
5.90128e-10
5.82812e-10
6.27942e-10
6.15461e-10
6.53228e-10
6.26812e-10
6.62986e-10
6.40392e-10
6.77356e-10
6.46817e-10
6.82805e-10
6.53704e-10
6.91787e-10
6.60986e-10
6.98567e-10
6.62748e-10
7.01023e-10
6.6661e-10
7.07687e-10
6.73203e-10
7.13085e-10
6.71073e-10
7.11321e-10
6.73203e-10
7.16199e-10
6.7735e-10
7.19534e-10
6.77236e-10
7.19837e-10
6.80972e-10
7.25026e-10
6.86809e-10
7.24649e-10
6.78288e-10
7.14944e-10
6.8073e-10
7.19088e-10
6.88283e-10
7.26428e-10
7.06662e-10
7.42562e-10
7.17541e-10
7.49456e-10
6.80314e-10
8.9493e-10
1.06617e-09
-1.58112e-09
5.32888e-10
2.73089e-09
4.10702e-10
-1.58528e-10
-1.10824e-10
-3.00365e-10
-1.71343e-10
9.86363e-11
2.74078e-10
4.20499e-10
4.62557e-10
5.29772e-10
5.36416e-10
5.88855e-10
5.81582e-10
6.26519e-10
6.14413e-10
6.52352e-10
6.2593e-10
6.61685e-10
6.39498e-10
6.76569e-10
6.46221e-10
6.81824e-10
6.53121e-10
6.91078e-10
6.60662e-10
6.98039e-10
6.62484e-10
7.00303e-10
6.66323e-10
7.07112e-10
6.73161e-10
7.12809e-10
6.7107e-10
7.1065e-10
6.73103e-10
7.15779e-10
6.77439e-10
7.19266e-10
6.77282e-10
7.19416e-10
6.80871e-10
7.24941e-10
6.86892e-10
7.25269e-10
6.78028e-10
7.15431e-10
6.79521e-10
7.20843e-10
6.8574e-10
7.29897e-10
7.01188e-10
7.50878e-10
7.05987e-10
7.66812e-10
6.49666e-10
9.38191e-10
1.06257e-09
-1.74286e-09
8.60935e-10
2.88226e-09
-9.00844e-11
-3.09179e-10
7.31746e-11
-2.06036e-10
-1.56307e-10
1.00993e-10
2.80614e-10
4.26629e-10
4.65306e-10
5.29485e-10
5.35184e-10
5.87265e-10
5.80154e-10
6.24835e-10
6.13194e-10
6.51254e-10
6.24976e-10
6.60206e-10
6.38517e-10
6.75621e-10
6.45614e-10
6.80706e-10
6.52513e-10
6.90248e-10
6.60359e-10
6.97405e-10
6.62263e-10
6.99474e-10
6.66065e-10
7.06439e-10
6.73175e-10
7.12443e-10
6.7115e-10
7.09881e-10
6.73034e-10
7.15269e-10
6.77583e-10
7.18923e-10
6.77368e-10
7.18934e-10
6.80757e-10
7.24841e-10
6.86934e-10
7.25951e-10
6.77666e-10
7.16069e-10
6.77985e-10
7.22884e-10
6.82652e-10
7.33909e-10
6.94846e-10
7.60085e-10
6.93479e-10
7.84971e-10
6.19902e-10
9.78057e-10
1.05956e-09
-1.90837e-09
1.21693e-09
3.04689e-09
-6.15265e-10
-4.86238e-10
2.71347e-10
-9.37608e-11
-1.38856e-10
1.01241e-10
2.86566e-10
4.3294e-10
4.68169e-10
5.28956e-10
5.33684e-10
5.85334e-10
5.78511e-10
6.22874e-10
6.11786e-10
6.49903e-10
6.23932e-10
6.58544e-10
6.3744e-10
6.74494e-10
6.44984e-10
6.79447e-10
6.51875e-10
6.8929e-10
6.6007e-10
6.96656e-10
6.62081e-10
6.98541e-10
6.65834e-10
7.05669e-10
6.73241e-10
7.11983e-10
6.71306e-10
7.09033e-10
6.72996e-10
7.14675e-10
6.77771e-10
7.18512e-10
6.77487e-10
7.18408e-10
6.80625e-10
7.24729e-10
6.86929e-10
7.26679e-10
6.77215e-10
7.16841e-10
6.76178e-10
7.2512e-10
6.79175e-10
7.38254e-10
6.88029e-10
7.69551e-10
6.81027e-10
8.02398e-10
5.93552e-10
1.01089e-09
1.06004e-09
-2.06755e-09
1.57475e-09
3.21753e-09
-1.13212e-09
-6.8554e-10
4.71181e-10
3.34756e-11
-1.18097e-10
9.93797e-11
2.91513e-10
4.39201e-10
4.71066e-10
5.28177e-10
5.31918e-10
5.8306e-10
5.76646e-10
6.20629e-10
6.10185e-10
6.48285e-10
6.2279e-10
6.56702e-10
6.36268e-10
6.73169e-10
6.44318e-10
6.7805e-10
6.51203e-10
6.88197e-10
6.59785e-10
6.95789e-10
6.61931e-10
6.9751e-10
6.65628e-10
7.04803e-10
6.7335e-10
7.11428e-10
6.71528e-10
7.08115e-10
6.72986e-10
7.14004e-10
6.77998e-10
7.18034e-10
6.77636e-10
7.17848e-10
6.80485e-10
7.24598e-10
6.86887e-10
7.27423e-10
6.76706e-10
7.17699e-10
6.74194e-10
7.27409e-10
6.75508e-10
7.42626e-10
6.81232e-10
7.78577e-10
6.69686e-10
8.17638e-10
5.7273e-10
1.0341e-09
1.06555e-09
-2.20891e-09
1.90981e-09
3.38445e-09
-1.61149e-09
-9.00307e-10
6.60165e-10
1.7139e-10
-9.30762e-11
9.57625e-11
2.95105e-10
4.45153e-10
4.73939e-10
5.27168e-10
5.29905e-10
5.80452e-10
5.74561e-10
6.1811e-10
6.08396e-10
6.464e-10
6.21546e-10
6.5469e-10
6.35003e-10
6.71648e-10
6.43607e-10
6.76522e-10
6.50497e-10
6.86969e-10
6.59496e-10
6.94802e-10
6.61798e-10
6.96388e-10
6.65444e-10
7.03845e-10
6.73493e-10
7.10778e-10
6.71803e-10
7.07139e-10
6.73001e-10
7.13254e-10
6.78253e-10
7.17491e-10
6.7781e-10
7.17253e-10
6.80346e-10
7.2444e-10
6.86822e-10
7.2814e-10
6.76188e-10
7.18579e-10
6.72152e-10
7.29585e-10
6.71923e-10
7.46687e-10
6.74959e-10
7.8647e-10
6.60397e-10
8.29479e-10
5.5892e-10
1.04658e-09
1.07602e-09
-2.32148e-09
2.20197e-09
3.53576e-09
-2.03095e-09
-1.12077e-09
8.27638e-10
3.14771e-10
-6.29857e-11
9.10343e-11
2.9707e-10
4.5053e-10
4.76729e-10
5.25959e-10
5.27676e-10
5.77528e-10
5.72269e-10
6.15334e-10
6.06432e-10
6.44259e-10
6.20198e-10
6.52522e-10
6.33652e-10
6.69933e-10
6.42842e-10
6.74869e-10
6.49757e-10
6.8561e-10
6.592e-10
6.93697e-10
6.61677e-10
6.95182e-10
6.65278e-10
7.028e-10
6.73659e-10
7.10032e-10
6.72119e-10
7.06114e-10
6.7304e-10
7.12424e-10
6.78531e-10
7.16881e-10
6.78012e-10
7.1662e-10
6.80224e-10
7.24231e-10
6.86764e-10
7.28775e-10
6.7572e-10
7.19388e-10
6.70201e-10
7.31471e-10
6.6867e-10
7.50106e-10
6.69686e-10
7.92647e-10
6.53878e-10
8.37157e-10
5.52792e-10
1.0485e-09
1.09003e-09
-2.39697e-09
2.43731e-09
3.65963e-09
-2.37291e-09
-1.33561e-09
9.65423e-10
4.57952e-10
-2.73865e-11
8.60096e-11
2.97227e-10
4.5503e-10
4.79368e-10
5.24589e-10
5.25268e-10
5.74318e-10
5.69786e-10
6.12322e-10
6.04311e-10
6.41872e-10
6.18748e-10
6.50212e-10
6.32227e-10
6.68035e-10
6.42022e-10
6.73102e-10
6.48985e-10
6.84124e-10
6.58887e-10
6.92479e-10
6.61562e-10
6.93901e-10
6.65127e-10
7.01669e-10
6.73843e-10
7.09194e-10
6.72466e-10
7.05046e-10
6.73105e-10
7.11518e-10
6.78831e-10
7.16203e-10
6.78246e-10
7.15941e-10
6.8014e-10
7.23939e-10
6.86748e-10
7.29273e-10
6.75371e-10
7.2003e-10
6.68489e-10
7.32897e-10
6.65993e-10
7.52599e-10
6.65792e-10
7.96686e-10
6.50563e-10
8.40344e-10
5.54305e-10
1.04089e-09
1.10523e-09
-2.42926e-09
2.60793e-09
3.74538e-09
-2.62824e-09
-1.53361e-09
1.06841e-09
5.95345e-10
1.37325e-11
8.1586e-11
2.95512e-10
4.58371e-10
4.81764e-10
5.23091e-10
5.22725e-10
5.7085e-10
5.67132e-10
6.09095e-10
6.02049e-10
6.39256e-10
6.17203e-10
6.47776e-10
6.30736e-10
6.65965e-10
6.41144e-10
6.71231e-10
6.48188e-10
6.82521e-10
6.58553e-10
6.91157e-10
6.61449e-10
6.92553e-10
6.64991e-10
7.00459e-10
6.74038e-10
7.08269e-10
6.72838e-10
7.0394e-10
6.73198e-10
7.10537e-10
6.7915e-10
7.15449e-10
6.78521e-10
7.15203e-10
6.80117e-10
7.23537e-10
6.86812e-10
7.29576e-10
6.75209e-10
7.20411e-10
6.6715e-10
7.33718e-10
6.64085e-10
7.53944e-10
6.63531e-10
7.98366e-10
6.50594e-10
8.39138e-10
5.62827e-10
1.02556e-09
1.11938e-09
-2.41532e-09
2.71118e-09
3.78431e-09
-2.79357e-09
-1.70429e-09
1.1344e-09
7.21791e-10
5.99456e-11
7.8674e-11
2.92e-10
4.60301e-10
4.83811e-10
5.21496e-10
5.2009e-10
5.67158e-10
5.64326e-10
6.0568e-10
5.99662e-10
6.36436e-10
6.1557e-10
6.45228e-10
6.29192e-10
6.6374e-10
6.40209e-10
6.69267e-10
6.47369e-10
6.8081e-10
6.58197e-10
6.89739e-10
6.61335e-10
6.91144e-10
6.64869e-10
6.99179e-10
6.74238e-10
7.07259e-10
6.73228e-10
7.02798e-10
6.73322e-10
7.09478e-10
6.79492e-10
7.14613e-10
6.78847e-10
7.14392e-10
6.8018e-10
7.22996e-10
6.86993e-10
7.29632e-10
6.75294e-10
7.20456e-10
6.66295e-10
7.33826e-10
6.63082e-10
7.54014e-10
6.6302e-10
7.97648e-10
6.5384e-10
8.33994e-10
5.77335e-10
1.00457e-09
1.13019e-09
-2.3546e-09
2.74949e-09
3.77158e-09
-2.87118e-09
-1.83985e-09
1.1638e-09
8.33113e-10
1.10416e-10
7.81041e-11
2.86898e-10
4.60617e-10
4.85401e-10
5.19833e-10
5.17412e-10
5.63277e-10
5.61386e-10
6.02096e-10
5.97169e-10
6.33432e-10
6.13858e-10
6.42585e-10
6.27605e-10
6.61375e-10
6.39218e-10
6.67219e-10
6.46531e-10
6.79002e-10
6.57815e-10
6.88234e-10
6.61216e-10
6.89683e-10
6.64762e-10
6.97833e-10
6.7444e-10
7.0617e-10
6.73633e-10
7.01623e-10
6.73481e-10
7.08343e-10
6.79859e-10
7.13691e-10
6.79235e-10
7.13494e-10
6.80352e-10
7.2229e-10
6.87321e-10
7.29398e-10
6.75677e-10
7.20107e-10
6.66001e-10
7.33155e-10
6.63055e-10
7.52776e-10
6.64263e-10
7.94667e-10
6.59963e-10
8.25641e-10
5.96524e-10
9.80195e-10
1.13561e-09
-2.24963e-09
2.72876e-09
3.70472e-09
-2.86791e-09
-1.93434e-09
1.1595e-09
9.26083e-10
1.63952e-10
8.05308e-11
2.80504e-10
4.59173e-10
4.86421e-10
5.18118e-10
5.14735e-10
5.59245e-10
5.58331e-10
5.98365e-10
5.94586e-10
6.30269e-10
6.12075e-10
6.39862e-10
6.25984e-10
6.58889e-10
6.38174e-10
6.65098e-10
6.4568e-10
6.77109e-10
6.57408e-10
6.86651e-10
6.61092e-10
6.88177e-10
6.64669e-10
6.9643e-10
6.7464e-10
7.05009e-10
6.74051e-10
7.00415e-10
6.73679e-10
7.07131e-10
6.80255e-10
7.12677e-10
6.79695e-10
7.12497e-10
6.80652e-10
7.214e-10
6.87824e-10
7.2885e-10
6.76393e-10
7.1933e-10
6.66307e-10
7.31693e-10
6.64015e-10
7.50281e-10
6.67138e-10
7.89712e-10
6.68477e-10
8.14962e-10
6.19005e-10
9.54377e-10
1.13435e-09
-2.10438e-09
2.65701e-09
3.58433e-09
-2.79326e-09
-1.98428e-09
1.12571e-09
9.98642e-10
2.19118e-10
8.63895e-11
2.7318e-10
4.55885e-10
4.86754e-10
5.16353e-10
5.12096e-10
5.55095e-10
5.55174e-10
5.94506e-10
5.91928e-10
6.26969e-10
6.1023e-10
6.37071e-10
6.24336e-10
6.56297e-10
6.37081e-10
6.62913e-10
6.44816e-10
6.75141e-10
6.56975e-10
6.85e-10
6.60962e-10
6.86633e-10
6.64589e-10
6.94974e-10
6.74838e-10
7.03779e-10
6.7448e-10
6.99174e-10
6.73918e-10
7.05844e-10
6.80684e-10
7.11569e-10
6.80233e-10
7.11395e-10
6.81092e-10
7.20317e-10
6.88517e-10
7.27975e-10
6.77455e-10
7.18115e-10
6.67217e-10
7.29471e-10
6.65902e-10
7.46661e-10
6.71434e-10
7.8317e-10
6.78809e-10
8.02826e-10
6.43427e-10
9.28857e-10
1.12593e-09
-1.92445e-09
2.5432e-09
3.41242e-09
-2.65802e-09
-1.98808e-09
1.06781e-09
1.04981e-09
2.74344e-10
9.58461e-11
2.65314e-10
4.50744e-10
4.86294e-10
5.14524e-10
5.09521e-10
5.50857e-10
5.51928e-10
5.90534e-10
5.89204e-10
6.23554e-10
6.0833e-10
6.34224e-10
6.22668e-10
6.53617e-10
6.35939e-10
6.6067e-10
6.43942e-10
6.73109e-10
6.56516e-10
6.8329e-10
6.60826e-10
6.85058e-10
6.64522e-10
6.93472e-10
6.75033e-10
7.02491e-10
6.74921e-10
6.97902e-10
6.74199e-10
7.04485e-10
6.81148e-10
7.10368e-10
6.80856e-10
7.10183e-10
6.81679e-10
7.19036e-10
6.89405e-10
7.2678e-10
6.78858e-10
7.16477e-10
6.687e-10
7.26562e-10
6.68609e-10
7.42099e-10
6.76873e-10
7.75468e-10
6.90352e-10
7.90149e-10
6.68571e-10
9.04628e-10
1.11061e-09
-1.71535e-09
2.39595e-09
3.1934e-09
-2.47376e-09
-1.94674e-09
9.91704e-10
1.07981e-09
3.28106e-10
1.08833e-10
2.57293e-10
4.43814e-10
4.84954e-10
5.12608e-10
5.07032e-10
5.4656e-10
5.48607e-10
5.86463e-10
5.86426e-10
6.20043e-10
6.06384e-10
6.3133e-10
6.20984e-10
6.50864e-10
6.34754e-10
6.58379e-10
6.43058e-10
6.71022e-10
6.56031e-10
6.81531e-10
6.60684e-10
6.83457e-10
6.64466e-10
6.91932e-10
6.75223e-10
7.01149e-10
6.75373e-10
6.96599e-10
6.74522e-10
7.03057e-10
6.81648e-10
7.09076e-10
6.81565e-10
7.08863e-10
6.82412e-10
7.17564e-10
6.90482e-10
7.25283e-10
6.8058e-10
7.14458e-10
6.70696e-10
7.23073e-10
6.71998e-10
7.36815e-10
6.83157e-10
7.67073e-10
7.02524e-10
7.77695e-10
6.93419e-10
8.82284e-10
1.08905e-09
-1.48313e-09
2.22394e-09
2.93297e-09
-2.25357e-09
-1.86324e-09
9.03535e-10
1.09014e-09
3.79067e-10
1.25052e-10
2.49463e-10
4.35226e-10
4.82681e-10
5.10581e-10
5.04642e-10
5.42233e-10
5.45224e-10
5.8231e-10
5.83596e-10
6.16455e-10
6.044e-10
6.28401e-10
6.19283e-10
6.48049e-10
6.33529e-10
6.56047e-10
6.42162e-10
6.6889e-10
6.5552e-10
6.79731e-10
6.60535e-10
6.81837e-10
6.6442e-10
6.90359e-10
6.75404e-10
6.99762e-10
6.75836e-10
6.9527e-10
6.74884e-10
7.01567e-10
6.82183e-10
7.07702e-10
6.82357e-10
7.07444e-10
6.83284e-10
7.1592e-10
6.9173e-10
7.2352e-10
6.82589e-10
7.12122e-10
6.73125e-10
7.19139e-10
6.75908e-10
7.31059e-10
6.89973e-10
7.58428e-10
7.14789e-10
7.66102e-10
7.17207e-10
8.61932e-10
1.062e-09
-1.23358e-09
2.03593e-09
2.63859e-09
-2.01071e-09
-1.74281e-09
8.09224e-10
1.08328e-09
4.26244e-10
1.44058e-10
2.42083e-10
4.25124e-10
4.79424e-10
5.08403e-10
5.02345e-10
5.3789e-10
5.41785e-10
5.78083e-10
5.80712e-10
6.12801e-10
6.02385e-10
6.25445e-10
6.17563e-10
6.45181e-10
6.32268e-10
6.5368e-10
6.41251e-10
6.66721e-10
6.54979e-10
6.77896e-10
6.6038e-10
6.80203e-10
6.64382e-10
6.88762e-10
6.75574e-10
6.98333e-10
6.76311e-10
6.93919e-10
6.75279e-10
7.00023e-10
6.82747e-10
7.06254e-10
6.83228e-10
7.05942e-10
6.84281e-10
7.14129e-10
6.9312e-10
7.21534e-10
6.8484e-10
7.09544e-10
6.7589e-10
7.14908e-10
6.80172e-10
7.251e-10
6.97025e-10
7.49965e-10
7.26706e-10
7.55842e-10
7.39509e-10
8.43443e-10
1.03011e-09
-9.72573e-10
1.84083e-09
2.31889e-09
-1.75635e-09
-1.59185e-09
7.13689e-10
1.0621e-09
4.68941e-10
1.65357e-10
2.35341e-10
4.13636e-10
4.75137e-10
5.06025e-10
5.00132e-10
5.33539e-10
5.3829e-10
5.73785e-10
5.77769e-10
6.09084e-10
6.00346e-10
6.22469e-10
6.15821e-10
6.42264e-10
6.30974e-10
6.51281e-10
6.40322e-10
6.64517e-10
6.54409e-10
6.76029e-10
6.60221e-10
6.7856e-10
6.64348e-10
6.87144e-10
6.75728e-10
6.96868e-10
6.76801e-10
6.92549e-10
6.75702e-10
6.98429e-10
6.83333e-10
7.0474e-10
6.84169e-10
7.04369e-10
6.85383e-10
7.12218e-10
6.94616e-10
7.19369e-10
6.87282e-10
7.06807e-10
6.78886e-10
7.10523e-10
6.84624e-10
7.1917e-10
7.04042e-10
7.42017e-10
7.37944e-10
7.4724e-10
7.60131e-10
8.2642e-10
9.94016e-10
-7.05622e-10
1.6458e-09
1.91307e-09
1.77658e-09
3.65687e-10
-5.32225e-10
-5.15842e-10
-2.34315e-10
6.92506e-11
2.46818e-10
4.00437e-10
4.55789e-10
5.3184e-10
5.41763e-10
5.94096e-10
5.87203e-10
6.31956e-10
6.1866e-10
6.55285e-10
6.30403e-10
6.66985e-10
6.43704e-10
6.79641e-10
6.49795e-10
6.85911e-10
6.56269e-10
6.93899e-10
6.62765e-10
7.0005e-10
6.64596e-10
7.03148e-10
6.68224e-10
7.09223e-10
6.73925e-10
7.13468e-10
6.7186e-10
7.12956e-10
6.73777e-10
7.16958e-10
6.77337e-10
7.19838e-10
6.77434e-10
7.20787e-10
6.81136e-10
7.24888e-10
6.85701e-10
7.22173e-10
6.77834e-10
7.13319e-10
6.81186e-10
7.13859e-10
6.91449e-10
7.17392e-10
7.15878e-10
7.2078e-10
7.43535e-10
7.02043e-10
7.83824e-10
7.39835e-10
9.23322e-10
-9.08583e-10
-7.51023e-11
1.95264e-09
1.80198e-09
3.54781e-10
-5.40232e-10
-5.17642e-10
-2.33734e-10
6.94878e-11
2.46828e-10
3.99961e-10
4.55296e-10
5.31177e-10
5.41316e-10
5.93536e-10
5.8686e-10
6.31488e-10
6.18441e-10
6.5489e-10
6.30199e-10
6.66615e-10
6.436e-10
6.79329e-10
6.4971e-10
6.85612e-10
6.56246e-10
6.93634e-10
6.62779e-10
6.99797e-10
6.64622e-10
7.02894e-10
6.68291e-10
7.0899e-10
6.74032e-10
7.13232e-10
6.71948e-10
7.12703e-10
6.73925e-10
7.16719e-10
6.77515e-10
7.19598e-10
6.77625e-10
7.20539e-10
6.81378e-10
7.24671e-10
6.86008e-10
7.21946e-10
6.78123e-10
7.13064e-10
6.81584e-10
7.13641e-10
6.9188e-10
7.17219e-10
7.16373e-10
7.20745e-10
7.43866e-10
7.02075e-10
7.82955e-10
7.44037e-10
9.41173e-10
-9.31202e-10
-1.123e-10
2.03214e-09
1.81585e-09
3.22926e-10
-5.48897e-10
-5.15883e-10
-2.30947e-10
7.10435e-11
2.47402e-10
4.0009e-10
4.54795e-10
5.3061e-10
5.40587e-10
5.93011e-10
5.86202e-10
6.31042e-10
6.17936e-10
6.54606e-10
6.29702e-10
6.66309e-10
6.43216e-10
6.79154e-10
6.49348e-10
6.85438e-10
6.55965e-10
6.93527e-10
6.62539e-10
6.99736e-10
6.6439e-10
7.02827e-10
6.681e-10
7.08954e-10
6.73887e-10
7.13244e-10
6.71773e-10
7.1266e-10
6.73815e-10
7.16727e-10
6.77439e-10
7.19627e-10
6.7756e-10
7.20541e-10
6.8137e-10
7.24711e-10
6.861e-10
7.2205e-10
6.78199e-10
7.13088e-10
6.81758e-10
7.13782e-10
6.92041e-10
7.1741e-10
7.16513e-10
7.21239e-10
7.43741e-10
7.03212e-10
7.78865e-10
7.49698e-10
9.75894e-10
-9.88226e-10
-1.46609e-10
2.13815e-09
1.78975e-09
2.74458e-10
-5.50139e-10
-5.09428e-10
-2.25159e-10
7.45358e-11
2.49408e-10
4.01218e-10
4.54751e-10
5.3016e-10
5.39805e-10
5.92431e-10
5.85423e-10
6.30476e-10
6.1732e-10
6.54281e-10
6.29077e-10
6.65874e-10
6.4271e-10
6.78933e-10
6.48893e-10
6.85184e-10
6.55594e-10
6.93381e-10
6.62233e-10
6.99663e-10
6.64091e-10
7.02725e-10
6.67846e-10
7.08905e-10
6.73708e-10
7.13296e-10
6.71551e-10
7.12594e-10
6.73658e-10
7.16752e-10
6.77334e-10
7.19698e-10
6.77453e-10
7.20559e-10
6.81311e-10
7.24816e-10
6.86163e-10
7.22333e-10
6.78197e-10
7.13232e-10
6.81805e-10
7.14167e-10
6.91978e-10
7.17951e-10
7.1616e-10
7.22621e-10
7.42338e-10
7.06433e-10
7.69408e-10
7.6298e-10
1.01258e-09
-1.07369e-09
-1.47407e-10
2.25016e-09
1.69503e-09
2.15589e-10
-5.30418e-10
-4.94966e-10
-2.16514e-10
7.9771e-11
2.53025e-10
4.03589e-10
4.55417e-10
5.29904e-10
5.39059e-10
5.9177e-10
5.84575e-10
6.29749e-10
6.16619e-10
6.53861e-10
6.28356e-10
6.65238e-10
6.42103e-10
6.78603e-10
6.48368e-10
6.84777e-10
6.55161e-10
6.93122e-10
6.61895e-10
6.99507e-10
6.63769e-10
7.02504e-10
6.67567e-10
7.08762e-10
6.73535e-10
7.13307e-10
6.71339e-10
7.12418e-10
6.73498e-10
7.1671e-10
6.77251e-10
7.19731e-10
6.77359e-10
7.20513e-10
6.81245e-10
7.24912e-10
6.8626e-10
7.22702e-10
6.78175e-10
7.13398e-10
6.8172e-10
7.14762e-10
6.91583e-10
7.18927e-10
7.15087e-10
7.25122e-10
7.39271e-10
7.12176e-10
7.54608e-10
7.84532e-10
1.04149e-09
-1.17698e-09
-8.90711e-11
2.36049e-09
1.51255e-09
1.48234e-10
-4.79754e-10
-4.69566e-10
-2.05986e-10
8.59981e-11
2.57976e-10
4.0713e-10
4.56756e-10
5.29855e-10
5.38351e-10
5.91048e-10
5.83679e-10
6.28889e-10
6.15854e-10
6.53351e-10
6.2757e-10
6.6442e-10
6.41408e-10
6.78159e-10
6.47795e-10
6.84213e-10
6.54666e-10
6.92744e-10
6.61531e-10
6.99253e-10
6.6343e-10
7.02155e-10
6.67266e-10
7.08511e-10
6.73376e-10
7.13263e-10
6.7115e-10
7.12115e-10
6.73339e-10
7.16585e-10
6.77197e-10
7.197e-10
6.77285e-10
7.20378e-10
6.81173e-10
7.24966e-10
6.86372e-10
7.23141e-10
6.78121e-10
7.1361e-10
6.81431e-10
7.15606e-10
6.90754e-10
7.20402e-10
7.13076e-10
7.28984e-10
7.34113e-10
7.20961e-10
7.34405e-10
8.14603e-10
1.05924e-09
-1.29534e-09
4.20229e-11
2.47306e-09
1.23521e-09
6.78186e-11
-3.92746e-10
-4.30003e-10
-1.94301e-10
9.23248e-11
2.63919e-10
4.11645e-10
4.5868e-10
5.29921e-10
5.37655e-10
5.90232e-10
5.82719e-10
6.27874e-10
6.15021e-10
6.52748e-10
6.26744e-10
6.63438e-10
6.40641e-10
6.77612e-10
6.47201e-10
6.83508e-10
6.54131e-10
6.92255e-10
6.61162e-10
6.98906e-10
6.63098e-10
7.01682e-10
6.66958e-10
7.08152e-10
6.73242e-10
7.1315e-10
6.71003e-10
7.11683e-10
6.73188e-10
7.16366e-10
6.77176e-10
7.19593e-10
6.77242e-10
7.20146e-10
6.81094e-10
7.24968e-10
6.86492e-10
7.23646e-10
6.78014e-10
7.13878e-10
6.80887e-10
7.16721e-10
6.89409e-10
7.22512e-10
7.09948e-10
7.34387e-10
7.26592e-10
7.33107e-10
7.09144e-10
8.52251e-10
1.06675e-09
-1.43035e-09
2.49021e-10
2.59387e-09
8.65548e-10
-3.13306e-11
-2.68285e-10
-3.73663e-10
-1.81821e-10
9.7966e-11
2.70474e-10
4.16911e-10
4.61005e-10
5.29972e-10
5.36866e-10
5.89234e-10
5.81653e-10
6.26677e-10
6.14093e-10
6.5202e-10
6.25887e-10
6.62296e-10
6.39808e-10
6.76948e-10
6.46604e-10
6.8267e-10
6.5357e-10
6.91658e-10
6.60808e-10
6.98464e-10
6.62793e-10
7.01089e-10
6.6666e-10
7.07691e-10
6.73152e-10
7.12961e-10
6.70922e-10
7.11129e-10
6.7306e-10
7.16051e-10
6.77205e-10
7.19401e-10
6.77241e-10
7.1982e-10
6.81009e-10
7.24931e-10
6.86605e-10
7.24205e-10
6.77843e-10
7.14249e-10
6.80021e-10
7.18155e-10
6.87465e-10
7.25332e-10
7.05597e-10
7.41352e-10
7.16802e-10
7.4831e-10
6.80133e-10
8.94636e-10
1.06682e-09
-1.58057e-09
5.25414e-10
2.72916e-09
4.18286e-10
-1.549e-10
-1.10168e-10
-2.98593e-10
-1.68349e-10
1.02241e-10
2.77259e-10
4.22741e-10
4.63622e-10
5.29904e-10
5.359e-10
5.87971e-10
5.80429e-10
6.25257e-10
6.13038e-10
6.51121e-10
6.24982e-10
6.60983e-10
6.389e-10
6.76146e-10
6.46003e-10
6.81698e-10
6.52991e-10
6.90949e-10
6.60476e-10
6.97923e-10
6.62528e-10
7.00381e-10
6.66386e-10
7.0713e-10
6.73117e-10
7.1269e-10
6.70921e-10
7.10463e-10
6.72961e-10
7.15637e-10
6.77291e-10
7.19128e-10
6.77284e-10
7.19414e-10
6.80919e-10
7.24866e-10
6.86693e-10
7.24833e-10
6.77581e-10
7.14753e-10
6.78808e-10
7.19923e-10
6.84914e-10
7.28822e-10
7.00105e-10
7.49665e-10
7.05221e-10
7.65669e-10
6.49394e-10
9.37903e-10
1.06346e-09
-1.74214e-09
8.53432e-10
2.88041e-09
-8.27857e-11
-3.05527e-10
7.36474e-11
-2.04408e-10
-1.53303e-10
1.04663e-10
2.83875e-10
4.28949e-10
4.66431e-10
5.29652e-10
5.34689e-10
5.86398e-10
5.79013e-10
6.2358e-10
6.11816e-10
6.50005e-10
6.24008e-10
6.59492e-10
6.37905e-10
6.75181e-10
6.45389e-10
6.80587e-10
6.52388e-10
6.90121e-10
6.60165e-10
6.97274e-10
6.62303e-10
6.99565e-10
6.6614e-10
7.0647e-10
6.73138e-10
7.1233e-10
6.71003e-10
7.09701e-10
6.72895e-10
7.15134e-10
6.77431e-10
7.18781e-10
6.77367e-10
7.18946e-10
6.80816e-10
7.24787e-10
6.86742e-10
7.25525e-10
6.77218e-10
7.15411e-10
6.77271e-10
7.21981e-10
6.8182e-10
7.32857e-10
6.93748e-10
7.58871e-10
6.92678e-10
7.83857e-10
6.19537e-10
9.77804e-10
1.06056e-09
-1.90769e-09
1.20986e-09
3.04513e-09
-6.08548e-10
-4.82656e-10
2.71711e-10
-9.22809e-11
-1.35867e-10
1.04965e-10
2.89905e-10
4.35332e-10
4.69354e-10
5.29164e-10
5.33214e-10
5.84489e-10
5.77387e-10
6.21632e-10
6.10412e-10
6.48644e-10
6.22948e-10
6.57822e-10
6.36817e-10
6.74038e-10
6.4475e-10
6.79335e-10
6.51756e-10
6.89164e-10
6.5987e-10
6.96512e-10
6.62114e-10
6.98641e-10
6.65921e-10
7.05714e-10
6.73211e-10
7.11877e-10
6.71162e-10
7.08858e-10
6.7286e-10
7.14546e-10
6.77618e-10
7.18366e-10
6.77482e-10
7.18434e-10
6.80696e-10
7.24699e-10
6.86747e-10
7.26266e-10
6.76768e-10
7.16205e-10
6.75466e-10
7.24237e-10
6.78338e-10
7.3723e-10
6.86913e-10
7.68342e-10
6.80182e-10
8.01334e-10
5.9309e-10
1.01069e-09
1.06106e-09
-2.0671e-09
1.56846e-09
3.21605e-09
-1.12615e-09
-6.82086e-10
4.71513e-10
3.47988e-11
-1.15154e-10
1.03141e-10
2.94915e-10
4.41655e-10
4.72308e-10
5.28426e-10
5.31475e-10
5.82238e-10
5.75543e-10
6.19404e-10
6.0882e-10
6.4702e-10
6.21794e-10
6.55973e-10
6.35636e-10
6.72698e-10
6.44075e-10
6.77944e-10
6.5109e-10
6.88073e-10
6.59579e-10
6.95631e-10
6.61955e-10
6.97617e-10
6.65726e-10
7.04862e-10
6.73329e-10
7.11328e-10
6.71386e-10
7.07945e-10
6.72852e-10
7.13882e-10
6.77844e-10
7.17885e-10
6.77625e-10
7.17885e-10
6.80566e-10
7.2459e-10
6.86716e-10
7.27027e-10
6.76261e-10
7.17085e-10
6.73485e-10
7.26549e-10
6.74669e-10
7.41632e-10
6.801e-10
7.77375e-10
6.68796e-10
8.16636e-10
5.7218e-10
1.03398e-09
1.06655e-09
-2.2088e-09
1.90443e-09
3.3835e-09
-1.6064e-09
-8.97086e-10
6.60524e-10
1.72574e-10
-9.01991e-11
9.95416e-11
2.9856e-10
4.47661e-10
4.75233e-10
5.27457e-10
5.2949e-10
5.79655e-10
5.73483e-10
6.16906e-10
6.07044e-10
6.45135e-10
6.20544e-10
6.53955e-10
6.34364e-10
6.71164e-10
6.43354e-10
6.76418e-10
6.50389e-10
6.86847e-10
6.59285e-10
6.94632e-10
6.61811e-10
6.96499e-10
6.65551e-10
7.03917e-10
6.73479e-10
7.10684e-10
6.71664e-10
7.06974e-10
6.72868e-10
7.13139e-10
6.78099e-10
7.1734e-10
6.77794e-10
7.17301e-10
6.80436e-10
7.24455e-10
6.86665e-10
7.27762e-10
6.75747e-10
7.1799e-10
6.71449e-10
7.2875e-10
6.71084e-10
7.45725e-10
6.7381e-10
7.85283e-10
6.5946e-10
8.28543e-10
5.5829e-10
1.04653e-09
1.07697e-09
-2.32189e-09
2.19761e-09
3.53555e-09
-2.02682e-09
-1.11791e-09
8.2807e-10
3.15841e-10
-6.01913e-11
9.48115e-11
3.0056e-10
4.53079e-10
4.78069e-10
5.26286e-10
5.27288e-10
5.76757e-10
5.71217e-10
6.14153e-10
6.05098e-10
6.42999e-10
6.19193e-10
6.51785e-10
6.33009e-10
6.69439e-10
6.4258e-10
6.74767e-10
6.49654e-10
6.8549e-10
6.58986e-10
6.93514e-10
6.61678e-10
6.95295e-10
6.65392e-10
7.02884e-10
6.73654e-10
7.09945e-10
6.71983e-10
7.05953e-10
6.72908e-10
7.12315e-10
6.78378e-10
7.1673e-10
6.7799e-10
7.16677e-10
6.80323e-10
7.24269e-10
6.8662e-10
7.28417e-10
6.75286e-10
7.18825e-10
6.69505e-10
7.30663e-10
6.67832e-10
7.49175e-10
6.68523e-10
7.91479e-10
6.52898e-10
8.36286e-10
5.52094e-10
1.04852e-09
1.0909e-09
-2.39801e-09
2.43404e-09
3.66026e-09
-2.36971e-09
-1.33316e-09
9.65966e-10
4.58947e-10
-2.46898e-11
8.97623e-11
3.00736e-10
4.57609e-10
4.80745e-10
5.24949e-10
5.24906e-10
5.73573e-10
5.68762e-10
6.11166e-10
6.02996e-10
6.40622e-10
6.17744e-10
6.49475e-10
6.31582e-10
6.67532e-10
6.41751e-10
6.73001e-10
6.48887e-10
6.84007e-10
6.58671e-10
6.92287e-10
6.61551e-10
6.94014e-10
6.65248e-10
7.01764e-10
6.73846e-10
7.09115e-10
6.72333e-10
7.04889e-10
6.72973e-10
7.11415e-10
6.78678e-10
7.16053e-10
6.78219e-10
7.16007e-10
6.80245e-10
7.24e-10
6.86618e-10
7.28936e-10
6.74944e-10
7.19493e-10
6.67801e-10
7.32119e-10
6.65157e-10
7.517e-10
6.64618e-10
7.95538e-10
6.49542e-10
8.39538e-10
5.53557e-10
1.04099e-09
1.10601e-09
-2.43099e-09
2.60568e-09
3.74686e-09
-2.62589e-09
-1.53157e-09
1.0691e-09
5.96294e-10
1.63187e-11
8.52891e-11
2.9902e-10
4.60967e-10
4.83167e-10
5.23479e-10
5.22386e-10
5.70128e-10
5.66135e-10
6.07965e-10
6.00756e-10
6.38019e-10
6.16204e-10
6.47041e-10
6.30092e-10
6.65457e-10
6.40865e-10
6.71128e-10
6.48094e-10
6.82405e-10
6.58335e-10
6.90956e-10
6.61427e-10
6.92664e-10
6.65116e-10
7.00564e-10
6.7405e-10
7.08198e-10
6.72707e-10
7.03787e-10
6.73066e-10