/*--------------------------------*- C++ -*----------------------------------*\
| =========                 |                                                 |
| \\      /  F ield         | OpenFOAM: The Open Source CFD Toolbox           |
|  \\    /   O peration     | Version:  2312                                  |
|   \\  /    A nd           | Website:  www.openfoam.com                      |
|    \\/     M anipulation  |                                                 |
\*---------------------------------------------------------------------------*/
FoamFile
{
    version     2.0;
    format      ascii;
    arch        "LSB;label=32;scalar=64";
    class       volScalarField;
    location    "800";
    object      nut;
}
// * * * * * * * * * * * * * * * * * * * * * * * * * * * * * * * * * * * * * //

dimensions      [0 2 -1 0 0 0 0];

internalField   nonuniform List<scalar> 
144000
(
7.18462e-29
3.5097e-30
6.73249e-30
3.48059e-28
4.37313e-29
1.75619e-31
2.52511e-29
7.22214e-30
1.45893e-29
1.33174e-29
1.29226e-29
1.4503e-29
1.43832e-29
1.77527e-29
1.28276e-29
1.50048e-29
1.53929e-29
2.33205e-29
1.51649e-29
2.00556e-29
1.75695e-29
2.54932e-29
1.82264e-29
2.43829e-29
1.7141e-29
2.43036e-29
1.98501e-29
2.74663e-29
2.02211e-29
2.6752e-29
1.78993e-29
2.39503e-29
2.11973e-29
2.91506e-29
2.02104e-29
2.53009e-29
1.685e-29
2.22248e-29
1.62799e-29
2.12984e-29
1.26472e-29
1.62709e-29
7.4259e-30
8.94729e-30
5.68979e-30
8.29856e-30
1.79787e-30
1.7692e-30
7.27044e-32
1.12853e-31
7.168e-31
1.50099e-30
1.78674e-29
3.27167e-29
2.12443e-28
6.00078e-29
4.63562e-28
3.61932e-26
6.83729e-26
6.03098e-27
3.17996e-26
2.83068e-27
1.16365e-27
3.54553e-27
1.14687e-29
4.97406e-30
3.88146e-29
2.57524e-29
1.52385e-29
4.94403e-29
1.39961e-29
4.78033e-29
1.75164e-29
5.44927e-29
1.78498e-29
4.21587e-29
2.09198e-29
6.51052e-29
2.36656e-29
5.08833e-29
2.65814e-29
6.70538e-29
2.84839e-29
6.23071e-29
2.66517e-29
6.0728e-29
3.08755e-29
6.95279e-29
3.21512e-29
6.63396e-29
2.87721e-29
5.7441e-29
3.31623e-29
7.20025e-29
3.29374e-29
6.00565e-29
2.69666e-29
5.16861e-29
2.57694e-29
5.00061e-29
2.03599e-29
3.6613e-29
1.20937e-29
1.89274e-29
7.96865e-30
1.94189e-29
2.61185e-30
3.4325e-30
4.85295e-32
2.19927e-31
1.52027e-30
4.40507e-30
3.41148e-29
9.32688e-29
3.8204e-28
2.82886e-28
5.80363e-28
7.88438e-26
4.20533e-25
3.52182e-27
9.91841e-26
8.26826e-27
7.98709e-27
3.22488e-27
8.86035e-29
3.84749e-30
4.82195e-29
4.78709e-29
1.74995e-29
7.49845e-29
1.79203e-29
7.02674e-29
2.25908e-29
8.16778e-29
2.17194e-29
6.77898e-29
2.60446e-29
9.84222e-29
2.87636e-29
8.1556e-29
3.22602e-29
1.03939e-28
3.41209e-29
9.88199e-29
3.14373e-29
9.83182e-29
3.66578e-29
1.09995e-28
3.80791e-29
1.06051e-28
3.3374e-29
9.55788e-29
3.89895e-29
1.14149e-28
3.85131e-29
9.73442e-29
3.10318e-29
8.56478e-29
2.9675e-29
8.12896e-29
2.29225e-29
6.14992e-29
1.25231e-29
3.51561e-29
8.27134e-30
3.34794e-29
2.1702e-30
7.7111e-30
6.04884e-33
1.08114e-30
4.3787e-30
2.46727e-30
6.94314e-29
8.84807e-29
6.49795e-28
1.90144e-28
2.27918e-27
1.37261e-25
4.31467e-25
2.66701e-26
4.47197e-25
9.43975e-26
3.18269e-26
1.20633e-26
7.79818e-29
7.28556e-30
4.05756e-29
6.72097e-29
1.33096e-29
8.99848e-29
1.38037e-29
8.33055e-29
1.79128e-29
9.65743e-29
1.72169e-29
8.05385e-29
2.04896e-29
1.15607e-28
2.30129e-29
9.56362e-29
2.59963e-29
1.2086e-28
2.77397e-29
1.14757e-28
2.53082e-29
1.14804e-28
2.9495e-29
1.28635e-28
3.09282e-29
1.23358e-28
2.69451e-29
1.12175e-28
3.1428e-29
1.33904e-28
3.12133e-29
1.14059e-28
2.48713e-29
1.01206e-28
2.3542e-29
9.67193e-29
1.8108e-29
7.35202e-29
9.54523e-30
4.36866e-29
6.20102e-30
4.21932e-29
1.39511e-30
1.09859e-29
4.37221e-33
2.3753e-30
5.19381e-30
1.73818e-30
7.16482e-29
7.07471e-29
6.14676e-28
1.41359e-28
3.00047e-27
2.0233e-25
6.41679e-25
1.46673e-25
1.00237e-24
5.07725e-25
5.68914e-26
3.95869e-26
2.27063e-28
1.32862e-29
4.17693e-29
9.06668e-29
1.07324e-29
1.10907e-28
9.73918e-30
1.02203e-28
1.35586e-29
1.15688e-28
1.31645e-29
9.56245e-29
1.586e-29
1.36857e-28
1.80821e-29
1.11486e-28
2.09034e-29
1.40353e-28
2.23829e-29
1.32219e-28
2.02609e-29
1.32598e-28
2.39538e-29
1.4901e-28
2.50174e-29
1.42447e-28
2.1652e-29
1.29766e-28
2.56927e-29
1.55982e-28
2.51963e-29
1.32519e-28
1.97988e-29
1.18561e-28
1.87887e-29
1.14515e-28
1.41337e-29
8.8106e-29
7.17825e-30
5.41545e-29
4.74353e-30
5.40613e-29
8.72754e-31
1.60737e-29
1.39395e-32
5.08906e-30
5.6838e-30
1.45587e-30
7.04569e-29
5.54392e-29
5.51022e-28
8.83533e-29
4.41321e-27
3.28384e-25
8.95164e-25
6.49553e-25
1.56719e-24
1.64423e-24
6.72867e-26
9.82157e-26
8.2534e-28
2.6318e-29
5.15973e-29
1.20584e-28
1.05577e-29
1.35274e-28
6.97178e-30
1.23885e-28
1.05406e-29
1.38609e-28
1.02481e-29
1.14153e-28
1.28242e-29
1.62998e-28
1.45116e-29
1.31531e-28
1.74116e-29
1.64834e-28
1.86259e-29
1.5357e-28
1.68198e-29
1.54555e-28
2.03077e-29
1.74092e-28
2.10668e-29
1.65542e-28
1.80519e-29
1.51584e-28
2.21448e-29
1.83151e-28
2.12027e-29
1.55266e-28
1.64664e-29
1.40593e-28
1.57611e-29
1.37409e-28
1.15832e-29
1.07109e-28
5.67111e-30
6.85881e-29
4.00719e-30
7.07701e-29
6.04662e-31
2.42662e-29
3.26382e-32
1.05522e-29
5.53062e-30
2.21588e-30
6.46736e-29
4.40717e-29
4.55793e-28
4.73612e-29
6.57149e-27
5.41306e-25
1.16407e-24
1.98075e-24
1.98492e-24
4.00903e-24
5.98368e-26
2.01176e-25
2.46538e-27
5.19922e-29
6.8073e-29
1.57973e-28
1.2029e-29
1.60372e-28
5.20859e-30
1.45845e-28
8.4866e-30
1.62654e-28
8.10517e-30
1.35218e-28
1.07788e-29
1.91631e-28
1.17899e-29
1.54587e-28
1.48348e-29
1.92361e-28
1.56462e-29
1.77444e-28
1.42094e-29
1.79837e-28
1.77003e-29
2.01917e-28
1.80391e-29
1.91376e-28
1.5375e-29
1.77273e-28
1.97679e-29
2.13512e-28
1.82527e-29
1.81035e-28
1.41334e-29
1.66668e-28
1.38167e-29
1.64069e-28
9.8491e-30
1.3027e-28
4.7476e-30
8.78435e-29
3.79378e-30
9.29278e-29
5.07376e-31
3.71168e-29
5.7516e-32
2.12867e-29
4.49856e-30
5.80986e-30
5.32406e-29
3.81549e-29
3.32751e-28
3.51835e-29
8.96561e-27
8.62322e-25
1.50874e-24
4.67966e-24
2.1681e-24
8.00597e-24
4.12838e-26
3.56441e-25
6.05318e-27
9.31051e-29
8.83087e-29
2.00027e-28
1.46642e-29
1.86696e-28
4.00669e-30
1.67692e-28
6.98717e-30
1.87309e-28
6.49989e-30
1.57618e-28
9.25321e-30
2.21518e-28
9.63002e-30
1.79213e-28
1.27552e-29
2.21946e-28
1.31547e-29
2.02976e-28
1.2123e-29
2.07301e-28
1.55167e-29
2.31931e-28
1.56041e-29
2.18972e-28
1.32849e-29
2.05542e-28
1.79051e-29
2.46478e-28
1.59461e-29
2.0919e-28
1.24577e-29
1.96121e-28
1.2415e-29
1.94625e-28
8.72487e-30
1.57686e-28
4.25923e-30
1.12531e-28
3.98165e-30
1.22625e-28
5.63522e-31
5.75848e-29
1.25373e-31
4.21971e-29
2.89988e-30
1.78147e-29
3.85972e-29
4.61716e-29
2.11951e-28
1.02122e-28
1.14968e-26
1.31022e-24
1.97681e-24
9.05226e-24
2.15192e-24
1.41138e-23
2.09893e-26
5.74164e-25
1.32682e-26
1.57225e-28
1.12739e-28
2.42466e-28
1.80242e-29
2.15272e-28
3.13094e-30
1.89747e-28
5.90557e-30
2.12287e-28
5.26827e-30
1.80901e-28
8.22178e-30
2.52097e-28
7.91786e-30
2.05112e-28
1.11995e-29
2.52885e-28
1.10552e-29
2.30079e-28
1.04426e-29
2.36876e-28
1.38486e-29
2.6365e-28
1.35444e-29
2.48758e-28
1.16389e-29
2.367e-28
1.66063e-29
2.8192e-28
1.40864e-29
2.40216e-28
1.12932e-29
2.29366e-28
1.16423e-29
2.29379e-28
8.05813e-30
1.908e-28
4.18189e-30
1.44568e-28
4.77076e-30
1.62826e-28
8.61079e-31
9.03754e-29
4.15188e-31
8.1979e-29
1.6459e-30
5.21261e-29
2.74656e-29
9.15786e-29
1.45367e-28
4.61629e-28
1.34749e-26
1.91031e-24
2.79558e-24
1.54462e-23
1.96921e-24
2.24973e-23
8.43539e-27
8.47937e-25
2.6445e-26
2.59245e-28
1.42776e-28
2.8134e-28
2.20968e-29
2.46537e-28
2.47811e-30
2.12177e-28
5.1068e-30
2.37585e-28
4.3726e-30
2.04701e-28
7.48249e-30
2.83023e-28
6.59425e-30
2.31801e-28
9.98725e-30
2.8481e-28
9.3765e-30
2.58281e-28
9.15128e-30
2.68248e-28
1.24516e-29
2.97323e-28
1.19153e-29
2.80334e-28
1.03968e-29
2.70581e-28
1.56083e-29
3.20302e-28
1.2692e-29
2.74395e-28
1.06025e-29
2.67072e-28
1.12912e-29
2.69808e-28
7.91767e-30
2.30923e-28
4.56988e-30
1.86489e-28
6.35527e-30
2.18477e-28
1.70659e-30
1.4292e-28
1.62712e-30
1.5578e-28
1.97102e-30
1.38503e-28
2.97138e-29
2.4424e-28
1.9363e-28
1.75036e-27
1.52943e-26
2.69594e-24
4.12037e-24
2.37133e-23
1.79341e-24
3.34294e-23
5.83777e-27
1.17381e-24
4.91202e-26
4.28855e-28
1.80778e-28
3.11792e-28
2.66267e-29
2.80898e-28
1.97818e-30
2.34897e-28
4.53458e-30
2.6299e-28
3.69869e-30
2.29769e-28
7.0055e-30
3.13889e-28
5.55468e-30
2.59346e-28
9.12539e-30
3.16981e-28
8.01982e-30
2.87566e-28
8.15472e-30
3.01411e-28
1.14341e-29
3.32127e-28
1.0587e-29
3.14135e-28
9.46535e-30
3.07718e-28
1.50195e-29
3.61368e-28
1.16626e-29
3.12527e-28
1.03235e-29
3.10225e-28
1.15239e-29
3.16629e-28
8.27788e-30
2.80661e-28
5.55676e-30
2.42227e-28
9.36665e-30
2.95897e-28
3.87988e-30
2.26271e-28
5.94047e-30
2.88551e-28
7.68311e-30
3.34592e-28
6.8476e-29
6.69566e-28
5.32597e-28
5.13779e-27
1.63271e-26
3.74157e-24
6.54167e-24
3.38324e-23
1.65615e-24
4.67596e-23
2.09687e-26
1.53272e-24
8.56335e-26
7.31787e-28
2.25285e-28
3.32775e-28
3.1552e-29
3.20501e-28
1.54541e-30
2.59108e-28
4.03062e-30
2.89779e-28
3.16328e-30
2.56114e-28
6.61848e-30
3.4519e-28
4.71063e-30
2.87772e-28
8.4292e-30
3.49709e-28
6.92687e-30
3.17885e-28
7.41423e-30
3.36093e-28
1.05561e-29
3.68466e-28
9.59582e-30
3.49783e-28
8.82034e-30
3.47699e-28
1.4657e-29
4.05782e-28
1.10125e-29
3.5514e-28
1.04824e-29
3.59786e-28
1.21971e-29
3.7196e-28
9.33486e-30
3.42322e-28
7.43805e-30
3.16076e-28
1.46596e-29
4.0399e-28
8.86806e-30
3.57817e-28
1.87005e-29
5.20349e-28
3.3103e-29
7.40134e-28
2.12816e-28
1.67999e-27
1.63644e-27
1.25449e-26
1.75729e-26
5.17044e-24
1.0383e-23
4.50854e-23
1.83111e-24
6.25167e-23
7.34628e-26
1.91218e-24
1.40247e-25
1.27588e-27
2.87539e-28
3.3487e-28
3.66193e-29
3.65111e-28
1.17839e-30
2.84647e-28
3.59408e-30
3.18004e-28
2.68271e-30
2.84228e-28
6.35829e-30
3.76603e-28
3.9901e-30
3.17366e-28
7.93865e-30
3.82604e-28
5.9915e-30
3.49755e-28
6.82723e-30
3.72165e-28
9.96542e-30
4.05782e-28
8.77684e-30
3.88123e-28
8.37653e-30
3.90816e-28
1.4723e-29
4.53277e-28
1.06469e-29
4.03523e-28
1.10546e-29
4.16727e-28
1.36087e-29
4.37228e-28
1.11402e-29
4.20083e-28
1.06638e-29
4.14087e-28
2.40422e-29
5.52982e-28
1.92264e-29
5.62342e-28
5.07832e-29
9.1053e-28
1.11287e-28
1.51733e-27
6.13769e-28
3.775e-27
4.36247e-27
2.61271e-26
1.82921e-26
7.09937e-24
1.70375e-23
5.70174e-23
2.44897e-24
8.10121e-23
1.99032e-25
2.31454e-24
2.16375e-25
2.2795e-27
3.68717e-28
3.16409e-28
4.15476e-29
4.14635e-28
8.86532e-31
3.11071e-28
3.20537e-30
3.47268e-28
2.29992e-30
3.13566e-28
6.08732e-30
4.08549e-28
3.39533e-30
3.48046e-28
7.48964e-30
4.16077e-28
5.22839e-30
3.82741e-28
6.39717e-30
4.09615e-28
9.44435e-30
4.449e-28
8.18165e-30
4.2847e-28
8.16838e-30
4.37089e-28
1.49679e-29
5.05052e-28
1.06513e-29
4.57874e-28
1.21521e-29
4.82227e-28
1.57128e-29
5.15105e-28
1.4117e-29
5.16603e-28
1.61228e-29
5.42884e-28
3.97321e-29
7.58284e-28
4.07857e-29
8.68414e-28
1.21376e-28
1.53364e-27
3.04094e-28
2.8834e-27
1.52692e-27
7.62736e-27
9.97804e-27
4.8651e-26
1.94272e-26
9.73775e-24
2.7355e-23
6.89784e-23
4.24075e-24
1.02822e-22
3.906e-25
2.73711e-24
3.16206e-25
4.1273e-27
4.69598e-28
2.77239e-28
4.55824e-29
4.67103e-28
6.81164e-31
3.36424e-28
2.94362e-30
3.75844e-28
2.00086e-30
3.43671e-28
5.91319e-30
4.39755e-28
2.90615e-30
3.79522e-28
7.17434e-30
4.4903e-28
4.59608e-30
4.17037e-28
6.06835e-30
4.48409e-28
9.11785e-30
4.84992e-28
7.72325e-30
4.71716e-28
8.12493e-30
4.87165e-28
1.55707e-29
5.60747e-28
1.09767e-29
5.19587e-28
1.38035e-29
5.57671e-28
1.88874e-29
6.07129e-28
1.85822e-29
6.3742e-28
2.48855e-29
7.10483e-28
6.51506e-29
1.03622e-27
8.17259e-29
1.31453e-27
2.59329e-28
2.48397e-27
7.01941e-28
5.12913e-27
3.28868e-27
1.40607e-26
1.98349e-26
8.19571e-26
2.05949e-26
1.33623e-23
4.38099e-23
8.00149e-23
7.20075e-24
1.2648e-22
7.10165e-25
3.25243e-24
4.4006e-25
7.62853e-27
5.61196e-28
2.28771e-28
4.80061e-29
5.27336e-28
5.00566e-31
3.63164e-28
2.68755e-30
4.05464e-28
1.76025e-30
3.74609e-28
5.70026e-30
4.71383e-28
2.49509e-30
4.1194e-28
6.8543e-30
4.82293e-28
4.085e-30
4.52415e-28
5.85347e-30
4.88525e-28
8.79072e-30
5.2688e-28
7.47508e-30
5.17126e-28
8.28491e-30
5.40684e-28
1.63387e-29
6.21717e-28
1.17123e-29
5.88858e-28
1.6194e-29
6.44143e-28
2.31331e-29
7.15807e-28
2.53529e-29
7.84316e-28
3.84263e-29
9.2405e-28
1.04211e-28
1.40362e-27
1.52899e-28
1.94054e-27
5.03368e-28
3.85756e-27
1.42968e-27
8.52921e-27
6.28428e-27
2.37826e-26
3.52624e-26
1.27106e-25
2.41014e-26
1.84507e-23
6.6202e-23
8.88675e-23
1.25987e-23
1.48783e-22
1.14671e-24
3.88872e-24
5.72946e-25
1.35093e-26
6.67833e-28
1.70229e-28
4.85345e-29
5.89745e-28
3.67711e-31
3.90119e-28
2.47701e-30
4.35648e-28
1.53212e-30
4.06435e-28
5.57125e-30
5.02072e-28
2.13701e-30
4.45035e-28
6.65121e-30
5.14838e-28
3.63714e-30
4.89515e-28
5.68467e-30
5.29448e-28
8.65445e-30
5.69693e-28
7.30229e-30
5.66071e-28
8.55909e-30
5.97648e-28
1.76095e-29
6.87022e-28
1.27784e-29
6.67538e-28
1.93401e-29
7.42446e-28
2.90452e-29
8.42672e-28
3.47237e-29
9.63528e-28
5.7994e-29
1.19399e-27
1.63487e-28
1.87604e-27
2.66344e-28
2.79201e-27
8.93935e-28
5.76298e-27
2.59403e-27
1.33283e-26
1.08246e-26
3.73702e-26
5.68294e-26
1.82923e-25
2.96389e-26
2.52834e-23
9.85144e-23
9.42038e-23
2.22401e-23
1.76663e-22
1.587e-24
4.7287e-24
7.11375e-25
2.33976e-26
7.42406e-28
1.14696e-28
4.66118e-29
6.53994e-28
2.74401e-31
4.18017e-28
2.27226e-30
4.66296e-28
1.35067e-30
4.3868e-28
5.38243e-30
5.33024e-28
1.8422e-30
4.78848e-28
6.41426e-30
5.47596e-28
3.27938e-30
5.27315e-28
5.59954e-30
5.71063e-28
8.54037e-30
6.14414e-28
7.26837e-30
6.17058e-28
9.04202e-30
6.57833e-28
1.91053e-29
7.58225e-28
1.43334e-29
7.54517e-28
2.35139e-29
8.52574e-28
3.66875e-29
9.89357e-28
4.77248e-29
1.1759e-27
8.65741e-29
1.5222e-27
2.48039e-28
2.46362e-27
4.37435e-28
3.88589e-27
1.47145e-27
8.2283e-27
4.28909e-27
1.94524e-26
1.7182e-26
5.4763e-26
8.45985e-26
2.48521e-25
4.01779e-26
3.43192e-23
1.41142e-22
9.69194e-23
3.94479e-23
2.09961e-22
1.90654e-24
5.81125e-24
8.36664e-25
3.87271e-26
7.87832e-28
6.73542e-29
4.25934e-29
7.12622e-28
2.35169e-31
4.42647e-28
2.19209e-30
4.93589e-28
1.22556e-30
4.69742e-28
5.29727e-30
5.61279e-28
1.61302e-30
5.12155e-28
6.27767e-30
5.7827e-28
3.00173e-30
5.65545e-28
5.57036e-30
6.12708e-28
8.5876e-30
6.59331e-28
7.32338e-30
6.70667e-28
9.6593e-30
7.21441e-28
2.10661e-29
8.33368e-28
1.63359e-29
8.50466e-28
2.86962e-29
9.7468e-28
4.65675e-29
1.15532e-27
6.47372e-29
1.42521e-27
1.25539e-28
1.91227e-27
3.62117e-28
3.16867e-27
6.73669e-28
5.23307e-27
2.24911e-27
1.12446e-26
6.49154e-27
2.68013e-26
2.49595e-26
7.46036e-26
1.17229e-25
3.19157e-25
5.62969e-26
4.58548e-23
1.97899e-22
9.56706e-23
6.26845e-23
2.45464e-22
2.21985e-24
7.44338e-24
9.30121e-25
6.17923e-26
7.4176e-28
3.47362e-29
3.59425e-29
7.77238e-28
2.1441e-31
4.69419e-28
2.11199e-30
5.20154e-28
1.1482e-30
5.00321e-28
5.16594e-30
5.88843e-28
1.43938e-30
5.45318e-28
6.10557e-30
6.07965e-28
2.81602e-30
6.03485e-28
5.63547e-30
6.54415e-28
8.62498e-30
7.04883e-28
7.58097e-30
7.2504e-28
1.05172e-29
7.87715e-28
2.32021e-29
9.13218e-28
1.89677e-29
9.53391e-28
3.51953e-29
1.10783e-27
5.86085e-29
1.33877e-27
8.72565e-29
1.70288e-27
1.76805e-28
2.35707e-27
5.06368e-28
3.97499e-27
9.82042e-28
6.78124e-27
3.22344e-27
1.46403e-26
9.16451e-27
3.49161e-26
3.33665e-26
9.43599e-26
1.52431e-25
3.87475e-25
8.71574e-26
6.0557e-23
2.6204e-22
9.04966e-23
9.74134e-23
2.7978e-22
2.38145e-24
9.53773e-24
9.69083e-25
9.28241e-26
6.58141e-28
1.56475e-29
2.94583e-29
8.31854e-28
2.34462e-31
4.97846e-28
2.02449e-30
5.46539e-28
1.06877e-30
5.30687e-28
5.05865e-30
6.14266e-28
1.28742e-30
5.77655e-28
5.9724e-30
6.35681e-28
2.66498e-30
6.41676e-28
5.71753e-30
6.94977e-28
8.80023e-30
7.49572e-28
7.9073e-30
7.80983e-28
1.14981e-29
8.54901e-28
2.58654e-29
9.95076e-28
2.2101e-29
1.06391e-27
4.28717e-29
1.24939e-27
7.3234e-29
1.53653e-27
1.1451e-28
2.00858e-27
2.38821e-28
2.8468e-27
6.78819e-28
4.85569e-27
1.34576e-27
8.47642e-27
4.32266e-27
1.82267e-26
1.20329e-26
4.32556e-26
4.17158e-26
1.13702e-25
1.85367e-25
4.46755e-25
1.33245e-25
7.8202e-23
3.37725e-22
7.98718e-23
1.43969e-22
3.14917e-22
2.42979e-24
1.22675e-23
9.49973e-25
1.3132e-25
5.72507e-28
6.16373e-30
2.47232e-29
8.70962e-28
3.00059e-31
5.28846e-28
1.88638e-30
5.73524e-28
9.89003e-31
5.60476e-28
4.88666e-30
6.39137e-28
1.15578e-30
6.08799e-28
5.81301e-30
6.62704e-28
2.54286e-30
6.78609e-28
5.81988e-30
7.334e-28
9.02551e-30
7.93459e-28
8.29518e-30
8.36106e-28
1.26372e-29
9.20614e-28
2.8922e-29
1.07803e-27
2.5806e-29
1.17719e-27
5.17082e-29
1.39381e-27
8.99773e-29
1.74198e-27
1.45888e-28
2.32679e-27
3.10164e-28
3.35302e-27
8.70516e-28
5.75569e-27
1.7408e-27
1.01678e-26
5.43461e-27
2.15781e-26
1.47041e-26
5.039e-26
4.87274e-26
1.28986e-25
2.1031e-25
4.85338e-25
2.1032e-25
9.82596e-23
4.16792e-22
6.64909e-23
2.04865e-22
3.45863e-22
2.43166e-24
1.54683e-23
8.67847e-25
1.73058e-25
5.59441e-28
2.70689e-30
2.41658e-29
8.79876e-28
4.14355e-31
5.50581e-28
1.89766e-30
5.91143e-28
9.64087e-31
5.82682e-28
4.87403e-30
6.57044e-28
1.06862e-30
6.34073e-28
5.80591e-30
6.84382e-28
2.46533e-30
7.10594e-28
5.93481e-30
7.66505e-28
9.35117e-30
8.32455e-28
8.69159e-30
8.87452e-28
1.37346e-29
9.82366e-28
3.22498e-29
1.15686e-27
2.97013e-29
1.288e-27
6.07322e-29
1.53511e-27
1.07363e-28
1.94509e-27
1.77602e-28
2.64383e-27
3.8071e-28
3.84967e-27
1.05566e-27
6.60788e-27
2.09704e-27
1.16922e-26
6.3338e-27
2.42521e-26
1.64569e-26
5.49728e-26
5.17505e-26
1.35073e-25
2.17148e-25
4.87743e-25
3.31746e-25
1.19162e-22
4.94159e-22
5.04356e-23
2.78459e-22
3.81903e-22
2.52735e-24
1.97115e-23
7.41235e-25
2.16494e-25
6.46444e-28
3.34715e-30
3.19299e-29
8.48137e-28
5.36143e-31
5.50603e-28
2.3027e-30
5.88756e-28
1.13583e-30
5.86678e-28
5.12903e-30
6.63123e-28
1.11446e-30
6.46467e-28
6.06361e-30
6.98452e-28
2.55995e-30
7.32612e-28
6.25915e-30
7.9143e-28
9.65419e-30
8.6551e-28
9.29158e-30
9.30914e-28
1.49926e-29
1.03729e-27
3.48618e-29
1.23348e-27
3.37737e-29
1.39177e-27
6.93553e-29
1.67122e-27
1.219e-28
2.14428e-27
2.05682e-28
2.94674e-27
4.39304e-28
4.31507e-27
1.18601e-27
7.38342e-27
2.33359e-27
1.29186e-26
6.7832e-27
2.59543e-26
1.68225e-26
5.63649e-26
4.98045e-26
1.31789e-25
2.05304e-25
4.76855e-25
4.94078e-25
1.39044e-22
5.59385e-22
3.65974e-23
3.86596e-22
4.17931e-22
2.80123e-24
2.54156e-23
5.9824e-25
2.71581e-25
8.8949e-28
9.65198e-30
5.86007e-29
8.21341e-28
6.95126e-31
5.6665e-28
2.98652e-30
5.98826e-28
1.35476e-30
6.0392e-28
6.00973e-30
6.81008e-28
1.22685e-30
6.71509e-28
6.92751e-30
7.17825e-28
2.93153e-30
7.64797e-28
7.20488e-30
8.2663e-28
1.11006e-29
9.09033e-28
1.07656e-29
9.86775e-28
1.75462e-29
1.10594e-27
4.10735e-29
1.32407e-27
4.02978e-29
1.51017e-27
8.30453e-29
1.81782e-27
1.45251e-28
2.3496e-27
2.44303e-28
3.2492e-27
5.1411e-28
4.74984e-27
1.35563e-27
8.02928e-27
2.57637e-27
1.37826e-26
7.18153e-27
2.66176e-26
1.67552e-26
5.51747e-26
4.65481e-26
1.22666e-25
1.91452e-25
4.78951e-25
6.64021e-25
1.59802e-22
6.26084e-22
2.4205e-23
1.00693e-28
3.13633e-30
6.14157e-30
3.44428e-28
3.95868e-29
2.7899e-31
2.3316e-29
8.07178e-30
1.38861e-29
1.36874e-29
1.29125e-29
1.43535e-29
1.45791e-29
1.73034e-29
1.33284e-29
1.43993e-29
1.58744e-29
2.23939e-29
1.56532e-29
1.92747e-29
1.7975e-29
2.47893e-29
1.85241e-29
2.36784e-29
1.76756e-29
2.34602e-29
2.01657e-29
2.71093e-29
2.01157e-29
2.6715e-29
1.7878e-29
2.38877e-29
2.10526e-29
2.9181e-29
2.00733e-29
2.52737e-29
1.69401e-29
2.20968e-29
1.62589e-29
2.14131e-29
1.2549e-29
1.64644e-29
7.46646e-30
9.09033e-30
5.64403e-30
8.31587e-30
1.8183e-30
1.77576e-30
7.79691e-32
1.11193e-31
6.54304e-31
1.47956e-30
1.75112e-29
3.16983e-29
2.12828e-28
6.49777e-29
4.37477e-28
3.68297e-26
7.13597e-26
5.7978e-27
3.37674e-26
2.96838e-27
1.13146e-27
3.4857e-27
9.78395e-30
5.66886e-30
3.64272e-29
2.76796e-29
1.4464e-29
5.05094e-29
1.39174e-29
4.76826e-29
1.76148e-29
5.3753e-29
1.83421e-29
4.10912e-29
2.14983e-29
6.34028e-29
2.41213e-29
4.96489e-29
2.70981e-29
6.56268e-29
2.89919e-29
6.06312e-29
2.76765e-29
5.86366e-29
3.18364e-29
6.81054e-29
3.24918e-29
6.5592e-29
2.92157e-29
5.67947e-29
3.34383e-29
7.14402e-29
3.32027e-29
5.95047e-29
2.74681e-29
5.11091e-29
2.61115e-29
4.98764e-29
2.04959e-29
3.67171e-29
1.23248e-29
1.90824e-29
8.0106e-30
1.93933e-29
2.64951e-30
3.46943e-30
5.14892e-32
2.21417e-31
1.47266e-30
4.2384e-30
3.43231e-29
9.10306e-29
3.84392e-28
2.99212e-28
5.44961e-28
8.02569e-26
4.3318e-25
3.36013e-27
1.00221e-25
8.35078e-27
7.83968e-27
3.1351e-27
8.36995e-29
4.24794e-30
4.59764e-29
5.02061e-29
1.69261e-29
7.55176e-29
1.8059e-29
6.95327e-29
2.28931e-29
8.01725e-29
2.24622e-29
6.58356e-29
2.69885e-29
9.57395e-29
2.93782e-29
7.97737e-29
3.28998e-29
1.02048e-28
3.47592e-29
9.62666e-29
3.28165e-29
9.4947e-29
3.81197e-29
1.07521e-28
3.88581e-29
1.04336e-28
3.42996e-29
9.39755e-29
3.97728e-29
1.12613e-28
3.92908e-29
9.58871e-29
3.19936e-29
8.42647e-29
3.04156e-29
8.07477e-29
2.33005e-29
6.1343e-29
1.29191e-29
3.51253e-29
8.42968e-30
3.3256e-29
2.22714e-30
7.74824e-30
5.99222e-33
1.0826e-30
4.35964e-30
2.34635e-30
7.06734e-29
8.56847e-29
6.59402e-28
1.97448e-28
2.21222e-27
1.39686e-25
4.41586e-25
2.61837e-26
4.48611e-25
9.43676e-26
3.14973e-26
1.18409e-26
7.44669e-29
7.62811e-30
3.92873e-29
6.85597e-29
1.32673e-29
8.92269e-29
1.42085e-29
8.16983e-29
1.83744e-29
9.42553e-29
1.79981e-29
7.81343e-29
2.157e-29
1.1204e-28
2.37467e-29
9.36644e-29
2.66579e-29
1.18917e-28
2.82761e-29
1.12098e-28
2.65889e-29
1.11229e-28
3.0961e-29
1.25747e-28
3.1783e-29
1.21206e-28
2.80136e-29
1.10105e-28
3.24449e-29
1.31671e-28
3.22006e-29
1.11909e-28
2.60203e-29
9.92285e-29
2.45156e-29
9.55928e-29
1.8632e-29
7.29304e-29
1.00219e-29
4.33309e-29
6.4764e-30
4.14405e-29
1.48179e-30
1.08584e-29
3.5183e-33
2.30409e-30
5.11512e-30
1.71288e-30
7.22896e-29
6.86596e-29
6.21253e-28
1.44848e-28
2.95297e-27
2.04694e-25
6.52752e-25
1.46203e-25
1.00314e-24
5.07743e-25
5.65415e-26
3.91219e-26
2.21038e-28
1.32951e-29
4.09894e-29
8.99784e-29
1.10752e-29
1.08749e-28
1.02899e-29
9.95218e-29
1.41106e-29
1.12467e-28
1.39516e-29
9.28021e-29
1.69807e-29
1.32114e-28
1.89613e-29
1.09083e-28
2.16518e-29
1.38061e-28
2.28745e-29
1.29636e-28
2.14181e-29
1.28983e-28
2.53865e-29
1.45588e-28
2.58897e-29
1.40019e-28
2.27368e-29
1.27303e-28
2.67928e-29
1.53071e-28
2.62533e-29
1.29829e-28
2.09979e-29
1.16014e-28
1.98803e-29
1.12614e-28
1.47284e-29
8.70715e-29
7.66006e-30
5.34637e-29
5.05075e-30
5.26381e-29
9.68848e-31
1.56933e-29
1.04568e-32
4.86049e-30
5.48633e-30
1.48643e-30
7.01918e-29
5.40889e-29
5.54603e-28
9.00803e-29
4.38099e-27
3.30712e-25
9.08417e-25
6.50362e-25
1.56623e-24
1.64418e-24
6.70858e-26
9.73658e-26
8.10028e-28
2.58359e-29
5.10558e-29
1.18985e-28
1.1104e-29
1.31795e-28
7.5774e-30
1.19943e-28
1.11695e-29
1.34326e-28
1.1073e-29
1.10905e-28
1.39837e-29
1.56724e-28
1.55627e-29
1.28288e-28
1.83185e-29
1.61672e-28
1.91913e-29
1.50937e-28
1.79198e-29
1.5086e-28
2.17142e-29
1.69978e-28
2.1963e-29
1.62977e-28
1.90987e-29
1.48863e-28
2.32616e-29
1.79621e-28
2.22778e-29
1.52198e-28
1.76552e-29
1.37548e-28
1.69011e-29
1.34613e-28
1.22261e-29
1.05635e-28
6.1413e-30
6.75549e-29
4.32535e-30
6.85628e-29
7.06073e-31
2.35263e-29
2.52845e-32
1.00347e-29
5.19615e-30
2.28733e-30
6.35254e-29
4.3609e-29
4.57633e-28
4.77887e-29
6.56959e-27
5.4429e-25
1.17836e-24
1.98397e-24
1.98305e-24
4.0117e-24
5.97855e-26
1.99908e-25
2.4302e-27
5.0793e-29
6.77561e-29
1.56325e-28
1.26893e-29
1.56227e-28
5.7747e-30
1.40996e-28
9.11664e-30
1.57654e-28
8.90728e-30
1.31598e-28
1.19096e-29
1.8385e-28
1.29397e-29
1.50255e-28
1.58857e-29
1.8792e-28
1.63425e-29
1.74574e-28
1.52822e-29
1.75887e-28
1.90992e-29
1.96836e-28
1.90068e-29
1.88563e-28
1.63781e-29
1.74236e-28
2.08685e-29
2.09387e-28
1.93358e-29
1.77694e-28
1.52742e-29
1.63165e-28
1.49645e-29
1.60294e-28
1.05375e-29
1.28306e-28
5.2016e-30
8.63976e-29
4.11862e-30
8.98926e-29
6.19372e-31
3.58957e-29
4.91889e-32
2.02793e-29
4.09153e-30
5.89648e-30
5.15961e-29
3.8651e-29
3.34723e-28
3.41615e-29
8.9871e-27
8.66852e-25
1.52503e-24
4.69093e-24
2.16548e-24
8.01348e-24
4.13206e-26
3.54774e-25
5.97191e-27
9.05883e-29
8.83078e-29
1.97349e-28
1.54824e-29
1.82266e-28
4.49979e-30
1.62397e-28
7.57106e-30
1.81999e-28
7.21806e-30
1.53601e-28
1.03185e-29
2.12532e-28
1.0796e-29
1.73815e-28
1.39068e-29
2.16068e-28
1.39802e-29
1.99666e-28
1.31835e-29
2.03007e-28
1.69025e-29
2.25749e-28
1.66525e-29
2.15726e-28
1.42533e-29
2.02134e-28
1.9008e-29
2.41806e-28
1.7035e-29
2.05594e-28
1.35438e-29
1.92261e-28
1.35477e-29
1.89905e-28
9.45291e-30
1.55166e-28
4.70585e-30
1.1064e-28
4.33593e-30
1.1877e-28
7.01054e-31
5.57578e-29
1.25913e-31
4.03951e-29
2.56356e-30
1.7741e-29
3.70096e-29
4.74441e-29
2.1381e-28
9.7721e-29
1.15524e-26
1.31641e-24
1.99478e-24
9.07439e-24
2.14977e-24
1.41361e-23
2.09581e-26
5.72443e-25
1.31047e-26
1.52637e-28
1.13458e-28
2.38343e-28
1.90215e-29
2.10724e-28
3.5482e-30
1.84404e-28
6.41908e-30
2.07134e-28
5.87877e-30
1.77009e-28
9.1653e-30
2.42431e-28
9.0271e-30
1.9883e-28
1.23907e-29
2.45626e-28
1.19719e-29
2.26225e-28
1.14865e-29
2.32142e-28
1.5215e-29
2.56255e-28
1.467e-29
2.44812e-28
1.25916e-29
2.32746e-28
1.77288e-29
2.76677e-28
1.51876e-29
2.36296e-28
1.23379e-29
2.25163e-28
1.27627e-29
2.2374e-28
8.82889e-30
1.87613e-28
4.64166e-30
1.42155e-28
5.18373e-30
1.58122e-28
1.0581e-30
8.77511e-29
4.5745e-31
7.89135e-29
1.46846e-30
5.1368e-29
2.63649e-29
9.31236e-29
1.47681e-28
4.48841e-28
1.3553e-26
1.91783e-24
2.81797e-24
1.54916e-23
1.96738e-24
2.25417e-23
8.26199e-27
8.46371e-25
2.61356e-26
2.51348e-28
1.44678e-28
2.75466e-28
2.32942e-29
2.41631e-28
2.84341e-30
2.0689e-28
5.55913e-30
2.32841e-28
4.88764e-30
2.01434e-28
8.27741e-30
2.73295e-28
7.60973e-30
2.24941e-28
1.11704e-29
2.76398e-28
1.03427e-29
2.53863e-28
1.01756e-29
2.63076e-28
1.37868e-29
2.88716e-28
1.31052e-29
2.75474e-28
1.13553e-29
2.65977e-28
1.67659e-29
3.14443e-28
1.38204e-29
2.70013e-28
1.16369e-29
2.62519e-28
1.2414e-29
2.63245e-28
8.75283e-30
2.26927e-28
5.07935e-30
1.83499e-28
6.86701e-30
2.12852e-28
2.03365e-30
1.39164e-28
1.8031e-30
1.50735e-28
1.99766e-30
1.36118e-28
2.93266e-29
2.44754e-28
1.97808e-28
1.72807e-27
1.54064e-26
2.70456e-24
4.14726e-24
2.37848e-23
1.79717e-24
3.35163e-23
5.416e-27
1.17299e-24
4.86119e-26
4.15689e-28
1.84635e-28
3.03975e-28
2.80321e-29
2.75029e-28
2.32206e-30
2.29412e-28
4.95895e-30
2.58585e-28
4.13998e-30
2.27007e-28
7.67344e-30
3.04557e-28
6.46406e-30
2.52153e-28
1.02798e-29
3.07684e-28
8.9994e-30
2.82625e-28
9.15238e-30
2.95815e-28
1.27317e-29
3.22423e-28
1.18154e-29
3.0825e-28
1.04391e-29
3.02369e-28
1.62323e-29
3.54843e-28
1.28267e-29
3.07538e-28
1.13784e-29
3.05234e-28
1.26803e-29
3.09123e-28
9.20221e-30
2.75728e-28
6.1603e-30
2.3857e-28
1.00449e-29
2.89298e-28
4.43454e-30
2.20926e-28
6.44932e-30
2.80632e-28
8.24823e-30
3.28958e-28
6.95699e-29
6.66448e-28
5.43622e-28
5.11115e-27
1.64364e-26
3.7516e-24
6.58959e-24
3.39513e-23
1.66426e-24
4.69011e-23
1.97592e-26
1.53292e-24
8.48964e-26
7.09991e-28
2.31435e-28
3.23231e-28
3.3115e-29
3.13215e-28
1.87398e-30
2.53268e-28
4.44024e-30
2.85675e-28
3.54436e-30
2.53846e-28
7.17754e-30
3.36752e-28
5.50481e-30
2.80587e-28
9.53451e-30
3.39895e-28
7.89035e-30
3.12499e-28
8.38276e-30
3.30177e-28
1.18018e-29
3.57879e-28
1.08445e-29
3.42826e-28
9.81993e-30
3.41535e-28
1.59475e-29
3.98557e-28
1.2225e-29
3.49363e-28
1.15961e-29
3.54234e-28
1.34191e-29
3.63442e-28
1.03967e-29
3.36216e-28
8.20255e-30
3.11541e-28
1.56072e-29
3.96156e-28
9.82953e-30
3.50372e-28
1.99074e-29
5.08333e-28
3.51605e-29
7.28614e-28
2.17932e-28
1.66918e-27
1.66669e-27
1.25448e-26
1.7701e-26
5.18549e-24
1.04532e-23
4.52551e-23
1.84921e-24
6.27327e-23
7.04843e-26
1.91336e-24
1.39316e-25
1.24091e-27
2.9715e-28
3.24076e-28
3.82911e-29
3.55763e-28
1.49937e-30
2.78066e-28
4.01455e-30
3.13897e-28
3.02566e-30
2.82274e-28
6.84684e-30
3.6923e-28
4.67811e-30
3.10396e-28
8.99543e-30
3.72536e-28
6.92063e-30
3.43971e-28
7.76815e-30
3.65986e-28
1.11623e-29
3.94565e-28
1.00227e-29
3.80167e-28
9.40764e-30
3.83825e-28
1.61179e-29
4.45322e-28
1.19148e-29
3.96824e-28
1.2264e-29
4.10467e-28
1.49458e-29
4.27655e-28
1.23865e-29
4.12619e-28
1.16763e-29
4.08424e-28
2.5409e-29
5.43474e-28
2.09696e-29
5.52422e-28
5.32402e-29
8.93348e-28
1.16457e-28
1.49758e-27
6.27726e-28
3.7533e-27
4.43372e-27
2.61734e-26
1.84188e-26
7.11851e-24
1.71558e-23
5.72577e-23
2.48385e-24
8.13448e-23
1.92832e-25
2.31677e-24
2.15294e-25
2.22478e-27
3.82257e-28
3.05409e-28
4.32553e-29
4.02932e-28
1.19936e-30
3.03497e-28
3.64808e-30
3.42884e-28
2.62535e-30
3.11754e-28
6.52677e-30
4.02278e-28
3.99432e-30
3.41463e-28
8.48964e-30
4.05966e-28
6.11908e-30
3.76561e-28
7.32017e-30
4.03178e-28
1.05956e-29
4.33218e-28
9.42391e-30
4.196e-28
9.24647e-30
4.293e-28
1.64639e-29
4.96342e-28
1.19964e-29
4.50092e-28
1.35048e-29
4.75089e-28
1.7214e-29
5.04335e-28
1.56331e-29
5.07497e-28
1.75219e-29
5.35919e-28
4.17504e-29
7.46746e-28
4.3697e-29
8.55051e-28
1.26027e-28
1.50973e-27
3.15188e-28
2.85265e-27
1.55817e-27
7.59259e-27
1.01278e-26
4.88236e-26
1.95315e-26
9.76047e-24
2.7543e-23
6.93074e-23
4.31879e-24
1.03291e-22
3.80131e-25
2.74013e-24
3.15117e-25
4.0446e-27
4.8754e-28
2.67105e-28
4.72992e-29
4.52877e-28
9.89345e-31
3.27676e-28
3.42721e-30
3.70945e-28
2.32385e-30
3.41821e-28
6.34013e-30
4.34455e-28
3.43658e-30
3.73457e-28
8.13094e-30
4.39061e-28
5.44647e-30
4.10497e-28
6.98284e-30
4.41687e-28
1.02459e-29
4.72988e-28
8.96231e-30
4.62063e-28
9.26058e-30
4.78623e-28
1.71959e-29
5.51242e-28
1.24169e-29
5.10636e-28
1.53493e-29
5.49482e-28
2.06273e-29
5.95037e-28
2.04567e-29
6.26447e-28
2.68217e-29
7.02139e-28
6.81064e-29
1.02256e-27
8.62546e-29
1.29682e-27
2.67482e-28
2.45244e-27
7.22735e-28
5.08655e-27
3.34845e-27
1.40175e-26
2.01062e-26
8.22845e-26
2.0634e-26
1.33904e-23
4.41468e-23
8.04532e-23
7.31652e-24
1.27091e-22
6.96096e-25
3.25657e-24
4.39369e-25
7.52264e-27
5.80292e-28
2.20562e-28
4.96623e-29
5.10926e-28
7.89684e-31
3.5329e-28
3.20711e-30
4.00025e-28
2.08623e-30
3.72671e-28
6.12401e-30
4.67034e-28
2.96864e-30
4.06553e-28
7.75994e-30
4.72718e-28
4.89508e-30
4.45606e-28
6.7679e-30
4.81577e-28
9.8953e-30
5.14743e-28
8.72129e-30
5.06846e-28
9.49294e-30
5.31352e-28
1.81053e-29
6.11328e-28
1.32808e-29
5.78619e-28
1.79969e-29
6.34725e-28
2.51788e-29
7.02235e-28
2.77321e-29
7.71259e-28
4.11673e-29
9.13571e-28
1.08344e-28
1.38743e-27
1.5997e-28