/*--------------------------------*- C++ -*----------------------------------*\
| =========                 |                                                 |
| \\      /  F ield         | OpenFOAM: The Open Source CFD Toolbox           |
|  \\    /   O peration     | Version:  2312                                  |
|   \\  /    A nd           | Website:  www.openfoam.com                      |
|    \\/     M anipulation  |                                                 |
\*---------------------------------------------------------------------------*/
FoamFile
{
    version     2.0;
    format      ascii;
    arch        "LSB;label=32;scalar=64";
    class       volScalarField;
    location    "800";
    object      p;
}
// * * * * * * * * * * * * * * * * * * * * * * * * * * * * * * * * * * * * * //

dimensions      [0 2 -2 0 0 0 0];

internalField   nonuniform List<scalar> 
144000
(
6.93816e-10
6.79163e-10
4.80794e-10
3.12645e-10
2.90232e-10
3.18561e-10
3.67663e-10
3.9464e-10
4.2182e-10
4.27921e-10
4.43003e-10
4.42947e-10
4.54948e-10
4.52819e-10
4.64864e-10
4.63022e-10
4.73126e-10
4.69098e-10
4.8129e-10
4.79285e-10
4.90542e-10
4.86117e-10
4.97264e-10
4.93176e-10
5.04306e-10
5.00281e-10
5.10976e-10
5.05782e-10
5.16667e-10
5.12056e-10
5.23435e-10
5.19441e-10
5.29724e-10
5.23723e-10
5.3433e-10
5.29336e-10
5.39749e-10
5.35199e-10
5.4483e-10
5.39711e-10
5.49195e-10
5.45257e-10
5.54273e-10
5.50926e-10
5.56438e-10
5.51056e-10
5.56824e-10
5.5539e-10
5.58968e-10
5.5918e-10
5.6047e-10
5.63435e-10
5.54282e-10
5.52787e-10
5.26043e-10
5.2363e-10
4.69442e-10
3.9883e-10
1.93979e-10
4.58484e-10
7.03818e-10
6.8471e-10
4.78915e-10
3.1032e-10
2.89009e-10
3.18177e-10
3.6747e-10
3.94563e-10
4.21671e-10
4.27831e-10
4.42859e-10
4.42884e-10
4.54826e-10
4.52775e-10
4.64772e-10
4.63012e-10
4.73041e-10
4.6908e-10
4.81215e-10
4.79296e-10
4.90474e-10
4.86124e-10
4.97202e-10
4.93201e-10
5.04252e-10
5.00311e-10
5.1092e-10
5.0581e-10
5.16615e-10
5.12095e-10
5.23392e-10
5.19488e-10
5.29676e-10
5.23759e-10
5.34287e-10
5.2939e-10
5.39713e-10
5.35259e-10
5.44795e-10
5.3977e-10
5.49171e-10
5.45331e-10
5.5427e-10
5.51016e-10
5.56443e-10
5.51134e-10
5.56852e-10
5.55503e-10
5.5903e-10
5.593e-10
5.60596e-10
5.63596e-10
5.54508e-10
5.52958e-10
5.26444e-10
5.24075e-10
4.71004e-10
3.99677e-10
1.86922e-10
4.53871e-10
7.16207e-10
6.90757e-10
4.76791e-10
3.07457e-10
2.87238e-10
3.17447e-10
3.67196e-10
3.94401e-10
4.21537e-10
4.27666e-10
4.42716e-10
4.42739e-10
4.54717e-10
4.52658e-10
4.6469e-10
4.62945e-10
4.72997e-10
4.69002e-10
4.81159e-10
4.79248e-10
4.90442e-10
4.86073e-10
4.97174e-10
4.93178e-10
5.04239e-10
5.00291e-10
5.10909e-10
5.05785e-10
5.16606e-10
5.12089e-10
5.23393e-10
5.19488e-10
5.29685e-10
5.23746e-10
5.3429e-10
5.29407e-10
5.3973e-10
5.35282e-10
5.44817e-10
5.39795e-10
5.49203e-10
5.45381e-10
5.54325e-10
5.51093e-10
5.5653e-10
5.51207e-10
5.56942e-10
5.55629e-10
5.59171e-10
5.5944e-10
5.60778e-10
5.63791e-10
5.54818e-10
5.53231e-10
5.26937e-10
5.24558e-10
4.73119e-10
4.02767e-10
1.76072e-10
4.4823e-10
7.30725e-10
6.96722e-10
4.74892e-10
3.04275e-10
2.84688e-10
3.16317e-10
3.66816e-10
3.94232e-10
4.21418e-10
4.27474e-10
4.42545e-10
4.42557e-10
4.54587e-10
4.52501e-10
4.64584e-10
4.62852e-10
4.72959e-10
4.68895e-10
4.81082e-10
4.79174e-10
4.90415e-10
4.85998e-10
4.97141e-10
4.9314e-10
5.04231e-10
5.00256e-10
5.1091e-10
5.05744e-10
5.16604e-10
5.12072e-10
5.23403e-10
5.19477e-10
5.29717e-10
5.2372e-10
5.34305e-10
5.29416e-10
5.39769e-10
5.35301e-10
5.44869e-10
5.39814e-10
5.49262e-10
5.45429e-10
5.54418e-10
5.51178e-10
5.56689e-10
5.51286e-10
5.57087e-10
5.55768e-10
5.59398e-10
5.59581e-10
5.61054e-10
5.63981e-10
5.55298e-10
5.53492e-10
5.27668e-10
5.24967e-10
4.76381e-10
4.0761e-10
1.62008e-10
4.42079e-10
7.45402e-10
7.00979e-10
4.73932e-10
3.01719e-10
2.81551e-10
3.14805e-10
3.66352e-10
3.94094e-10
4.21324e-10
4.27263e-10
4.4233e-10
4.42328e-10
4.54415e-10
4.52301e-10
4.64434e-10
4.62736e-10
4.72913e-10
4.68763e-10
4.80969e-10
4.79081e-10
4.90379e-10
4.85908e-10
4.97088e-10
4.93092e-10
5.04217e-10
5.00215e-10
5.10911e-10
5.05697e-10
5.16593e-10
5.12049e-10
5.23413e-10
5.19464e-10
5.29764e-10
5.23689e-10
5.34317e-10
5.29427e-10
5.39821e-10
5.35322e-10
5.44941e-10
5.39835e-10
5.49338e-10
5.45477e-10
5.54543e-10
5.51274e-10
5.56914e-10
5.51368e-10
5.57281e-10
5.55903e-10
5.59718e-10
5.59698e-10
5.61438e-10
5.64123e-10
5.55983e-10
5.53665e-10
5.28704e-10
5.25165e-10
4.8092e-10
4.13829e-10
1.45622e-10
4.36677e-10
7.58889e-10
7.01027e-10
4.74129e-10
3.00883e-10
2.78233e-10
3.12962e-10
3.65842e-10
3.94037e-10
4.21281e-10
4.27043e-10
4.42067e-10
4.42048e-10
4.54194e-10
4.52052e-10
4.64233e-10
4.62587e-10
4.72853e-10
4.68604e-10
4.80815e-10
4.78962e-10
4.90333e-10
4.85802e-10
4.97011e-10
4.93033e-10
5.04194e-10
5.00166e-10
5.1091e-10
5.05643e-10
5.16572e-10
5.1202e-10
5.23419e-10
5.19449e-10
5.29823e-10
5.23656e-10
5.34324e-10
5.29435e-10
5.39884e-10
5.35344e-10
5.45032e-10
5.39853e-10
5.49428e-10
5.4552e-10
5.547e-10
5.51371e-10
5.57208e-10
5.51445e-10
5.57527e-10
5.56015e-10
5.60135e-10
5.59763e-10
5.61943e-10
5.64172e-10
5.56898e-10
5.53678e-10
5.30103e-10
5.25009e-10
4.86807e-10
4.21093e-10
1.27438e-10
4.34032e-10
7.70881e-10
6.94139e-10
4.75097e-10
3.02804e-10
2.75222e-10
3.10862e-10
3.65314e-10
3.94099e-10
4.21315e-10
4.26826e-10
4.4176e-10
4.41716e-10
4.53921e-10
4.51751e-10
4.63976e-10
4.62399e-10
4.72772e-10
4.68418e-10
4.80616e-10
4.78813e-10
4.90271e-10
4.85679e-10
4.96908e-10
4.92957e-10
5.0416e-10
5.00108e-10
5.10906e-10
5.05583e-10
5.16538e-10
5.11982e-10
5.23421e-10
5.19428e-10
5.29895e-10
5.23622e-10
5.34325e-10
5.29436e-10
5.39957e-10
5.35363e-10
5.45142e-10
5.39867e-10
5.49532e-10
5.45551e-10
5.5489e-10
5.51462e-10
5.5757e-10
5.51507e-10
5.57829e-10
5.56081e-10
5.60656e-10
5.59748e-10
5.62586e-10
5.6408e-10
5.58073e-10
5.53454e-10
5.31931e-10
5.24372e-10
4.94094e-10
4.29114e-10
1.07467e-10
4.36339e-10
7.81931e-10
6.77765e-10
4.75946e-10
3.08401e-10
2.73062e-10
3.08594e-10
3.64802e-10
3.94317e-10
4.21454e-10
4.26629e-10
4.41416e-10
4.41335e-10
4.53595e-10
4.51399e-10
4.6366e-10
4.62166e-10
4.72664e-10
4.68204e-10
4.8037e-10
4.78629e-10
4.90188e-10
4.85539e-10
4.96774e-10
4.92862e-10
5.04112e-10
5.00038e-10
5.10895e-10
5.05515e-10
5.16489e-10
5.11933e-10
5.23418e-10
5.19402e-10
5.29974e-10
5.23586e-10
5.34318e-10
5.29429e-10
5.40039e-10
5.35378e-10
5.45269e-10
5.39873e-10
5.4965e-10
5.45563e-10
5.55113e-10
5.51537e-10
5.57999e-10
5.51545e-10
5.58193e-10
5.5608e-10
5.6129e-10
5.59628e-10
5.63388e-10
5.63804e-10
5.59539e-10
5.52925e-10
5.34251e-10
5.23156e-10
5.02767e-10
4.37717e-10
8.53572e-11
4.45558e-10
7.93325e-10
6.49772e-10
4.75392e-10
3.18406e-10
2.72334e-10
3.06257e-10
3.64311e-10
3.94722e-10
4.2172e-10
4.26466e-10
4.41042e-10
4.4091e-10
4.53217e-10
4.50998e-10
4.63286e-10
4.61887e-10
4.72524e-10
4.67964e-10
4.80079e-10
4.78409e-10
4.9008e-10
4.85383e-10
4.9661e-10
4.92746e-10
5.04049e-10
4.99958e-10
5.10874e-10
5.05441e-10
5.16424e-10
5.11872e-10
5.23409e-10
5.19368e-10
5.30058e-10
5.2355e-10
5.34304e-10
5.29409e-10
5.40128e-10
5.35387e-10
5.4541e-10
5.3987e-10
5.49782e-10
5.45553e-10
5.5537e-10
5.51587e-10
5.58495e-10
5.5155e-10
5.58626e-10
5.55993e-10
5.62042e-10
5.59377e-10
5.64366e-10
5.63303e-10
5.61319e-10
5.5204e-10
5.37104e-10
5.21314e-10
5.12738e-10
4.46847e-10
6.04995e-11
4.63206e-10
8.06682e-10
6.08651e-10
4.71972e-10
3.33334e-10
2.73618e-10
3.03956e-10
3.63838e-10
3.95332e-10
4.22132e-10
4.26349e-10
4.40644e-10
4.40446e-10
4.52788e-10
4.50551e-10
4.62856e-10
4.61561e-10
4.72345e-10
4.67702e-10
4.79743e-10
4.78153e-10
4.89942e-10
4.85211e-10
4.96414e-10
4.92608e-10
5.03967e-10
4.99867e-10
5.1084e-10
5.05362e-10
5.16343e-10
5.11799e-10
5.23393e-10
5.19328e-10
5.30142e-10
5.23516e-10
5.34283e-10
5.29377e-10
5.40224e-10
5.35387e-10
5.45563e-10
5.39855e-10
5.4993e-10
5.45514e-10
5.55662e-10
5.51605e-10
5.59054e-10
5.51513e-10
5.59134e-10
5.55804e-10
5.62918e-10
5.58975e-10
5.65534e-10
5.6255e-10
5.63425e-10
5.50773e-10
5.40497e-10
5.18849e-10
5.23812e-10
4.56598e-10
3.23081e-11
4.90152e-10
8.23864e-10
5.5366e-10
4.64098e-10
3.53405e-10
2.77476e-10
3.01818e-10
3.63361e-10
3.96149e-10
4.22701e-10
4.26288e-10
4.40226e-10
4.39947e-10
4.52309e-10
4.5006e-10
4.62371e-10
4.61188e-10
4.72124e-10
4.67417e-10
4.79365e-10
4.7786e-10
4.89769e-10
4.85024e-10
4.96187e-10
4.92447e-10
5.03866e-10
4.99765e-10
5.1079e-10
5.05277e-10
5.16244e-10
5.11713e-10
5.23368e-10
5.19281e-10
5.30223e-10
5.23482e-10
5.34256e-10
5.29328e-10
5.40325e-10
5.35377e-10
5.45727e-10
5.39825e-10
5.50094e-10
5.45444e-10
5.5599e-10
5.51583e-10
5.59674e-10
5.51427e-10
5.59723e-10
5.555e-10
5.63919e-10
5.58412e-10
5.66898e-10
5.61534e-10
5.65852e-10
5.49127e-10
5.44401e-10
5.15828e-10
5.35734e-10
4.67152e-10
2.51529e-13
5.26584e-10
8.46598e-10
4.84815e-10
4.50252e-10
3.78539e-10
2.84416e-10
2.99998e-10
3.62857e-10
3.97163e-10
4.23431e-10
4.26289e-10
4.39793e-10
4.39416e-10
4.5178e-10
4.49529e-10
4.61832e-10
4.60768e-10
4.71856e-10
4.67111e-10
4.78947e-10
4.77531e-10
4.89559e-10
4.84822e-10
4.95929e-10
4.92263e-10
5.03743e-10
4.99652e-10
5.10721e-10
5.05187e-10
5.1613e-10
5.11614e-10
5.23334e-10
5.19227e-10
5.30299e-10
5.23448e-10
5.34225e-10
5.29263e-10
5.40428e-10
5.35355e-10
5.459e-10
5.39777e-10
5.50275e-10
5.45338e-10
5.56353e-10
5.51518e-10
5.6035e-10
5.51285e-10
5.60394e-10
5.55076e-10
5.65039e-10
5.57685e-10
5.68451e-10
5.60261e-10
5.68572e-10
5.47135e-10
5.48752e-10
5.12365e-10
5.48182e-10
4.78707e-10
-3.59319e-11
5.72089e-10
8.76514e-10
4.02849e-10
4.28995e-10
4.08315e-10
2.94867e-10
2.98697e-10
3.62304e-10
3.98345e-10
4.24321e-10
4.26358e-10
4.39348e-10
4.38855e-10
4.51203e-10
4.48959e-10
4.61242e-10
4.60302e-10
4.71538e-10
4.66784e-10
4.78491e-10
4.77167e-10
4.89309e-10
4.84604e-10
4.95643e-10
4.92056e-10
5.03597e-10
4.99529e-10
5.10634e-10
5.05092e-10
5.15999e-10
5.11503e-10
5.23291e-10
5.19166e-10
5.30366e-10
5.23414e-10
5.3419e-10
5.2918e-10
5.40534e-10
5.35321e-10
5.46082e-10
5.39712e-10
5.50473e-10
5.45196e-10
5.56748e-10
5.51407e-10
5.61077e-10
5.51087e-10
5.6115e-10
5.54535e-10
5.66264e-10
5.56801e-10
5.70172e-10
5.58755e-10
5.71538e-10
5.44864e-10
5.5345e-10
5.08621e-10
5.60847e-10
4.91388e-10
-7.63308e-11
6.25784e-10
9.14661e-10
3.09282e-10
3.99282e-10
4.41994e-10
3.09112e-10
2.9814e-10
3.61685e-10
3.99653e-10
4.25359e-10
4.26499e-10
4.38895e-10
4.38268e-10
4.50577e-10
4.48352e-10
4.60602e-10
4.59792e-10
4.71166e-10
4.66436e-10
4.78001e-10
4.7677e-10
4.89015e-10
4.8437e-10
4.95328e-10
4.91826e-10
5.03426e-10
4.99396e-10
5.10526e-10
5.04991e-10
5.15854e-10
5.11379e-10
5.23237e-10
5.19098e-10
5.30424e-10
5.23378e-10
5.34154e-10
5.29079e-10
5.40639e-10
5.35273e-10
5.4627e-10
5.39627e-10
5.50689e-10
5.45019e-10
5.57171e-10
5.51251e-10
5.61845e-10
5.50834e-10
5.6197e-10
5.53886e-10
5.67572e-10
5.55783e-10
5.72029e-10
5.57062e-10
5.7468e-10
5.42404e-10
5.5837e-10
5.04773e-10
5.73398e-10
5.05271e-10
-1.20604e-10
6.86265e-10
9.61524e-10
2.06457e-10
3.60523e-10
4.78539e-10
3.2727e-10
2.98576e-10
3.60996e-10
4.01024e-10
4.26524e-10
4.26715e-10
4.3844e-10
4.37658e-10
4.49904e-10
4.47711e-10
4.59914e-10
4.5924e-10
4.7074e-10
4.66068e-10
4.77477e-10
4.76342e-10
4.88676e-10
4.84119e-10
4.94987e-10
4.91575e-10
5.03228e-10
4.99252e-10
5.10397e-10
5.04885e-10
5.15694e-10
5.11244e-10
5.23171e-10
5.19024e-10
5.30471e-10
5.2334e-10
5.34117e-10
5.28961e-10
5.40741e-10
5.35212e-10
5.46462e-10
5.39523e-10
5.50918e-10
5.4481e-10
5.57616e-10
5.51054e-10
5.62642e-10
5.50534e-10
5.62847e-10
5.53148e-10
5.68936e-10
5.54659e-10
5.73974e-10
5.55242e-10
5.77913e-10
5.39869e-10
5.63365e-10
5.01016e-10
5.85539e-10
5.20368e-10
-1.68097e-10
7.51645e-10
1.01685e-09
9.72043e-11
3.12691e-10
5.16708e-10
3.4929e-10
3.00276e-10
3.60255e-10
4.02385e-10
4.27784e-10
4.27004e-10
4.37984e-10
4.37025e-10
4.49184e-10
4.47035e-10
4.5918e-10
4.58647e-10
4.70258e-10
4.65677e-10
4.76924e-10
4.75883e-10
4.88291e-10
4.8385e-10
4.94621e-10
4.91303e-10
5.03004e-10
4.99098e-10
5.10247e-10
5.04772e-10
5.15522e-10
5.11099e-10
5.23092e-10
5.18943e-10
5.30504e-10
5.233e-10
5.34079e-10
5.28829e-10
5.40837e-10
5.3514e-10
5.46654e-10
5.39405e-10
5.51157e-10
5.44575e-10
5.58073e-10
5.50823e-10
5.63454e-10
5.50198e-10
5.63761e-10
5.52346e-10
5.70317e-10
5.53474e-10
5.7595e-10
5.53374e-10
5.81137e-10
5.37388e-10
5.6828e-10
4.97544e-10
5.97001e-10
5.3659e-10
-2.17787e-10
8.19867e-10
1.08031e-09
-1.63472e-11
2.55904e-10
5.5497e-10
3.74937e-10
3.03533e-10
3.59513e-10
4.03656e-10
4.29096e-10
4.27363e-10
4.37534e-10
4.36374e-10
4.48417e-10
4.46326e-10
4.58401e-10
4.58015e-10
4.6972e-10
4.65264e-10
4.76341e-10
4.75398e-10
4.8786e-10
4.83561e-10
4.94231e-10
4.91011e-10
5.02752e-10
4.98934e-10
5.10074e-10
5.04654e-10
5.15336e-10
5.10943e-10
5.23e-10
5.18856e-10
5.30523e-10
5.23257e-10
5.3404e-10
5.28684e-10
5.40923e-10
5.35057e-10
5.46843e-10
5.39274e-10
5.51401e-10
5.4432e-10
5.58532e-10
5.50567e-10
5.64262e-10
5.49842e-10
5.64685e-10
5.5151e-10
5.71674e-10
5.52277e-10
5.77885e-10
5.51541e-10
5.84241e-10
5.351e-10
5.72958e-10
4.94538e-10
6.07622e-10
5.53703e-10
-2.68651e-10
8.8879e-10
1.15119e-09
-1.28438e-10
1.90631e-10
5.91599e-10
4.03736e-10
3.08612e-10
3.58843e-10
4.04752e-10
4.30407e-10
4.27785e-10
4.37094e-10
4.35705e-10
4.47606e-10
4.45586e-10
4.5758e-10
4.57346e-10
4.69126e-10
4.64828e-10
4.75732e-10
4.74886e-10
4.87381e-10
4.83252e-10
4.93818e-10
4.907e-10
5.0247e-10
4.98758e-10
5.0988e-10
5.0453e-10
5.15138e-10
5.1078e-10
5.22892e-10
5.18764e-10
5.30526e-10
5.23212e-10
5.33998e-10
5.2853e-10
5.40994e-10
5.34966e-10
5.47023e-10
5.39136e-10
5.5164e-10
5.44055e-10
5.58979e-10
5.50299e-10
5.65046e-10
5.49488e-10
5.65593e-10
5.50678e-10
5.72959e-10
5.51126e-10
5.79705e-10
5.49834e-10
5.8711e-10
5.33145e-10
5.7725e-10
4.92157e-10
6.17268e-10
5.71397e-10
-3.19368e-10
9.55561e-10
1.22791e-09
-2.36275e-10
1.18027e-10
6.24876e-10
4.35043e-10
3.15752e-10
3.58343e-10
4.05587e-10
4.31653e-10
4.2826e-10
4.36668e-10
4.35023e-10
4.46749e-10
4.44815e-10
4.56718e-10
4.56643e-10
4.68477e-10
4.64368e-10
4.75098e-10
4.74352e-10
4.86855e-10
4.82921e-10
4.93381e-10
4.90373e-10
5.02159e-10
4.98573e-10
5.09664e-10
5.044e-10
5.14927e-10
5.10611e-10
5.22767e-10
5.18669e-10
5.30511e-10
5.23166e-10
5.3395e-10
5.28371e-10
5.41048e-10
5.34872e-10
5.47188e-10
5.38998e-10
5.51869e-10
5.43791e-10
5.594e-10
5.50035e-10
5.65785e-10
5.49156e-10
5.6645e-10
5.4989e-10
5.74125e-10
5.5008e-10
5.81336e-10
5.48352e-10
5.89626e-10
5.31653e-10
5.81015e-10
4.90551e-10
6.25842e-10
5.89352e-10
-3.68377e-10
1.01782e-09
1.30815e-09
-3.35856e-10
3.99168e-11
6.53179e-10
4.68067e-10
3.25148e-10
3.58134e-10
4.06076e-10
4.32767e-10
4.2877e-10
4.36261e-10
4.34328e-10
4.45848e-10
4.44013e-10
4.55816e-10
4.55908e-10
4.67774e-10
4.63884e-10
4.74439e-10
4.73796e-10
4.86284e-10
4.82568e-10
4.92922e-10
4.90031e-10
5.01817e-10
4.98377e-10
5.09426e-10
5.04266e-10
5.14703e-10
5.10439e-10
5.22624e-10
5.18571e-10
5.30476e-10
5.2312e-10
5.33895e-10
5.28211e-10
5.41078e-10
5.34778e-10
5.47333e-10
5.38866e-10
5.52075e-10
5.43539e-10
5.5978e-10
5.49789e-10
5.66458e-10
5.4887e-10
5.67226e-10
5.49186e-10
5.75121e-10
5.49198e-10
5.82708e-10
5.47196e-10
5.91682e-10
5.30725e-10
5.84118e-10
4.89853e-10
6.33238e-10
6.07262e-10
-4.13871e-10
1.07295e-09
1.38976e-09
-4.23116e-10
-4.18362e-11
6.74885e-10
5.01891e-10
3.36936e-10
3.58364e-10
4.06153e-10
4.33658e-10
4.29298e-10
4.35875e-10
4.33622e-10
4.44902e-10
4.43181e-10
4.54874e-10
4.55142e-10
4.6702e-10
4.63375e-10
4.73756e-10
4.73222e-10
4.85668e-10
4.82192e-10
4.9244e-10
4.89675e-10
5.01445e-10
4.9817e-10
5.09166e-10
5.04127e-10
5.14465e-10
5.10264e-10
5.2246e-10
5.18473e-10
5.3042e-10
5.23076e-10
5.33827e-10
5.28054e-10
5.41078e-10
5.34689e-10
5.4745e-10
5.38749e-10
5.5225e-10
5.43311e-10
5.60105e-10
5.4958e-10
5.67042e-10
5.48656e-10
5.67887e-10
5.48604e-10
5.75902e-10
5.48534e-10
5.83753e-10
5.46439e-10
5.93195e-10
5.30521e-10
5.8644e-10
4.90182e-10
6.39397e-10
6.24835e-10
-4.5426e-10
1.11831e-09
1.47048e-09
-4.94181e-10
-1.25247e-10
6.88547e-10
5.35544e-10
3.51152e-10
3.59182e-10
4.05769e-10
4.34251e-10
4.29818e-10
4.35512e-10
4.32909e-10
4.43911e-10
4.42317e-10
4.53894e-10
4.54347e-10
4.66217e-10
4.62842e-10
4.7305e-10
4.72629e-10
4.85009e-10
4.81793e-10
4.91935e-10
4.89306e-10
5.01042e-10
4.97954e-10
5.08885e-10
5.03986e-10
5.14212e-10
5.10089e-10
5.22274e-10
5.18376e-10
5.30342e-10
5.23036e-10
5.33744e-10
5.27906e-10
5.41045e-10
5.34611e-10
5.47533e-10
5.38655e-10
5.52383e-10
5.43121e-10
5.60359e-10
5.49422e-10
5.67519e-10
5.48535e-10
5.68404e-10
5.48181e-10
5.76428e-10
5.48139e-10
5.84415e-10
5.46148e-10
5.94091e-10
5.31112e-10
5.87889e-10
4.91682e-10
6.44207e-10
6.41916e-10
-4.87911e-10
1.15122e-09
1.54815e-09
-5.45247e-10
-2.08318e-10
6.92968e-10
5.68078e-10
3.67726e-10
3.60697e-10
4.04891e-10
4.34476e-10
4.30301e-10
4.35172e-10
4.3219e-10
4.42877e-10
4.41421e-10
4.52876e-10
4.53523e-10
4.65367e-10
4.62285e-10
4.72321e-10
4.72019e-10
4.84308e-10
4.81371e-10
4.91406e-10
4.88926e-10
5.00608e-10
4.97728e-10
5.08582e-10
5.03843e-10
5.13944e-10
5.09916e-10
5.22066e-10
5.18281e-10
5.3024e-10
5.23003e-10
5.33642e-10
5.2777e-10
5.40974e-10
5.34548e-10
5.47577e-10
5.38593e-10
5.52466e-10
5.4298e-10
5.6053e-10
5.4933e-10
5.67871e-10
5.48532e-10
5.68754e-10
5.47947e-10
5.76672e-10
5.48052e-10
5.84655e-10
5.46376e-10
5.94321e-10
5.32556e-10
5.88414e-10
4.94462e-10
6.4747e-10
6.58622e-10
-5.13228e-10
1.16868e-09
1.62063e-09
-5.72594e-10
-2.89134e-10
6.87242e-10
5.98654e-10
3.86471e-10
3.62966e-10
4.03484e-10
4.34256e-10
4.30704e-10
4.34846e-10
4.3146e-10
4.41797e-10
4.40491e-10
4.51819e-10
4.52667e-10
4.64471e-10
4.61704e-10
4.7157e-10
4.7139e-10
4.83565e-10
4.80926e-10
4.90853e-10
4.88534e-10
5.00143e-10
4.97491e-10
5.08257e-10
5.037e-10
5.1366e-10
5.09747e-10
5.21834e-10
5.18189e-10
5.30112e-10
5.22981e-10
5.33519e-10
5.27651e-10
5.40862e-10
5.34505e-10
5.47576e-10
5.38569e-10
5.52493e-10
5.42899e-10
5.60611e-10
5.49315e-10
5.68088e-10
5.48664e-10
5.68921e-10
5.47924e-10
5.76617e-10
5.48301e-10
5.84457e-10
5.4715e-10
5.93871e-10
5.34873e-10
5.88009e-10
4.98675e-10
6.48568e-10
6.755e-10
-5.28525e-10
1.16722e-09
1.68574e-09
-5.72651e-10
-3.6601e-10
6.70631e-10
6.26585e-10
4.07178e-10
3.66027e-10
4.01516e-10
4.3351e-10
4.30984e-10
4.34526e-10
4.30718e-10
4.40664e-10
4.39523e-10
4.5072e-10
4.51774e-10
4.63526e-10
4.611e-10
4.70796e-10
4.70742e-10
4.82778e-10
4.8046e-10
4.90275e-10
4.8813e-10
4.99647e-10
4.97243e-10
5.07908e-10
5.03558e-10
5.13359e-10
5.09583e-10
5.21577e-10
5.181e-10
5.29955e-10
5.22973e-10
5.33369e-10
5.27551e-10
5.40703e-10
5.34485e-10
5.47525e-10
5.38592e-10
5.52456e-10
5.42884e-10
5.60591e-10
5.49386e-10
5.68155e-10
5.48944e-10
5.68893e-10
5.48123e-10
5.76253e-10
5.48896e-10
5.83817e-10
5.48474e-10
5.92744e-10
5.38058e-10
5.86641e-10
5.04641e-10
6.46698e-10
6.93488e-10
-5.31832e-10
1.14312e-09
6.93346e-10
6.77542e-10
4.79053e-10
3.10997e-10
2.88661e-10
3.17316e-10
3.66671e-10
3.9383e-10
4.21106e-10
4.27251e-10
4.4241e-10
4.42428e-10
4.54493e-10
4.52421e-10
4.64518e-10
4.6272e-10
4.72924e-10
4.68994e-10
4.81232e-10
4.79258e-10
4.90544e-10
4.86148e-10
4.97285e-10
4.93199e-10
5.04313e-10
5.0027e-10
5.10963e-10
5.05772e-10
5.16622e-10
5.12004e-10
5.23366e-10
5.19364e-10
5.29627e-10
5.23618e-10
5.34238e-10
5.29282e-10
5.39722e-10
5.35197e-10
5.44869e-10
5.39788e-10
5.49304e-10
5.45405e-10
5.54462e-10
5.51147e-10
5.56732e-10
5.5142e-10
5.57267e-10
5.55908e-10
5.59595e-10
5.59899e-10
5.61302e-10
5.64342e-10
5.55398e-10
5.54012e-10
5.27429e-10
5.25058e-10
4.70502e-10
3.98893e-10
1.92068e-10
4.57194e-10
7.03344e-10
6.83088e-10
4.77157e-10
3.08676e-10
2.8744e-10
3.16934e-10
3.6648e-10
3.93754e-10
4.20955e-10
4.27157e-10
4.42262e-10
4.42361e-10
4.54367e-10
4.52371e-10
4.6442e-10
4.62704e-10
4.72837e-10
4.68974e-10
4.81156e-10
4.79266e-10
4.90475e-10
4.86154e-10
4.97222e-10
4.93223e-10
5.04259e-10
5.00299e-10
5.10909e-10
5.05801e-10
5.16572e-10
5.12044e-10
5.23324e-10
5.1941e-10
5.2958e-10
5.23654e-10
5.34195e-10
5.29336e-10
5.39686e-10
5.35256e-10
5.44835e-10
5.39848e-10
5.49281e-10
5.4548e-10
5.54459e-10
5.51236e-10
5.56738e-10
5.51499e-10
5.57295e-10
5.56021e-10
5.59658e-10
5.60021e-10
5.61429e-10
5.64506e-10
5.55628e-10
5.54187e-10
5.27834e-10
5.25505e-10
4.72067e-10
3.9974e-10
1.8501e-10
4.52574e-10
7.15722e-10
6.89138e-10
4.75013e-10
3.05824e-10
2.85678e-10
3.1621e-10
3.66208e-10
3.9359e-10
4.20818e-10
4.26987e-10
4.42113e-10
4.42211e-10
4.54253e-10
4.52248e-10
4.64332e-10
4.62628e-10
4.72788e-10
4.68892e-10
4.81097e-10
4.79214e-10
4.90444e-10
4.86102e-10
4.97193e-10
4.93198e-10
5.04245e-10
5.00277e-10
5.109e-10
5.05779e-10
5.16566e-10
5.12038e-10
5.23325e-10
5.1941e-10
5.2959e-10
5.23642e-10
5.34199e-10
5.29352e-10
5.39703e-10
5.35278e-10
5.44859e-10
5.39874e-10
5.49314e-10
5.4553e-10
5.54514e-10
5.51312e-10
5.56825e-10
5.51571e-10
5.57385e-10
5.56147e-10
5.59799e-10
5.60161e-10
5.61612e-10
5.647e-10
5.55939e-10
5.54462e-10
5.28327e-10
5.2599e-10
4.74182e-10
4.02846e-10
1.74171e-10
4.46907e-10
7.30215e-10
6.95101e-10
4.7308e-10
3.02657e-10
2.83145e-10
3.15089e-10
3.65833e-10
3.93422e-10
4.20695e-10
4.26788e-10
4.41936e-10
4.42021e-10
4.54115e-10
4.52083e-10
4.64219e-10
4.62526e-10
4.72743e-10
4.68779e-10
4.81017e-10
4.79136e-10
4.90415e-10
4.86027e-10
4.97161e-10
4.93157e-10
5.04236e-10
5.00239e-10
5.10903e-10
5.05741e-10
5.16567e-10
5.12022e-10
5.23338e-10
5.19398e-10
5.29624e-10
5.23616e-10
5.34214e-10
5.2936e-10
5.39743e-10
5.35295e-10
5.44912e-10
5.39896e-10
5.49376e-10
5.45578e-10
5.54608e-10
5.51395e-10
5.56982e-10
5.5165e-10
5.57529e-10
5.56283e-10
5.60026e-10
5.60302e-10
5.61889e-10
5.6489e-10
5.5642e-10
5.54727e-10
5.29053e-10
5.26398e-10
4.77446e-10
4.07716e-10
1.60143e-10
4.40724e-10
7.44856e-10
6.99353e-10
4.72074e-10
3.00112e-10
2.80033e-10
3.13591e-10
3.65378e-10
3.93285e-10
4.20599e-10
4.26571e-10
4.41713e-10
4.41784e-10
4.53936e-10
4.51874e-10
4.64061e-10
4.62398e-10
4.72688e-10
4.68641e-10
4.80901e-10
4.79037e-10
4.90379e-10
4.85938e-10
4.97109e-10
4.93107e-10
5.04222e-10
5.00195e-10
5.10905e-10
5.05698e-10
5.16561e-10
5.12001e-10
5.2335e-10
5.19386e-10
5.29672e-10
5.23587e-10
5.34228e-10
5.2937e-10
5.39795e-10
5.35314e-10
5.44985e-10
5.39918e-10
5.49454e-10
5.45627e-10
5.54735e-10
5.51488e-10
5.57206e-10
5.51731e-10
5.57724e-10
5.56416e-10
5.60344e-10
5.60418e-10
5.62272e-10
5.65031e-10
5.57103e-10
5.54903e-10
5.30082e-10
5.26593e-10
4.81989e-10
4.13964e-10
1.43812e-10
4.35296e-10
7.58302e-10
6.99394e-10
4.72214e-10
2.99279e-10
2.76745e-10
3.11765e-10
3.6488e-10
3.93234e-10
4.20556e-10
4.26345e-10
4.41443e-10
4.41497e-10
4.53708e-10
4.51617e-10
4.63852e-10
4.62237e-10
4.72617e-10
4.68474e-10
4.80743e-10
4.78912e-10
4.9033e-10
4.85832e-10
4.97033e-10
4.93045e-10
5.04198e-10
5.00143e-10
5.10906e-10
5.05648e-10
5.16546e-10
5.11975e-10
5.23359e-10
5.19371e-10
5.29734e-10
5.23556e-10
5.34236e-10
5.29377e-10
5.39858e-10
5.35333e-10
5.45077e-10
5.39938e-10
5.49548e-10
5.45671e-10
5.54893e-10
5.51584e-10
5.57497e-10
5.51805e-10
5.57968e-10
5.56524e-10
5.60758e-10
5.6048e-10
5.62775e-10
5.65076e-10
5.58013e-10
5.54918e-10
5.31471e-10
5.26433e-10
4.87883e-10
4.21259e-10
1.25695e-10
4.32637e-10
7.70263e-10
6.92497e-10
4.73115e-10
3.01193e-10
2.73762e-10
3.09685e-10
3.64368e-10
3.93305e-10
4.20593e-10
4.26125e-10
4.41131e-10
4.41159e-10
4.5343e-10
4.51308e-10
4.63588e-10
4.62038e-10
4.72524e-10
4.68278e-10
4.80539e-10
4.78756e-10
4.90264e-10
4.85709e-10
4.96932e-10
4.92968e-10
5.04163e-10
5.0008e-10
5.10901e-10
5.05591e-10
5.16518e-10
5.1194e-10
5.23365e-10
5.19351e-10
5.29807e-10
5.23522e-10
5.34239e-10
5.29378e-10
5.39932e-10
5.3535e-10
5.45187e-10
5.39954e-10
5.49655e-10
5.45703e-10
5.55083e-10
5.51673e-10
5.57855e-10
5.51863e-10
5.58268e-10
5.56585e-10
5.61274e-10
5.60461e-10
5.63414e-10
5.6498e-10
5.59179e-10
5.54693e-10
5.33289e-10
5.25788e-10
4.95179e-10
4.29308e-10
1.05793e-10
4.34949e-10
7.81298e-10
6.76112e-10
4.7389e-10
3.06772e-10
2.71627e-10
3.07438e-10
3.63874e-10
3.93534e-10
4.20738e-10
4.25927e-10
4.40783e-10
4.40773e-10
4.531e-10
4.50949e-10
4.63267e-10
4.61795e-10
4.72404e-10
4.68055e-10
4.80289e-10
4.78565e-10
4.90177e-10
4.85569e-10
4.96801e-10
4.92871e-10
5.04115e-10
5.00008e-10
5.10889e-10
5.05527e-10
5.16476e-10
5.11894e-10
5.23366e-10
5.19327e-10
5.29889e-10
5.23488e-10
5.34235e-10
5.2937e-10
5.40015e-10
5.35363e-10
5.45312e-10
5.39961e-10
5.49777e-10
5.45717e-10
5.55307e-10
5.51746e-10
5.58281e-10
5.51897e-10
5.58629e-10
5.56579e-10
5.61901e-10
5.60334e-10
5.64209e-10
5.64696e-10
5.60633e-10
5.54162e-10
5.35599e-10
5.24562e-10
5.03865e-10
4.37933e-10
8.37446e-11
4.44198e-10
7.92702e-10
6.48105e-10
4.7326e-10
3.16751e-10
2.70917e-10
3.05122e-10
3.63404e-10
3.93951e-10
4.21013e-10
4.25766e-10
4.40407e-10
4.40345e-10
4.52719e-10
4.50543e-10
4.62888e-10
4.61508e-10
4.72251e-10
4.67805e-10
4.79992e-10
4.78339e-10
4.90064e-10
4.85411e-10
4.9664e-10
4.92755e-10
5.04051e-10
4.99924e-10
5.10865e-10
5.05455e-10
5.16418e-10
5.11837e-10
5.23362e-10
5.19296e-10
5.29976e-10
5.23454e-10
5.34223e-10
5.29351e-10
5.40105e-10
5.35369e-10
5.45451e-10
5.39959e-10
5.49912e-10
5.45709e-10
5.55566e-10
5.51794e-10
5.58771e-10
5.51897e-10
5.59057e-10
5.56485e-10
5.62645e-10
5.60075e-10
5.65179e-10
5.64186e-10
5.62399e-10
5.53272e-10
5.38443e-10
5.22708e-10
5.13852e-10
4.47078e-10
5.89335e-11
4.61904e-10
8.06098e-10
6.0697e-10
4.69766e-10
3.31648e-10
2.72212e-10
3.02839e-10
3.6295e-10
3.94575e-10
4.21437e-10
4.25653e-10
4.40008e-10
4.39879e-10
4.52289e-10
4.50092e-10
4.62455e-10
4.61175e-10
4.72061e-10
4.67531e-10
4.79651e-10
4.78076e-10
4.8992e-10
4.85237e-10
4.96447e-10
4.92616e-10
5.03969e-10
4.99829e-10
5.10827e-10
5.05377e-10
5.16343e-10
5.11769e-10
5.2335e-10
5.19258e-10
5.30062e-10
5.23421e-10
5.34204e-10
5.29319e-10
5.40202e-10
5.35368e-10
5.45601e-10
5.39943e-10
5.50063e-10
5.45673e-10
5.5586e-10
5.5181e-10
5.59325e-10
5.51854e-10
5.59561e-10
5.56289e-10
5.63513e-10
5.59664e-10
5.66338e-10
5.63422e-10
5.6449e-10
5.51996e-10
5.41829e-10
5.20232e-10
5.24945e-10
4.56841e-10
3.07687e-11
4.88926e-10
8.23352e-10
5.51971e-10
4.61825e-10
3.51683e-10
2.76072e-10
3.00713e-10
3.62493e-10
3.95408e-10
4.22018e-10
4.25598e-10
4.39592e-10
4.3938e-10
4.51811e-10
4.49601e-10
4.61968e-10
4.60797e-10
4.7183e-10
4.67236e-10
4.79267e-10
4.77776e-10
4.89741e-10
4.85047e-10
4.96222e-10
4.92456e-10
5.03868e-10
4.99724e-10
5.10773e-10
5.05293e-10
5.1625e-10
5.11688e-10
5.2333e-10
5.19214e-10
5.30146e-10
5.23389e-10
5.3418e-10
5.29271e-10
5.40304e-10
5.35356e-10
5.45763e-10
5.39913e-10
5.50228e-10
5.45604e-10
5.56189e-10
5.51787e-10
5.5994e-10
5.51761e-10
5.60144e-10
5.55978e-10
5.64504e-10
5.5909e-10
5.6769e-10
5.62392e-10
5.66898e-10
5.50336e-10
5.45728e-10
5.17198e-10
5.36888e-10
4.67405e-10
-1.28882e-12
5.25443e-10
8.46183e-10
4.83128e-10
4.47926e-10
3.76784e-10
2.83005e-10
2.98899e-10
3.62005e-10
3.96436e-10
4.22762e-10
4.25608e-10
4.39162e-10
4.3885e-10
4.51285e-10
4.4907e-10
4.6143e-10
4.60374e-10
4.71553e-10
4.66921e-10
4.78843e-10
4.77441e-10
4.89524e-10
4.84841e-10
4.95967e-10
4.92272e-10
5.03744e-10
4.99609e-10
5.107e-10
5.05202e-10
5.1614e-10
5.11594e-10
5.23302e-10
5.19163e-10
5.30224e-10
5.23357e-10
5.3415e-10
5.29207e-10
5.40409e-10
5.35334e-10
5.45933e-10
5.39864e-10
5.50411e-10
5.455e-10
5.56554e-10
5.5172e-10
5.60611e-10
5.51612e-10
5.60808e-10
5.55545e-10
5.65612e-10
5.5835e-10
5.69229e-10
5.61102e-10
5.69599e-10
5.48329e-10
5.50074e-10
5.13723e-10
5.49358e-10
4.78971e-10
-3.74966e-11
5.7103e-10
8.76221e-10
4.01174e-10
4.2663e-10
4.06531e-10
2.93444e-10
2.97598e-10
3.61465e-10
3.97633e-10
4.23666e-10
4.25686e-10
4.38722e-10
4.38293e-10
4.50711e-10
4.48502e-10
4.6084e-10
4.59907e-10
4.71228e-10
4.66585e-10
4.78382e-10
4.77071e-10
4.89266e-10
4.84619e-10
4.95681e-10
4.92066e-10
5.03598e-10
4.99484e-10
5.10608e-10
5.05105e-10
5.16014e-10
5.11487e-10
5.23263e-10
5.19105e-10
5.30295e-10
5.23325e-10
5.34117e-10
5.29125e-10
5.40516e-10
5.35299e-10
5.46112e-10
5.39796e-10
5.50611e-10
5.4536e-10
5.5695e-10
5.51608e-10
5.61333e-10
5.51406e-10
5.61552e-10
5.54995e-10
5.66826e-10
5.57452e-10
5.70936e-10
5.59578e-10
5.72544e-10
5.46037e-10
5.54768e-10
5.09967e-10
5.62046e-10
4.91663e-10
-7.79436e-11
6.2481e-10
9.14503e-10
3.07626e-10
3.96895e-10
4.40192e-10
3.07674e-10
2.97034e-10
3.60856e-10
3.98952e-10
4.24717e-10
4.25838e-10
4.38275e-10
4.37709e-10
4.5009e-10
4.47899e-10
4.60203e-10
4.59397e-10
4.70851e-10
4.6623e-10
4.77885e-10
4.76669e-10
4.88965e-10
4.84381e-10
4.95367e-10
4.91837e-10
5.03427e-10
4.99349e-10
5.10496e-10
5.05002e-10
5.15872e-10
5.11368e-10
5.23214e-10
5.19041e-10
5.30356e-10
5.23291e-10
5.34083e-10
5.29026e-10
5.40622e-10
5.35251e-10
5.46297e-10
5.39709e-10
5.50826e-10
5.45184e-10
5.57375e-10
5.51451e-10
5.62096e-10
5.51146e-10
5.62365e-10
5.54336e-10
5.68123e-10
5.56417e-10
5.72777e-10
5.57864e-10
5.75666e-10
5.43555e-10
5.59683e-10
5.06109e-10
5.7462e-10
5.05559e-10
-1.22283e-10
6.8537e-10
9.61506e-10
2.04839e-10
3.5814e-10
4.76731e-10
3.25814e-10
2.97457e-10
3.60173e-10
4.00334e-10
4.25895e-10
4.26063e-10
4.37825e-10
4.37103e-10
4.49423e-10
4.47262e-10
4.59518e-10
4.58847e-10
4.70421e-10
4.65855e-10
4.77357e-10
4.76235e-10
4.8862e-10
4.84125e-10
4.95026e-10
4.91587e-10
5.03229e-10
4.99205e-10
5.10363e-10
5.04893e-10
5.15715e-10
5.11237e-10
5.23153e-10
5.1897e-10
5.30405e-10
5.23256e-10
5.34047e-10
5.28909e-10
5.40725e-10
5.35191e-10
5.46485e-10
5.39603e-10
5.51055e-10
5.44975e-10
5.57821e-10
5.51253e-10
5.62888e-10
5.50837e-10
5.63234e-10
5.53587e-10
5.69473e-10
5.55277e-10
5.74707e-10
5.56022e-10
5.78876e-10
5.40995e-10
5.64671e-10
5.02343e-10
5.86783e-10
5.20676e-10
-1.69854e-10
7.50809e-10
1.01696e-09
9.56473e-11
3.10342e-10
5.14908e-10
3.47814e-10
2.99137e-10
3.59433e-10
4.01703e-10
4.27165e-10
4.26361e-10
4.37375e-10
4.36475e-10
4.48709e-10
4.46591e-10
4.58788e-10
4.58256e-10
4.69937e-10
4.65459e-10
4.76799e-10
4.75773e-10
4.88228e-10
4.8385e-10
4.94659e-10
4.91315e-10
5.03005e-10
4.99049e-10
5.10208e-10
5.04778e-10
5.15544e-10
5.11095e-10
5.23079e-10
5.18893e-10
5.30441e-10
5.23218e-10
5.34011e-10
5.28777e-10
5.40822e-10
5.35118e-10
5.46675e-10
5.39481e-10
5.51294e-10
5.44739e-10
5.58278e-10