/*--------------------------------*- C++ -*----------------------------------*\
| =========                 |                                                 |
| \\      /  F ield         | OpenFOAM: The Open Source CFD Toolbox           |
|  \\    /   O peration     | Version:  2312                                  |
|   \\  /    A nd           | Website:  www.openfoam.com                      |
|    \\/     M anipulation  |                                                 |
\*---------------------------------------------------------------------------*/
FoamFile
{
    version     2.0;
    format      ascii;
    arch        "LSB;label=32;scalar=64";
    class       volScalarField;
    location    "400";
    object      p;
}
// * * * * * * * * * * * * * * * * * * * * * * * * * * * * * * * * * * * * * //

dimensions      [0 2 -2 0 0 0 0];

internalField   nonuniform List<scalar> 
144000
(
3.67196e-10
2.55933e-10
-1.75819e-10
-4.63515e-10
-4.28136e-10
-3.16026e-10
-1.90574e-10
-1.24902e-10
-6.37879e-11
-5.04487e-11
-2.01601e-11
-2.33563e-11
-1.63418e-12
-1.05215e-11
9.8136e-12
9.55423e-14
1.68812e-11
2.59189e-12
2.17025e-11
1.01294e-11
2.83423e-11
1.32082e-11
3.1572e-11
1.71832e-11
3.56946e-11
2.09394e-11
3.85413e-11
2.15801e-11
3.9608e-11
2.35177e-11
4.21514e-11
2.63149e-11
4.29429e-11
2.38818e-11
4.11444e-11
2.43152e-11
4.1307e-11
2.4776e-11
4.01123e-11
2.25087e-11
3.64323e-11
2.1575e-11
3.46158e-11
1.84899e-11
3.02104e-11
1.49677e-11
2.57318e-11
1.66149e-11
2.36777e-11
1.86346e-11
2.1441e-11
2.45192e-11
1.19166e-11
1.57702e-11
-2.42156e-11
-6.83854e-12
-7.81098e-11
-1.66529e-10
-6.97092e-10
-1.49083e-10
3.88863e-10
2.66988e-10
-1.8098e-10
-4.68164e-10
-4.3018e-10
-3.16353e-10
-1.90747e-10
-1.24955e-10
-6.40295e-11
-5.06055e-11
-2.04317e-11
-2.34741e-11
-1.86382e-12
-1.06011e-11
9.63181e-12
7.44283e-14
1.67192e-11
2.5608e-12
2.15533e-11
1.01472e-11
2.82064e-11
1.32217e-11
3.14433e-11
1.72292e-11
3.55794e-11
2.09964e-11
3.84254e-11
2.16319e-11
3.94953e-11
2.35892e-11
4.20523e-11
2.64015e-11
4.28378e-11
2.39494e-11
4.10404e-11
2.44112e-11
4.12178e-11
2.48746e-11
4.00289e-11
2.25865e-11
3.62921e-11
2.15465e-11
3.44408e-11
1.85957e-11
3.01606e-11
1.50998e-11
2.57036e-11
1.67863e-11
2.36973e-11
1.88008e-11
2.1548e-11
2.47313e-11
1.21615e-11
1.59168e-11
-2.37699e-11
-6.45544e-12
-7.48805e-11
-1.62483e-10
-7.11933e-10
-1.60923e-10
4.15642e-10
2.76862e-10
-1.87137e-10
-4.73242e-10
-4.32738e-10
-3.16974e-10
-1.9088e-10
-1.25079e-10
-6.4176e-11
-5.08803e-11
-2.06792e-11
-2.37374e-11
-2.05278e-12
-1.08243e-11
9.48635e-12
-6.49797e-14
1.66451e-11
2.40581e-12
2.14571e-11
1.00459e-11
2.81577e-11
1.31164e-11
3.139e-11
1.7167e-11
3.55519e-11
2.09454e-11
3.8411e-11
2.15724e-11
3.94761e-11
2.35534e-11
4.20492e-11
2.63826e-11
4.28529e-11
2.3907e-11
4.10336e-11
2.44073e-11
4.1238e-11
2.48763e-11
4.00649e-11
2.25854e-11
3.62307e-11
2.13611e-11
3.42995e-11
1.85671e-11
3.02547e-11
1.5184e-11
2.57903e-11
1.69203e-11
2.38551e-11
1.89345e-11
2.17409e-11
2.4913e-11
1.25367e-11
1.61339e-11
-2.32203e-11
-6.46326e-12
-7.11286e-11
-1.52735e-10
-7.34466e-10
-1.74036e-10
4.45754e-10
2.82568e-10
-1.93209e-10
-4.77722e-10
-4.36176e-10
-3.17896e-10
-1.90971e-10
-1.25104e-10
-6.42213e-11
-5.11699e-11
-2.09654e-11
-2.40708e-11
-2.27532e-12
-1.11128e-11
9.30199e-12
-2.46414e-13
1.65885e-11
2.20383e-12
2.13328e-11
9.9025e-12
2.81237e-11
1.29736e-11
3.13301e-11
1.70747e-11
3.55365e-11
2.08699e-11
3.84223e-11
2.14837e-11
3.9468e-11
2.34888e-11
4.20662e-11
2.63419e-11
4.29158e-11
2.38346e-11
4.10442e-11
2.43754e-11
4.13011e-11
2.48532e-11
4.01634e-11
2.25801e-11
3.61966e-11
2.10883e-11
3.41016e-11
1.84191e-11
3.04479e-11
1.52574e-11
2.59649e-11
1.70195e-11
2.41583e-11
1.90017e-11
2.21073e-11
2.49863e-11
1.3235e-11
1.61315e-11
-2.2251e-11
-7.29952e-12
-6.53092e-11
-1.39017e-10
-7.62956e-10
-1.85642e-10
4.74729e-10
2.78278e-10
-1.97847e-10
-4.78632e-10
-4.3993e-10
-3.1907e-10
-1.91002e-10
-1.2496e-10
-6.4154e-11
-5.14625e-11
-2.13393e-11
-2.44917e-11
-2.58159e-12
-1.14785e-11
9.03311e-12
-4.68644e-13
1.65119e-11
1.96264e-12
2.11425e-11
9.72649e-12
2.80741e-11
1.28095e-11
3.12294e-11
1.69657e-11
3.55036e-11
2.07883e-11
3.84321e-11
2.13864e-11
3.944e-11
2.34124e-11
4.20764e-11
2.63e-11
4.30026e-11
2.37535e-11
4.10449e-11
2.43294e-11
4.13872e-11
2.48198e-11
4.03121e-11
2.25927e-11
3.61848e-11
2.07796e-11
3.37926e-11
1.81212e-11
3.07247e-11
1.53233e-11
2.62187e-11
1.70579e-11
2.46183e-11
1.89521e-11
2.26781e-11
2.48544e-11
1.43471e-11
1.57281e-11
-2.06479e-11
-9.31716e-12
-5.69983e-11
-1.23102e-10
-7.95546e-10
-1.90529e-10
5.00446e-10
2.56478e-10
-2.01183e-10
-4.72819e-10
-4.42292e-10
-3.2044e-10
-1.90965e-10
-1.24593e-10
-6.39372e-11
-5.1747e-11
-2.18155e-11
-2.50196e-11
-2.99445e-12
-1.19383e-11
8.6586e-12
-7.567e-13
1.63977e-11
1.67631e-12
2.08726e-11
9.50609e-12
2.79969e-11
1.2621e-11
3.10771e-11
1.68326e-11
3.54453e-11
2.06966e-11
3.8433e-11
2.12798e-11
3.9385e-11
2.33202e-11
4.20748e-11
2.62538e-11
4.31095e-11
2.36647e-11
4.10325e-11
2.42608e-11
4.14972e-11
2.47681e-11
4.05182e-11
2.26268e-11
3.62177e-11
2.04407e-11
3.33266e-11
1.76249e-11
3.10863e-11
1.53701e-11
2.65592e-11
1.69954e-11
2.52535e-11
1.87294e-11
2.34975e-11
2.44196e-11
1.5961e-11
1.47484e-11
-1.81959e-11
-1.28432e-11
-4.5929e-11
-1.06471e-10
-8.31736e-10
-1.82149e-10
5.23719e-10
2.10153e-10
-2.05018e-10
-4.57574e-10
-4.42128e-10
-3.21906e-10
-1.90875e-10
-1.23951e-10
-6.35282e-11
-5.20014e-11
-2.23919e-11
-2.56604e-11
-3.52464e-12
-1.2499e-11
8.16757e-12
-1.12318e-12
1.62307e-11
1.34082e-12
2.05161e-11
9.23024e-12
2.78812e-11
1.24054e-11
3.08663e-11
1.66676e-11
3.53554e-11
2.05899e-11
3.84183e-11
2.11627e-11
3.92987e-11
2.32076e-11
4.20585e-11
2.61984e-11
4.32315e-11
2.35681e-11
4.10073e-11
2.416e-11
4.1633e-11
2.46883e-11
4.0791e-11
2.26793e-11
3.63443e-11
2.00692e-11
3.26312e-11
1.68788e-11
3.15383e-11
1.53835e-11
2.7e-11
1.679e-11
2.60855e-11
1.82782e-11
2.46014e-11
2.35815e-11
1.81706e-11
1.30219e-11
-1.46827e-11
-1.81232e-11
-3.19521e-11
-9.00759e-11
-8.72449e-10
-1.54722e-10
5.47446e-10
1.33898e-10
-2.12287e-10
-4.308e-10
-4.37907e-10
-3.23326e-10
-1.90789e-10
-1.23e-10
-6.28918e-11
-5.22021e-11
-2.30617e-11
-2.64116e-11
-4.17764e-12
-1.31609e-11
7.55496e-12
-1.57585e-12
1.59954e-11
9.57252e-13
2.00691e-11
8.89301e-12
2.77145e-11
1.21622e-11
3.05913e-11
1.64661e-11
3.52268e-11
2.04662e-11
3.83791e-11
2.10351e-11
3.91769e-11
2.30723e-11
4.20234e-11
2.61316e-11
4.33607e-11
2.34648e-11
4.09697e-11
2.40203e-11
4.1795e-11
2.45711e-11
4.11406e-11
2.27435e-11
3.6643e-11
1.96289e-11
3.15974e-11
1.58359e-11
3.20898e-11
1.53482e-11
2.75571e-11
1.64024e-11
2.71351e-11
1.75489e-11
2.60728e-11
2.22505e-11
2.10578e-11
1.04206e-11
-9.951e-12
-2.5251e-11
-1.52026e-11
-7.42544e-11
-9.19244e-10
-1.04347e-10
5.76095e-10
2.4446e-11
-2.2677e-10
-3.9123e-10
-4.28104e-10
-3.24525e-10
-1.90804e-10
-1.21736e-10
-6.20047e-11
-5.23297e-11
-2.38178e-11
-2.72675e-11
-4.95547e-12
-1.39202e-11
6.81987e-12
-2.11834e-12
1.56791e-11
5.27973e-13
1.95313e-11
8.49204e-12
2.74858e-11
1.18921e-11
3.02487e-11
1.62257e-11
3.50529e-11
2.03246e-11
3.83073e-11
2.08978e-11
3.9016e-11
2.29138e-11
4.19657e-11
2.60522e-11
4.34883e-11
2.33556e-11
4.09203e-11
2.38369e-11
4.19823e-11
2.4407e-11
4.15798e-11
2.28068e-11
3.72309e-11
1.90688e-11
3.00711e-11
1.44503e-11
3.2755e-11
1.52495e-11
2.82473e-11
1.57998e-11
2.84196e-11
1.64998e-11
2.79342e-11
2.03524e-11
2.4668e-11
6.8876e-12
-3.95039e-12
-3.41259e-11
3.92479e-12
-5.88612e-11
-9.73948e-10
-2.92638e-11
6.14049e-10
-1.18877e-10
-2.52188e-10
-3.3853e-10
-4.11385e-10
-3.25292e-10
-1.91044e-10
-1.20184e-10
-6.08574e-11
-5.23709e-11
-2.46538e-11
-2.82222e-11
-5.8586e-12
-1.47722e-11
5.96421e-12
-2.75118e-12
1.52711e-11
5.54257e-14
1.89047e-11
8.02739e-12
2.71857e-11
1.15958e-11
2.98377e-11
1.59458e-11
3.48288e-11
2.0165e-11
3.81957e-11
2.0751e-11
3.88149e-11
2.27323e-11
4.1882e-11
2.59599e-11
4.36062e-11
2.32408e-11
4.08612e-11
2.36065e-11
4.21937e-11
2.41863e-11
4.21236e-11
2.28568e-11
3.82629e-11
1.83035e-11
2.78584e-11
1.26907e-11
3.35505e-11
1.5074e-11
2.90847e-11
1.49611e-11
2.99459e-11
1.51059e-11
3.02022e-11
1.78747e-11
2.89921e-11
2.453e-12
3.24565e-12
-4.44477e-11
2.46847e-11
-4.33357e-11
-1.0376e-09
6.99469e-11
6.65115e-10
-2.94041e-10
-2.91828e-10
-2.73418e-10
-3.86684e-10
-3.2544e-10
-1.91663e-10
-1.18413e-10
-5.94571e-11
-5.23192e-11
-2.55653e-11
-2.92709e-11
-6.88737e-12
-1.57128e-11
4.99034e-12
-3.47359e-12
1.47631e-11
-4.58671e-13
1.81933e-11
7.50053e-12
2.68069e-11
1.12737e-11
2.93596e-11
1.56266e-11
3.45504e-11
1.99872e-11
3.80393e-11
2.05952e-11
3.85734e-11
2.25285e-11
4.17695e-11
2.58546e-11
4.37073e-11
2.31206e-11
4.07941e-11
2.33287e-11
4.24259e-11
2.3901e-11
4.27882e-11
2.28817e-11
3.99459e-11
1.71454e-11
2.47135e-11
1.05465e-11
3.44889e-11
1.48101e-11
3.00738e-11
1.38817e-11
3.17059e-11
1.33661e-11
3.28649e-11
1.48465e-11
3.39561e-11
-2.75718e-12
1.14308e-11
-5.57349e-11
4.61467e-11
-2.68827e-11
-1.11037e-09
1.90322e-10
7.3148e-10
-4.96449e-10
-3.47928e-10
-1.97627e-10
-3.53339e-10
-3.24458e-10
-1.92823e-10
-1.16537e-10
-5.78316e-11
-5.2174e-11
-2.6549e-11
-3.04102e-11
-8.0425e-12
-1.67394e-11
3.90059e-12
-4.28403e-12
1.4148e-11
-1.01386e-12
1.74011e-11
6.91379e-12
2.63437e-11
1.09251e-11
2.88161e-11
1.52691e-11
3.42149e-11
1.97915e-11
3.78342e-11
2.04301e-11
3.82924e-11
2.2304e-11
4.16257e-11
2.5737e-11
4.37852e-11
2.29957e-11
4.07199e-11
2.30059e-11
4.26737e-11
2.3544e-11
4.35907e-11
2.28615e-11
4.26442e-11
1.54247e-11
2.02793e-11
8.02581e-12
3.55682e-11
1.44454e-11
3.12047e-11
1.25729e-11
3.36753e-11
1.13035e-11
3.58717e-11
1.13476e-11
3.94227e-11
-8.52628e-12
2.02908e-11
-6.73802e-11
6.72449e-11
-8.7847e-12
-1.19107e-09
3.27017e-10
8.14269e-10
-7.19579e-10
-4.21859e-10
-1.13808e-10
-3.11113e-10
-3.21963e-10
-1.94614e-10
-1.14695e-10
-5.60259e-11
-5.19375e-11
-2.75996e-11
-3.16354e-11
-9.32342e-12
-1.78495e-11
2.6979e-12
-5.1801e-12
1.34214e-11
-1.61036e-12
1.65326e-11
6.27015e-12
2.57923e-11
1.05488e-11
2.82098e-11
1.48748e-11
3.38197e-11
1.95777e-11
3.75784e-11
2.02557e-11
3.79725e-11
2.2061e-11
4.14482e-11
2.56083e-11
4.38342e-11
2.28677e-11
4.0637e-11
2.26451e-11
4.29266e-11
2.3117e-11
4.45254e-11
2.2806e-11
4.6737e-11
1.29763e-11
1.42188e-11
5.22626e-12
3.67984e-11
1.39833e-11
3.24576e-11
1.10638e-11
3.57994e-11
8.98875e-12
3.91339e-11
7.50649e-12
4.51993e-11
-1.45694e-11
2.94355e-11
-7.87287e-11
8.70989e-11
1.135e-11
-1.27792e-09
4.74538e-10
9.12743e-10
-9.55603e-10
-5.13454e-10
-2.51833e-11
-2.60232e-10
-3.17455e-10
-1.97046e-10
-1.13043e-10
-5.41047e-11
-5.16145e-11
-2.87089e-11
-3.29406e-11
-1.0728e-11
-1.90399e-11
1.38673e-12
-6.15831e-12
1.25805e-11
-2.24892e-12
1.55929e-11
5.57328e-12
2.515e-11
1.01429e-11
2.75437e-11
1.44461e-11
3.33636e-11
1.93459e-11
3.72702e-11
2.0072e-11
3.76151e-11
2.18026e-11
4.12343e-11
2.54706e-11
4.38475e-11
2.27405e-11
4.05402e-11
2.22621e-11
4.31612e-11
2.26504e-11
4.55157e-11
2.28327e-11
5.24628e-11
9.17628e-12
6.26326e-12
2.37597e-12
3.82216e-11
1.34668e-11
3.38157e-11
9.411e-12
3.80184e-11
6.50668e-12
4.25325e-11
3.4936e-12
5.10508e-11
-2.05556e-11
3.84328e-11
-8.91242e-11
1.04881e-10
3.36469e-11
-1.36826e-09
6.2717e-10
1.02483e-09
-1.19699e-09
-6.21372e-10
6.44338e-11
-2.01536e-10
-3.10454e-10
-2.00067e-10
-1.1176e-10
-5.2159e-11
-5.12159e-11
-2.98673e-11
-3.43189e-11
-1.22532e-11
-2.03076e-11
-2.83702e-14
-7.2146e-12
1.16249e-11
-2.93022e-12
1.45866e-11
4.82731e-12
2.44161e-11
9.70602e-12
2.68207e-11
1.39856e-11
3.28455e-11
1.90959e-11
3.69087e-11
1.98794e-11
3.72209e-11
2.15327e-11
4.09811e-11
2.5327e-11
4.38185e-11
2.26191e-11
4.04218e-11
2.18751e-11
4.3353e-11
2.21789e-11
4.64733e-11
2.29375e-11
6.09463e-11
2.06834e-12
-4.68234e-12
-5.77043e-13
3.97585e-11
1.29199e-11
3.52451e-11
7.68826e-12
4.02537e-11
3.96686e-12
4.59245e-11
-4.9191e-13
5.67153e-11
-2.61349e-11
4.6841e-11
-9.79583e-11
1.1994e-10
5.8029e-11
-1.45882e-09
7.76318e-10
1.14677e-09
-1.43081e-09
-7.43109e-10
1.50878e-10
-1.36532e-10
-3.00552e-10
-2.0355e-10
-1.11034e-10
-5.03077e-11
-5.07619e-11
-3.10653e-11
-3.5764e-11
-1.38965e-11
-2.16509e-11
-1.54325e-12
-8.34479e-12
1.05556e-11
-3.65519e-12
1.35179e-11
4.03652e-12
2.3591e-11
9.23622e-12
2.60433e-11
1.34964e-11
3.22651e-11
1.88277e-11
3.64934e-11
1.96788e-11
3.67906e-11
2.12553e-11
4.06856e-11
2.51805e-11
4.37422e-11
2.25072e-11
4.02778e-11
2.14927e-11
4.34983e-11
2.17003e-11
4.73929e-11
2.24871e-11
7.46784e-11
-1.90158e-12
-1.95474e-11
-4.05645e-12
4.10026e-11
1.22866e-11
3.66537e-11
5.95171e-12
4.24059e-11
1.49154e-12
4.9151e-11
-4.23679e-12
6.19265e-11
-3.09673e-11
5.42635e-11
-1.04745e-10
1.31852e-10
8.40355e-11
-1.54538e-09
9.15929e-10
1.27359e-09
-1.6494e-09
-8.75055e-10
2.3013e-10
-6.70818e-11
-2.87348e-10
-2.07246e-10
-1.11026e-10
-4.86848e-11
-5.02777e-11
-3.22908e-11
-3.72675e-11
-1.56544e-11
-2.30676e-11
-3.15352e-12
-9.54425e-12
9.37592e-12
-4.4241e-12
1.23909e-11
3.2055e-12
2.2677e-11
8.73231e-12
2.52135e-11
1.29815e-11
3.16223e-11
1.85417e-11
3.60246e-11
1.94715e-11
3.63237e-11
2.0975e-11
4.03445e-11
2.50356e-11
4.3612e-11
2.24136e-11
4.00928e-11
2.11474e-11
4.354e-11
2.13519e-11
4.79726e-11
2.18862e-11
8.37686e-11
-1.73913e-14
-2.88582e-11
-6.83361e-12
4.19236e-11
1.16377e-11
3.80125e-11
4.27859e-12
4.43725e-11
-7.87989e-13
5.20499e-11
-7.53013e-12
6.6433e-11
-3.47515e-11
6.03788e-11
-1.0916e-10
1.40567e-10
1.10859e-10
-1.62383e-09
1.04027e-09
1.39907e-09
-1.84481e-09
-1.01225e-09
2.98681e-10
4.65355e-12
-2.70541e-10
-2.10824e-10
-1.11867e-10
-4.74368e-11
-4.97954e-11
-3.35296e-11
-3.88187e-11
-1.75217e-11
-2.45549e-11
-4.85349e-12
-1.08077e-11
8.08978e-12
-5.23684e-12
1.12098e-11
2.33902e-12
2.16765e-11
8.19352e-12
2.43336e-11
1.24446e-11
3.0918e-11
1.82386e-11
3.55026e-11
1.92592e-11
3.58201e-11
2.0697e-11
3.99544e-11
2.48976e-11
4.34193e-11
2.23509e-11
3.98449e-11
2.08875e-11
4.3394e-11
2.13457e-11
4.77863e-11
2.25135e-11
7.51472e-11
-3.51983e-13
-1.92669e-11
-6.77506e-12
4.26597e-11
1.11106e-11
3.93196e-11
2.83655e-12
4.60521e-11
-2.74319e-12
5.44697e-11
-1.01752e-11
7.00164e-11
-3.72414e-11
6.49529e-11
-1.11024e-10
1.46194e-10
1.3751e-10
-1.69017e-09
1.14465e-09
1.51648e-09
-2.00962e-09
-1.14901e-09
3.5351e-10
7.62238e-11
-2.50025e-10
-2.13918e-10
-1.13656e-10
-4.67214e-11
-4.93581e-11
-3.4769e-11
-4.04059e-11
-1.94926e-11
-2.611e-11
-6.6378e-12
-1.21296e-11
6.70285e-12
-6.09238e-12
9.97812e-12
1.4419e-12
2.05937e-11
7.61992e-12
2.34054e-11
1.18892e-11
3.01534e-11
1.7919e-11
3.49277e-11
1.90441e-11
3.52794e-11
2.04261e-11
3.95134e-11
2.47693e-11
4.3162e-11
2.23199e-11
3.95372e-11
2.07004e-11
4.31032e-11
2.15436e-11
4.71421e-11
2.31187e-11
6.13601e-11
4.7007e-12
-8.70994e-13
-5.73624e-12
4.28735e-11
1.06336e-11
4.04488e-11
1.65067e-12
4.73425e-11
-4.27302e-12
5.62719e-11
-1.20122e-11
7.25031e-11
-3.82645e-11
6.78432e-11
-1.10285e-10
1.48964e-10
1.63002e-10
-1.74065e-09
1.22501e-09
1.61916e-09
-2.13768e-09
-1.27937e-09
3.92277e-10
1.45083e-10
-2.25889e-10
-2.1617e-10
-1.16453e-10
-4.66985e-11
-4.90219e-11
-3.60018e-11
-4.20188e-11
-2.15625e-11
-2.77318e-11
-8.50259e-12
-1.35055e-11
5.2209e-12
-6.98981e-12
8.69878e-12
5.18349e-13
1.94326e-11
7.01168e-12
2.24303e-11
1.13184e-11
2.933e-11
1.75842e-11
3.43007e-11
1.88283e-11
3.47015e-11
2.01663e-11
3.90199e-11
2.46543e-11
4.28385e-11
2.23207e-11
3.91733e-11
2.05715e-11
4.2713e-11
2.17898e-11
4.63956e-11
2.30737e-11
5.24842e-11
1.24324e-11
1.0736e-11
-4.66803e-12
4.26652e-11
1.02448e-11
4.13365e-11
8.02991e-13
4.81761e-11
-5.25426e-12
5.73488e-11
-1.29105e-11
7.37767e-11
-3.77186e-11
6.8993e-11
-1.06977e-10
1.49102e-10
1.86466e-10
-1.77204e-09
1.27811e-09
1.70138e-09
-2.22428e-09
-1.39785e-09
4.1339e-10
2.08819e-10
-1.98404e-10
-2.17228e-10
-1.20255e-10
-4.75085e-11
-4.88489e-11
-3.72241e-11
-4.36469e-11
-2.37258e-11
-2.94194e-11
-1.04451e-11
-1.49313e-11
3.65079e-12
-7.9274e-12
7.37385e-12
-4.27998e-13
1.81986e-11
6.36959e-12
2.14089e-11
1.07348e-11
2.84495e-11
1.72356e-11
3.36231e-11
1.86141e-11
3.40852e-11
1.99216e-11
3.84722e-11
2.45565e-11
4.24464e-11
2.2361e-11
3.87425e-11
2.05198e-11
4.21974e-11
2.21286e-11
4.54813e-11
2.30576e-11
4.67966e-11
1.52857e-11
2.00575e-11
-2.61253e-12
4.24624e-11
1.00433e-11
4.19447e-11
3.64284e-13
4.8503e-11
-5.62137e-12
5.76278e-11
-1.27918e-11
7.37782e-11
-3.55621e-11
6.84023e-11
-1.01185e-10
1.47137e-10
2.07322e-10
-1.78227e-09
1.30142e-09
1.75848e-09
-2.2665e-09
-1.49978e-09
4.1617e-10
2.65397e-10
-1.68024e-10
-2.16798e-10
-1.25001e-10
-4.92613e-11
-4.89029e-11
-3.84355e-11
-4.52792e-11
-2.59751e-11
-3.11702e-11
-1.24614e-11
-1.64035e-11
1.99965e-12
-8.90268e-12
6.00587e-12
-1.39447e-12
1.68967e-11
5.69497e-12
2.03423e-11
1.01408e-11
2.75141e-11
1.68744e-11
3.28965e-11
1.84036e-11
3.34304e-11
1.96948e-11
3.78705e-11
2.44775e-11
4.19871e-11
2.24404e-11
3.82475e-11
2.0537e-11
4.15719e-11
2.25312e-11
4.4466e-11
2.31701e-11
4.28228e-11
1.71187e-11
2.73545e-11
-7.08492e-14
4.21654e-11
1.00261e-11
4.2201e-11
3.62383e-13
4.82845e-11
-5.33796e-12
5.70786e-11
-1.16337e-11
7.25088e-11
-3.18199e-11
6.61277e-11
-9.30493e-11
1.4316e-10
2.25316e-10
-1.76878e-09
1.29332e-09
1.78616e-09
-2.26298e-09
-1.58159e-09
4.00771e-10
3.13314e-10
-1.3537e-10
-2.14702e-10
-1.30603e-10
-5.20384e-11
-4.92477e-11
-3.96401e-11
-4.69068e-11
-2.83027e-11
-3.29818e-11
-1.4547e-11
-1.79206e-11
2.74303e-13
-9.91236e-12
4.59798e-12
-2.3799e-12
1.55318e-11
4.98988e-12
1.92321e-11
9.53774e-12
2.65268e-11
1.65011e-11
3.21229e-11
1.81989e-11
3.27385e-11
1.94875e-11
3.72166e-11
2.44161e-11
4.14636e-11
2.25562e-11
3.76965e-11
2.06057e-11
4.0871e-11
2.29266e-11
4.3487e-11
2.32742e-11
4.01354e-11
1.8092e-11
3.27546e-11
2.68627e-12
4.17664e-11
1.02294e-11
4.208e-11
8.15589e-13
4.75158e-11
-4.39246e-12
5.57169e-11
-9.45951e-12
7.003e-11
-2.65959e-11
6.24079e-11
-8.27661e-11
1.37131e-10
2.40513e-10
-1.73081e-09
1.25297e-09
1.78297e-09
-2.21378e-09
-1.64065e-09
3.6804e-10
3.51747e-10
-1.01137e-10
-2.1088e-10
-1.36977e-10
-5.59086e-11
-4.99521e-11
-4.08508e-11
-4.85283e-11
-3.07062e-11
-3.48553e-11
-1.66999e-11
-1.94853e-11
-1.52168e-12
-1.0954e-11
3.15298e-12
-3.38538e-12
1.41065e-11
4.25605e-12
1.80796e-11
8.92525e-12
2.54902e-11
1.61151e-11
3.13037e-11
1.80017e-11
3.20117e-11
1.93006e-11
3.65135e-11
2.43705e-11
4.08784e-11
2.27078e-11
3.70956e-11
2.07174e-11
4.01105e-11
2.33035e-11
4.25557e-11
2.336e-11
3.83619e-11
1.86225e-11
3.65842e-11
5.56572e-12
4.12799e-11
1.06935e-11
4.15847e-11
1.72176e-12
4.62213e-11
-2.80331e-12
5.36017e-11
-6.3394e-12
6.64938e-11
-2.00566e-11
5.74441e-11
-7.04198e-11
1.28709e-10
2.53297e-10
-1.66788e-09
1.18022e-09
1.74856e-09
-2.11985e-09
-1.67664e-09
3.19144e-10
3.80424e-10
-6.59226e-11
-2.05304e-10
-1.44029e-10
-6.09336e-11
-5.10853e-11
-4.20835e-11
-5.01413e-11
-3.3187e-11
-3.6793e-11
-1.89222e-11
-2.11015e-11
-3.38785e-12
-1.20239e-11
1.67238e-12
-4.41081e-12
1.26215e-11
3.49723e-12
1.68842e-11
8.30356e-12
2.44042e-11
1.5717e-11
3.04389e-11
1.78152e-11
3.12501e-11
1.91349e-11
3.5762e-11
2.43393e-11
4.0233e-11
2.28965e-11
3.64485e-11
2.08647e-11
3.9295e-11
2.36654e-11
4.16573e-11
2.34486e-11
3.72604e-11
1.89779e-11
3.91358e-11
8.49531e-12
4.06994e-11
1.14347e-11
4.07241e-11
3.05547e-12
4.44376e-11
-6.18046e-13
5.08203e-11
-2.38214e-12
6.20623e-11
-1.23753e-11
5.13628e-11
-5.5861e-11
1.17131e-10
2.64071e-10
-1.57963e-09
1.07524e-09
3.69073e-10
2.55175e-10
-1.77099e-10
-4.64411e-10
-4.28905e-10
-3.16131e-10
-1.9038e-10
-1.24689e-10
-6.37891e-11
-5.07439e-11
-2.0636e-11
-2.39215e-11
-2.24118e-12
-1.11464e-11
9.20667e-12
-4.89488e-13
1.64351e-11
2.28735e-12
2.1492e-11
9.9622e-12
2.82566e-11
1.31661e-11
3.15549e-11
1.71442e-11
3.56735e-11
2.08644e-11
3.85373e-11
2.15592e-11
3.96194e-11
2.34456e-11
4.21363e-11
2.61732e-11
4.28969e-11
2.36722e-11
4.11199e-11
2.41068e-11
4.14113e-11
2.46096e-11
4.04578e-11
2.25863e-11
3.73054e-11
2.24011e-11
3.50785e-11
1.90245e-11
3.05456e-11
1.51491e-11
2.59207e-11
1.68681e-11
2.40392e-11
1.90939e-11
2.20296e-11
2.52127e-11
1.29221e-11
1.70006e-11
-2.26785e-11
-5.01509e-12
-7.64127e-11
-1.66269e-10
-7.00145e-10
-1.49689e-10
3.90748e-10
2.66256e-10
-1.82276e-10
-4.69046e-10
-4.30934e-10
-3.1645e-10
-1.90542e-10
-1.24737e-10
-6.40297e-11
-5.09041e-11
-2.0912e-11
-2.40454e-11
-2.4766e-12
-1.12329e-11
9.01788e-12
-5.19417e-13
1.6269e-11
2.25225e-12
2.13402e-11
9.97587e-12
2.81206e-11
1.31793e-11
3.14256e-11
1.71885e-11
3.55576e-11
2.09199e-11
3.8424e-11
2.16145e-11
3.95092e-11
2.35198e-11
4.20382e-11
2.62617e-11
4.27921e-11
2.3744e-11
4.10139e-11
2.42081e-11
4.13178e-11
2.47171e-11
4.03705e-11
2.26848e-11
3.71981e-11
2.2442e-11
3.49659e-11
1.91533e-11
3.05005e-11
1.52829e-11
2.58944e-11
1.704e-11
2.40608e-11
1.9262e-11
2.2139e-11
2.54252e-11
1.31725e-11
1.71532e-11
-2.22246e-11
-4.62494e-12
-7.31721e-11
-1.62212e-10
-7.15004e-10
-1.61554e-10
4.17498e-10
2.76162e-10
-1.88452e-10
-4.74095e-10
-4.33469e-10
-3.17064e-10
-1.90663e-10
-1.24857e-10
-6.41754e-11
-5.1184e-11
-2.11662e-11
-2.43174e-11
-2.6734e-12
-1.14657e-11
8.8635e-12
-6.71112e-13
1.61878e-11
2.09145e-12
2.12411e-11
9.86926e-12
2.80719e-11
1.30744e-11
3.13728e-11
1.71241e-11
3.553e-11
2.08668e-11
3.84133e-11
2.15599e-11
3.94951e-11
2.3487e-11
4.2038e-11
2.62444e-11
4.2809e-11
2.37056e-11
4.10066e-11
2.42082e-11
4.13355e-11
2.47257e-11
4.04057e-11
2.26953e-11
3.71863e-11
2.23416e-11
3.49211e-11
1.91818e-11
3.06038e-11
1.53662e-11
2.59826e-11
1.71737e-11
2.42196e-11
1.93962e-11
2.23327e-11
2.56065e-11
1.35519e-11
1.73752e-11
-2.16746e-11
-4.63131e-12
-6.9407e-11
-1.52407e-10
-7.37513e-10
-1.74747e-10
4.47531e-10
2.81896e-10
-1.94555e-10
-4.78535e-10
-4.36877e-10
-3.17975e-10
-1.90738e-10
-1.24874e-10
-6.42179e-11
-5.1478e-11
-2.146e-11
-2.46605e-11
-2.90518e-12
-1.17654e-11
8.66862e-12
-8.67529e-13
1.612e-11
1.88129e-12
2.11125e-11
9.71897e-12
2.80363e-11
1.29323e-11
3.13142e-11
1.70295e-11
3.55142e-11
2.07883e-11
3.84272e-11
2.14774e-11
3.94935e-11
2.34269e-11
4.20585e-11
2.62065e-11
4.28728e-11
2.36393e-11
4.10157e-11
2.41826e-11
4.13935e-11
2.4711e-11
4.05004e-11
2.26885e-11
3.72182e-11
2.21581e-11
3.48681e-11
1.91476e-11
3.08179e-11
1.54366e-11
2.61594e-11
1.72731e-11
2.45236e-11
1.94637e-11
2.27009e-11
2.56787e-11
1.42519e-11
1.73781e-11
-2.07101e-11
-5.46903e-12
-6.35696e-11
-1.38601e-10
-7.65926e-10
-1.86459e-10
4.76377e-10
2.7763e-10
-1.99238e-10
-4.79406e-10
-4.40547e-10
-3.19133e-10
-1.90748e-10
-1.24717e-10
-6.41435e-11
-5.17727e-11
-2.18411e-11
-2.50911e-11
-3.22099e-12
-1.21428e-11
8.38848e-12
-1.10643e-12
1.60282e-11
1.62958e-12
2.09165e-11
9.53474e-12
2.79829e-11
1.27691e-11
3.12153e-11
1.69187e-11
3.54802e-11
2.07032e-11
3.8437e-11
2.13876e-11
3.94724e-11
2.33576e-11
4.20713e-11
2.61706e-11
4.29579e-11
2.35686e-11
4.10108e-11
2.41489e-11
4.14674e-11
2.46921e-11
4.0636e-11
2.26851e-11
3.72849e-11
2.19108e-11
3.47613e-11
1.90468e-11
3.11341e-11
1.54984e-11
2.64176e-11
1.7314e-11
2.49847e-11
1.94142e-11
2.32725e-11
2.55447e-11
1.53626e-11
1.69804e-11
-1.91152e-11
-7.49121e-12
-5.52377e-11
-1.22583e-10
-7.98395e-10
-1.91457e-10
5.01937e-10
2.55841e-10
-2.02632e-10
-4.73569e-10
-4.42843e-10
-3.2048e-10
-1.90684e-10
-1.2433e-10
-6.39141e-11
-5.20553e-11
-2.23227e-11
-2.56273e-11
-3.64233e-12
-1.26134e-11
8.00323e-12
-1.41125e-12
1.58958e-11
1.33074e-12
2.06395e-11
9.30535e-12
2.78996e-11
1.25814e-11
3.10653e-11
1.67847e-11
3.54199e-11
2.06081e-11
3.84346e-11
2.12895e-11
3.94237e-11
2.32757e-11
4.20705e-11
2.61345e-11
4.30585e-11
2.34959e-11
4.09862e-11
2.4102e-11
4.15539e-11
2.46658e-11
4.08126e-11
2.26867e-11
3.73994e-11
2.15921e-11
3.45747e-11
1.88577e-11
3.15587e-11
1.55408e-11
2.67664e-11
1.72576e-11
2.56221e-11
1.91923e-11
2.40906e-11
2.51064e-11
1.69714e-11
1.60058e-11
-1.66725e-11
-1.10257e-11
-4.41483e-11
-1.05841e-10
-8.3443e-10
-1.8317e-10
5.25053e-10
2.0952e-10
-2.06539e-10
-4.58329e-10
-4.42611e-10
-3.21917e-10
-1.90565e-10
-1.23663e-10
-6.34869e-11
-5.2303e-11
-2.29017e-11
-2.6274e-11
-4.17902e-12
-1.31829e-11
7.50282e-12
-1.79298e-12
1.57089e-11
9.81451e-13
2.02747e-11
9.02023e-12
2.77755e-11
1.23665e-11
3.08568e-11
1.66204e-11
3.53268e-11
2.04987e-11
3.84129e-11
2.11815e-11
3.9342e-11
2.31772e-11
4.20521e-11
2.60943e-11
4.31685e-11
2.34229e-11
4.09397e-11
2.40357e-11
4.16508e-11
2.46278e-11
4.10312e-11
2.26934e-11
3.75813e-11
2.11882e-11
3.42837e-11
1.8562e-11
3.20987e-11
1.55496e-11
2.72209e-11
1.70639e-11
2.64584e-11
1.87432e-11
2.52005e-11
2.42633e-11
1.91724e-11
1.42829e-11
-1.31675e-11
-1.63172e-11
-3.01531e-11
-8.93394e-11
-8.74971e-10
-1.55804e-10
5.48631e-10
1.33259e-10
-2.13884e-10
-4.31587e-10
-4.38333e-10
-3.23307e-10
-1.90448e-10
-1.22683e-10
-6.28275e-11
-5.24919e-11
-2.35708e-11
-2.70281e-11
-4.83589e-12
-1.38508e-11
6.88273e-12
-2.25834e-12
1.54535e-11
5.83373e-13
1.98182e-11
8.67384e-12
2.7598e-11
1.21234e-11
3.05836e-11
1.64213e-11
3.51938e-11
2.03736e-11
3.83628e-11
2.10637e-11
3.92217e-11
2.30602e-11
4.2011e-11
2.60488e-11
4.32784e-11
2.33519e-11
4.08689e-11
2.39462e-11
4.17541e-11
2.4576e-11
4.12905e-11
2.27054e-11
3.78537e-11
2.06797e-11
3.38633e-11
1.81476e-11
3.276e-11
1.55086e-11
2.77984e-11
1.66948e-11
2.75156e-11
1.80163e-11
2.66709e-11
2.29262e-11
2.20482e-11
1.16829e-11
-8.44077e-12
-2.34583e-11
-1.33887e-11
-7.34243e-11
-9.21589e-10
-1.05444e-10
5.77178e-10
2.37877e-11
-2.28454e-10
-3.92076e-10
-4.28493e-10
-3.24472e-10
-1.90431e-10
-1.21388e-10
-6.19139e-11
-5.2603e-11
-2.43225e-11
-2.78836e-11
-5.6146e-12
-1.46127e-11
6.14246e-12
-2.81025e-12
1.51179e-11
1.39694e-13
1.92697e-11
8.26419e-12
2.73566e-11
1.18529e-11
3.02417e-11
1.61855e-11
3.50143e-11
2.02325e-11
3.82765e-11
2.09368e-11
3.90587e-11
2.29241e-11
4.19428e-11
2.59972e-11
4.33792e-11
2.3285e-11
4.07732e-11
2.38309e-11
4.18593e-11
2.45086e-11
4.15886e-11
2.27226e-11
3.82432e-11
2.0045e-11
3.32913e-11
1.76066e-11
3.35479e-11
1.54002e-11
2.85164e-11
1.61182e-11
2.88118e-11
1.69705e-11
2.8532e-11
2.10231e-11
2.56451e-11
8.14813e-12
-2.44122e-12
-3.23464e-11
5.75465e-12
-5.79592e-11
-9.76142e-10
-3.03159e-11
6.15089e-10
-1.19567e-10
-2.53963e-10
-3.39455e-10
-4.11767e-10
-3.25203e-10
-1.90635e-10
-1.19803e-10
-6.07377e-11
-5.26237e-11
-2.51506e-11
-2.88345e-11
-6.51557e-12
-1.54637e-11
5.28416e-12
-3.44885e-12
1.46924e-11
-3.46281e-13
1.86318e-11
7.79169e-12
2.7042e-11
1.15557e-11
2.983e-11
1.5912e-11
3.47833e-11
2.00755e-11
3.81471e-11
2.0801e-11
3.8851e-11
2.27689e-11
4.18439e-11
2.5939e-11
4.34621e-11
2.32224e-11
4.06537e-11
2.36881e-11
4.19622e-11
2.44244e-11
4.19224e-11
2.27452e-11
3.87792e-11
1.92622e-11
3.25552e-11
1.69364e-11
3.44637e-11
1.52074e-11
2.93884e-11
1.53126e-11
3.03541e-11
1.55817e-11
3.08013e-11
1.85399e-11
2.99549e-11
3.70804e-12
4.75759e-12
-4.26814e-11
2.6532e-11
-4.23793e-11
-1.03968e-09
6.89922e-11
6.66168e-10
-2.94753e-10
-2.93679e-10
-2.74433e-10
-3.87094e-10
-3.25341e-10
-1.91216e-10
-1.17997e-10
-5.93077e-11
-5.25485e-11
-2.60511e-11
-2.98763e-11
-7.53932e-12
-1.63998e-11
4.31019e-12
-4.1733e-12
1.41693e-11
-8.721e-13
1.79088e-11
7.25813e-12
2.66477e-11
1.12322e-11
2.93493e-11
1.5601e-11
3.44967e-11
1.99025e-11
3.79703e-11
2.06567e-11
3.85987e-11
2.25948e-11
4.17117e-11
2.58733e-11
4.35209e-11
2.3164e-11
4.05127e-11
2.35169e-11
4.20585e-11
2.43222e-11
4.22868e-11
2.27722e-11
3.94877e-11
1.83089e-11
3.16497e-11
1.61431e-11
3.55029e-11
1.49172e-11
3.04189e-11
1.42723e-11
3.21339e-11
1.38491e-11
3.34667e-11
1.55054e-11
3.49039e-11
-1.51165e-12
1.29482e-11
-5.39799e-11
4.80116e-11
-2.5878e-11
-1.11238e-09
1.89478e-10
7.32565e-10
-4.97158e-10
-3.49817e-10
-1.98732e-10
-3.53799e-10
-3.24354e-10
-1.9235e-10
-1.16091e-10
-5.76539e-11
-5.23787e-11
-2.70217e-11
-3.10061e-11
-8.68716e-12
-1.74187e-11
3.22268e-12
-4.9823e-12
1.3542e-11
-1.43686e-12
1.71051e-11
6.66604e-12
2.61682e-11
1.08818e-11
2.88013e-11
1.5253e-11
3.41516e-11
1.97135e-11
3.7743e-11
2.05037e-11
3.83029e-11
2.24024e-11
4.15444e-11
2.57999e-11
4.35508e-11
2.31083e-11
4.03531e-11
2.33175e-11
4.21439e-11
2.42014e-11
4.26742e-11
2.27987e-11
4.039e-11
1.71865e-11
3.05777e-11
1.52395e-11
3.66511e-11
1.45237e-11
3.16003e-11
1.30082e-11
3.41236e-11
1.17914e-11
3.64772e-11
1.19998e-11
4.03557e-11
-7.2938e-12
2.18151e-11
-6.56342e-11
6.91221e-11
-7.73024e-12
-1.19303e-09
3.26268e-10
8.15434e-10
-7.20273e-10
-4.23763e-10
-1.14995e-10
-3.11634e-10
-3.21874e-10
-1.94126e-10
-1.14224e-10
-5.58227e-11
-5.21177e-11
-2.80581e-11
-3.22203e-11
-9.95913e-12
-1.85183e-11
2.02433e-12
-5.87387e-12
1.2806e-11
-2.0405e-12
1.62258e-11
6.01857e-12
2.56004e-11
1.05036e-11
2.81886e-11
1.4869e-11
3.37461e-11
1.95082e-11
3.74639e-11
2.03414e-11
3.79652e-11
2.21925e-11
4.13408e-11
2.57182e-11
4.35482e-11
2.30541e-11
4.01773e-11
2.30919e-11
4.22131e-11
2.40626e-11
4.30731e-11
2.28177e-11
4.14921e-11
1.59191e-11
2.93625e-11
1.42482e-11
3.7884e-11
1.40318e-11
3.2912e-11
1.15487e-11
3.62733e-11
9.4855e-12
3.9743e-11
8.15097e-12
4.61175e-11
-1.33533e-11
3.09667e-11
-7.69895e-11
8.89907e-11
1.24518e-11
-1.27987e-09
4.73901e-10
9.14026e-10
-9.56286e-10
-5.15349e-10
-2.6432e-11
-2.60824e-10
-3.17398e-10
-1.96555e-10
-1.12553e-10
-5.38796e-11
-5.17716e-11
-2.91532e-11
-3.35136e-11
-1.13538e-11
-1.96964e-11
7.19224e-13
-6.84503e-12
1.19584e-11
-2.68375e-12
1.5276e-11
5.31944e-12
2.49421e-11
1.00958e-11
2.75147e-11
1.44509e-11
3.32791e-11
1.92857e-11
3.71322e-11
2.01695e-11
3.75879e-11
2.19669e-11
4.11e-11
2.5628e-11
4.35099e-11
2.30002e-11
3.99871e-11
2.28444e-11
4.22604e-11
2.39088e-11
4.34659e-11
2.28187e-11
4.27666e-11
1.45845e-11
2.80736e-11
1.31983e-11
3.91637e-11
1.34583e-11
3.4321e-11
9.94163e-12
3.8518e-11
7.01106e-12
4.3144e-11
4.12935e-12
5.19542e-11
-1.93584e-11
3.99693e-11
-8.73905e-11
1.0679e-10
3.4794e-11
-1.37024e-09
6.26603e-10
1.02623e-09
-1.19764e-09
-6.23217e-10
6.31509e-11
-2.02204e-10
-3.10441e-10
-1.9958e-10
-1.11256e-10
-5.19164e-11
-5.13525e-11
-3.02983e-11
-3.488e-11
-1.2869e-11
-2.09507e-11
-6.88573e-13
-7.89236e-12
1.09985e-11
-3.3675e-12
1.42607e-11
4.57268e-12
2.41931e-11
9.65704e-12
2.67828e-11
1.40008e-11
3.275e-11
1.90454e-11
3.6748e-11
1.99876e-11
3.71734e-11
2.17277e-11
4.08212e-11
2.55293e-11
4.34333e-11
2.29463e-11
3.97832e-11
2.25804e-11
4.22794e-11
2.37435e-11
4.38316e-11
2.27818e-11
4.41202e-11
1.33191e-11
2.68519e-11
1.21238e-11
4.04346e-11