/*--------------------------------*- C++ -*----------------------------------*\
| =========                 |                                                 |
| \\      /  F ield         | OpenFOAM: The Open Source CFD Toolbox           |
|  \\    /   O peration     | Version:  2312                                  |
|   \\  /    A nd           | Website:  www.openfoam.com                      |
|    \\/     M anipulation  |                                                 |
\*---------------------------------------------------------------------------*/
FoamFile
{
    version     2.0;
    format      ascii;
    arch        "LSB;label=32;scalar=64";
    class       volScalarField;
    location    "400";
    object      pPrime2Mean;
}
// * * * * * * * * * * * * * * * * * * * * * * * * * * * * * * * * * * * * * //

dimensions      [0 4 -4 0 0 0 0];

internalField   nonuniform List<scalar> 
144000
(
6.10587e-18
7.69151e-18
7.09488e-18
5.65347e-18
4.07734e-18
2.95132e-18
2.2267e-18
1.65435e-18
1.22956e-18
1.01008e-18
9.40951e-19
8.50555e-19
7.23565e-19
5.79478e-19
4.82753e-19
4.06357e-19
3.71796e-19
3.19271e-19
2.95978e-19
2.63553e-19
2.36779e-19
1.96189e-19
1.97919e-19
1.49511e-19
1.57403e-19
1.24142e-19
1.24982e-19
1.01792e-19
1.00182e-19
7.9093e-20
8.27978e-20
6.08306e-20
6.90701e-20
5.03088e-20
5.30039e-20
5.28037e-20
2.85835e-20
5.89749e-20
2.03368e-20
3.81443e-20
4.83825e-20
5.56555e-21
7.45842e-20
1.82037e-20
5.4427e-20
8.22607e-20
3.23434e-20
1.12657e-19
8.79923e-20
9.40165e-20
1.70061e-19
1.49218e-19
2.18192e-19
3.14762e-19
3.92753e-19
5.823e-19
9.36176e-19
1.64665e-18
3.67648e-18
4.21289e-18
6.40124e-18
7.86669e-18
7.28262e-18
5.79268e-18
4.14267e-18
2.9896e-18
2.25179e-18
1.67042e-18
1.23849e-18
1.01543e-18
9.45437e-19
8.54515e-19
7.26447e-19
5.81369e-19
4.84046e-19
4.07367e-19
3.72747e-19
3.20045e-19
2.9652e-19
2.64254e-19
2.37349e-19
1.96416e-19
1.98395e-19
1.49893e-19
1.57584e-19
1.24546e-19
1.25168e-19
1.02097e-19
1.00403e-19
7.92817e-20
8.30796e-20
6.09637e-20
6.93425e-20
5.05688e-20
5.30789e-20
5.34806e-20
2.83891e-20
5.97703e-20
2.06999e-20
3.81378e-20
4.98701e-20
5.15236e-21
7.60744e-20
1.92302e-20
5.46925e-20
8.51907e-20
3.29526e-20
1.1538e-19
9.16327e-20
9.65014e-20
1.7603e-19
1.55525e-19
2.2611e-19
3.27972e-19
4.09605e-19
6.07264e-19
9.77663e-19
1.70627e-18
3.84594e-18
4.31446e-18
6.59994e-18
8.00768e-18
7.34616e-18
5.83439e-18
4.15658e-18
3.00107e-18
2.26399e-18
1.68029e-18
1.24451e-18
1.01925e-18
9.49478e-19
8.58361e-19
7.29345e-19
5.83129e-19
4.85312e-19
4.08326e-19
3.73931e-19
3.20856e-19
2.97157e-19
2.65094e-19
2.38092e-19
1.96557e-19
1.99174e-19
1.50199e-19
1.58015e-19
1.2496e-19
1.25545e-19
1.02447e-19
1.00823e-19
7.94852e-20
8.36175e-20
6.11e-20
6.98706e-20
5.09396e-20
5.32912e-20
5.45528e-20
2.81387e-20
6.11404e-20
2.12341e-20
3.83644e-20
5.2178e-20
4.68135e-21
7.85953e-20
2.08029e-20
5.55406e-20
8.96635e-20
3.42622e-20
1.19842e-19
9.73401e-20
1.00749e-19
1.85273e-19
1.65248e-19
2.38021e-19
3.46725e-19
4.32438e-19
6.37694e-19
1.02304e-18
1.7679e-18
3.99962e-18
4.41859e-18
6.52685e-18
7.92021e-18
7.19473e-18
5.69229e-18
4.08024e-18
2.95892e-18
2.24407e-18
1.67106e-18
1.23905e-18
1.01589e-18
9.48517e-19
8.58569e-19
7.29576e-19
5.83093e-19
4.85277e-19
4.08336e-19
3.74449e-19
3.21106e-19
2.97269e-19
2.65609e-19
2.386e-19
1.96425e-19
1.998e-19
1.50389e-19
1.58339e-19
1.25346e-19
1.25897e-19
1.028e-19
1.01238e-19
7.96974e-20
8.42049e-20
6.12339e-20
7.04831e-20
5.13615e-20
5.35258e-20
5.5827e-20
2.78394e-20
6.2787e-20
2.1891e-20
3.86596e-20
5.49262e-20
4.20133e-21
8.1539e-20
2.27754e-20
5.65346e-20
9.49023e-20
3.59284e-20
1.24926e-19
1.04043e-19
1.05587e-19
1.95513e-19
1.7612e-19
2.50367e-19
3.65961e-19
4.54076e-19
6.63021e-19
1.05442e-18
1.77945e-18
4.06909e-18
4.39271e-18
6.20673e-18
7.70261e-18
6.86151e-18
5.37801e-18
3.92088e-18
2.86171e-18
2.18817e-18
1.6385e-18
1.21843e-18
1.0019e-18
9.39128e-19
8.52082e-19
7.24994e-19
5.79814e-19
4.82908e-19
4.06583e-19
3.73515e-19
3.20195e-19
2.96349e-19
2.65262e-19
2.38453e-19
1.95796e-19
1.99903e-19
1.5028e-19
1.58381e-19
1.25521e-19
1.26086e-19
1.03031e-19
1.01526e-19
7.98314e-20
8.47233e-20
6.13126e-20
7.10557e-20
5.17557e-20
5.36981e-20
5.71129e-20
2.75051e-20
6.44099e-20
2.25957e-20
3.89124e-20
5.76938e-20
3.77455e-21
8.43358e-20
2.48961e-20
5.73952e-20
1.00037e-19
3.76738e-20
1.29563e-19
1.10614e-19
1.1005e-19
2.04759e-19
1.86157e-19
2.60503e-19
3.81535e-19
4.70241e-19
6.77774e-19
1.06973e-18
1.74255e-18
4.08637e-18
4.29279e-18
5.81961e-18
7.60177e-18
6.45457e-18
4.97444e-18
3.71357e-18
2.72936e-18
2.10359e-18
1.58559e-18
1.18396e-18
9.77473e-19
9.20759e-19
8.38132e-19
7.14825e-19
5.72635e-19
4.77737e-19
4.02672e-19
3.70756e-19
3.17809e-19
2.94122e-19
2.63731e-19
2.37364e-19
1.94503e-19
1.99262e-19
1.4969e-19
1.58019e-19
1.2535e-19
1.26016e-19
1.03053e-19
1.01596e-19
7.98238e-20
8.5075e-20
6.12812e-20
7.14869e-20
5.20566e-20
5.37411e-20
5.82636e-20
2.71373e-20
6.5845e-20
2.32641e-20
3.90828e-20
6.01799e-20
3.43019e-21
8.66746e-20
2.69066e-20
5.8026e-20
1.04405e-19
3.92929e-20
1.33267e-19
1.16196e-19
1.13761e-19
2.11925e-19
1.94346e-19
2.67756e-19
3.92547e-19
4.80336e-19
6.83862e-19
1.07236e-18
1.67577e-18
4.12077e-18
4.23499e-18
5.44283e-18
7.74614e-18
6.0352e-18
4.54061e-18
3.47553e-18
2.57177e-18
1.99651e-18
1.5163e-18
1.13799e-18
9.4424e-19
8.94433e-19
8.17235e-19
6.99299e-19
5.61675e-19
4.69825e-19
3.96659e-19
3.66163e-19
3.13917e-19
2.90592e-19
2.60946e-19
2.35264e-19
1.92487e-19
1.97785e-19
1.48512e-19
1.57173e-19
1.24776e-19
1.25593e-19
1.02826e-19
1.01391e-19
7.96382e-20
8.51985e-20
6.11167e-20
7.17109e-20
5.22299e-20
5.36214e-20
5.91953e-20
2.67383e-20
6.69819e-20
2.38368e-20
3.91804e-20
6.22425e-20
3.16428e-21
8.8489e-20
2.86328e-20
5.84638e-20
1.07826e-19
4.06347e-20
1.36039e-19
1.20469e-19
1.16707e-19
2.17015e-19
2.00407e-19
2.72396e-19
3.99215e-19
4.84816e-19
6.83496e-19
1.06425e-18
1.59105e-18
4.19524e-18
4.29134e-18
5.09998e-18
8.14424e-18
5.62768e-18
4.11266e-18
3.21327e-18
2.39451e-18
1.87153e-18
1.43381e-18
1.08295e-18
9.04019e-19
8.61631e-19
7.90644e-19
6.79277e-19
5.47419e-19
4.59489e-19
3.88759e-19
3.59922e-19
3.08697e-19
2.85928e-19
2.5704e-19
2.32249e-19
1.89791e-19
1.95522e-19
1.46757e-19
1.55814e-19
1.23811e-19
1.24788e-19
1.02352e-19
1.00898e-19
7.92747e-20
8.50756e-20
6.08258e-20
7.17034e-20
5.22791e-20
5.33314e-20
5.98908e-20
2.63174e-20
6.78275e-20
2.43116e-20
3.9207e-20
6.39293e-20
2.94548e-21
8.98497e-20
3.00657e-20
5.87542e-20
1.10435e-19
4.1639e-20
1.38186e-19
1.23534e-19
1.18987e-19
2.20513e-19
2.04569e-19
2.74877e-19
4.02377e-19
4.84201e-19
6.78376e-19
1.04594e-18
1.49644e-18
4.30346e-18
4.45719e-18
4.79541e-18
8.68989e-18
5.24299e-18
3.71573e-18
2.93441e-18
2.20394e-18
1.73386e-18
1.34194e-18
1.02171e-18
8.58873e-19
8.24223e-19
7.59822e-19
6.55862e-19
5.30608e-19
4.47203e-19
3.79304e-19
3.52308e-19
3.02384e-19
2.80357e-19
2.52244e-19
2.28508e-19
1.86534e-19
1.92609e-19
1.44518e-19
1.53951e-19
1.22507e-19
1.23606e-19
1.01657e-19
1.00133e-19
7.87621e-20
8.47246e-20
6.04353e-20
7.14757e-20
5.2235e-20
5.28774e-20
6.03896e-20
2.58853e-20
6.84072e-20
2.47446e-20
3.9137e-20
6.53802e-20
2.72352e-21
9.08912e-20
3.13098e-20
5.88307e-20
1.12546e-19
4.22254e-20
1.39821e-19
1.25651e-19
1.20466e-19
2.22724e-19
2.06815e-19
2.75088e-19
4.02344e-19
4.78454e-19
6.68225e-19
1.01669e-18
1.39747e-18
4.41556e-18
4.65759e-18
4.52153e-18
9.21605e-18
4.88958e-18
3.35724e-18
2.65056e-18
2.00691e-18
1.58956e-18
1.24483e-18
9.57084e-19
8.10961e-19
7.83928e-19
7.26234e-19
6.30222e-19
5.12068e-19
4.33553e-19
3.6872e-19
3.43653e-19
2.95224e-19
2.74103e-19
2.46793e-19
2.24286e-19
1.82867e-19
1.89225e-19
1.41945e-19
1.51631e-19
1.20954e-19
1.22081e-19
1.00772e-19
9.91235e-20
7.81385e-20
8.41748e-20
5.99764e-20
7.10473e-20
5.21393e-20
5.22603e-20
6.07289e-20
2.54521e-20
6.87129e-20
2.52202e-20
3.8883e-20
6.67403e-20
2.45079e-21
9.15821e-20
3.25117e-20
5.84764e-20
1.14322e-19
4.22884e-20
1.40725e-19
1.2693e-19
1.20684e-19
2.23386e-19
2.06916e-19
2.72323e-19
3.98532e-19
4.6644e-19
6.51219e-19
9.72398e-19
1.29411e-18
4.48965e-18
4.77003e-18
4.25552e-18
9.51471e-18
4.57024e-18
3.0279e-18
2.37423e-18
1.81093e-18
1.44471e-18
1.14648e-18
8.9186e-19
7.62288e-19
7.42397e-19
6.91286e-19
6.03419e-19
4.92588e-19
4.19136e-19
3.57464e-19
3.34305e-19
2.87507e-19
2.67344e-19
2.40884e-19
2.19799e-19
1.78945e-19
1.85527e-19
1.39214e-19
1.48932e-19
1.19227e-19
1.20266e-19
9.97166e-20
9.79088e-20
7.74377e-20
8.34486e-20
5.94782e-20
7.04321e-20
5.20206e-20
5.14797e-20
6.09317e-20
2.50263e-20
6.86977e-20
2.58099e-20
3.83367e-20
6.80621e-20
2.09902e-21
9.17709e-20
3.37517e-20
5.74529e-20
1.15655e-19
4.17185e-20
1.40464e-19
1.27249e-19
1.19165e-19
2.22018e-19
2.04388e-19
2.65658e-19
3.90124e-19
4.4746e-19
6.2573e-19
9.12602e-19
1.18545e-18
4.4741e-18
4.69855e-18
3.97484e-18
9.46166e-18
4.28017e-18
2.71692e-18
2.11511e-18
1.62228e-18
1.30444e-18
1.05015e-18
8.28183e-19
7.14486e-19
7.00999e-19
6.56109e-19
5.76319e-19
4.72832e-19
4.04444e-19
3.45926e-19
3.2459e-19
2.79474e-19
2.60263e-19
2.34678e-19
2.1519e-19
1.74907e-19
1.81633e-19
1.36476e-19
1.45955e-19
1.17402e-19
1.18227e-19
9.85113e-20
9.65193e-20
7.66814e-20
8.25567e-20
5.89631e-20
6.965e-20
5.18927e-20
5.05311e-20
6.09894e-20
2.46203e-20
6.82909e-20
2.65271e-20
3.74162e-20
6.93062e-20
1.6715e-21
9.13035e-20
3.50149e-20
5.55695e-20
1.16366e-19
4.04766e-20
1.3873e-19
1.26492e-19
1.15703e-19
2.18306e-19
1.99102e-19
2.54989e-19
3.7699e-19
4.21898e-19
5.91661e-19
8.40108e-19
1.0726e-18
4.34135e-18
4.40542e-18
3.6595e-18
9.02067e-18
4.00496e-18
2.41487e-18
1.87879e-18
1.44557e-18
1.17278e-18
9.58217e-19
7.67533e-19
6.68752e-19
6.60806e-19
6.21614e-19
5.49643e-19
4.53277e-19
3.89856e-19
3.3443e-19
3.14795e-19
2.71358e-19
2.53046e-19
2.28321e-19
2.10552e-19
1.70866e-19
1.77632e-19
1.33841e-19
1.42814e-19
1.15541e-19
1.16049e-19
9.71817e-20
9.49902e-20
7.5879e-20
8.15054e-20
5.84493e-20
6.87104e-20
5.17534e-20
4.94351e-20
6.08768e-20
2.42474e-20
6.745e-20
2.73458e-20
3.61431e-20
7.04777e-20
1.19987e-21
9.014e-20
3.62488e-20
5.28701e-20
1.16331e-19
3.86328e-20
1.35463e-19
1.24665e-19
1.10368e-19
2.12351e-19
1.91381e-19
2.40801e-19
3.59837e-19
3.91341e-19
5.50839e-19
7.60008e-19
9.58033e-19
4.08765e-18
3.91679e-18
3.30417e-18
8.24527e-18
3.73021e-18
2.11933e-18
1.66722e-18
1.28368e-18
1.05208e-18
8.72277e-19
7.10797e-19
6.25864e-19
6.22553e-19
5.88483e-19
5.23877e-19
4.34331e-19
3.75665e-19
3.23238e-19
3.05144e-19
2.63371e-19
2.45861e-19
2.21938e-19
2.05939e-19
1.6691e-19
1.73587e-19
1.3137e-19
1.39605e-19
1.13697e-19
1.13804e-19
9.5763e-20
9.33582e-20
7.50426e-20
8.03074e-20
5.79503e-20
6.76332e-20
5.15969e-20
4.82297e-20
6.05837e-20
2.39215e-20
6.61986e-20
2.82232e-20
3.45781e-20
7.16671e-20
7.35373e-22
8.84433e-20
3.74263e-20
4.95062e-20
1.15542e-19
3.63581e-20
1.30856e-19
1.21985e-19
1.03578e-19
2.04604e-19
1.81894e-19
2.24136e-19
3.39893e-19
3.58026e-19
5.0604e-19
6.78768e-19
8.45507e-19
3.73763e-18
3.30962e-18
2.91585e-18
7.24903e-18
3.44435e-18
1.83495e-18
1.47957e-18
1.13805e-18
9.43358e-19
7.93249e-19
6.58395e-19
5.86211e-19
5.86718e-19
5.57126e-19
4.99339e-19
4.16242e-19
3.62028e-19
3.12507e-19
2.95799e-19
2.55649e-19
2.38841e-19
2.15648e-19
2.01394e-19
1.63101e-19
1.69547e-19
1.29086e-19
1.364e-19
1.11906e-19
1.1155e-19
9.42982e-20
9.16649e-20
7.41894e-20
7.89871e-20
5.74775e-20
6.64494e-20
5.14199e-20
4.69677e-20
6.01211e-20
2.36619e-20
6.45985e-20
2.91365e-20
3.27751e-20
7.31706e-20
3.45867e-22
8.66428e-20
3.85654e-20
4.56806e-20
1.14109e-19
3.38738e-20
1.25182e-19
1.1875e-19
9.58494e-20
1.9564e-19
1.71433e-19
2.06144e-19
3.1853e-19
3.24215e-19
4.60099e-19
6.01486e-19
7.38494e-19
3.32773e-18
2.6726e-18
2.51407e-18
6.16672e-18
3.14331e-18
1.57044e-18
1.31348e-18
1.00896e-18
8.46723e-19
7.21485e-19
6.10364e-19
5.49881e-19
5.53479e-19
5.27768e-19
4.76219e-19
3.99123e-19
3.49033e-19
3.02328e-19
2.86859e-19
2.48275e-19
2.32076e-19
2.0955e-19
1.96945e-19
1.59485e-19
1.65551e-19
1.26987e-19
1.33255e-19
1.1019e-19
1.09336e-19
9.28328e-20
8.99484e-20
7.33386e-20
7.75795e-20
5.70357e-20
6.51994e-20
5.12227e-20
4.57035e-20
5.95143e-20
2.34864e-20
6.27374e-20
3.00629e-20
3.0793e-20
7.54624e-20
9.48073e-23
8.54621e-20
3.97064e-20
4.16046e-20
1.1219e-19
3.13904e-20
1.18808e-19
1.15263e-19
8.76828e-20
1.86023e-19
1.60714e-19
1.87847e-19
2.96908e-19
2.91726e-19
4.15313e-19
5.31351e-19
6.39327e-19
2.90105e-18
2.08749e-18
2.12361e-18
5.10956e-18
2.82808e-18
1.33368e-18
1.16604e-18
8.95809e-19
7.61601e-19
6.56896e-19
5.66512e-19
5.16745e-19
5.22849e-19
5.00488e-19
4.54573e-19
3.83021e-19
3.3672e-19
2.92749e-19
2.78375e-19
2.41294e-19
2.25622e-19
2.03716e-19
1.92618e-19
1.5609e-19
1.61634e-19
1.25058e-19
1.30201e-19
1.08561e-19
1.07197e-19
9.14017e-20
8.82428e-20
7.25094e-20
7.6123e-20
5.66286e-20
6.39208e-20
5.10131e-20
4.44725e-20
5.88085e-20
2.33774e-20
6.07492e-20
3.08915e-20
2.88554e-20
7.66222e-20
1.16117e-27
8.35992e-20
4.0662e-20
3.74894e-20
1.09923e-19
2.90733e-20
1.12043e-19
1.11764e-19
7.94858e-20
1.76218e-19
1.50277e-19
1.70003e-19
2.75939e-19
2.61655e-19
3.73092e-19
4.69797e-19
5.49428e-19
2.49232e-18
1.60231e-18
1.77136e-18
4.15963e-18
2.50655e-18
1.12981e-18
1.03467e-18
7.97477e-19
6.87053e-19
5.9915e-19
5.2654e-19
4.86567e-19
4.94731e-19
4.75263e-19
4.34394e-19
3.67928e-19
3.25091e-19
2.83772e-19
2.70365e-19
2.34721e-19
2.19504e-19
1.98193e-19
1.88427e-19
1.52927e-19
1.57833e-19
1.23282e-19
1.27266e-19
1.07024e-19
1.05151e-19
9.00304e-20
8.6575e-20
7.17172e-20
7.46537e-20
5.62578e-20
6.26459e-20
5.08019e-20
4.32965e-20
5.80523e-20
2.33096e-20
5.8751e-20
3.15234e-20
2.71448e-20
7.39638e-20
8.50559e-23
7.86982e-20
4.12711e-20
3.34973e-20
1.07436e-19
2.70369e-20
1.05125e-19
1.08415e-19
7.15563e-20
1.66534e-19
1.40479e-19
1.53108e-19
2.56137e-19
2.34637e-19
3.34158e-19
4.16758e-19
4.69767e-19
2.12709e-18
1.23796e-18
1.47835e-18
3.36099e-18
2.18993e-18
9.60387e-19
9.17402e-19
7.1249e-19
6.22034e-19
5.47805e-19
4.9012e-19
4.5906e-19
4.68961e-19
4.52006e-19
4.1563e-19
3.5382e-19
3.14117e-19
2.75377e-19
2.62821e-19
2.28546e-19
2.13724e-19
1.93004e-19
1.84382e-19
1.49997e-19
1.54169e-19
1.21644e-19
1.2446e-19
1.05578e-19
1.03209e-19
8.87353e-20
8.49656e-20
7.09722e-20
7.32032e-20
5.59216e-20
6.14039e-20
5.05946e-20
4.21995e-20
5.72703e-20
2.33038e-20
5.67691e-20
3.20531e-20
2.55687e-20
7.04913e-20
3.45685e-22
7.33254e-20
4.18076e-20
2.97036e-20
1.04828e-19
2.53459e-20
9.8234e-20
1.05308e-19
6.40896e-20
1.57184e-19
1.31514e-19
1.37438e-19
2.3775e-19
2.10835e-19
2.98701e-19
3.71493e-19
4.0076e-19
1.81831e-18
9.91728e-19
1.25751e-18
2.72334e-18
1.89038e-18
8.22747e-19
8.12837e-19
6.39283e-19
5.6547e-19
5.0234e-19
4.56928e-19
4.33921e-19
4.45338e-19
4.30592e-19
3.98196e-19
3.40631e-19
3.03759e-19
2.67531e-19
2.5573e-19
2.22751e-19
2.08269e-19
1.88155e-19
1.80488e-19
1.47291e-19
1.50657e-19
1.20127e-19
1.21787e-19
1.04219e-19
1.01376e-19
8.75241e-20
8.34293e-20
7.02797e-20
7.17948e-20
5.56181e-20
6.02158e-20
5.03954e-20
4.11958e-20
5.64829e-20
2.33758e-20
5.48203e-20
3.25787e-20
2.4052e-20
6.80389e-20
8.48473e-22
6.90771e-20
4.24451e-20
2.61625e-20
1.02157e-19
2.40362e-20
9.14928e-20
1.02487e-19
5.72015e-20
1.48247e-19
1.23459e-19
1.23093e-19
2.20834e-19
1.90116e-19
2.66518e-19
3.32894e-19
3.42323e-19
1.56841e-18
8.44229e-19
1.11113e-18
2.23043e-18
1.61734e-18
7.11547e-19
7.19935e-19
5.7622e-19
5.16352e-19
4.62192e-19
4.26661e-19
4.10855e-19
4.23647e-19
4.10881e-19
3.81997e-19
3.28288e-19
2.93969e-19
2.60199e-19
2.49071e-19
2.17311e-19
2.03121e-19
1.83639e-19
1.76745e-19
1.44794e-19
1.47307e-19
1.18719e-19
1.19246e-19
1.02944e-19
9.96512e-20
8.64006e-20
8.19747e-20
6.96416e-20
7.04433e-20
5.53463e-20
5.90945e-20
5.02107e-20
4.02854e-20
5.57124e-20
2.35103e-20
5.29496e-20
3.30943e-20
2.26511e-20
6.62127e-20
1.52319e-21
6.54185e-20
4.31505e-20
2.29349e-20
9.94668e-20
2.31029e-20
8.49855e-20
9.99522e-20
5.09474e-20
1.39781e-19
1.16321e-19
1.10072e-19
2.05341e-19
1.72165e-19
2.37373e-19
2.99819e-19
2.93978e-19
1.37081e-18
7.68367e-19
1.03422e-18
1.8541e-18
1.37705e-18
6.20086e-19
6.37776e-19
5.21831e-19
4.73754e-19
4.26821e-19
3.99054e-19
3.896e-19
4.03678e-19
3.92731e-19
3.66936e-19
3.16718e-19
2.84702e-19
2.53339e-19
2.42812e-19
2.12197e-19
1.98259e-19
1.7944e-19
1.73153e-19
1.42489e-19
1.44122e-19
1.17405e-19
1.16836e-19
1.01748e-19
9.80321e-20
8.53635e-20
8.06074e-20
6.9057e-20
6.91574e-20
5.51041e-20
5.80485e-20
5.00422e-20
3.94689e-20
5.49694e-20
2.36996e-20
5.11773e-20
3.35868e-20
2.14153e-20
6.47e-20
2.30422e-21
6.20838e-20
4.38916e-20
2.00432e-20
9.67863e-20
2.25248e-20
7.87655e-20
9.76837e-20
4.53465e-20
1.31795e-19
1.10043e-19
9.83141e-20
1.91176e-19
1.56652e-19
2.10919e-19
2.7135e-19
2.54841e-19
1.21498e-18
7.36032e-19
1.01626e-18
1.56096e-18
1.17315e-18
5.41893e-19
5.65462e-19
4.74784e-19
4.36851e-19
3.95717e-19
3.73881e-19
3.69935e-19
3.85242e-19
3.76003e-19
3.52921e-19
3.05852e-19
2.75911e-19
2.46912e-19
2.36927e-19
2.07383e-19
1.93659e-19
1.75537e-19
1.69706e-19
1.40357e-19
1.41103e-19
1.16176e-19
1.1455e-19
1.00624e-19
9.65149e-20
8.44096e-20
7.93302e-20
6.85237e-20
6.79429e-20
5.48885e-20
5.70824e-20
4.98895e-20
3.87467e-20
5.4258e-20
2.39431e-20
4.95038e-20
3.40619e-20
2.03519e-20
6.33422e-20
3.16615e-21
5.8986e-20
4.46701e-20
1.74833e-20
9.41335e-20
2.22727e-20
7.28665e-20
9.56483e-20
4.0392e-20
1.2427e-19
1.04557e-19
8.77279e-20
1.78232e-19
1.43261e-19
1.86894e-19
2.46648e-19
2.23804e-19
1.08888e-18
7.22612e-19
1.04433e-18
1.32139e-18
1.00649e-18
4.71896e-19
5.02101e-19
4.34008e-19
4.04948e-19
3.68418e-19
3.50948e-19
3.51672e-19
3.68164e-19
3.60568e-19
3.39864e-19
2.95621e-19
2.67555e-19
2.40879e-19
2.31388e-19
2.02842e-19
1.89302e-19
1.71908e-19
1.66401e-19
1.38382e-19
1.38248e-19
1.15021e-19
1.12385e-19
9.95648e-20
9.50944e-20
8.35349e-20
7.81442e-20
6.80386e-20
6.68007e-20
5.4697e-20
5.61977e-20
4.97519e-20
3.81173e-20
5.35813e-20
2.42368e-20
4.79315e-20
3.45265e-20
1.94513e-20
6.2051e-20
4.1006e-21
5.60903e-20
4.54791e-20
1.52475e-20
9.15196e-20
2.231e-20
6.73143e-20
9.38074e-20
3.60633e-20
1.17184e-19
9.97849e-20
7.82273e-20
1.66394e-19
1.31713e-19
1.65058e-19
2.25107e-19
1.99887e-19
9.81513e-19
7.08479e-19
1.10465e-18
1.11101e-18
8.75412e-19
4.06809e-19
4.46662e-19
3.98615e-19
3.77455e-19
3.44527e-19
3.30087e-19
3.34658e-19
3.52291e-19
3.46306e-19
3.27684e-19
2.85962e-19
2.59591e-19
2.35204e-19
2.26168e-19
1.98553e-19
1.85166e-19
1.6853e-19
1.63229e-19
1.36547e-19
1.35551e-19
1.13932e-19
1.10332e-19
9.85661e-20
9.37653e-20
8.27359e-20
7.70491e-20
6.75992e-20
6.57302e-20
5.45277e-20
5.53946e-20
4.96288e-20
3.75781e-20
5.29424e-20
2.45748e-20
4.64653e-20
3.49812e-20
1.87038e-20
6.08115e-20
5.09931e-21
5.33828e-20
4.63047e-20
1.33258e-20
8.89638e-20
2.25991e-20
6.21299e-20
9.21355e-20
3.2332e-20
1.10531e-19
9.56546e-20
6.97421e-20
1.55586e-19
1.218e-19
1.45239e-19
2.06259e-19
1.82157e-19
8.83341e-19
6.80112e-19
6.11647e-18
7.71806e-18
7.12351e-18
5.67067e-18
4.08808e-18
2.95725e-18
2.23127e-18
1.6582e-18
1.23249e-18
1.01197e-18
9.42e-19
8.51106e-19
7.23784e-19
5.79514e-19
4.82662e-19
4.06251e-19
3.71688e-19
3.19249e-19
2.95998e-19
2.63581e-19
2.36826e-19
1.96231e-19
1.9799e-19
1.49532e-19
1.57462e-19
1.2415e-19
1.25034e-19
1.01805e-19
1.00242e-19
7.90805e-20
8.28432e-20
6.0805e-20
6.90876e-20
5.02841e-20
5.30117e-20
5.27898e-20
2.85976e-20
5.89698e-20
2.03616e-20
3.81415e-20
4.84284e-20
5.55603e-21
7.45982e-20
1.81734e-20
5.44802e-20
8.2348e-20
3.23317e-20
1.12776e-19
8.80092e-20
9.41389e-20
1.70127e-19
1.49354e-19
2.18087e-19
3.14853e-19
3.92396e-19
5.81936e-19
9.35331e-19
1.64446e-18
3.69491e-18
4.22503e-18
6.41136e-18
7.89473e-18
7.31142e-18
5.81084e-18
4.15337e-18
2.99553e-18
2.25639e-18
1.67425e-18
1.24142e-18
1.01732e-18
9.46475e-19
8.55056e-19
7.26659e-19
5.81396e-19
4.83947e-19
4.07252e-19
3.72635e-19
3.20019e-19
2.96539e-19
2.6428e-19
2.37396e-19
1.96458e-19
1.98465e-19
1.49913e-19
1.57642e-19
1.24553e-19
1.2522e-19
1.0211e-19
1.00464e-19
7.92699e-20
8.31249e-20
6.09389e-20
6.93591e-20
5.05456e-20
5.30856e-20
5.34682e-20
2.84021e-20
5.97661e-20
2.07239e-20
3.81352e-20
4.99184e-20
5.14271e-21
7.6091e-20
1.91986e-20
5.47472e-20
8.52826e-20
3.29418e-20
1.15502e-19
9.16532e-20
9.66238e-20
1.761e-19
1.5566e-19
2.25992e-19
3.28046e-19
4.09225e-19
6.06871e-19
9.76617e-19
1.70402e-18
3.86462e-18
4.32654e-18
6.6133e-18
8.03665e-18
7.37462e-18
5.85263e-18
4.16693e-18
3.00656e-18
2.26835e-18
1.68409e-18
1.2474e-18
1.02112e-18
9.50506e-19
8.58883e-19
7.29544e-19
5.83143e-19
4.852e-19
4.08199e-19
3.7381e-19
3.20825e-19
2.97175e-19
2.65116e-19
2.38137e-19
1.96598e-19
1.99245e-19
1.50217e-19
1.58072e-19
1.24966e-19
1.25597e-19
1.02462e-19
1.00886e-19
7.94746e-20
8.36639e-20
6.10764e-20
6.98865e-20
5.09186e-20
5.32974e-20
5.45427e-20
2.81508e-20
6.11392e-20
2.12582e-20
3.83614e-20
5.22301e-20
4.67138e-21
7.86188e-20
2.07672e-20
5.56001e-20
8.97641e-20
3.42545e-20
1.19969e-19
9.73673e-20
1.00877e-19
1.85356e-19
1.65395e-19
2.37919e-19
3.46849e-19
4.32084e-19
6.37335e-19
1.02196e-18
1.76664e-18
4.01779e-18
4.43199e-18
6.54093e-18
7.95061e-18
7.22087e-18
5.70926e-18
4.0898e-18
2.96356e-18
2.24818e-18
1.67468e-18
1.2419e-18
1.01771e-18
9.49513e-19
8.59063e-19
7.2975e-19
5.83089e-19
4.85149e-19
4.08192e-19
3.74315e-19
3.21066e-19
2.97283e-19
2.65627e-19
2.38642e-19
1.96466e-19
1.99871e-19
1.50406e-19
1.58394e-19
1.25351e-19
1.25948e-19
1.02818e-19
1.01302e-19
7.96892e-20
8.42516e-20
6.12123e-20
7.04975e-20
5.13431e-20
5.35295e-20
5.58202e-20
2.78497e-20
6.27856e-20
2.19153e-20
3.86563e-20
5.49906e-20
4.19176e-21
8.15699e-20
2.2729e-20
5.6603e-20
9.50135e-20
3.59252e-20
1.25066e-19
1.04083e-19
1.05727e-19
1.95626e-19
1.76301e-19
2.50299e-19
3.66145e-19
4.53841e-19
6.62855e-19
1.05365e-18
1.77976e-18
4.0889e-18
4.4072e-18
6.21674e-18
7.73048e-18
6.88368e-18
5.39253e-18
3.92906e-18
2.86615e-18
2.19177e-18
1.64188e-18
1.22114e-18
1.00367e-18
9.4007e-19
8.52551e-19
7.25132e-19
5.7978e-19
4.82762e-19
4.06416e-19
3.73363e-19
3.20143e-19
2.96356e-19
2.65275e-19
2.3849e-19
1.95836e-19
1.99972e-19
1.50296e-19
1.58433e-19
1.25525e-19
1.26134e-19
1.03052e-19
1.0159e-19
7.98274e-20
8.47685e-20
6.12949e-20
7.10666e-20
5.17415e-20
5.36995e-20
5.71096e-20
2.75113e-20
6.44123e-20
2.26197e-20
3.89073e-20
5.77673e-20
3.76657e-21
8.43769e-20
2.48295e-20
5.74755e-20
1.00163e-19
3.76782e-20
1.29714e-19
1.10668e-19
1.10212e-19
2.04911e-19
1.86382e-19
2.60513e-19
3.81824e-19
4.70167e-19
6.77889e-19
1.06947e-18
1.74293e-18
4.10814e-18
4.30685e-18
5.83114e-18
7.62397e-18
6.47304e-18
4.98635e-18
3.72012e-18
2.73316e-18
2.10681e-18
1.58873e-18
1.18664e-18
9.79229e-19
9.21659e-19
8.38549e-19
7.1493e-19
5.72576e-19
4.7757e-19
4.02483e-19
3.70583e-19
3.17746e-19
2.94119e-19
2.63737e-19
2.37392e-19
1.94542e-19
1.99329e-19
1.49707e-19
1.58066e-19
1.25354e-19
1.26057e-19
1.03079e-19
1.0166e-19
7.98257e-20
8.51183e-20
6.12682e-20
7.14913e-20
5.20483e-20
5.37363e-20
5.82666e-20
2.71392e-20
6.58505e-20
2.32867e-20
3.90756e-20
6.0267e-20
3.42547e-21
8.67281e-20
2.68082e-20
5.8119e-20
1.04544e-19
3.93068e-20
1.33428e-19
1.16267e-19
1.13946e-19
2.12107e-19
1.94616e-19
2.67828e-19
3.92937e-19
4.8039e-19
6.84243e-19
1.07247e-18
1.67676e-18
4.14336e-18
4.24679e-18
5.45405e-18
7.76155e-18
6.05022e-18
4.55023e-18
3.48104e-18
2.57495e-18
1.99943e-18
1.51935e-18
1.14063e-18
9.45952e-19
8.95278e-19
8.17597e-19
6.99374e-19
5.61595e-19
4.69639e-19
3.96451e-19
3.65968e-19
3.1384e-19
2.9058e-19
2.60945e-19
2.35281e-19
1.92524e-19
1.97848e-19
1.48531e-19
1.57214e-19
1.24781e-19
1.25625e-19
1.02857e-19
1.01451e-19
7.96478e-20
8.52363e-20
6.11104e-20
7.17075e-20
5.22291e-20
5.36082e-20
5.92069e-20
2.6733e-20
6.69899e-20
2.38553e-20
3.91667e-20
6.2343e-20
3.16466e-21
8.85556e-20
2.84892e-20
5.85703e-20
1.07979e-19
4.06583e-20
1.36205e-19
1.20555e-19
1.16912e-19
2.17225e-19
2.00718e-19
2.72517e-19
3.99701e-19
4.84949e-19
6.84097e-19
1.06459e-18
1.59234e-18
4.21756e-18
4.30042e-18
5.11056e-18
8.15361e-18
5.63947e-18
4.1204e-18
3.2179e-18
2.39712e-18
1.87415e-18
1.43678e-18
1.08555e-18
9.0569e-19
8.62457e-19
7.90966e-19
6.79326e-19
5.47319e-19
4.59288e-19
3.88536e-19
3.59707e-19
3.08606e-19
2.85905e-19
2.57034e-19
2.32254e-19
1.89829e-19
1.9558e-19
1.46781e-19
1.55846e-19
1.23819e-19
1.24809e-19
1.0239e-19
1.00952e-19
7.92938e-20
8.51052e-20
6.08284e-20
7.16885e-20
5.2288e-20
5.3307e-20
5.99109e-20
2.63002e-20
6.78418e-20
2.43212e-20
3.91848e-20
6.4036e-20
2.95246e-21
8.99545e-20
2.98592e-20
5.88712e-20
1.10592e-19
4.16714e-20
1.38357e-19
1.23633e-19
1.19208e-19
2.20744e-19
2.04916e-19
2.75035e-19
4.02928e-19
4.84382e-19
6.79132e-19
1.04632e-18
1.49779e-18
4.32456e-18
4.46371e-18
4.80533e-18
8.69499e-18
5.25191e-18
3.72184e-18
2.93823e-18
2.20604e-18
1.73622e-18
1.34482e-18
1.02425e-18
8.60507e-19
8.25018e-19
7.60111e-19
6.55887e-19
5.30493e-19
4.46986e-19
3.7907e-19
3.52075e-19
3.02282e-19
2.80325e-19
2.52233e-19
2.285e-19
1.86572e-19
1.92659e-19
1.44547e-19
1.53974e-19
1.22518e-19
1.23615e-19
1.01701e-19
1.00178e-19
7.8792e-20
8.47448e-20
6.04485e-20
7.14469e-20
5.22562e-20
5.28378e-20
6.04185e-20
2.58515e-20
6.84315e-20
2.47332e-20
3.91031e-20
6.54812e-20
2.73693e-21
9.10284e-20
3.10186e-20
5.89525e-20
1.12718e-19
4.22655e-20
1.39993e-19
1.2576e-19
1.20697e-19
2.22964e-19
2.07185e-19
2.75269e-19
4.02933e-19
4.7864e-19
6.69062e-19
1.01714e-18
1.39881e-18
4.43485e-18
4.66238e-18
4.53077e-18
9.21908e-18
4.89598e-18
3.36213e-18
2.65364e-18
2.00858e-18
1.59167e-18
1.2476e-18
9.59563e-19
8.12563e-19
7.84698e-19
7.26503e-19
6.3023e-19
5.11941e-19
4.33329e-19
3.68479e-19
3.43405e-19
2.95112e-19
2.7406e-19
2.4678e-19
2.24266e-19
1.82907e-19
1.89266e-19
1.41981e-19
1.51644e-19
1.2097e-19
1.22075e-19
1.00823e-19
9.91605e-20
7.81801e-20
8.41829e-20
6.00015e-20
7.1002e-20
5.21742e-20
5.22035e-20
6.0772e-20
2.5396e-20
6.87525e-20
2.51788e-20
3.88497e-20
6.68037e-20
2.46913e-21
9.17869e-20
3.21101e-20
5.85971e-20
1.14502e-19
4.23346e-20
1.40893e-19
1.27045e-19
1.20918e-19
2.2363e-19
2.07291e-19
2.725e-19
3.9913e-19
4.66622e-19
6.52082e-19
9.72814e-19
1.2954e-18
4.50691e-18
4.77425e-18
4.26415e-18
9.51715e-18
4.57478e-18
3.03185e-18
2.37667e-18
1.81222e-18
1.44658e-18
1.14912e-18
8.94281e-19
7.6386e-19
7.43148e-19
6.91538e-19
6.03411e-19
4.92453e-19
4.18905e-19
3.57218e-19
3.34045e-19
2.87387e-19
2.6729e-19
2.40869e-19
2.19767e-19
1.78987e-19
1.85558e-19
1.39255e-19
1.48936e-19
1.19248e-19
1.20247e-19
9.97755e-20
9.79345e-20
7.74922e-20
8.34434e-20
5.95168e-20
7.03701e-20
5.20709e-20
5.14004e-20
6.09941e-20
2.49428e-20
6.87545e-20
2.5714e-20
3.82939e-20
6.80343e-20
2.11929e-21
9.20311e-20
3.32155e-20
5.75637e-20
1.15842e-19
4.17687e-20
1.40623e-19
1.27365e-19
1.19394e-19
2.22259e-19
2.04756e-19
2.65834e-19
3.907e-19
4.47621e-19
6.26518e-19
9.12983e-19
1.18659e-18
4.48901e-18
4.70306e-18
3.9831e-18
9.46459e-18
4.28331e-18
2.72013e-18
2.117e-18
1.62321e-18
1.30607e-18
1.05266e-18
8.30539e-19
7.16026e-19
7.01734e-19
6.56349e-19
5.76309e-19
4.7269e-19
4.04208e-19
3.45674e-19
3.2432e-19
2.79347e-19
2.60199e-19
2.34663e-19
2.15146e-19
1.74952e-19
1.81655e-19
1.36524e-19
1.45949e-19
1.17427e-19
1.18196e-19
9.85767e-20
9.65327e-20
7.67477e-20
8.25378e-20
5.90155e-20
6.95695e-20
5.19589e-20
5.04298e-20
6.10714e-20
2.45029e-20
6.83748e-20
2.63573e-20
3.73668e-20
6.91091e-20
1.69211e-21
9.15834e-20
3.43237e-20
5.56708e-20
1.16556e-19
4.05283e-20
1.38876e-19
1.26606e-19
1.15918e-19
2.18536e-19
1.99446e-19
2.55154e-19
3.77513e-19
4.22039e-19
5.92313e-19
8.40449e-19
1.07358e-18
4.35393e-18
4.41066e-18
3.66743e-18
9.02444e-18
4.0072e-18
2.41746e-18
1.8802e-18
1.44625e-18
1.17419e-18
9.60583e-19
7.69818e-19
6.70254e-19
6.61526e-19
6.21848e-19
5.49621e-19
4.53137e-19
3.89621e-19
3.34178e-19
3.14519e-19
2.7123e-19
2.5297e-19
2.28305e-19
2.10497e-19
1.70913e-19
1.77647e-19
1.33897e-19
1.428e-19
1.15571e-19
1.16005e-19
9.7253e-20
9.49915e-20
7.59565e-20
8.14735e-20
5.85148e-20
6.86114e-20
5.18357e-20
4.93101e-20
6.09786e-20
2.40933e-20
6.75675e-20
2.70881e-20
3.60675e-20
6.99247e-20
1.22493e-21
9.03461e-20
3.53919e-20
5.29518e-20
1.16514e-19
3.86854e-20
1.35595e-19
1.24775e-19
1.10564e-19
2.12565e-19
1.91692e-19
2.40954e-19
3.60283e-19
3.91463e-19
5.5131e-19
7.60315e-19
9.58827e-19
4.09797e-18
3.92254e-18
3.31171e-18
8.24973e-18
3.73198e-18
2.12132e-18
1.66823e-18
1.28416e-18
1.05328e-18
8.74496e-19
7.13005e-19
6.27325e-19
6.23246e-19
5.88707e-19
5.23847e-19
4.34195e-19
3.75425e-19
3.22983e-19
3.04863e-19
2.63241e-19
2.45776e-19
2.21923e-19
2.05875e-19
1.66959e-19
1.73594e-19
1.31432e-19
1.39582e-19
1.1373e-19
1.13749e-19
9.58391e-20
9.3348e-20
7.513e-20
8.02636e-20
5.80283e-20
6.75186e-20
5.16936e-20
4.80845e-20
6.07038e-20
2.37345e-20
6.63478e-20
2.78696e-20
3.4464e-20
7.04133e-20
7.7464e-22
8.83728e-20
3.63921e-20
4.95597e-20
1.15718e-19
3.64107e-20
1.30969e-19
1.22087e-19
1.0375e-19
2.048e-19
1.82165e-19
2.24274e-19
3.40249e-19
3.5813e-19
5.06304e-19
6.79035e-19
8.46111e-19
3.74579e-18
3.31554e-18
2.92288e-18
7.25367e-18
3.44597e-18
1.83636e-18
1.48023e-18
1.13836e-18
9.44364e-19
7.95316e-19
6.60516e-19
5.87629e-19
5.87393e-19
5.57341e-19
4.99305e-19
4.16105e-19
3.61787e-19
3.12252e-19
2.95513e-19
2.55517e-19
2.38748e-19
2.15634e-19
2.01322e-19
1.63152e-19
1.69546e-19
1.29153e-19
1.36371e-19
1.11942e-19
1.11486e-19
9.43778e-20
9.16448e-20
7.42847e-20
7.89333e-20
5.75659e-20
6.63222e-20
5.15281e-20
4.68064e-20
6.02547e-20
2.34437e-20
6.47834e-20
2.86651e-20
3.26581e-20
7.05555e-20
4.00675e-22
8.57762e-20
3.7327e-20
4.57146e-20
1.14273e-19
3.39236e-20
1.25279e-19
1.18843e-19
9.59964e-20
1.95816e-19
1.71661e-19
2.0627e-19
3.18789e-19
3.24311e-19
4.60154e-19
6.0171e-19
7.38914e-19
3.33386e-18
2.67843e-18
2.52047e-18
6.17108e-18
3.14493e-18
1.5713e-18
1.31385e-18
1.00915e-18
8.47569e-19
7.23399e-19
6.12395e-19
5.51254e-19
5.54135e-19
5.27972e-19
4.76175e-19
3.98983e-19
3.48794e-19
3.02076e-19
2.86572e-19
2.48143e-19
2.31977e-19
2.09537e-19
1.96867e-19
1.59537e-19
1.65546e-19
1.27057e-19
1.33221e-19
1.10228e-19
1.09264e-19
9.29143e-20
8.99199e-20
7.344e-20
7.75176e-20
5.71326e-20
6.50627e-20
5.13405e-20
4.55279e-20
5.96627e-20
2.32328e-20
6.29703e-20
2.94481e-20
3.07608e-20
7.03638e-20
1.52635e-22
8.27414e-20