/*--------------------------------*- C++ -*----------------------------------*\
| =========                 |                                                 |
| \\      /  F ield         | OpenFOAM: The Open Source CFD Toolbox           |
|  \\    /   O peration     | Version:  2312                                  |
|   \\  /    A nd           | Website:  www.openfoam.com                      |
|    \\/     M anipulation  |                                                 |
\*---------------------------------------------------------------------------*/
FoamFile
{
    version     2.0;
    format      ascii;
    arch        "LSB;label=32;scalar=64";
    class       volScalarField;
    location    "500";
    object      nut;
}
// * * * * * * * * * * * * * * * * * * * * * * * * * * * * * * * * * * * * * //

dimensions      [0 2 -1 0 0 0 0];

internalField   nonuniform List<scalar> 
144000
(
3.80569e-27
3.02e-28
1.22103e-28
1.96724e-27
4.30327e-28
5.7088e-32
1.46254e-28
3.7474e-29
9.24976e-29
6.3898e-29
8.28802e-29
6.94152e-29
9.01465e-29
8.65908e-29
8.2472e-29
7.6962e-29
9.75663e-29
1.1224e-28
9.33735e-29
1.01105e-28
1.08335e-28
1.26322e-28
1.11397e-28
1.24287e-28
1.09062e-28
1.25315e-28
1.2307e-28
1.40151e-28
1.24541e-28
1.38533e-28
1.16221e-28
1.27922e-28
1.33759e-28
1.49652e-28
1.25318e-28
1.32034e-28
1.10285e-28
1.18868e-28
1.08169e-28
1.1546e-28
8.64665e-29
8.86678e-29
5.62196e-29
5.26633e-29
4.46888e-29
4.43214e-29
1.56842e-29
1.03123e-29
1.72376e-30
6.50122e-31
1.24781e-30
7.44621e-30
7.12387e-29
1.99646e-28
9.77166e-28
2.50584e-28
6.12587e-27
3.47361e-25
4.84416e-25
2.09204e-26
4.15529e-25
1.42274e-26
1.41054e-26
2.09663e-26
2.77994e-28
6.45218e-30
2.55747e-28
1.08504e-28
1.16309e-28
2.22843e-28
1.07031e-28
2.11582e-28
1.3086e-28
2.43241e-28
1.35566e-28
1.95214e-28
1.58246e-28
2.86947e-28
1.68578e-28
2.33577e-28
1.91307e-28
3.02708e-28
2.01642e-28
2.86741e-28
1.98009e-28
2.84494e-28
2.21575e-28
3.23202e-28
2.28267e-28
3.1084e-28
2.15694e-28
2.79234e-28
2.4024e-28
3.3836e-28
2.32766e-28
2.84218e-28
2.03644e-28
2.51011e-28
1.96524e-28
2.45086e-28
1.60421e-28
1.78687e-28
1.06764e-28
9.91576e-29
7.57495e-29
9.15482e-29
2.81394e-29
1.6459e-29
2.57156e-30
7.70302e-31
2.4335e-30
2.46813e-29
1.36631e-28
5.76439e-28
1.79197e-27
1.20915e-27
7.79722e-27
8.55165e-25
3.01147e-24
1.76269e-26
9.57847e-25
1.29672e-25
6.78142e-26
2.4246e-26
1.16668e-27
9.8083e-30
2.93359e-28
2.02184e-28
1.44896e-28
3.20048e-28
1.55136e-28
2.94008e-28
1.90438e-28
3.33771e-28
1.89534e-28
2.85646e-28
2.22871e-28
4.01431e-28
2.34229e-28
3.42922e-28
2.63825e-28
4.332e-28
2.75394e-28
4.1987e-28
2.66905e-28
4.24692e-28
2.9854e-28
4.73347e-28
3.06874e-28
4.60298e-28
2.86092e-28
4.27253e-28
3.19972e-28
4.97274e-28
3.09683e-28
4.25795e-28
2.68657e-28
3.82227e-28
2.59834e-28
3.65413e-28
2.10989e-28
2.72732e-28
1.35216e-28
1.62004e-28
9.80087e-29
1.38944e-28
3.43879e-29
2.92673e-29
2.56914e-30
2.49209e-30
5.50154e-30
2.10341e-29
2.38493e-28
6.45825e-28
2.66941e-27
9.75719e-28
2.72689e-26
1.42135e-24
3.11204e-24
2.63703e-25
3.5802e-24
1.28389e-24
2.31037e-25
1.09851e-25
1.39148e-27
2.12531e-29
2.74062e-28
2.48424e-28
1.35625e-28
3.47579e-28
1.48977e-28
3.16611e-28
1.83809e-28
3.59092e-28
1.82434e-28
3.06868e-28
2.11585e-28
4.33145e-28
2.23389e-28
3.66614e-28
2.52311e-28
4.63374e-28
2.64781e-28
4.47908e-28
2.55465e-28
4.55175e-28
2.83599e-28
5.1029e-28
2.92698e-28
4.94039e-28
2.73079e-28
4.60567e-28
3.02976e-28
5.39614e-28
2.9389e-28
4.59853e-28
2.55099e-28
4.15102e-28
2.45743e-28
4.00023e-28
2.00829e-28
2.98041e-28
1.29073e-28
1.8035e-28
9.44767e-29
1.5765e-28
3.29699e-29
3.54913e-29
2.70885e-30
4.85633e-30
4.72978e-30
1.86315e-29
2.19888e-28
5.63976e-28
2.33832e-27
7.64715e-28
3.60091e-26
2.19626e-24
4.55242e-24
1.819e-24
6.97003e-24
6.07773e-24
3.54449e-25
3.73597e-25
3.76218e-27
5.98166e-29
2.893e-28
3.10458e-28
1.27254e-28
4.00513e-28
1.32335e-28
3.60146e-28
1.70559e-28
4.05097e-28
1.69992e-28
3.40937e-28
1.98703e-28
4.81775e-28
2.09243e-28
3.98283e-28
2.41214e-28
5.04443e-28
2.53156e-28
4.81865e-28
2.44476e-28
4.90251e-28
2.72544e-28
5.53057e-28
2.79587e-28
5.33197e-28
2.61224e-28
4.96437e-28
2.91981e-28
5.89039e-28
2.79506e-28
4.98537e-28
2.43073e-28
4.53199e-28
2.35684e-28
4.42171e-28
1.91436e-28
3.31348e-28
1.23833e-28
2.04618e-28
9.38088e-29
1.86689e-28
3.21911e-29
4.7042e-29
3.3757e-30
1.05854e-29
3.63926e-30
1.6326e-29
1.91284e-28
4.76129e-28
1.86251e-27
4.94583e-28
5.41481e-26
3.62581e-24
6.10226e-24
7.78408e-24
9.65143e-24
1.79636e-23
3.55078e-25
9.19816e-25
1.11868e-26
1.52684e-28
3.417e-28
3.84332e-28
1.33338e-28
4.63607e-28
1.212e-28
4.14493e-28
1.6272e-28
4.6294e-28
1.61782e-28
3.86464e-28
1.94154e-28
5.46931e-28
2.00338e-28
4.46031e-28
2.37827e-28
5.64146e-28
2.48516e-28
5.31563e-28
2.41574e-28
5.41814e-28
2.71694e-28
6.13218e-28
2.76639e-28
5.87948e-28
2.58695e-28
5.49173e-28
2.94242e-28
6.56492e-28
2.76096e-28
5.5325e-28
2.41413e-28
5.09022e-28
2.36638e-28
5.03002e-28
1.91084e-28
3.80895e-28
1.24891e-28
2.43505e-28
1.00427e-28
2.32035e-28
3.44796e-29
6.83641e-29
5.3561e-30
2.40475e-29
2.44592e-30
1.75129e-29
1.52031e-28
3.86297e-28
1.29947e-27
2.55947e-28
8.18594e-26
5.87777e-24
7.72227e-24
2.18881e-23
1.11895e-23
4.07538e-23
2.60053e-25
1.8589e-24
2.93567e-26
3.17941e-28
4.21401e-28
4.62252e-28
1.50407e-28
5.24121e-28
1.16847e-28
4.66216e-28
1.61128e-28
5.21302e-28
1.57227e-28
4.36687e-28
1.95834e-28
6.17909e-28
1.94802e-28
5.02998e-28
2.38876e-28
6.33583e-28
2.46309e-28
5.90564e-28
2.4223e-28
6.05039e-28
2.7611e-28
6.82516e-28
2.77583e-28
6.52628e-28
2.60913e-28
6.1546e-28
3.03668e-28
7.3405e-28
2.77993e-28
6.18318e-28
2.46071e-28
5.78792e-28
2.45522e-28
5.76859e-28
1.9679e-28
4.4524e-28
1.31811e-28
2.99478e-28
1.14977e-28
2.96499e-28
4.11097e-29
1.05616e-28
1.06582e-29
5.52046e-29
2.00823e-30
2.80195e-29
1.10661e-28
3.05728e-28
7.77958e-28
1.95627e-28
1.10953e-25
9.08099e-24
1.03434e-23
4.75739e-23
1.12381e-23
7.67274e-23
1.31791e-25
3.23388e-24
6.76184e-26
5.59793e-28
5.19246e-28
5.36528e-28
1.72601e-28
5.86956e-28
1.15897e-28
5.14767e-28
1.63504e-28
5.79005e-28
1.55688e-28
4.89366e-28
2.00737e-28
6.90401e-28
1.91246e-28
5.6357e-28
2.42015e-28
7.08551e-28
2.45067e-28
6.5529e-28
2.44774e-28
6.75312e-28
2.81425e-28
7.58709e-28
2.80619e-28
7.23781e-28
2.65777e-28
6.90186e-28
3.15677e-28
8.19743e-28
2.82869e-28
6.91693e-28
2.55354e-28
6.60212e-28
2.58901e-28
6.6475e-28
2.08585e-28
5.25617e-28
1.45226e-28
3.75542e-28
1.38785e-28
3.89552e-28
5.48361e-29
1.71695e-28
2.41984e-29
1.2617e-28
5.29873e-30
7.58229e-29
8.99667e-29
3.06668e-28
5.15939e-28
8.34354e-28
1.41986e-25
1.33916e-23
1.44415e-23
8.5396e-23
1.07822e-23
1.2775e-22
4.38306e-26
5.06153e-24
1.42532e-25
9.14869e-28
6.49922e-28
5.90366e-28
1.96259e-28
6.58192e-28
1.16026e-28
5.63735e-28
1.69139e-28
6.36774e-28
1.56196e-28
5.45104e-28
2.09793e-28
7.63357e-28
1.89452e-28
6.27159e-28
2.48768e-28
7.86917e-28
2.44678e-28
7.2547e-28
2.49132e-28
7.52197e-28
2.89739e-28
8.40552e-28
2.84494e-28
8.03205e-28
2.72939e-28
7.74578e-28
3.32092e-28
9.14015e-28
2.89879e-28
7.76009e-28
2.69355e-28
7.55725e-28
2.79748e-28
7.6961e-28
2.26866e-28
6.29117e-28
1.67663e-28
4.8086e-28
1.78513e-28
5.26009e-28
8.14158e-29
2.89485e-28
5.82464e-29
2.81852e-28
2.63668e-29
2.37373e-28
1.41764e-28
5.72729e-28
9.05641e-28
4.51596e-27
1.65295e-25
1.89957e-23
2.26898e-23
1.34944e-22
1.02136e-23
1.93731e-22
2.5495e-26
7.24455e-24
2.76446e-25
1.4637e-27
8.35271e-28
6.18075e-28
2.20814e-28
7.41399e-28
1.16461e-28
6.1559e-28
1.76811e-28
6.9636e-28
1.59044e-28
6.03309e-28
2.21348e-28
8.36904e-28
1.89758e-28
6.93276e-28
2.5799e-28
8.68189e-28
2.46446e-28
7.99992e-28
2.56238e-28
8.35087e-28
2.99315e-28
9.29224e-28
2.90952e-28
8.89994e-28
2.83238e-28
8.68857e-28
3.51164e-28
1.01936e-27
3.00683e-28
8.73328e-28
2.89475e-28
8.69367e-28
3.07655e-28
8.98807e-28
2.55295e-28
7.63333e-28
2.0337e-28
6.28617e-28
2.41088e-28
7.30727e-28
1.32734e-28
4.98935e-28
1.39789e-28
6.11105e-28
1.16198e-28
6.96032e-28
4.43679e-28
1.6823e-27
3.33656e-27
1.76878e-26
1.8498e-25
2.61826e-23
3.72002e-23
1.92523e-22
1.14925e-23
2.74431e-22
8.43886e-26
9.69743e-24
4.97044e-25
2.42807e-27
1.12909e-27
6.04137e-28
2.46024e-28
8.37379e-28
1.17057e-28
6.70437e-28
1.86658e-28
7.58049e-28
1.63153e-28
6.65995e-28
2.35786e-28
9.11116e-28
1.91519e-28
7.62856e-28
2.70613e-28
9.51133e-28
2.49951e-28
8.79635e-28
2.65823e-28
9.24453e-28
3.1235e-28
1.0229e-27
2.99407e-28
9.86309e-28
2.96704e-28
9.75459e-28
3.75297e-28
1.13626e-27
3.15458e-28
9.87794e-28
3.16762e-28
1.00638e-27
3.47042e-28
1.058e-27
2.96386e-28
9.41588e-28
2.58164e-28
8.39088e-28
3.41478e-28
1.03922e-27
2.30357e-28
8.65934e-28
3.26039e-28
1.27155e-27
4.09846e-28
1.882e-27
1.51643e-27
5.09974e-27
1.16001e-26
5.17933e-26
1.93572e-25
3.57246e-23
6.52831e-23
2.54091e-22
1.47535e-23
3.68744e-22
3.96085e-25
1.23663e-23
8.36893e-25
4.45776e-27
1.49721e-27
5.48773e-28
2.70203e-28
9.54786e-28
1.16371e-28
7.32331e-28
1.96561e-28
8.26449e-28
1.67859e-28
7.34358e-28
2.50808e-28
9.88814e-28
1.94043e-28
8.36852e-28
2.84667e-28
1.03783e-27
2.55197e-28
9.65246e-28
2.78103e-28
1.02046e-27
3.2623e-28
1.12394e-27
3.11464e-28
1.09194e-27
3.14064e-28
1.09427e-27
4.03145e-28
1.26828e-27
3.3592e-28
1.12289e-27
3.53381e-28
1.17265e-27
3.98023e-28
1.25834e-27
3.56507e-28
1.17787e-27
3.41006e-28
1.13783e-27
4.98651e-28
1.50822e-27
4.14048e-28
1.49255e-27
7.19745e-28
2.52166e-27
1.19177e-27
4.55489e-27
4.4714e-27
1.35461e-26
3.24826e-26
1.21464e-25
2.07085e-25
4.91868e-23
1.10791e-22
3.13948e-22
2.42751e-23
4.75508e-22
1.07211e-24
1.51396e-23
1.30821e-24
8.94918e-27
1.96391e-27
4.45662e-28
2.93322e-28
1.09703e-27
1.14028e-28
8.01789e-28
2.06783e-28
9.02197e-28
1.71644e-28
8.10593e-28
2.67497e-28
1.06984e-27
1.96521e-28
9.17428e-28
3.01327e-28
1.1282e-27
2.60946e-28
1.05962e-27
2.92004e-28
1.12361e-27
3.4387e-28
1.23185e-27
3.25332e-28
1.21114e-27
3.3484e-28
1.22751e-27
4.38665e-28
1.41629e-27
3.61849e-28
1.28513e-27
4.0057e-28
1.37445e-27
4.67549e-28
1.50961e-27
4.39216e-28
1.49456e-27
4.62707e-28
1.55862e-27
7.44683e-28
2.19926e-27
7.27439e-28
2.54398e-27
1.49019e-27
4.77681e-27
2.94184e-27
9.94187e-27
1.11747e-26
3.11898e-26
7.53757e-26
2.42756e-25
2.15499e-25
6.77313e-23
1.87882e-22
3.62089e-22
4.21577e-23
5.98062e-22
2.256e-24
1.84128e-23
1.9163e-24
1.849e-26
2.54295e-27
3.10807e-28
3.1771e-28
1.26382e-27
1.10738e-28
8.77442e-28
2.17306e-28
9.8404e-28
1.76203e-28
8.9321e-28
2.83568e-28
1.15617e-27
1.99631e-28
1.00499e-27
3.18233e-28
1.22458e-27
2.68224e-28
1.16208e-27
3.08195e-28
1.23499e-27
3.62344e-28
1.35059e-27
3.42673e-28
1.34287e-27
3.60532e-28
1.37691e-27
4.78951e-28
1.58634e-27
3.95895e-28
1.47739e-27
4.6172e-28
1.61954e-27
5.56858e-28
1.82695e-27
5.54426e-28
1.91043e-27
6.41005e-28
2.14336e-27
1.11477e-27
3.19298e-27
1.23592e-27
4.23727e-27
2.88842e-27
8.60095e-27
6.40884e-27
1.96747e-26
2.4276e-26
6.32614e-26
1.51902e-25
4.31637e-25
2.28384e-25
9.30533e-23
3.02625e-22
3.94126e-22
7.96137e-23
7.23126e-22
3.83501e-24
2.24724e-23
2.60728e-24
3.64726e-26
3.35459e-27
1.65032e-28
3.5337e-28
1.43627e-27
1.08776e-28
9.51643e-28
2.31139e-28
1.06643e-27
1.81794e-28
9.81028e-28
3.01484e-28
1.24432e-27
2.03414e-28
1.099e-27
3.3756e-28
1.32431e-27
2.76852e-28
1.27387e-27
3.26135e-28
1.35538e-27
3.84364e-28
1.47872e-27
3.62599e-28
1.49149e-27
3.9056e-28
1.54612e-27
5.27564e-28
1.77928e-27
4.38292e-28
1.70723e-27
5.38576e-28
1.91681e-27
6.74133e-28
2.22292e-27
7.09783e-28
2.45903e-27
8.96246e-28
2.95364e-27
1.67021e-27
4.6089e-27
2.07814e-27
6.7995e-27
5.25668e-27
1.46791e-26
1.25077e-26
3.57344e-26
4.6578e-26
1.14855e-25
2.69224e-25
6.86706e-25
2.50283e-25
1.28786e-22
4.84207e-22
4.08117e-22
1.41041e-22
8.69339e-22
5.8588e-24
2.83056e-23
3.35444e-24
7.37365e-26
3.78545e-27
6.57285e-29
3.85249e-28
1.64525e-27
1.04201e-28
1.0355e-27
2.44979e-28
1.15559e-27
1.88313e-28
1.07479e-27
3.18555e-28
1.33834e-27
2.07781e-28
1.20049e-27
3.56771e-28
1.43029e-27
2.87279e-28
1.39421e-27
3.46864e-28
1.48541e-27
4.0674e-28
1.61987e-27
3.87504e-28
1.65552e-27
4.26381e-28
1.7357e-27
5.8189e-28
2.00157e-27
4.9173e-28
1.97819e-27
6.35327e-28
2.27509e-27
8.20503e-28
2.71487e-27
9.20961e-28
3.16245e-27
1.25388e-27
4.02802e-27
2.44273e-27
6.58333e-27
3.40177e-27
1.04771e-26
8.99109e-27
2.36942e-26
2.22701e-26
5.97454e-26
8.0481e-26
1.88531e-25
4.29329e-25
9.89352e-25
3.20909e-25
1.79734e-22
7.28255e-22
4.08245e-22
2.47945e-22
1.0445e-21
7.44739e-24
3.61216e-23
4.03185e-24
1.43989e-25
3.7856e-27
1.72747e-29
4.27462e-28
1.87734e-27
9.77694e-29
1.12821e-27
2.59757e-28
1.25141e-27
1.93887e-28
1.17583e-27
3.37765e-28
1.43465e-27
2.12158e-28
1.30942e-27
3.78789e-28
1.54004e-27
2.98228e-28
1.52631e-27
3.69141e-28
1.62408e-27
4.33921e-28
1.77186e-27
4.14982e-28
1.84114e-27
4.66484e-28
1.94696e-27
6.48527e-28
2.25135e-27
5.55306e-28
2.30013e-27
7.52563e-28
2.70186e-27
1.00703e-27
3.31553e-27
1.19189e-27
4.05508e-27
1.72417e-27
5.41138e-27
3.47551e-27
9.22147e-27
5.27866e-27
1.55856e-26
1.44017e-26
3.62332e-26
3.63476e-26
9.30272e-26
1.26709e-25
2.84638e-25
6.27868e-25
1.3229e-24
4.42441e-25
2.48037e-22
1.05936e-21
3.82572e-22
4.12012e-22
1.26597e-21
8.40735e-24
4.78675e-23
4.53706e-24
2.60018e-25
3.41358e-27
7.79595e-30
4.96365e-28
2.1146e-27
9.02567e-29
1.23162e-27
2.74505e-28
1.35348e-27
2.00498e-28
1.28284e-27
3.55669e-28
1.53787e-27
2.17413e-28
1.42666e-27
4.00377e-28
1.65813e-27
3.1128e-28
1.66807e-27
3.93959e-28
1.7723e-27
4.62596e-28
1.93902e-27
4.46978e-28
2.04407e-27
5.13504e-28
2.18046e-27
7.2287e-28
2.53631e-27
6.32858e-28
2.67124e-27
8.95378e-28
3.20212e-27
1.2348e-27
4.03761e-27
1.53745e-27
5.1452e-27
2.33646e-27
7.16943e-27
4.854e-27
1.25543e-26
7.83742e-27
2.22213e-26
2.16305e-26
5.2012e-26
5.50528e-26
1.34106e-25
1.84281e-25
3.96731e-25
8.53037e-25
1.65817e-24
6.61798e-25
3.369e-22
1.47685e-21
3.46882e-22
6.59695e-22
1.51677e-21
8.40787e-24
6.40782e-23
4.72601e-24
4.28965e-25
2.73448e-27
3.65025e-29
6.28216e-28
2.31098e-27
8.45191e-29
1.33322e-27
2.93997e-28
1.45057e-27
2.09075e-28
1.39154e-27
3.76577e-28
1.63937e-27
2.2405e-28
1.54905e-27
4.25029e-28
1.77788e-27
3.26549e-28
1.81962e-27
4.2076e-28
1.92852e-27
4.96242e-28
2.11624e-27
4.82663e-28
2.26747e-27
5.65993e-28
2.43816e-27
8.09932e-28
2.85184e-27
7.23922e-28
3.09525e-27
1.06354e-27
3.77774e-27
1.51047e-27
4.88185e-27
1.95684e-27
6.46367e-27
3.10311e-27
9.32219e-27
6.62108e-27
1.65765e-26
1.108e-26
3.03879e-26
3.05217e-26
7.06181e-26
7.71813e-26
1.80456e-25
2.47881e-25
5.14088e-25
1.08006e-24
1.95584e-24
1.00928e-24
4.48035e-22
1.99484e-21
2.97807e-22
9.80162e-22
1.81594e-21
7.81246e-24
8.71039e-23
4.58612e-24
6.65097e-25
1.67481e-27
1.31726e-28
8.28772e-28
2.48998e-27
7.75472e-29
1.45026e-27
3.13779e-28
1.55142e-27
2.20244e-28
1.50414e-27
3.96402e-28
1.74608e-27
2.32419e-28
1.67822e-27
4.49189e-28
1.90329e-27
3.45018e-28
1.97815e-27
4.51212e-28
2.09329e-27
5.30796e-28
2.3056e-27
5.25612e-28
2.50483e-27
6.26616e-28
2.71796e-27
9.03323e-28
3.19939e-27
8.30275e-28
3.56736e-27
1.26028e-27
4.42566e-27
1.82722e-27
5.84222e-27
2.46414e-27
7.97779e-27
4.03697e-27
1.17912e-26
8.6973e-27
2.12107e-26
1.49577e-26
3.97046e-26
4.08194e-26
9.11739e-26
1.01238e-25
2.27944e-25
3.09785e-25
6.20743e-25
1.28118e-24
2.17392e-24
1.59997e-24
5.83109e-22
2.55604e-21
2.48493e-22
1.4009e-21
2.13389e-21
6.61897e-24
1.16158e-22
4.05699e-24
9.57091e-25
7.93466e-28
3.04723e-28
1.15435e-27
2.62e-27
7.00938e-29
1.58638e-27
3.32501e-28
1.66091e-27
2.30419e-28
1.62336e-27
4.1708e-28
1.8542e-27
2.40879e-28
1.81335e-27
4.75103e-28
2.03162e-27
3.64369e-28
2.14716e-27
4.82734e-28
2.26343e-27
5.70054e-28
2.50222e-27
5.71948e-28
2.75957e-27
6.9182e-28
3.01286e-27
1.009e-27
3.5667e-27
9.47034e-28
4.09135e-27
1.47908e-27
5.13708e-27
2.18981e-27
6.90218e-27
3.04142e-27
9.66532e-27
5.08925e-27
1.45057e-26
1.1002e-26
2.62131e-26
1.91505e-26
4.95642e-26
5.14488e-26
1.1182e-25
1.23971e-25
2.71383e-25
3.59897e-25
7.01831e-25
1.42299e-24
2.27716e-24
2.47643e-24
7.39686e-22
3.15581e-21
1.97684e-22
1.90647e-21
2.48639e-21
5.41597e-24
1.50857e-22
3.26578e-24
1.28317e-24
4.05353e-28
5.16229e-28
1.63843e-27
2.71412e-27
6.1128e-29
1.75539e-27
3.45513e-28
1.78557e-27
2.38689e-28
1.74978e-27
4.3508e-28
1.97055e-27
2.49413e-28
1.95408e-27
5.00351e-28
2.16697e-27
3.84413e-28
2.3217e-27
5.14904e-28
2.43611e-27
6.11401e-28
2.70682e-27
6.20927e-28
3.02256e-27
7.62117e-28
3.31453e-27
1.12527e-27
3.95561e-27
1.07636e-27
4.64008e-27
1.71836e-27
5.88226e-27
2.5861e-27
8.01984e-27
3.66755e-27
1.14277e-26
6.21127e-27
1.72773e-26
1.33656e-26
3.11477e-26
2.32468e-26
5.87459e-26
6.08926e-26
1.28917e-25
1.41473e-25
3.00695e-25
3.87749e-25
7.34221e-25
1.47136e-24
2.22445e-24
3.72611e-24
9.08176e-22
3.72782e-21
1.62789e-22
2.46793e-21
2.84232e-21
4.66855e-24
1.8817e-22
2.35225e-24
1.596e-24
6.72484e-28
7.84868e-28
2.44811e-27
2.67987e-27
5.6213e-29
1.90634e-27
3.64952e-28
1.8857e-27
2.48496e-28
1.8586e-27
4.57705e-28
2.07313e-27
2.59123e-28
2.08222e-27
5.29704e-28
2.28948e-27
4.06133e-28
2.48553e-27
5.46958e-28
2.59817e-27
6.55578e-28
2.90321e-27
6.70112e-28
3.28174e-27
8.31259e-28
3.61116e-27
1.24871e-27
4.34039e-27
1.20741e-27
5.1867e-27
1.95687e-27
6.62031e-27
2.98374e-27
9.12403e-27
4.26917e-27
1.31587e-26
7.24605e-27
1.98837e-26
1.54548e-26
3.5477e-26
2.64674e-26
6.60265e-26
6.71191e-26
1.39446e-25
1.48363e-25
3.0884e-25
3.80421e-25
7.04576e-25
1.39535e-24
2.02332e-24
5.35776e-24
1.07097e-21
4.20633e-21
1.48978e-22
3.14021e-21
3.24557e-21
4.95326e-24
2.29201e-22
1.51358e-24
1.86673e-24
2.03164e-27
1.20907e-27
3.94208e-27
2.44229e-27
5.97917e-29
1.98034e-27
4.0477e-28
1.90949e-27
2.70391e-28
1.9181e-27
4.87266e-28
2.14548e-27
2.77079e-28
2.17031e-27
5.6525e-28
2.3851e-27
4.37723e-28
2.61491e-27
5.8679e-28
2.73615e-27
6.98497e-28
3.08588e-27
7.2521e-28
3.51667e-27
9.03556e-28
3.8835e-27
1.35394e-27
4.71178e-27
1.33812e-27
5.70219e-27
2.18159e-27
7.32777e-27
3.3214e-27
1.01818e-26
4.78215e-27
1.47435e-26
8.04833e-27
2.21253e-26
1.6752e-26
3.89251e-26
2.80897e-26
7.05562e-26
6.84447e-26
1.41981e-25
1.42391e-25
2.94648e-25
3.38748e-25
6.28244e-25
1.22651e-24
1.79464e-24
7.05504e-24
1.21249e-21
4.64037e-21
1.72493e-22
3.80258e-21
3.76518e-21
6.12466e-24
2.79468e-22
8.85872e-25
2.2127e-24
6.59008e-27
1.60008e-27
6.46456e-27
2.23919e-27
6.16286e-29
2.16928e-27
4.53534e-28
2.00906e-27
3.04297e-28
2.03981e-27
5.44846e-28
2.28001e-27
3.02449e-28
2.3317e-27
6.29852e-28
2.54208e-27
4.83662e-28
2.81163e-27
6.51109e-28
2.93552e-27
7.79393e-28
3.33172e-27
8.10298e-28
3.82738e-27
1.01123e-27
4.23172e-27
1.5316e-27
5.15082e-27
1.5172e-27
6.30147e-27
2.4896e-27
8.10446e-27
3.78725e-27
1.12794e-26
5.40731e-27
1.6322e-26
8.9597e-27
2.41106e-26
1.82496e-26
4.13926e-26
2.93227e-26
7.24675e-26
6.82601e-26
1.37279e-25
1.30801e-25
2.66005e-25
2.88442e-25
5.32382e-25
1.05006e-24
1.5694e-24
9.15571e-24
1.36495e-21
4.97532e-21
2.55089e-22
4.51638e-27
2.92177e-28
1.23042e-28
1.97562e-27
3.86063e-28
6.12269e-32
1.34519e-28
4.22978e-29
8.76025e-29
6.70577e-29
8.10062e-29
7.02344e-29
9.01464e-29
8.58142e-29
8.46265e-29
7.503e-29
9.97644e-29
1.0901e-28
9.55803e-29
9.84107e-29
1.10082e-28
1.23785e-28
1.1288e-28
1.21843e-28
1.11526e-28
1.22458e-28
1.24391e-28
1.38846e-28
1.24374e-28
1.38635e-28
1.16217e-28
1.28182e-28
1.32833e-28
1.50171e-28
1.24643e-28
1.32381e-28
1.10603e-28
1.18826e-28
1.0788e-28
1.16052e-28
8.61412e-29
8.94473e-29
5.65395e-29
5.32643e-29
4.43465e-29
4.43165e-29
1.57891e-29
1.03352e-29
1.76204e-30
6.54848e-31
1.16719e-30
7.30725e-30
7.11065e-29
1.95699e-28
9.88433e-28
2.60214e-28
5.92914e-27
3.52893e-25
5.00069e-25
2.01993e-26
4.3177e-25
1.46195e-26
1.40524e-26
2.0819e-26
2.43334e-28
7.22424e-30
2.39676e-28
1.19483e-28
1.09096e-28
2.32604e-28
1.03758e-28
2.15786e-28
1.29037e-28
2.44703e-28
1.36131e-28
1.94611e-28
1.59427e-28
2.8362e-28
1.69373e-28
2.31619e-28
1.92251e-28
3.00032e-28
2.02867e-28
2.82994e-28
2.01985e-28
2.79214e-28
2.2497e-28
3.19836e-28
2.29258e-28
3.0996e-28
2.17181e-28
2.7878e-28
2.40321e-28
3.38214e-28
2.33192e-28
2.83959e-28
2.05284e-28
2.5052e-28
1.97221e-28
2.45863e-28
1.60485e-28
1.79961e-28
1.07637e-28
1.00128e-28
7.55208e-29
9.16406e-29
2.81879e-29
1.66646e-29
2.58125e-30
7.8409e-31
2.38485e-30
2.3861e-29
1.38368e-28
5.63098e-28
1.82073e-27
1.24798e-27
7.56993e-27
8.66883e-25
3.07871e-24
1.74088e-26
9.67321e-25
1.29977e-25
6.7156e-26
2.39217e-26
1.08815e-27
1.01014e-29
2.76709e-28
2.17547e-28
1.36753e-28
3.31057e-28
1.51679e-28
2.98376e-28
1.88166e-28
3.35088e-28
1.89997e-28
2.84657e-28
2.24383e-28
3.97723e-28
2.34379e-28
3.4198e-28
2.63663e-28
4.32529e-28
2.75229e-28
4.16641e-28
2.71359e-28
4.18184e-28
3.03079e-28
4.69789e-28
3.0817e-28
4.5926e-28
2.88613e-28
4.26004e-28
3.21236e-28
4.96324e-28
3.1139e-28
4.24595e-28
2.71755e-28
3.80752e-28
2.61736e-28
3.66493e-28
2.11228e-28
2.74605e-28
1.36423e-28
1.63e-28
9.81518e-29
1.38743e-28
3.44892e-29
2.95607e-29
2.54733e-30
2.51187e-30
5.5143e-30
2.03021e-29
2.43138e-28
6.24663e-28
2.73175e-27
9.95727e-28
2.6868e-26
1.43714e-24
3.17172e-24
2.6253e-25
3.60178e-24
1.2829e-24
2.29957e-25
1.08821e-25
1.31831e-27
2.1165e-29
2.63124e-28
2.60965e-28
1.30225e-28
3.55453e-28
1.46851e-28
3.19198e-28
1.81982e-28
3.59256e-28
1.83051e-28
3.06139e-28
2.13752e-28
4.287e-28
2.23816e-28
3.67172e-28
2.5157e-28
4.6521e-28
2.62816e-28
4.47563e-28
2.58699e-28
4.50971e-28
2.87691e-28
5.08384e-28
2.93129e-28
4.94616e-28
2.75448e-28
4.60262e-28
3.04756e-28
5.38866e-28
2.95844e-28
4.58562e-28
2.5882e-28
4.13511e-28
2.48679e-28
4.00563e-28
2.01363e-28
2.99808e-28
1.30483e-28
1.81319e-28
9.51909e-29
1.56529e-28
3.32919e-29
3.55908e-29
2.70683e-30
4.79413e-30
4.72334e-30
1.82689e-29
2.22637e-28
5.44888e-28
2.38701e-27
7.77995e-28
3.55914e-26
2.20912e-24
4.63545e-24
1.81602e-24
7.01272e-24
6.08029e-24
3.53924e-25
3.71342e-25
3.64934e-27
5.84982e-29
2.82384e-28
3.20464e-28
1.24385e-28
4.05576e-28
1.31415e-28
3.60825e-28
1.69298e-28
4.04458e-28
1.71033e-28
3.40903e-28
2.01442e-28
4.75578e-28
2.10876e-28
3.9913e-28
2.40903e-28
5.07142e-28
2.50408e-28
4.84528e-28
2.46718e-28
4.88718e-28
2.76289e-28
5.52029e-28
2.79478e-28
5.35774e-28
2.63171e-28
4.97478e-28
2.93634e-28
5.88857e-28
2.81287e-28
4.97996e-28
2.46923e-28
4.51937e-28
2.39222e-28
4.41816e-28
1.92219e-28
3.33212e-28
1.2521e-28
2.05854e-28
9.45734e-29
1.84709e-28
3.27144e-29
4.69355e-29
3.40467e-30
1.03694e-29
3.55578e-30
1.62198e-29
1.91379e-28
4.61859e-28
1.89912e-27
5.01585e-28
5.37258e-26
3.63954e-24
6.21996e-24
7.78852e-24
9.70623e-24
1.79757e-23
3.55436e-25
9.15323e-25
1.09881e-26
1.49086e-28
3.36062e-28
3.93019e-28
1.32187e-28
4.6689e-28
1.21203e-28
4.13605e-28
1.6226e-28
4.61808e-28
1.63538e-28
3.86918e-28
1.97577e-28
5.38284e-28
2.03809e-28
4.45844e-28
2.38831e-28
5.6587e-28
2.46265e-28
5.36357e-28
2.43523e-28
5.42612e-28
2.75267e-28
6.1248e-28
2.76423e-28
5.9273e-28
2.6014e-28
5.52023e-28
2.95436e-28
6.57378e-28
2.77578e-28
5.54252e-28
2.45081e-28
5.087e-28
2.40378e-28
5.01948e-28
1.92125e-28
3.83222e-28
1.262e-28
2.45323e-28
1.01025e-28
2.29476e-28
3.5231e-29
6.8105e-29
5.44656e-30
2.35866e-29
2.30289e-30
1.75882e-29
1.50256e-28
3.78668e-28
1.32522e-27
2.56365e-28
8.1643e-26
5.89897e-24
7.86991e-24
2.19131e-23
1.12592e-23
4.08185e-23
2.60999e-25
1.85249e-24
2.90075e-26
3.11304e-28
4.15914e-28
4.70717e-28
1.50219e-28
5.27968e-28
1.17103e-28
4.65394e-28
1.60954e-28
5.21058e-28
1.59263e-28
4.3843e-28
1.99209e-28
6.07621e-28
1.99803e-28
5.01239e-28
2.41379e-28
6.33146e-28
2.45394e-28
5.96543e-28
2.44351e-28
6.07358e-28
2.79802e-28
6.81079e-28
2.77975e-28
6.58928e-28
2.62042e-28
6.19783e-28
3.04291e-28
7.36165e-28
2.79323e-28
6.21255e-28
2.49322e-28
5.79795e-28
2.49167e-28
5.75363e-28
1.98173e-28
4.48234e-28
1.3298e-28
3.02034e-28
1.15204e-28
2.93844e-28
4.21402e-29
1.05326e-28
1.08698e-29
5.43615e-29
1.89507e-30
2.87294e-29
1.08212e-28
3.05626e-28
7.95801e-28
1.90502e-28
1.10966e-25
9.1213e-24
1.05419e-23
4.76853e-23
1.12979e-23
7.68759e-23
1.32207e-25
3.22574e-24
6.68972e-26
5.49882e-28
5.1573e-28
5.42075e-28
1.73805e-28
5.9206e-28
1.16071e-28
5.15099e-28
1.632e-28
5.80664e-28
1.57517e-28
4.93398e-28
2.03446e-28
6.80161e-28
1.97166e-28
5.60673e-28
2.45884e-28
7.05739e-28
2.45808e-28
6.61651e-28
2.47363e-28
6.78711e-28
2.85393e-28
7.56118e-28
2.82008e-28
7.30733e-28
2.66838e-28
6.95614e-28
3.1616e-28
8.23129e-28
2.84266e-28
6.96523e-28
2.58168e-28
6.62978e-28
2.62343e-28
6.63301e-28
2.10285e-28
5.29404e-28
1.46219e-28
3.79173e-28
1.38728e-28
3.87473e-28
5.61939e-29
1.71676e-28
2.46183e-29
1.24752e-28
5.37155e-30
7.71131e-29
8.77434e-29
3.13151e-28
5.2468e-28
8.21191e-28
1.42546e-25
1.34574e-23
1.46737e-23
8.56293e-23
1.08442e-23
1.28068e-22
4.33432e-26
5.05394e-24
1.4107e-25
9.01557e-28
6.51745e-28
5.88562e-28
1.9979e-28
6.63918e-28
1.16087e-28
5.65736e-28
1.68394e-28
6.41236e-28
1.57423e-28
5.52053e-28
2.11117e-28
7.55142e-28
1.95563e-28
6.2408e-28
2.53469e-28
7.82183e-28
2.47005e-28
7.31882e-28
2.5223e-28
7.56339e-28
2.93941e-28
8.3647e-28
2.87159e-28
8.09879e-28
2.74228e-28
7.80485e-28
3.32721e-28
9.18426e-28
2.91633e-28
7.82402e-28
2.71864e-28
7.60341e-28
2.82935e-28
7.68481e-28
2.28925e-28
6.33696e-28
1.68488e-28
4.85843e-28
1.78094e-28
5.25146e-28
8.321e-29
2.90091e-28
5.89601e-29
2.7976e-28
2.71702e-29
2.38888e-28
1.40441e-28
5.85503e-28
9.08544e-28
4.49869e-27
1.6626e-25
1.90838e-23
2.29934e-23
1.35389e-22
1.02839e-23
1.94321e-22
2.37568e-26
7.2388e-24
2.73566e-25
1.44238e-27
8.47105e-28
6.10364e-28
2.27253e-28
7.46004e-28
1.1674e-28
6.18797e-28
1.75708e-28
7.0373e-28
1.59586e-28
6.13543e-28
2.2093e-28
8.32505e-28
1.9556e-28
6.9137e-28
2.62941e-28
8.62455e-28
2.50099e-28
8.06395e-28
2.59794e-28
8.39993e-28
3.03657e-28
9.23764e-28
2.94963e-28
8.95776e-28
2.85024e-28
8.74983e-28
3.52192e-28
1.02455e-27
3.03072e-28
8.80771e-28
2.9194e-28
8.75843e-28
3.10661e-28
8.98109e-28
2.57843e-28
7.68596e-28
2.04147e-28
6.3545e-28
2.40187e-28
7.31719e-28
1.3518e-28
5.00607e-28
1.40898e-28
6.08473e-28
1.19202e-28
6.99461e-28
4.45091e-28
1.70367e-27
3.33754e-27
1.77571e-26
1.86301e-25
2.62842e-23
3.76044e-23
1.93212e-22
1.16417e-23
2.75498e-22
7.81571e-26
9.697e-24
4.92092e-25
2.38576e-27
1.1587e-27
5.9533e-28
2.55542e-28
8.38539e-28
1.18066e-28
6.73454e-28
1.85649e-28
7.67473e-28
1.63219e-28
6.79168e-28
2.33663e-28
9.11382e-28
1.96656e-28
7.62613e-28
2.75437e-28
9.45287e-28
2.54612e-28
8.86155e-28
2.6969e-28
9.30157e-28
3.16633e-28
1.0165e-27
3.04624e-28
9.91032e-28
2.99085e-28
9.81672e-28
3.76889e-28
1.14202e-27
3.18628e-28
9.95848e-28
3.19418e-28
1.0145e-27
3.49953e-28
1.05775e-27
2.99517e-28
9.47527e-28
2.58995e-28
8.48319e-28
3.39953e-28
1.04295e-27
2.33839e-28
8.69605e-28
3.27701e-28
1.26909e-27
4.17412e-28
1.88795e-27
1.5267e-27
5.13535e-27
1.16218e-26
5.21437e-26
1.94819e-25
3.58455e-23
6.59971e-23
2.55178e-22
1.49459e-23
3.70383e-22
3.80144e-25
1.23722e-23
8.29874e-25
4.36949e-27
1.54584e-27
5.38388e-28
2.83151e-28
9.50751e-28
1.18346e-28
7.34318e-28
1.95929e-28
8.37345e-28
1.67529e-28
7.50289e-28
2.47085e-28
9.94398e-28
1.98119e-28
8.38731e-28
2.8906e-28
1.03299e-27
2.60472e-28
9.72145e-28
2.82099e-28
1.02724e-27
3.30247e-28
1.11733e-27
3.17647e-28
1.09559e-27
3.17083e-28
1.10052e-27
4.05541e-28
1.27452e-27
3.39944e-28
1.13106e-27
3.56479e-28
1.18218e-27
4.00983e-28
1.25848e-27
3.60403e-28
1.18423e-27
3.42151e-28
1.15e-27
4.96679e-28
1.51629e-27
4.1975e-28
1.49912e-27
7.22446e-28
2.5203e-27
1.20788e-27
4.56498e-27
4.50414e-27
1.36052e-26
3.25975e-26
1.224e-25
2.08831e-25
4.93779e-23
1.1176e-22
3.15493e-22
2.46168e-23
4.77788e-22
1.04024e-24
1.51431e-23
1.29968e-24
8.75907e-27
2.04335e-27
4.31571e-28
3.10585e-28
1.08463e-27
1.17333e-28
8.01249e-28
2.07054e-28
9.13281e-28
1.7128e-28
8.28472e-28
2.62545e-28
1.08045e-27
1.99586e-28
9.22483e-28
3.04932e-28
1.12522e-27
2.66526e-28
1.06712e-27
2.96008e-28
1.13163e-27
3.47425e-28
1.22579e-27
3.32163e-28
1.21404e-27
3.38486e-28
1.2339e-27
4.41971e-28
1.42294e-27
3.66696e-28
1.29317e-27
4.04333e-28
1.3851e-27
4.70689e-28
1.51023e-27
4.44007e-28
1.5015e-27
4.6455e-28
1.57436e-27
7.42423e-28
2.21298e-27
7.3526e-28
2.55597e-27
1.49439e-27
4.78122e-27
2.97193e-27
9.96584e-27
1.12511e-26
3.13048e-26
7.57027e-26
2.44564e-25
2.17363e-25
6.79782e-23
1.89386e-22
3.64007e-22
4.27708e-23
6.01463e-22
2.19662e-24
1.84127e-23
1.90684e-24
1.8162e-26
2.6516e-27
2.97072e-28
3.38797e-28
1.24159e-27
1.1546e-28
8.73264e-28
2.18823e-28
9.94213e-28
1.76136e-28
9.12267e-28
2.77676e-28
1.17133e-27
2.01818e-28
1.01392e-27
3.2073e-28
1.22403e-27
2.73881e-28
1.17026e-27
3.12163e-28
1.24425e-27
3.65386e-28
1.34552e-27
3.49994e-28
1.34528e-27
3.64857e-28
1.38364e-27
4.82959e-28
1.59349e-27
4.01593e-28
1.48499e-27
4.66406e-28
1.63106e-27
5.60356e-28
1.82801e-27
5.60538e-28
1.91778e-27
6.44255e-28
2.16316e-27
1.11202e-27
3.21288e-27
1.24394e-27
4.25859e-27
2.89623e-27
8.61792e-27
6.46496e-27
1.97288e-26
2.44411e-26
6.35e-26
1.52732e-25
4.35211e-25
2.29798e-25
9.33163e-23
3.04914e-22
3.96391e-22
8.09773e-23
7.27629e-22
3.738e-24
2.24544e-23
2.59744e-24
3.60401e-26
3.48391e-27
1.56226e-28
3.78225e-28
1.40411e-27
1.14903e-28
9.42984e-28
2.34278e-28
1.0747e-27
1.82264e-28
1.00054e-27
2.95137e-28
1.26311e-27
2.04851e-28
1.11151e-27
3.38983e-28
1.3265e-27
2.82391e-28
1.28316e-27
3.29996e-28
1.36587e-27
3.86962e-28
1.47496e-27
3.70264e-28
1.49381e-27
3.95563e-28
1.55339e-27
5.32363e-28
1.78692e-27
4.44782e-28
1.71441e-27
5.44436e-28
1.929e-27
6.78314e-28
2.22458e-27
7.1757e-28
2.46724e-27
9.01645e-28
2.97856e-27
1.66742e-27
4.63883e-27
2.08979e-27
6.83396e-27
5.27222e-27
1.47211e-26
1.2604e-26
3.58544e-26
4.68829e-26
1.15323e-25
2.70749e-25
6.92153e-25
2.50919e-25
1.29107e-22
4.88341e-22
4.10872e-22
1.42948e-22
8.75073e-22
5.74753e-24
2.82788e-23
3.34951e-24
7.31679e-26
3.91979e-27
6.18699e-29
4.13055e-28
1.60399e-27
1.11288e-28
1.02247e-27
2.49707e-28
1.16181e-27
1.89325e-28
1.09454e-27
3.11857e-28
1.36046e-27
2.08487e-28
1.21661e-27
3.56909e-28
1.4359e-27
2.92452e-28
1.4049e-27
3.50446e-28
1.49752e-27
4.08713e-28
1.618e-27
3.95321e-28
1.65825e-27
4.32013e-28
1.74339e-27
5.87495e-28
2.00955e-27
4.99077e-28
1.98483e-27
6.42662e-28
2.28779e-27
8.25641e-28
2.71715e-27
9.31122e-28
3.17156e-27
1.26287e-27
4.05866e-27
2.44145e-27
6.62599e-27
3.42352e-27
1.05302e-26