/*--------------------------------*- C++ -*----------------------------------*\
| =========                 |                                                 |
| \\      /  F ield         | OpenFOAM: The Open Source CFD Toolbox           |
|  \\    /   O peration     | Version:  2312                                  |
|   \\  /    A nd           | Website:  www.openfoam.com                      |
|    \\/     M anipulation  |                                                 |
\*---------------------------------------------------------------------------*/
FoamFile
{
    version     2.0;
    format      ascii;
    arch        "LSB;label=32;scalar=64";
    class       volScalarField;
    location    "1000";
    object      p;
}
// * * * * * * * * * * * * * * * * * * * * * * * * * * * * * * * * * * * * * //

dimensions      [0 2 -2 0 0 0 0];

internalField   nonuniform List<scalar> 
144000
(
5.72336e-10
5.67141e-10
4.38296e-10
3.21498e-10
2.97207e-10
3.08326e-10
3.36909e-10
3.52179e-10
3.6935e-10
3.72854e-10
3.83198e-10
3.8331e-10
3.92094e-10
3.91131e-10
4.00265e-10
3.99817e-10
4.07634e-10
4.05761e-10
4.15466e-10
4.15121e-10
4.23999e-10
4.21816e-10
4.30564e-10
4.2851e-10
4.37203e-10
4.35324e-10
4.43708e-10
4.40915e-10
4.49415e-10
4.46966e-10
4.55779e-10
4.5398e-10
4.61933e-10
4.58477e-10
4.66645e-10
4.63768e-10
4.71636e-10
4.6917e-10
4.765e-10
4.73523e-10
4.80669e-10
4.78458e-10
4.85348e-10
4.83596e-10
4.87911e-10
4.84677e-10
4.89199e-10
4.88609e-10
4.91418e-10
4.91825e-10
4.92788e-10
4.94658e-10
4.87187e-10
4.84402e-10
4.63157e-10
4.5767e-10
4.1382e-10
3.60335e-10
2.32466e-10
4.20613e-10
5.79073e-10
5.70965e-10
4.3719e-10
3.19935e-10
2.96319e-10
3.08004e-10
3.36743e-10
3.52106e-10
3.69235e-10
3.72787e-10
3.83095e-10
3.83265e-10
3.92007e-10
3.911e-10
4.002e-10
3.99812e-10
4.07575e-10
4.05749e-10
4.15416e-10
4.15131e-10
4.23951e-10
4.21823e-10
4.30523e-10
4.2853e-10
4.37166e-10
4.35348e-10
4.4367e-10
4.40936e-10
4.49381e-10
4.46998e-10
4.5575e-10
4.54018e-10
4.61902e-10
4.58505e-10
4.66619e-10
4.63811e-10
4.71614e-10
4.69217e-10
4.7648e-10
4.7357e-10
4.80659e-10
4.78517e-10
4.85356e-10
4.83668e-10
4.87923e-10
4.84743e-10
4.89231e-10
4.88701e-10
4.91476e-10
4.91927e-10
4.92896e-10
4.94795e-10
4.87372e-10
4.84551e-10
4.63481e-10
4.58025e-10
4.14844e-10
3.60648e-10
2.27702e-10
4.17666e-10
5.87376e-10
5.7528e-10
4.35987e-10
3.17994e-10
2.95041e-10
3.07399e-10
3.36498e-10
3.51952e-10
3.6912e-10
3.72663e-10
3.82989e-10
3.8316e-10
3.91926e-10
3.91017e-10
4.0014e-10
3.99767e-10
4.07541e-10
4.05692e-10
4.15377e-10
4.15097e-10
4.23928e-10
4.21787e-10
4.30505e-10
4.28517e-10
4.37157e-10
4.35337e-10
4.43663e-10
4.4092e-10
4.49378e-10
4.46999e-10
4.55751e-10
4.54024e-10
4.61911e-10
4.58499e-10
4.66628e-10
4.6383e-10
4.7163e-10
4.69241e-10
4.76502e-10
4.73596e-10
4.8069e-10
4.78562e-10
4.85406e-10
4.83734e-10
4.87994e-10
4.8481e-10
4.89311e-10
4.88809e-10
4.91594e-10
4.92049e-10
4.93046e-10
4.94961e-10
4.87621e-10
4.84784e-10
4.63885e-10
4.58463e-10
4.16302e-10
3.62355e-10
2.20296e-10
4.14034e-10
5.97192e-10
5.79824e-10
4.35015e-10
3.15779e-10
2.93176e-10
3.06462e-10
3.36146e-10
3.51773e-10
3.69001e-10
3.72511e-10
3.8286e-10
3.83024e-10
3.91828e-10
3.90902e-10
4.0006e-10
3.99703e-10
4.07511e-10
4.05613e-10
4.15323e-10
4.15044e-10
4.23905e-10
4.21733e-10
4.30483e-10
4.28493e-10
4.37152e-10
4.35316e-10
4.43663e-10
4.40893e-10
4.4938e-10
4.46995e-10
4.55758e-10
4.54024e-10
4.61936e-10
4.58483e-10
4.66645e-10
4.63847e-10
4.71663e-10
4.69263e-10
4.76544e-10
4.7362e-10
4.80743e-10
4.7861e-10
4.85487e-10
4.83808e-10
4.88117e-10
4.84886e-10
4.89432e-10
4.88931e-10
4.91778e-10
4.92182e-10
4.93266e-10
4.95137e-10
4.87996e-10
4.85031e-10
4.64475e-10
4.5892e-10
4.18572e-10
3.6514e-10
2.10617e-10
4.09942e-10
6.07208e-10
5.83701e-10
4.34785e-10
3.13854e-10
2.90829e-10
3.05198e-10
3.35699e-10
3.51597e-10
3.68883e-10
3.72339e-10
3.82697e-10
3.82855e-10
3.91698e-10
3.90756e-10
3.99948e-10
3.99621e-10
4.07474e-10
4.05514e-10
4.15243e-10
4.14974e-10
4.23876e-10
4.21667e-10
4.30448e-10
4.28463e-10
4.37141e-10
4.3529e-10
4.43664e-10
4.4086e-10
4.49378e-10
4.46988e-10
4.55763e-10
4.54024e-10
4.61971e-10
4.58464e-10
4.66663e-10
4.63867e-10
4.71705e-10
4.69289e-10
4.76603e-10
4.73646e-10
4.8081e-10
4.78661e-10
4.85593e-10
4.83893e-10
4.88289e-10
4.84969e-10
4.89592e-10
4.89059e-10
4.9203e-10
4.92308e-10
4.93563e-10
4.95295e-10
4.8852e-10
4.85242e-10
4.65292e-10
4.59309e-10
4.2174e-10
3.68809e-10
1.99262e-10
4.06041e-10
6.16441e-10
5.85439e-10
4.35513e-10
3.12885e-10
2.88227e-10
3.03637e-10
3.35178e-10
3.51454e-10
3.68784e-10
3.72152e-10
3.82498e-10
3.82648e-10
3.91533e-10
3.90575e-10
3.99798e-10
3.99517e-10
4.07427e-10
4.05394e-10
4.15133e-10
4.14887e-10
4.23838e-10
4.21589e-10
4.30396e-10
4.28425e-10
4.37125e-10
4.35259e-10
4.43663e-10
4.40822e-10
4.49369e-10
4.46979e-10
4.55766e-10
4.54022e-10
4.62017e-10
4.58442e-10
4.66678e-10
4.63888e-10
4.71755e-10
4.69317e-10
4.76675e-10
4.73673e-10
4.80889e-10
4.7871e-10
4.85724e-10
4.83983e-10
4.8851e-10
4.85054e-10
4.8979e-10
4.89177e-10
4.92353e-10
4.92408e-10
4.93947e-10
4.95403e-10
4.89208e-10
4.85372e-10
4.6637e-10
4.59536e-10
4.25857e-10
3.73206e-10
1.8663e-10
4.03473e-10
6.24546e-10
5.83364e-10
4.37047e-10
3.13513e-10
2.85651e-10
3.01827e-10
3.3462e-10
3.51372e-10
3.68725e-10
3.7196e-10
3.82269e-10
3.82405e-10
3.91332e-10
3.90356e-10
3.99608e-10
3.99385e-10
4.07366e-10
4.05253e-10
4.14991e-10
4.14777e-10
4.2379e-10
4.21498e-10
4.30326e-10
4.28377e-10
4.371e-10
4.35222e-10
4.43661e-10
4.40779e-10
4.49352e-10
4.46964e-10
4.55766e-10
4.54018e-10
4.62071e-10
4.58419e-10
4.6669e-10
4.63906e-10
4.71813e-10
4.69345e-10
4.76762e-10
4.73698e-10
4.8098e-10
4.78754e-10
4.85879e-10
4.8407e-10
4.8878e-10
4.85133e-10
4.90027e-10
4.89273e-10
4.9275e-10
4.92464e-10
4.94427e-10
4.95431e-10
4.90075e-10
4.85369e-10
4.67749e-10
4.59513e-10
4.30961e-10
3.78181e-10
1.72807e-10
4.03568e-10
6.31719e-10
5.7585e-10
4.38918e-10
3.16318e-10
2.83417e-10
2.99827e-10
3.34044e-10
3.51381e-10
3.68725e-10
3.71775e-10
3.82012e-10
3.82127e-10
3.91093e-10
3.901e-10
3.99376e-10
3.99222e-10
4.07286e-10
4.0509e-10
4.14817e-10
4.14641e-10
4.23729e-10
4.21394e-10
4.30236e-10
4.28315e-10
4.37067e-10
4.35177e-10
4.43654e-10
4.40731e-10
4.49326e-10
4.46944e-10
4.55763e-10
4.5401e-10
4.62132e-10
4.58395e-10
4.66698e-10
4.63919e-10
4.71879e-10
4.69371e-10
4.76861e-10
4.7372e-10
4.81082e-10
4.78788e-10
4.86059e-10
4.84151e-10
4.89098e-10
4.85201e-10
4.90308e-10
4.8933e-10
4.93226e-10
4.92459e-10
4.95014e-10
4.95348e-10
4.91143e-10
4.85186e-10
4.69467e-10
4.59167e-10
4.37051e-10
3.83635e-10
1.57644e-10
4.07581e-10
6.3863e-10
5.61475e-10
4.40402e-10
3.21779e-10
2.81865e-10
2.97698e-10
3.33467e-10
3.51509e-10
3.68802e-10
3.71606e-10
3.81733e-10
3.81819e-10
3.90817e-10
3.8981e-10
3.99102e-10
3.99026e-10
4.07184e-10
4.04908e-10
4.14611e-10
4.1448e-10
4.2365e-10
4.21277e-10
4.30123e-10
4.2824e-10
4.37024e-10
4.35124e-10
4.43642e-10
4.40678e-10
4.49288e-10
4.46916e-10
4.55755e-10
4.53998e-10
4.62198e-10
4.5837e-10
4.66702e-10
4.63926e-10
4.71951e-10
4.69394e-10
4.76971e-10
4.73737e-10
4.81194e-10
4.78808e-10
4.86265e-10
4.84217e-10
4.89462e-10
4.85252e-10
4.90636e-10
4.89336e-10
4.93785e-10
4.92375e-10
4.95722e-10
4.95128e-10
4.92426e-10
4.84787e-10
4.71554e-10
4.58451e-10
4.44084e-10
3.89537e-10
1.40815e-10
4.16548e-10
6.46206e-10
5.39139e-10
4.40638e-10
3.30263e-10
2.81339e-10
2.95506e-10
3.32897e-10
3.51774e-10
3.68972e-10
3.71465e-10
3.81437e-10
3.81484e-10
3.90505e-10
3.89486e-10
3.98787e-10
3.98796e-10
4.07056e-10
4.04708e-10
4.14372e-10
4.14291e-10
4.23551e-10
4.21148e-10
4.29989e-10
4.28149e-10
4.36968e-10
4.35064e-10
4.43621e-10
4.4062e-10
4.49239e-10
4.4688e-10
4.55743e-10
4.53981e-10
4.62265e-10
4.58345e-10
4.66701e-10
4.63924e-10
4.72029e-10
4.69412e-10
4.77091e-10
4.73746e-10
4.81318e-10
4.78811e-10
4.86495e-10
4.84265e-10
4.89871e-10
4.85279e-10
4.91016e-10
4.89279e-10
4.9443e-10
4.92198e-10
4.9656e-10
4.94749e-10
4.93934e-10
4.84148e-10
4.74019e-10
4.5735e-10
4.51951e-10
3.95942e-10
1.21965e-10
4.3115e-10
6.55601e-10
5.08154e-10
4.38643e-10
3.41973e-10
2.82187e-10
2.93327e-10
3.32332e-10
3.52186e-10
3.69246e-10
3.71359e-10
3.81129e-10
3.81125e-10
3.90159e-10
3.89132e-10
3.98432e-10
3.98533e-10
4.069e-10
4.04491e-10
4.14104e-10
4.14075e-10
4.23429e-10
4.21008e-10
4.29832e-10
4.28042e-10
4.36899e-10
4.34996e-10
4.4359e-10
4.40558e-10
4.49179e-10
4.46836e-10
4.55725e-10
4.53959e-10
4.62332e-10
4.5832e-10
4.66697e-10
4.63912e-10
4.7211e-10
4.69424e-10
4.77218e-10
4.73747e-10
4.81453e-10
4.78792e-10
4.86752e-10
4.84288e-10
4.90322e-10
4.85276e-10
4.9145e-10
4.8915e-10
4.95161e-10
4.91918e-10
4.97533e-10
4.94201e-10
4.95667e-10
4.83261e-10
4.7685e-10
4.55882e-10
4.60506e-10
4.02957e-10
1.00724e-10
4.517e-10
6.6798e-10
4.68263e-10
4.33414e-10
3.56944e-10
2.84739e-10
2.91258e-10
3.31766e-10
3.52746e-10
3.69631e-10
3.71294e-10
3.80812e-10
3.80746e-10
3.89779e-10
3.88748e-10
3.98039e-10
3.98236e-10
4.06711e-10
4.04258e-10
4.13807e-10
4.13832e-10
4.23282e-10
4.20856e-10
4.29654e-10
4.27919e-10
4.36816e-10
4.3492e-10
4.43548e-10
4.40492e-10
4.49107e-10
4.46784e-10
4.55701e-10
4.53932e-10
4.62396e-10
4.58296e-10
4.66689e-10
4.63889e-10
4.72195e-10
4.6943e-10
4.77352e-10
4.73737e-10
4.81601e-10
4.78751e-10
4.87033e-10
4.84284e-10
4.90813e-10
4.85239e-10
4.9194e-10
4.88943e-10
4.95976e-10
4.91532e-10
4.98637e-10
4.93484e-10
4.97612e-10
4.8214e-10
4.80011e-10
4.54099e-10
4.69564e-10
4.107e-10
7.68461e-11
4.78158e-10
6.84508e-10
4.19631e-10
4.23946e-10
3.75014e-10
2.89295e-10
2.8942e-10
3.31192e-10
3.53446e-10
3.70132e-10
3.71277e-10
3.80488e-10
3.80349e-10
3.89365e-10
3.88337e-10
3.97609e-10
3.97906e-10
4.06489e-10
4.04009e-10
4.13483e-10
4.13563e-10
4.23108e-10
4.20693e-10
4.29454e-10
4.27779e-10
4.36717e-10
4.34838e-10
4.43493e-10
4.40422e-10
4.49023e-10
4.46724e-10
4.55671e-10
4.539e-10
4.62456e-10
4.58271e-10
4.66679e-10
4.63853e-10
4.72282e-10
4.69428e-10
4.77492e-10
4.73715e-10
4.81762e-10
4.78685e-10
4.87338e-10
4.84251e-10
4.91339e-10
4.85166e-10
4.92485e-10
4.88658e-10
4.96867e-10
4.91042e-10
4.99862e-10
4.92602e-10
4.99743e-10
4.80817e-10
4.83449e-10
4.52083e-10
4.78935e-10
4.19252e-10
5.01718e-11
5.10204e-10
7.06078e-10
3.62896e-10
4.09416e-10
3.95831e-10
2.96089e-10
2.87953e-10
3.30603e-10
3.54266e-10
3.70747e-10
3.71312e-10
3.80162e-10
3.79935e-10
3.88919e-10
3.87901e-10
3.97143e-10
3.97543e-10
4.0623e-10
4.03745e-10
4.13133e-10
4.13268e-10
4.22904e-10
4.20518e-10
4.29234e-10
4.27624e-10
4.36601e-10
4.34748e-10
4.43424e-10
4.40348e-10
4.48929e-10
4.46655e-10
4.55635e-10
4.53863e-10
4.62509e-10
4.58245e-10
4.66668e-10
4.63805e-10
4.72369e-10
4.69418e-10
4.77637e-10
4.7368e-10
4.81934e-10
4.78594e-10
4.87664e-10
4.84188e-10
4.91897e-10
4.85056e-10
4.93081e-10
4.88298e-10
4.97821e-10
4.90457e-10
5.0119e-10
4.91588e-10
5.02021e-10
4.79341e-10
4.87089e-10
4.49929e-10
4.88407e-10
4.28679e-10
2.07788e-11
5.47166e-10
7.33341e-10
2.99218e-10
3.89188e-10
4.18833e-10
3.05273e-10
2.87018e-10
3.29995e-10
3.55175e-10
3.71468e-10
3.71404e-10
3.79837e-10
3.79507e-10
3.88441e-10
3.87441e-10
3.96642e-10
3.97149e-10
4.05933e-10
4.03465e-10
4.12761e-10
4.12949e-10
4.2267e-10
4.2033e-10
4.28995e-10
4.27452e-10
4.36468e-10
4.34651e-10
4.43341e-10
4.4027e-10
4.48824e-10
4.46577e-10
4.55591e-10
4.5382e-10
4.62556e-10
4.58217e-10
4.66656e-10
4.63744e-10
4.72455e-10
4.69399e-10
4.77785e-10
4.73633e-10
4.82118e-10
4.7848e-10
4.88007e-10
4.84096e-10
4.92477e-10
4.84914e-10
4.93718e-10
4.87874e-10
4.98822e-10
4.89795e-10
5.02593e-10
4.90469e-10
5.04393e-10
4.7778e-10
4.90839e-10
4.47753e-10
4.97784e-10
4.39012e-10
-1.10871e-11
5.88031e-10
7.66543e-10
2.3016e-10
3.62914e-10
4.43294e-10
3.16902e-10
2.86794e-10
3.29374e-10
3.56133e-10
3.72281e-10
3.71553e-10
3.79515e-10
3.79066e-10
3.87933e-10
3.86957e-10
3.96109e-10
3.96724e-10
4.05598e-10
4.0317e-10
4.12366e-10
4.12606e-10
4.22403e-10
4.20129e-10
4.28737e-10
4.27266e-10
4.36315e-10
4.34547e-10
4.43244e-10
4.40188e-10
4.48709e-10
4.46492e-10
4.55539e-10
4.53772e-10
4.62595e-10
4.58188e-10
4.66643e-10
4.63672e-10
4.72538e-10
4.69373e-10
4.77934e-10
4.73574e-10
4.8231e-10
4.78344e-10
4.88361e-10
4.83979e-10
4.93071e-10
4.84744e-10
4.94386e-10
4.87398e-10
4.99845e-10
4.89081e-10
5.04036e-10
4.8929e-10
5.06795e-10
4.76212e-10
4.94601e-10
4.45671e-10
5.06879e-10
4.50219e-10
-4.49293e-11
6.31555e-10
8.05735e-10
1.57468e-10
3.30416e-10
4.68325e-10
3.30941e-10
2.87488e-10
3.28766e-10
3.57093e-10
3.73168e-10
3.71762e-10
3.792e-10
3.78614e-10
3.87393e-10
3.86452e-10
3.95543e-10
3.9627e-10
4.05223e-10
4.02859e-10
4.11951e-10
4.12242e-10
4.22105e-10
4.19914e-10
4.28461e-10
4.27064e-10
4.36143e-10
4.34436e-10
4.43132e-10
4.40101e-10
4.48585e-10
4.464e-10
4.55478e-10
4.5372e-10
4.62624e-10
4.58157e-10
4.6663e-10
4.63588e-10
4.72616e-10
4.6934e-10
4.78081e-10
4.73506e-10
4.82507e-10
4.78192e-10
4.88719e-10
4.83842e-10
4.93668e-10
4.84556e-10
4.95068e-10
4.86889e-10
5.00865e-10
4.88343e-10
5.05478e-10
4.88114e-10
5.09154e-10
4.74724e-10
4.98269e-10
4.43802e-10
5.15567e-10
4.62158e-10
-8.01839e-11
6.76518e-10
8.50673e-10
8.30351e-11
2.91767e-10
4.9291e-10
3.47236e-10
2.89301e-10
3.28206e-10
3.58e-10
3.74099e-10
3.72031e-10
3.78896e-10
3.78152e-10
3.86823e-10
3.85925e-10
3.94947e-10
3.95789e-10
4.04809e-10
4.02531e-10
4.11516e-10
4.11856e-10
4.21773e-10
4.19684e-10
4.28166e-10
4.26849e-10
4.35951e-10
4.34317e-10
4.43004e-10
4.40011e-10
4.48451e-10
4.46302e-10
4.55407e-10
4.53663e-10
4.62643e-10
4.58123e-10
4.66614e-10
4.63496e-10
4.72685e-10
4.693e-10
4.78224e-10
4.7343e-10
4.82706e-10
4.78028e-10
4.89074e-10
4.83693e-10
4.94255e-10
4.8436e-10
4.95748e-10
4.86371e-10
5.0185e-10
4.87616e-10
5.06871e-10
4.86995e-10
5.11392e-10
4.73409e-10
5.0174e-10
4.42257e-10
5.23728e-10
4.74655e-10
-1.16106e-10
7.21634e-10
9.00908e-10
9.97685e-12
2.47283e-10
5.15914e-10
3.65501e-10
2.92425e-10
3.27744e-10
3.58793e-10
3.75036e-10
3.72358e-10
3.78607e-10
3.77682e-10
3.86223e-10
3.85379e-10
3.94322e-10
3.95281e-10
4.04355e-10
4.02186e-10
4.11062e-10
4.11452e-10
4.21408e-10
4.19437e-10
4.27855e-10
4.26622e-10
4.35738e-10
4.34191e-10
4.42862e-10
4.39916e-10
4.48307e-10
4.46198e-10
4.55326e-10
4.53602e-10
4.6265e-10
4.58089e-10
4.66595e-10
4.63398e-10
4.72742e-10
4.69258e-10
4.78358e-10
4.73351e-10
4.82899e-10
4.77859e-10
4.89415e-10
4.8354e-10
4.94819e-10
4.84171e-10
4.96403e-10
4.85867e-10
5.02769e-10
4.8694e-10
5.08164e-10
4.85998e-10
5.13429e-10
4.72355e-10
5.04902e-10
4.41149e-10
5.31254e-10
4.87548e-10
-1.51862e-10
7.64748e-10
9.55509e-10
-5.93916e-11
1.97643e-10
5.36198e-10
3.8535e-10
2.97029e-10
3.27443e-10
3.59411e-10
3.75938e-10
3.72736e-10
3.78335e-10
3.77203e-10
3.85593e-10
3.84813e-10
3.93668e-10
3.94748e-10
4.03864e-10
4.01824e-10
4.10591e-10
4.1103e-10
4.21011e-10
4.19175e-10
4.27526e-10
4.26382e-10
4.35503e-10
4.34058e-10
4.42704e-10
4.39818e-10
4.48154e-10
4.46089e-10
4.55233e-10
4.53537e-10
4.62645e-10
4.58054e-10
4.66572e-10
4.63295e-10
4.72785e-10
4.69214e-10
4.7848e-10
4.73274e-10
4.83082e-10
4.77692e-10
4.89733e-10
4.83394e-10
4.95346e-10
4.84003e-10
4.97013e-10
4.85404e-10
5.03586e-10
4.86353e-10
5.09307e-10
4.85184e-10
5.15193e-10
4.71666e-10
5.07652e-10
4.40584e-10
5.38033e-10
5.00666e-10
-1.86399e-10
8.04252e-10
1.01346e-09
-1.2241e-10
1.43669e-10
5.52616e-10
4.06322e-10
3.03269e-10
3.27389e-10
3.59805e-10
3.76758e-10
3.73156e-10
3.78083e-10
3.76717e-10
3.84933e-10
3.84226e-10
3.92986e-10
3.94192e-10
4.03335e-10
4.01444e-10
4.10102e-10
4.10591e-10
4.20581e-10
4.18895e-10
4.27179e-10
4.26131e-10
4.35245e-10
4.33917e-10
4.4253e-10
4.39717e-10
4.4799e-10
4.45978e-10
4.55127e-10
4.53471e-10
4.62625e-10
4.5802e-10
4.6654e-10
4.63191e-10
4.72809e-10
4.69171e-10
4.78585e-10
4.73202e-10
4.83248e-10
4.77535e-10
4.90018e-10
4.83265e-10
4.9582e-10
4.8387e-10
4.97555e-10
4.85009e-10
5.0427e-10
4.85894e-10
5.10248e-10
4.84614e-10
5.16615e-10
4.71426e-10
5.09895e-10
4.40664e-10
5.43981e-10
5.13821e-10
-2.18724e-10
8.38373e-10
1.0736e-09
-1.76347e-10
8.63429e-11
5.64098e-10
4.27893e-10
3.11239e-10
3.27671e-10
3.59933e-10
3.77448e-10
3.73604e-10
3.77851e-10
3.76225e-10
3.84244e-10
3.83619e-10
3.92276e-10
3.93612e-10
4.02771e-10
4.01046e-10
4.09595e-10
4.10137e-10
4.20121e-10
4.18597e-10
4.26815e-10
4.25871e-10
4.34966e-10
4.33769e-10
4.42341e-10
4.39613e-10
4.47815e-10
4.45864e-10
4.55007e-10
4.53402e-10
4.6259e-10
4.57987e-10
4.66498e-10
4.63088e-10
4.72812e-10
4.69134e-10
4.78669e-10
4.73142e-10
4.83389e-10
4.77396e-10
4.90259e-10
4.83164e-10
4.96229e-10
4.83791e-10
4.98008e-10
4.84708e-10
5.04792e-10
4.85598e-10
5.10945e-10
4.84342e-10
5.17632e-10
4.71711e-10
5.11551e-10
4.4152e-10
5.48963e-10
5.26921e-10
-2.47762e-10
8.65154e-10
1.13479e-09
-2.18369e-10
2.67071e-11
5.69676e-10
4.49514e-10
3.20957e-10
3.28356e-10
3.59756e-10
3.77957e-10
3.74063e-10
3.77641e-10
3.75726e-10
3.83524e-10
3.82992e-10
3.91539e-10
3.93008e-10
4.02172e-10
4.00631e-10
4.09072e-10
4.09668e-10
4.19629e-10
4.18282e-10
4.26432e-10
4.256e-10
4.34664e-10
4.33614e-10
4.42136e-10
4.39508e-10
4.47629e-10
4.45751e-10
4.54873e-10
4.53333e-10
4.6254e-10
4.57959e-10
4.66443e-10
4.62991e-10
4.7279e-10
4.69103e-10
4.78729e-10
4.73099e-10
4.83501e-10
4.77284e-10
4.90448e-10
4.831e-10
4.96561e-10
4.83779e-10
4.98354e-10
4.84523e-10
5.05129e-10
4.85498e-10
5.11365e-10
4.84411e-10
5.18198e-10
4.72579e-10
5.12555e-10
4.43272e-10
5.52782e-10
5.40072e-10
-2.72447e-10
8.82307e-10
1.19587e-09
-2.45516e-10
-3.41877e-11
5.68515e-10
4.70663e-10
3.32368e-10
3.29482e-10
3.59229e-10
3.78228e-10
3.7451e-10
3.77446e-10
3.75219e-10
3.82771e-10
3.82343e-10
3.90774e-10
3.92379e-10
4.01539e-10
4.00198e-10
4.0853e-10
4.09182e-10
4.19107e-10
4.17947e-10
4.26031e-10
4.2532e-10
4.34339e-10
4.33451e-10
4.41915e-10
4.39402e-10
4.47432e-10
4.45637e-10
4.54724e-10
4.53263e-10
4.62471e-10
4.57938e-10
4.66373e-10
4.629e-10
4.72742e-10
4.69083e-10
4.78759e-10
4.73079e-10
4.83578e-10
4.77205e-10
4.90578e-10
4.83083e-10
4.96807e-10
4.83849e-10
4.98581e-10
4.84473e-10
5.05265e-10
4.85617e-10
5.11491e-10
4.84849e-10
5.18291e-10
4.74068e-10
5.12871e-10
4.46058e-10
5.5509e-10
5.53685e-10
-2.91588e-10
8.8705e-10
1.25559e-09
-2.54669e-10
-9.53382e-11
5.59848e-10
4.90889e-10
3.4541e-10
3.31079e-10
3.58312e-10
3.78199e-10
3.74915e-10
3.7726e-10
3.74697e-10
3.81982e-10
3.81667e-10
3.89978e-10
3.91721e-10
4.00871e-10
3.99748e-10
4.0797e-10
4.0868e-10
4.18552e-10
4.17595e-10
4.25609e-10
4.25029e-10
4.3399e-10
4.33279e-10
4.41677e-10
4.39297e-10
4.47221e-10
4.45525e-10
4.5456e-10
4.53192e-10
4.62383e-10
4.57926e-10
4.66284e-10
4.62818e-10
4.72663e-10
4.69076e-10
4.78757e-10
4.73087e-10
4.83615e-10
4.77167e-10
4.90642e-10
4.83118e-10
4.96955e-10
4.84013e-10
4.98677e-10
4.84568e-10
5.05187e-10
4.85968e-10
5.11311e-10
4.85668e-10
5.17897e-10
4.76199e-10
5.12454e-10
4.50093e-10
5.55119e-10
5.68531e-10
-3.03663e-10
8.76257e-10
5.71427e-10
5.65481e-10
4.3658e-10
3.19829e-10
2.95638e-10
3.07002e-10
3.35809e-10
3.5128e-10
3.68604e-10
3.72221e-10
3.82688e-10
3.82901e-10
3.91761e-10
3.90861e-10
4.00046e-10
3.9964e-10
4.07531e-10
4.0573e-10
4.15467e-10
4.15144e-10
4.2404e-10
4.21875e-10
4.30611e-10
4.28557e-10
4.37235e-10
4.35339e-10
4.43715e-10
4.40918e-10
4.49386e-10
4.46932e-10
4.55731e-10
4.5393e-10
4.61866e-10
4.58407e-10
4.66587e-10
4.63743e-10
4.71634e-10
4.6919e-10
4.76551e-10
4.73605e-10
4.80775e-10
4.78601e-10
4.85524e-10
4.83804e-10
4.88176e-10
4.84998e-10
4.89582e-10
4.8905e-10
4.9194e-10
4.92413e-10
4.93457e-10
4.95372e-10
4.88043e-10
4.85308e-10
4.64143e-10
4.58621e-10
4.1443e-10
3.60209e-10
2.30959e-10
4.19326e-10
5.78158e-10
5.69303e-10
4.35458e-10
3.18266e-10
2.94751e-10
3.06681e-10
3.35643e-10
3.51211e-10
3.68486e-10
3.72151e-10
3.82581e-10
3.82851e-10
3.91671e-10
3.90826e-10
3.99977e-10
3.9963e-10
4.07469e-10
4.05716e-10
4.15414e-10
4.15151e-10
4.23991e-10
4.2188e-10
4.30569e-10
4.28576e-10
4.37197e-10
4.35362e-10
4.43678e-10
4.4094e-10
4.49353e-10
4.46963e-10
4.55702e-10
4.53967e-10
4.61836e-10
4.58435e-10
4.66561e-10
4.63786e-10
4.71612e-10
4.69237e-10
4.76532e-10
4.73652e-10
4.80766e-10
4.78659e-10
4.85532e-10
4.83875e-10
4.88188e-10
4.85064e-10
4.89614e-10
4.89142e-10
4.91999e-10
4.92515e-10
4.93564e-10
4.9551e-10
4.88229e-10
4.85458e-10
4.64468e-10
4.58976e-10
4.15455e-10
3.60522e-10
2.26193e-10
4.16371e-10
5.86452e-10
5.73619e-10
4.34238e-10
3.1633e-10
2.93476e-10
3.06079e-10
3.35397e-10
3.51049e-10
3.68367e-10
3.72021e-10
3.8247e-10
3.82742e-10
3.91586e-10
3.90738e-10
3.99912e-10
3.99578e-10
4.07432e-10
4.05656e-10
4.15374e-10
4.15114e-10
4.23968e-10
4.21844e-10
4.3055e-10
4.28561e-10
4.37187e-10
4.35349e-10
4.43673e-10
4.40926e-10
4.49352e-10
4.46965e-10
4.55703e-10
4.53972e-10
4.61845e-10
4.58429e-10
4.66569e-10
4.63804e-10
4.71627e-10
4.69259e-10
4.76555e-10
4.73679e-10
4.80798e-10
4.78705e-10
4.85582e-10
4.83939e-10
4.88259e-10
4.8513e-10
4.89693e-10
4.89248e-10
4.92117e-10
4.92637e-10
4.93715e-10
4.95676e-10
4.88478e-10
4.85692e-10
4.64869e-10
4.59413e-10
4.1691e-10
3.6224e-10
2.18796e-10
4.12719e-10
5.9625e-10
5.78164e-10
4.33239e-10
3.14119e-10
2.91619e-10
3.05147e-10
3.35046e-10
3.5087e-10
3.68244e-10
3.71864e-10
3.82336e-10
3.82601e-10
3.91482e-10
3.90618e-10
3.99827e-10
3.99507e-10
4.07397e-10
4.05573e-10
4.15318e-10
4.15057e-10
4.23945e-10
4.2179e-10
4.30529e-10
4.28535e-10
4.37181e-10
4.35326e-10
4.43675e-10
4.40901e-10
4.49357e-10
4.46961e-10
4.55711e-10
4.53971e-10
4.61871e-10
4.58413e-10
4.66587e-10
4.6382e-10
4.7166e-10
4.6928e-10
4.76598e-10
4.73704e-10
4.80853e-10
4.78752e-10
4.85664e-10
4.84012e-10
4.88382e-10
4.85206e-10
4.89814e-10
4.89369e-10
4.923e-10
4.92769e-10
4.93934e-10
4.95851e-10
4.88853e-10
4.8594e-10
4.65453e-10
4.59867e-10
4.19179e-10
3.65042e-10
2.09142e-10
4.08602e-10
6.0624e-10
5.82042e-10
4.32975e-10
3.12195e-10
2.89283e-10
3.03892e-10
3.34603e-10
3.50695e-10
3.68122e-10
3.71685e-10
3.82167e-10
3.82426e-10
3.91347e-10
3.90465e-10
3.99709e-10
3.99417e-10
4.07354e-10
4.05469e-10
4.15235e-10
4.14984e-10
4.23914e-10
4.21724e-10
4.30494e-10
4.28504e-10
4.3717e-10
4.35298e-10
4.43676e-10
4.40871e-10
4.49358e-10
4.46956e-10
4.55719e-10
4.53971e-10
4.61908e-10
4.58394e-10
4.66605e-10
4.63839e-10
4.71702e-10
4.69304e-10
4.76657e-10
4.73731e-10
4.80921e-10
4.78803e-10
4.8577e-10
4.84095e-10
4.88552e-10
4.85288e-10
4.89973e-10
4.89494e-10
4.9255e-10
4.92894e-10
4.94231e-10
4.96007e-10
4.89374e-10
4.86153e-10
4.66263e-10
4.60252e-10
4.22347e-10
3.68732e-10
1.97828e-10
4.04678e-10
6.15446e-10
5.83782e-10
4.33664e-10
3.11221e-10
2.86693e-10
3.02342e-10
3.34088e-10
3.50553e-10
3.68022e-10
3.71493e-10
3.81963e-10
3.82213e-10
3.91177e-10
3.90278e-10
3.99554e-10
3.99304e-10
4.07299e-10
4.05343e-10
4.15122e-10
4.14892e-10
4.23875e-10
4.21646e-10
4.30444e-10
4.28464e-10
4.37153e-10
4.35264e-10
4.43676e-10
4.40836e-10
4.49353e-10
4.46948e-10
4.55724e-10
4.5397e-10
4.61955e-10
4.58374e-10
4.66621e-10
4.63859e-10
4.71752e-10
4.6933e-10
4.7673e-10
4.7376e-10
4.81003e-10
4.78853e-10
4.85901e-10
4.84182e-10
4.88771e-10
4.85371e-10
4.90169e-10
4.8961e-10
4.9287e-10
4.92991e-10
4.94612e-10
4.96112e-10
4.90057e-10
4.86284e-10
4.67332e-10
4.60474e-10
4.26465e-10
3.73151e-10
1.85245e-10
4.02094e-10
6.2353e-10
5.81711e-10
4.35157e-10
3.11837e-10
2.84127e-10
3.00544e-10
3.33539e-10
3.50476e-10
3.67963e-10
3.71297e-10
3.81728e-10
3.81965e-10
3.90971e-10
3.90053e-10
3.99359e-10
3.99164e-10
4.0723e-10
4.05195e-10
4.14978e-10
4.14777e-10
4.23825e-10
4.21555e-10
4.30375e-10
4.28414e-10
4.37128e-10
4.35224e-10
4.43674e-10
4.40796e-10
4.49341e-10
4.46935e-10
4.55726e-10
4.53966e-10
4.62011e-10
4.58352e-10
4.66635e-10
4.63876e-10
4.71811e-10
4.69356e-10
4.76817e-10
4.73786e-10
4.81096e-10
4.78897e-10
4.86057e-10
4.84269e-10
4.89038e-10
4.85447e-10
4.90405e-10
4.89701e-10
4.93264e-10
4.93044e-10
4.95088e-10
4.96137e-10
4.90918e-10
4.8628e-10
4.68702e-10
4.60445e-10
4.31572e-10
3.78145e-10
1.71474e-10
4.02188e-10
6.30697e-10
5.74203e-10
4.36984e-10
3.14623e-10
2.819e-10
2.98556e-10
3.32975e-10
3.50491e-10
3.67966e-10
3.71109e-10
3.81467e-10
3.81683e-10
3.90729e-10
3.89792e-10
3.99122e-10
3.98993e-10
4.07141e-10
4.05026e-10
4.148e-10
4.14636e-10
4.2376e-10
4.21451e-10
4.30286e-10
4.28351e-10
4.37095e-10
4.35176e-10
4.43667e-10
4.4075e-10
4.49319e-10
4.46917e-10
4.55726e-10
4.53959e-10
4.62074e-10
4.58328e-10
4.66645e-10
4.63889e-10
4.71877e-10
4.6938e-10
4.76915e-10
4.73809e-10
4.812e-10
4.78932e-10
4.86238e-10
4.84347e-10
4.89353e-10
4.85512e-10
4.90683e-10
4.89754e-10
4.93734e-10
4.93034e-10
4.9567e-10
4.96049e-10
4.91976e-10
4.86096e-10
4.70412e-10
4.60091e-10
4.3767e-10
3.83614e-10
1.56358e-10
4.06219e-10
6.37618e-10
5.59836e-10
4.38425e-10
3.20059e-10
2.80349e-10
2.96439e-10
3.32411e-10
3.50627e-10
3.68048e-10
3.7094e-10
3.81185e-10
3.81372e-10
3.9045e-10
3.89498e-10
3.98845e-10
3.98791e-10
4.0703e-10
4.04836e-10
4.1459e-10
4.1447e-10
4.23678e-10
4.21333e-10
4.30176e-10
4.28274e-10
4.37051e-10
4.35121e-10
4.43652e-10
4.40698e-10
4.49287e-10
4.46891e-10
4.55721e-10
4.53948e-10
4.62141e-10
4.58305e-10
4.6665e-10
4.63895e-10
4.7195e-10
4.69401e-10
4.77024e-10
4.73826e-10
4.81315e-10
4.78953e-10
4.86444e-10
4.84412e-10
4.89713e-10
4.85558e-10
4.91008e-10
4.89755e-10
4.94287e-10
4.92943e-10
4.96371e-10
4.95822e-10
4.93249e-10
4.85693e-10
4.72492e-10
4.59368e-10
4.44712e-10
3.89526e-10
1.39566e-10
4.1522e-10
6.45224e-10
5.37512e-10
4.38625e-10
3.28515e-10
2.7982e-10
2.94254e-10
3.31853e-10
3.509e-10
3.68224e-10
3.708e-10
3.80888e-10
3.81035e-10
3.90138e-10
3.89171e-10
3.98527e-10
3.98556e-10
4.06894e-10
4.04628e-10
4.14347e-10
4.14276e-10
4.23574e-10
4.21203e-10
4.30043e-10
4.28183e-10
4.36995e-10
4.35058e-10
4.43629e-10
4.40642e-10
4.49242e-10
4.46859e-10
4.55712e-10
4.53933e-10
4.62211e-10
4.58281e-10
4.66651e-10
4.63894e-10
4.72028e-10
4.69418e-10
4.77142e-10
4.73835e-10
4.8144e-10
4.78956e-10
4.86675e-10
4.84457e-10
4.90118e-10
4.8558e-10
4.91383e-10
4.89693e-10
4.94925e-10
4.92759e-10
4.97201e-10
4.95435e-10
4.94744e-10
4.85047e-10
4.74951e-10
4.58258e-10
4.5259e-10
3.9594e-10
1.20738e-10
4.29868e-10
6.54674e-10
5.06547e-10
4.366e-10
3.40197e-10
2.80659e-10
2.9208e-10
3.313e-10
3.51321e-10
3.68506e-10
3.70696e-10
3.80579e-10
3.80676e-10
3.89792e-10
3.88815e-10
3.98171e-10
3.98289e-10
4.0673e-10
4.04404e-10
4.14075e-10
4.14055e-10
4.23448e-10
4.2106e-10
4.29888e-10
4.28076e-10
4.36926e-10
4.34988e-10
4.43596e-10
4.4058e-10
4.49186e-10
4.46819e-10
4.55698e-10
4.53913e-10
4.62279e-10
4.58258e-10
4.66648e-10
4.63883e-10
4.7211e-10
4.69429e-10
4.77267e-10
4.73836e-10
4.81577e-10
4.78939e-10
4.86932e-10
4.84479e-10
4.90565e-10
4.85572e-10
4.91812e-10
4.89558e-10
4.95648e-10
4.92471e-10
4.98164e-10
4.94878e-10
4.96463e-10
4.84151e-10
4.77776e-10
4.56782e-10
4.6116e-10
4.02964e-10
9.9501e-11
4.50469e-10
6.67128e-10
4.66686e-10
4.31351e-10
3.55143e-10
2.83197e-10
2.90011e-10
3.30744e-10
3.5189e-10
3.689e-10
3.70636e-10
3.80263e-10
3.80297e-10
3.89413e-10
3.88431e-10
3.97777e-10
3.97989e-10
4.06536e-10
4.04164e-10
4.13773e-10
4.13807e-10
4.23295e-10
4.20906e-10
4.29711e-10
4.27953e-10
4.36842e-10
4.34911e-10
4.4355e-10
4.40514e-10
4.49118e-10
4.4677e-10
4.55678e-10
4.53888e-10
4.62345e-10
4.58235e-10
4.66642e-10
4.6386e-10
4.72196e-10
4.69434e-10
4.77399e-10
4.73825e-10
4.81726e-10
4.78899e-10
4.87214e-10
4.84474e-10
4.91052e-10
4.8553e-10
4.92297e-10
4.89344e-10
4.96454e-10
4.92075e-10
4.99259e-10
4.94148e-10
4.98393e-10
4.83018e-10
4.80934e-10
4.54992e-10
4.70235e-10
4.10718e-10
7.56088e-11
4.76977e-10
6.83748e-10
4.18091e-10
4.21875e-10
3.73192e-10
2.87738e-10
2.88169e-10
3.30179e-10
3.52598e-10
3.6941e-10
3.70624e-10
3.79942e-10
3.79901e-10
3.89002e-10
3.88022e-10
3.97347e-10
3.97658e-10
4.06308e-10
4.03909e-10
4.13445e-10
4.13533e-10
4.23115e-10
4.2074e-10
4.29512e-10
4.27814e-10
4.36743e-10
4.34826e-10
4.43492e-10
4.40444e-10
4.49038e-10
4.46713e-10
4.55651e-10
4.53858e-10
4.62407e-10
4.58211e-10
4.66633e-10
4.63825e-10
4.72283e-10
4.69431e-10
4.77537e-10
4.73801e-10
4.81887e-10
4.78833e-10
4.8752e-10
4.84439e-10
4.91574e-10
4.8545e-10
4.92836e-10
4.89052e-10
4.97336e-10
4.91574e-10
5.00473e-10
4.93252e-10
5.00508e-10
4.81681e-10
4.84368e-10
4.52969e-10
4.79623e-10
4.19282e-10
4.89043e-11
5.09071e-10
7.05419e-10
3.61402e-10
4.0735e-10
3.93996e-10
2.94517e-10
2.86694e-10
3.29596e-10
3.53425e-10
3.70033e-10
3.70665e-10
3.79618e-10
3.79489e-10
3.88559e-10
3.87587e-10
3.96883e-10
3.97295e-10
4.06045e-10
4.03639e-10
4.13092e-10
4.13234e-10
4.22906e-10
4.20561e-10
4.29293e-10
4.27658e-10
4.36627e-10
4.34735e-10
4.4342e-10
4.40368e-10
4.48946e-10
4.46647e-10
4.55618e-10
4.53823e-10
4.62463e-10
4.58187e-10
4.66623e-10
4.63778e-10
4.72372e-10
4.69421e-10
4.77679e-10
4.73765e-10
4.8206e-10
4.78743e-10
4.87846e-10
4.84375e-10
4.92127e-10
4.85335e-10
4.93424e-10
4.88684e-10
4.98281e-10
4.90977e-10
5.0179e-10
4.92224e-10
5.02769e-10
4.80189e-10
4.88003e-10
4.5081e-10
4.89113e-10
4.28723e-10
1.94693e-11
5.46077e-10
7.32789e-10
2.97781e-10
3.87144e-10
4.16996e-10
3.03686e-10
2.85748e-10
3.28992e-10
3.54341e-10
3.70762e-10
3.70763e-10
3.79296e-10
3.79064e-10
3.88085e-10
3.87129e-10
3.96384e-10
3.96901e-10
4.05745e-10
4.03354e-10
4.12715e-10
4.12911e-10
4.22666e-10
4.20369e-10
4.29053e-10
4.27487e-10
4.36493e-10
4.34638e-10
4.43334e-10
4.40289e-10
4.48844e-10
4.46573e-10
4.55578e-10
4.53783e-10
4.62513e-10
4.58161e-10
4.66612e-10
4.63718e-10
4.72459e-10
4.69402e-10
4.77825e-10
4.73716e-10
4.82243e-10
4.78629e-10
4.88189e-10
4.84281e-10
4.92703e-10
4.85186e-10
4.94054e-10
4.88251e-10
4.99272e-10
4.90303e-10
5.0318e-10
4.91093e-10
5.05124e-10
4.78609e-10
4.91747e-10
4.48629e-10
4.98507e-10
4.39078e-10
-1.2448e-11
5.86971e-10
7.66093e-10
2.28794e-10
3.6091e-10
4.41467e-10
3.15302e-10
2.85512e-10
3.28373e-10
3.55304e-10
3.71581e-10
3.70918e-10
3.78978e-10
3.78626e-10
3.8758e-10
3.86649e-10
3.95853e-10
3.96478e-10
4.05407e-10
4.03055e-10
4.12317e-10
4.12565e-10
4.22395e-10
4.20164e-10
4.28794e-10
4.27301e-10
4.3634e-10
4.34533e-10
4.43234e-10
4.40204e-10
4.48731e-10
4.46491e-10
4.55529e-10
4.53739e-10
4.62553e-10
4.58133e-10
4.66601e-10
4.63646e-10
4.72543e-10
4.69376e-10
4.77972e-10
4.73655e-10
4.82434e-10
4.78493e-10
4.88544e-10
4.84163e-10
4.93292e-10