/*--------------------------------*- C++ -*----------------------------------*\
| =========                 |                                                 |
| \\      /  F ield         | OpenFOAM: The Open Source CFD Toolbox           |
|  \\    /   O peration     | Version:  2312                                  |
|   \\  /    A nd           | Website:  www.openfoam.com                      |
|    \\/     M anipulation  |                                                 |
\*---------------------------------------------------------------------------*/
FoamFile
{
    version     2.0;
    format      ascii;
    arch        "LSB;label=32;scalar=64";
    class       volScalarField;
    location    "1000";
    object      pMean;
}
// * * * * * * * * * * * * * * * * * * * * * * * * * * * * * * * * * * * * * //

dimensions      [0 2 -2 0 0 0 0];

internalField   nonuniform List<scalar> 
144000
(
1.23992e-09
1.16233e-09
4.26474e-10
-6.4918e-11
-6.38038e-11
8.21425e-11
2.49199e-10
3.45298e-10
4.30739e-10
4.58769e-10
5.01755e-10
5.05484e-10
5.35714e-10
5.30554e-10
5.57389e-10
5.49583e-10
5.71474e-10
5.57058e-10
5.8031e-10
5.68072e-10
5.90514e-10
5.73937e-10
5.96497e-10
5.80376e-10
6.03602e-10
5.8693e-10
6.0965e-10
5.90302e-10
6.1372e-10
5.95071e-10
6.19808e-10
6.01398e-10
6.2467e-10
6.02199e-10
6.26305e-10
6.05613e-10
6.30418e-10
6.09809e-10
6.33719e-10
6.11487e-10
6.35658e-10
6.15531e-10
6.39518e-10
6.20051e-10
6.38536e-10
6.15562e-10
6.33788e-10
6.18909e-10
6.34597e-10
6.25123e-10
6.36497e-10
6.38148e-10
6.33785e-10
6.42997e-10
6.07456e-10
6.41851e-10
5.8768e-10
6.12645e-10
-3.07553e-10
2.38253e-10
1.26416e-09
1.17704e-09
4.20386e-10
-7.00474e-11
-6.54748e-11
8.21274e-11
2.49166e-10
3.45255e-10
4.30438e-10
4.58504e-10
5.01379e-10
5.05259e-10
5.35398e-10
5.30386e-10
5.57133e-10
5.49492e-10
5.71252e-10
5.56964e-10
5.80104e-10
5.68041e-10
5.90335e-10
5.73908e-10
5.96328e-10
5.80387e-10
6.03453e-10
5.86961e-10
6.09502e-10
5.90332e-10
6.13575e-10
5.95127e-10
6.19677e-10
6.01478e-10
6.24535e-10
6.02262e-10
6.26167e-10
6.05714e-10
6.30291e-10
6.09927e-10
6.33592e-10
6.11607e-10
6.35534e-10
6.15684e-10
6.39423e-10
6.20243e-10
6.38443e-10
6.15736e-10
6.33698e-10
6.19151e-10
6.34548e-10
6.25382e-10
6.36511e-10
6.38458e-10
6.33923e-10
6.43238e-10
6.07734e-10
6.41778e-10
5.90657e-10
6.20888e-10
-3.22489e-10
2.19198e-10
1.30638e-09
1.18692e-09
4.05576e-10
-7.57195e-11
-6.60824e-11
8.279e-11
2.4963e-10
3.45383e-10
4.304e-10
4.58182e-10
5.01045e-10
5.04861e-10
5.3511e-10
5.30036e-10
5.56896e-10
5.49244e-10
5.71111e-10
5.56706e-10
5.7994e-10
5.67852e-10
5.90243e-10
5.73721e-10
5.96236e-10
5.80255e-10
6.03399e-10
5.86849e-10
6.09469e-10
5.90215e-10
6.13537e-10
5.95041e-10
6.1966e-10
6.01419e-10
6.24545e-10
6.0218e-10
6.26149e-10
6.0568e-10
6.30305e-10
6.09912e-10
6.3362e-10
6.11593e-10
6.35553e-10
6.15713e-10
6.39476e-10
6.20334e-10
6.38546e-10
6.15813e-10
6.33767e-10
6.19306e-10
6.347e-10
6.25534e-10
6.36709e-10
6.38643e-10
6.34333e-10
6.43353e-10
6.08516e-10
6.40365e-10
5.94597e-10
6.37815e-10
-3.54289e-10
2.00817e-10
1.36092e-09
1.17996e-09
3.84208e-10
-7.84356e-11
-6.53272e-11
8.4414e-11
2.50832e-10
3.461e-10
4.30785e-10
4.58026e-10
5.00738e-10
5.04411e-10
5.34783e-10
5.29608e-10
5.56594e-10
5.48934e-10
5.70961e-10
5.56377e-10
5.7971e-10
5.67596e-10
5.90137e-10
5.73479e-10
5.96107e-10
5.80075e-10
6.03333e-10
5.86701e-10
6.09441e-10
5.90058e-10
6.13489e-10
5.94919e-10
6.19644e-10
6.01338e-10
6.2459e-10
6.02068e-10
6.26129e-10
6.0562e-10
6.30343e-10
6.0988e-10
6.33688e-10
6.11556e-10
6.35598e-10
6.15715e-10
6.39582e-10
6.20417e-10
6.38775e-10
6.1586e-10
6.33921e-10
6.19412e-10
6.35016e-10
6.25591e-10
6.37118e-10
6.38615e-10
6.35233e-10
6.42918e-10
6.10315e-10
6.3661e-10
6.02488e-10
6.5702e-10
-4.00072e-10
1.95932e-10
1.41787e-09
1.14301e-09
3.59289e-10
-7.18302e-11
-6.16574e-11
8.69644e-11
2.52692e-10
3.47502e-10
4.317e-10
4.58142e-10
5.00471e-10
5.03937e-10
5.34389e-10
5.29119e-10
5.56192e-10
5.48572e-10
5.70769e-10
5.55992e-10
5.79372e-10
5.67284e-10
5.89982e-10
5.73198e-10
5.959e-10
5.79862e-10
6.03217e-10
5.86537e-10
6.0938e-10
5.89888e-10
6.13385e-10
5.94782e-10
6.19587e-10
6.01258e-10
6.24629e-10
6.01957e-10
6.2606e-10
6.05558e-10
6.30362e-10
6.09859e-10
6.33756e-10
6.11521e-10
6.35626e-10
6.15709e-10
6.39705e-10
6.20516e-10
6.39089e-10
6.15896e-10
6.34118e-10
6.1945e-10
6.35484e-10
6.25482e-10
6.3778e-10
6.38241e-10
6.36749e-10
6.41714e-10
6.13369e-10
6.3042e-10
6.14715e-10
6.74191e-10
-4.54838e-10
2.16164e-10
1.47322e-09
1.06608e-09
3.3165e-10
-5.09094e-11
-5.3476e-11
9.00877e-11
2.54945e-10
3.49512e-10
4.33132e-10
4.58528e-10
5.00247e-10
5.03434e-10
5.33928e-10
5.2857e-10
5.55693e-10
5.48158e-10
5.7053e-10
5.55562e-10
5.78928e-10
5.66918e-10
5.89774e-10
5.72886e-10
5.95609e-10
5.79613e-10
6.03043e-10
5.86357e-10
6.0928e-10
5.89706e-10
6.13218e-10
5.9463e-10
6.19483e-10
6.01183e-10
6.24655e-10
6.01854e-10
6.25934e-10
6.05493e-10
6.30354e-10
6.09849e-10
6.33814e-10
6.11492e-10
6.35626e-10
6.15693e-10
6.39834e-10
6.2062e-10
6.39482e-10
6.15911e-10
6.34371e-10
6.19379e-10
6.36128e-10
6.25147e-10
6.38743e-10
6.37396e-10
6.38999e-10
6.39503e-10
6.1796e-10
6.21683e-10
6.31462e-10
6.87606e-10
-5.17189e-10
2.68886e-10
1.52862e-09
9.43774e-10
2.98837e-10
-1.25601e-11
-3.8975e-11
9.35725e-11
2.57252e-10
3.52024e-10
4.35027e-10
4.59155e-10
5.00026e-10
5.02892e-10
5.33383e-10
5.27952e-10
5.55083e-10
5.47682e-10
5.70235e-10
5.55096e-10
5.78383e-10
5.665e-10
5.8951e-10
5.72554e-10
5.95237e-10
5.79334e-10
6.02815e-10
5.86169e-10
6.0914e-10
5.89522e-10
6.1299e-10
5.94467e-10
6.1933e-10
6.01114e-10
6.2466e-10
6.01768e-10
6.2575e-10
6.05424e-10
6.30313e-10
6.09848e-10
6.33856e-10
6.11471e-10
6.35597e-10
6.1566e-10
6.39964e-10
6.20716e-10
6.39953e-10
6.15888e-10
6.3469e-10
6.19159e-10
6.36962e-10
6.24527e-10
6.40073e-10
6.35964e-10
6.42089e-10
6.36108e-10
6.24265e-10
6.1041e-10
6.5237e-10
6.97353e-10
-5.87892e-10
3.57381e-10
1.58724e-09
7.74974e-10
2.57622e-10
4.446e-11
-1.65682e-11
9.73485e-11
2.593e-10
3.5491e-10
4.37314e-10
4.5996e-10
4.99767e-10
5.02268e-10
5.32715e-10
5.27247e-10
5.54351e-10
5.47131e-10
5.69866e-10
5.54596e-10
5.77736e-10
5.66026e-10
5.89183e-10
5.72208e-10
5.94788e-10
5.79029e-10
6.0253e-10
5.85979e-10
6.08956e-10
5.89346e-10
6.12702e-10
5.94298e-10
6.1913e-10
6.01058e-10
6.24639e-10
6.01707e-10
6.25508e-10
6.05355e-10
6.30239e-10
6.09862e-10
6.33875e-10
6.11459e-10
6.35538e-10
6.15606e-10
6.40102e-10
6.20793e-10
6.40497e-10
6.15815e-10
6.35097e-10
6.18745e-10
6.38014e-10
6.23567e-10
6.4182e-10
6.33876e-10
6.46056e-10
6.31516e-10
6.32217e-10
5.97062e-10
6.7627e-10
7.04419e-10
-6.66813e-10
4.80651e-10
1.65286e-09
5.6398e-10
2.04479e-10
1.19206e-10
1.50776e-11
1.01581e-10
2.60809e-10
3.58034e-10
4.39932e-10
4.60913e-10
4.99433e-10
5.01534e-10
5.31896e-10
5.26437e-10
5.53478e-10
5.46487e-10
5.69397e-10
5.54056e-10
5.76983e-10
5.65494e-10
5.88779e-10
5.71849e-10
5.94258e-10
5.78698e-10
6.02185e-10
5.85788e-10
6.08722e-10
5.89182e-10
6.12353e-10
5.94128e-10
6.18881e-10
6.0102e-10
6.24586e-10
6.0168e-10
6.25214e-10
6.05287e-10
6.30129e-10
6.09892e-10
6.33871e-10
6.11456e-10
6.35457e-10
6.15528e-10
6.40254e-10
6.20835e-10
6.41118e-10
6.15673e-10
6.35614e-10
6.18112e-10
6.39295e-10
6.22245e-10
6.43983e-10
6.31124e-10
6.50829e-10
6.25886e-10
6.41483e-10
5.82451e-10
7.01517e-10
7.10399e-10
-7.52961e-10
6.32623e-10
1.72763e-09
3.1944e-10
1.36994e-10
2.08797e-10
5.66451e-11
1.06599e-10
2.61556e-10
3.61236e-10
4.42822e-10
4.61984e-10
4.99e-10
5.00664e-10
5.30905e-10
5.2551e-10
5.52454e-10
5.45737e-10
5.68806e-10
5.5347e-10
5.76124e-10
5.64898e-10
5.88284e-10
5.71473e-10
5.93647e-10
5.78339e-10
6.01775e-10
5.85598e-10
6.08433e-10
5.89032e-10
6.11947e-10
5.93961e-10
6.18585e-10
6.00998e-10
6.24494e-10
6.01687e-10
6.24874e-10
6.05219e-10
6.29985e-10
6.09936e-10
6.33846e-10
6.11459e-10
6.35363e-10
6.1542e-10
6.40427e-10
6.20831e-10
6.41814e-10
6.15451e-10
6.36254e-10
6.17258e-10
6.40793e-10
6.20574e-10
6.46523e-10
6.27806e-10
6.56232e-10
6.19543e-10
6.51521e-10
5.67662e-10
7.2619e-10
7.1698e-10
-8.4383e-10
8.04359e-10
1.81208e-09
5.29149e-11
5.40422e-11
3.0864e-10
1.08127e-10
1.12849e-10
2.614e-10
3.64342e-10
4.45905e-10
4.6315e-10
4.9845e-10
4.99654e-10
5.29732e-10
5.24462e-10
5.51274e-10
5.44874e-10
5.68077e-10
5.5283e-10
5.75158e-10
5.64236e-10
5.87687e-10
5.71077e-10
5.92955e-10
5.77951e-10
6.01295e-10
5.85405e-10
6.08084e-10
5.88892e-10
6.11484e-10
5.93794e-10
6.18241e-10
6.00993e-10
6.2436e-10
6.01724e-10
6.24497e-10
6.05151e-10
6.29809e-10
6.09988e-10
6.338e-10
6.11461e-10
6.35263e-10
6.15278e-10
6.40622e-10
6.20776e-10
6.42576e-10
6.1515e-10
6.37014e-10
6.16198e-10
6.42468e-10
6.1861e-10
6.49356e-10
6.24079e-10
6.61996e-10
6.12913e-10
6.61669e-10
5.53816e-10
7.48556e-10
7.25526e-10
-9.35673e-10
9.85042e-10
1.90451e-09
-2.21748e-10
-4.38336e-11
4.13402e-10
1.68696e-10
1.20828e-10
2.60306e-10
3.67154e-10
4.49088e-10
4.64379e-10
4.97784e-10
4.98508e-10
5.28378e-10
5.23291e-10
5.49934e-10
5.43896e-10
5.672e-10
5.52133e-10
5.74087e-10
5.63508e-10
5.8698e-10
5.70654e-10
5.92182e-10
5.77531e-10
6.00741e-10
5.85206e-10
6.07671e-10
5.88761e-10
6.10968e-10
5.93629e-10
6.17848e-10
6.00999e-10
6.24181e-10
6.01788e-10
6.24088e-10
6.05079e-10
6.29602e-10
6.10045e-10
6.33733e-10
6.1146e-10
6.35163e-10
6.15103e-10
6.40836e-10
6.20668e-10
6.43387e-10
6.1478e-10
6.37873e-10
6.14971e-10
6.44256e-10
6.16437e-10
6.52347e-10
6.20157e-10
6.67806e-10
6.06471e-10
6.71263e-10
5.41914e-10
7.67252e-10
7.36861e-10
-1.02381e-09
1.16385e-09
2.00199e-09
-4.91442e-10
-1.54841e-10
5.1742e-10
2.3689e-10
1.31102e-10
2.5839e-10
3.69496e-10
4.52257e-10
4.6565e-10
4.97011e-10
4.97234e-10
5.26845e-10
5.21999e-10
5.48442e-10
5.42805e-10
5.66173e-10
5.51378e-10
5.72918e-10
5.62715e-10
5.8616e-10
5.70201e-10
5.91332e-10
5.7708e-10
6.00113e-10
5.84996e-10
6.07192e-10
5.88632e-10
6.10402e-10
5.93462e-10
6.17409e-10
6.01014e-10
6.23954e-10
6.01873e-10
6.23653e-10
6.05003e-10
6.29363e-10
6.10101e-10
6.33645e-10
6.11454e-10
6.35063e-10
6.149e-10
6.41062e-10
6.20516e-10
6.44225e-10
6.14362e-10
6.38804e-10
6.13629e-10
6.46077e-10
6.14178e-10
6.55337e-10
6.16276e-10
6.73329e-10
6.00672e-10
6.79708e-10
5.32732e-10
7.81541e-10
7.51065e-10
-1.1036e-09
1.33142e-09
2.10008e-09
-7.4515e-10
-2.75515e-10
6.15524e-10
3.10718e-10
1.44195e-10
2.55901e-10
3.71208e-10
4.55285e-10
4.66942e-10
4.96146e-10
4.95848e-10
5.25142e-10
5.20593e-10
5.46805e-10
5.4161e-10
5.64999e-10
5.50565e-10
5.71658e-10
5.61863e-10
5.85227e-10
5.69713e-10
5.9041e-10
5.76599e-10
5.9941e-10
5.84776e-10
6.06648e-10
5.88503e-10
6.0979e-10
5.93293e-10
6.16923e-10
6.01033e-10
6.2368e-10
6.01972e-10
6.23196e-10
6.04923e-10
6.29089e-10
6.10156e-10
6.33533e-10
6.11444e-10
6.34958e-10
6.14677e-10
6.41286e-10
6.20333e-10
6.45057e-10
6.13924e-10
6.39758e-10
6.12245e-10
6.47837e-10
6.11958e-10
6.58157e-10
6.12677e-10
6.7826e-10
5.95902e-10
6.86569e-10
5.26729e-10
7.91198e-10
7.67605e-10
-1.17109e-09
1.48051e-09
2.19387e-09
-9.73398e-10
-4.01327e-10
7.0329e-10
3.87814e-10
1.60483e-10
2.53174e-10
3.72157e-10
4.58026e-10
4.68223e-10
4.9521e-10
4.94368e-10
5.23282e-10
5.1908e-10
5.45033e-10
5.40317e-10
5.63682e-10
5.49692e-10
5.70316e-10
5.60957e-10
5.84184e-10
5.6919e-10
5.8942e-10
5.76089e-10
5.98634e-10
5.84541e-10
6.06041e-10
5.88372e-10
6.09135e-10
5.93123e-10
6.16392e-10
6.01053e-10
6.23357e-10
6.02081e-10
6.2272e-10
6.04841e-10
6.2878e-10
6.10209e-10
6.33394e-10
6.11434e-10
6.34844e-10
6.14447e-10
6.4149e-10
6.20138e-10
6.45851e-10
6.13503e-10
6.40679e-10
6.10901e-10
6.49441e-10
6.09908e-10
6.60647e-10
6.09573e-10
6.82346e-10
5.92446e-10
6.91574e-10
5.24083e-10
7.96391e-10
7.8552e-10
-1.22295e-09
1.60579e-09
2.27833e-09
-1.16918e-09
-5.27348e-10
7.77346e-10
4.65632e-10
1.80163e-10
2.50599e-10
3.72249e-10
4.60328e-10
4.69452e-10
4.94218e-10
4.92812e-10
5.21277e-10
5.1747e-10
5.43137e-10
5.38935e-10
5.62226e-10
5.48764e-10
5.68899e-10
5.60003e-10
5.83035e-10
5.68629e-10
5.88368e-10
5.75554e-10
5.97788e-10
5.84289e-10
6.05373e-10
5.88237e-10
6.08442e-10
5.92951e-10
6.15818e-10
6.01073e-10
6.22986e-10
6.02199e-10
6.22227e-10
6.04759e-10
6.28433e-10
6.10261e-10
6.33221e-10
6.1143e-10
6.34711e-10
6.14226e-10
6.41653e-10
6.19955e-10
6.4657e-10
6.13136e-10
6.41513e-10
6.09674e-10
6.50795e-10
6.08148e-10
6.62663e-10
6.07141e-10
6.85405e-10
5.90479e-10
6.94623e-10
5.2471e-10
7.97642e-10
8.03792e-10
-1.25676e-09
1.70398e-09
2.34892e-09
-1.32796e-09
-6.48641e-10
8.35365e-10
5.41629e-10
2.03263e-10
2.4861e-10
3.71448e-10
4.62044e-10
4.7058e-10
4.93186e-10
4.91201e-10
5.1914e-10
5.1577e-10
5.41127e-10
5.37473e-10
5.60643e-10
5.47781e-10
5.67414e-10
5.59008e-10
5.81787e-10
5.68029e-10
5.87258e-10
5.74996e-10
5.96876e-10
5.8402e-10
6.04648e-10
5.88096e-10
6.07714e-10
5.92779e-10
6.15201e-10
6.01091e-10
6.22567e-10
6.02322e-10
6.21718e-10
6.04683e-10
6.28045e-10
6.10315e-10
6.33009e-10
6.11441e-10
6.34548e-10
6.1403e-10
6.41755e-10
6.19808e-10
6.47177e-10
6.12867e-10
6.42205e-10
6.0864e-10
6.51818e-10
6.06777e-10
6.64093e-10
6.05502e-10
6.8733e-10
5.90066e-10
6.95772e-10
5.28341e-10
7.957e-10
8.21239e-10
-1.2711e-09
1.77399e-09
2.40211e-09
-1.44744e-09
-7.60841e-10
8.76095e-10
6.13497e-10
2.29621e-10
2.47642e-10
3.69775e-10
4.6304e-10
4.71552e-10
4.92132e-10
4.89558e-10
5.16888e-10
5.13989e-10
5.39015e-10
5.35938e-10
5.58941e-10
5.46747e-10
5.6587e-10
5.57976e-10
5.80447e-10
5.6739e-10
5.86096e-10
5.74419e-10
5.95901e-10
5.83732e-10
6.03869e-10
5.87949e-10
6.06953e-10
5.92609e-10
6.14545e-10
6.01105e-10
6.22101e-10
6.0245e-10
6.2119e-10
6.04616e-10
6.27612e-10
6.10375e-10
6.3275e-10
6.11475e-10
6.34342e-10
6.13878e-10
6.41774e-10
6.19722e-10
6.47636e-10
6.12735e-10
6.42709e-10
6.07863e-10
6.52442e-10
6.05871e-10
6.64862e-10
6.04737e-10
6.88082e-10
5.91176e-10
6.95206e-10
5.34559e-10
7.91433e-10
8.36707e-10
-1.26561e-09
1.81616e-09
2.43481e-09
-1.52724e-09
-8.59862e-10
8.99346e-10
6.7916e-10
2.58879e-10
2.48072e-10
3.6729e-10
4.63196e-10
4.72309e-10
4.91065e-10
4.87904e-10
5.14537e-10
5.12135e-10
5.3681e-10
5.34341e-10
5.57132e-10
5.45666e-10
5.64273e-10
5.56914e-10
5.79022e-10
5.66714e-10
5.84886e-10
5.73825e-10
5.94868e-10
5.83425e-10
6.03041e-10
5.87795e-10
6.06163e-10
5.92441e-10
6.1385e-10
6.01117e-10
6.2159e-10
6.02583e-10
6.20644e-10
6.04564e-10
6.2713e-10
6.10448e-10
6.32438e-10
6.11544e-10
6.34082e-10
6.13786e-10
6.41689e-10
6.1972e-10
6.47921e-10
6.12771e-10
6.42984e-10
6.07392e-10
6.52625e-10
6.05489e-10
6.6493e-10
6.04865e-10
6.87693e-10
5.93707e-10
6.93184e-10
5.42889e-10
7.85616e-10
8.49362e-10
-1.24045e-09
1.83177e-09
2.44489e-09
-1.56811e-09
-9.42295e-10
9.05603e-10
7.36909e-10
2.90511e-10
2.50196e-10
3.6409e-10
4.62412e-10
4.72784e-10
4.89989e-10
4.86256e-10
5.12101e-10
5.10214e-10
5.34521e-10
5.32689e-10
5.55227e-10
5.4454e-10
5.62631e-10
5.55827e-10
5.7752e-10
5.66001e-10
5.83631e-10
5.73217e-10
5.93781e-10
5.83099e-10
6.02167e-10
5.87637e-10
6.05347e-10
5.92278e-10
6.13119e-10
6.01126e-10
6.21033e-10
6.02723e-10
6.20076e-10
6.04531e-10
6.26597e-10
6.10536e-10
6.32067e-10
6.11656e-10
6.33757e-10
6.13771e-10
6.41485e-10
6.19822e-10
6.48008e-10
6.13002e-10
6.43e-10
6.07262e-10
6.52344e-10
6.05651e-10
6.643e-10
6.05879e-10
6.86246e-10
5.97501e-10
6.89983e-10
5.52849e-10
7.78941e-10
8.58716e-10
-1.19636e-09
1.82252e-09
2.43102e-09
-1.57154e-09
-1.00553e-09
8.95956e-10
7.8544e-10
3.23887e-10
2.5422e-10
3.60304e-10
4.60622e-10
4.72911e-10
4.88898e-10
4.84628e-10
5.09593e-10
5.0823e-10
5.32154e-10
5.30987e-10
5.53236e-10
5.43373e-10
5.60946e-10
5.54718e-10
5.7595e-10
5.65251e-10
5.82335e-10
5.72596e-10
5.92646e-10
5.82755e-10
6.0125e-10
5.87473e-10
6.04506e-10
5.92121e-10
6.12352e-10
6.01134e-10
6.20434e-10
6.0287e-10
6.19484e-10
6.04522e-10
6.26009e-10
6.10647e-10
6.31631e-10
6.11819e-10
6.33356e-10
6.13844e-10
6.41148e-10
6.20045e-10
6.47886e-10
6.13444e-10
6.42738e-10
6.07487e-10
6.51595e-10
6.0635e-10
6.62999e-10
6.07714e-10
6.83861e-10
6.02389e-10
6.85915e-10
5.63991e-10
7.71843e-10
8.64629e-10
-1.13433e-09
1.79011e-09
2.39293e-09
-1.53974e-09
-1.04808e-09
8.71955e-10
8.23973e-10
3.58316e-10
2.60238e-10
3.56079e-10
4.57793e-10
4.72629e-10
4.87785e-10
4.83032e-10
5.07026e-10
5.0619e-10
5.29716e-10
5.2924e-10
5.51169e-10
5.42168e-10
5.59225e-10
5.53591e-10
5.74318e-10
5.64467e-10
5.81e-10
5.71962e-10
5.91465e-10
5.82394e-10
6.00296e-10
5.87305e-10
6.03642e-10
5.9197e-10
6.11551e-10
6.01141e-10
6.19794e-10
6.03028e-10
6.18865e-10
6.0454e-10
6.25365e-10
6.10785e-10
6.31127e-10
6.12043e-10
6.32873e-10
6.14015e-10
6.40672e-10
6.20398e-10
6.47547e-10
6.14106e-10
6.42196e-10
6.0807e-10
6.50395e-10
6.07562e-10
6.61086e-10
6.10288e-10
6.80691e-10
6.08169e-10
6.81258e-10
5.7595e-10
7.64547e-10
8.6722e-10
-1.05564e-09
1.73641e-09
2.3311e-09
-1.47583e-09
-1.06942e-09
8.35524e-10
8.52346e-10
3.93093e-10
2.68216e-10
3.51556e-10
4.53926e-10
4.7189e-10
4.86637e-10
4.81475e-10
5.04413e-10
5.04099e-10
5.27215e-10
5.2745e-10
5.49037e-10
5.40931e-10
5.57472e-10
5.52445e-10
5.72632e-10
5.63651e-10
5.79629e-10
5.71318e-10
5.90243e-10
5.82014e-10
5.99307e-10
5.87134e-10
6.02757e-10
5.91826e-10
6.1072e-10
6.01148e-10
6.19114e-10
6.03197e-10
6.18218e-10
6.04588e-10
6.24664e-10
6.10953e-10
6.30553e-10
6.12331e-10
6.32307e-10
6.14289e-10
6.40055e-10
6.20881e-10
6.46995e-10
6.14989e-10
6.41384e-10
6.08995e-10
6.48784e-10
6.09246e-10
6.58643e-10
6.13494e-10
6.76904e-10
6.14636e-10
6.7627e-10
5.88447e-10
7.56975e-10
8.6686e-10
-9.61588e-10
1.6633e-09
2.24707e-09
-1.38329e-09
-1.07026e-09
7.88765e-10
8.70971e-10
4.27581e-10
2.78011e-10
3.46842e-10
4.49033e-10
4.70639e-10
4.85432e-10
4.79955e-10
5.0176e-10
5.01958e-10
5.24653e-10
5.25614e-10
5.46843e-10
5.39664e-10
5.55691e-10
5.51279e-10
5.70895e-10
5.62804e-10
5.78226e-10
5.7066e-10
5.88984e-10
5.81616e-10
5.98286e-10
5.86962e-10
6.01854e-10
5.91691e-10
6.09859e-10
6.01152e-10
6.18395e-10
6.03382e-10
6.17544e-10
6.04665e-10
6.23908e-10
6.11151e-10
6.29911e-10
6.12687e-10
6.31659e-10
6.14667e-10
6.39303e-10
6.21492e-10
6.46241e-10
6.16085e-10
6.40327e-10
6.10236e-10
6.46819e-10
6.11342e-10
6.55783e-10
6.17214e-10
6.7269e-10
6.21599e-10
6.71171e-10
6.01387e-10
7.48722e-10
8.64195e-10
-8.53564e-10
1.57257e-09
2.14312e-09
-1.2649e-09
-1.05215e-09
7.33518e-10
8.80623e-10
4.61266e-10
2.89441e-10
3.4202e-10
4.43115e-10
4.68824e-10
4.84142e-10
4.78466e-10
4.99067e-10
4.99765e-10
5.22031e-10
5.23728e-10
5.44589e-10
5.38371e-10
5.53883e-10
5.50092e-10
5.69108e-10
5.61929e-10
5.76789e-10
5.69988e-10
5.87688e-10
5.81198e-10
5.97233e-10
5.8679e-10
6.00934e-10
5.91564e-10
6.08971e-10
6.01153e-10
6.17637e-10
6.03587e-10
6.16841e-10
6.04771e-10
6.23094e-10
6.1138e-10
6.29199e-10
6.13112e-10
6.3093e-10
6.15146e-10
6.38422e-10
6.22219e-10
6.45296e-10
6.17381e-10
6.39054e-10
6.1175e-10
6.44558e-10
6.13781e-10
6.52612e-10
6.21323e-10
6.68212e-10
6.28902e-10
6.66088e-10
6.14884e-10
7.39069e-10
8.59936e-10
-7.32621e-10
1.4652e-09
1.23989e-09
1.16208e-09
4.26958e-10
-6.46353e-11
-6.38377e-11
8.26672e-11
2.50047e-10
3.46083e-10
4.3118e-10
4.58755e-10
5.01422e-10
5.04939e-10
5.35052e-10
5.29821e-10
5.56644e-10
5.48843e-10
5.70873e-10
5.56628e-10
5.79991e-10
5.67828e-10
5.90354e-10
5.73859e-10
5.96436e-10
5.80333e-10
6.03549e-10
5.86863e-10
6.09602e-10
5.90296e-10
6.13688e-10
5.95036e-10
6.19743e-10
6.01316e-10
6.2454e-10
6.02052e-10
6.26146e-10
6.05507e-10
6.30323e-10
6.09747e-10
6.33679e-10
6.11515e-10
6.35686e-10
6.15614e-10
6.39563e-10
6.20091e-10
6.38517e-10
6.15588e-10
6.33742e-10
6.18937e-10
6.34582e-10
6.25241e-10
6.36545e-10
6.38335e-10
6.34022e-10
6.43546e-10
6.07984e-10
6.42825e-10
5.88495e-10
6.11866e-10
-3.09239e-10
2.37122e-10
1.26414e-09
1.1768e-09
4.20806e-10
-6.97481e-11
-6.54844e-11
8.26657e-11
2.50029e-10
3.46047e-10
4.30881e-10
4.58488e-10
5.01041e-10
5.04708e-10
5.34729e-10
5.29646e-10
5.5638e-10
5.48743e-10
5.70646e-10
5.56531e-10
5.79782e-10
5.67793e-10
5.90175e-10
5.73829e-10
5.96266e-10
5.80342e-10
6.03398e-10
5.86892e-10
6.09457e-10
5.90328e-10
6.13545e-10
5.95094e-10
6.19614e-10
6.01396e-10
6.24408e-10
6.02115e-10
6.26008e-10
6.05608e-10
6.30196e-10
6.09863e-10
6.33554e-10
6.11637e-10
6.35564e-10
6.15767e-10
6.39468e-10
6.2028e-10
6.38423e-10
6.15761e-10
6.3365e-10
6.19177e-10
6.34532e-10
6.25497e-10
6.36557e-10
6.38643e-10
6.34163e-10
6.43787e-10
6.08267e-10
6.42756e-10
5.91488e-10
6.20126e-10
-3.24184e-10
2.1803e-10
1.30642e-09
1.18702e-09
4.05966e-10
-7.54787e-11
-6.6082e-11
8.33375e-11
2.5051e-10
3.46186e-10
4.30848e-10
4.58163e-10
5.00701e-10
5.04301e-10
5.34432e-10
5.29286e-10
5.56133e-10
5.48481e-10
5.70496e-10
5.56266e-10
5.79614e-10
5.67598e-10
5.90081e-10
5.73643e-10
5.96174e-10
5.80207e-10
6.03343e-10
5.86777e-10
6.09426e-10
5.90216e-10
6.13512e-10
5.9501e-10
6.19599e-10
6.01337e-10
6.24419e-10
6.02034e-10
6.25991e-10
6.05573e-10
6.3021e-10
6.09846e-10
6.33583e-10
6.11626e-10
6.35585e-10
6.15795e-10
6.3952e-10
6.20368e-10
6.38525e-10
6.15838e-10
6.33717e-10
6.19327e-10
6.34682e-10
6.2565e-10
6.36754e-10
6.38823e-10
6.34576e-10
6.43905e-10
6.09049e-10
6.41341e-10
5.95419e-10
6.3721e-10
-3.55965e-10
1.99264e-10
1.36092e-09
1.18055e-09
3.84554e-10
-7.83073e-11
-6.53189e-11
8.49761e-11
2.51731e-10
3.46917e-10
4.31243e-10
4.58007e-10
5.00389e-10
5.03843e-10
5.34096e-10
5.28846e-10
5.55819e-10
5.48154e-10
5.70334e-10
5.55927e-10
5.79379e-10
5.67334e-10
5.89973e-10
5.73401e-10
5.96046e-10
5.80024e-10
6.03277e-10
5.86624e-10
6.094e-10
5.90066e-10
6.1347e-10
5.94892e-10
6.19587e-10
6.01256e-10
6.24466e-10
6.01924e-10
6.25972e-10
6.05512e-10
6.30248e-10
6.09811e-10
6.33652e-10
6.11592e-10
6.35633e-10
6.15798e-10
6.39627e-10
6.20447e-10
6.38751e-10
6.15883e-10
6.3387e-10
6.19427e-10
6.34996e-10
6.25703e-10
6.37163e-10
6.38785e-10
6.35476e-10
6.43472e-10
6.1084e-10
6.37603e-10
6.03299e-10
6.56658e-10
-4.01657e-10
1.93807e-10
1.41781e-09
1.14416e-09
3.59587e-10
-7.18659e-11
-6.16329e-11
8.75471e-11
2.5363e-10
3.48344e-10
4.32174e-10
4.5813e-10
5.00119e-10
5.03362e-10
5.33693e-10
5.28345e-10
5.55406e-10
5.47774e-10
5.70125e-10
5.55531e-10
5.79035e-10
5.67013e-10
5.89814e-10
5.73121e-10
5.95841e-10
5.79808e-10
6.03159e-10
5.86455e-10
6.0934e-10
5.89901e-10
6.13375e-10
5.94759e-10
6.19536e-10
6.01178e-10
6.24508e-10
6.01816e-10
6.25906e-10
6.05449e-10
6.30267e-10
6.09786e-10
6.33721e-10
6.11561e-10
6.35666e-10
6.15795e-10
6.39754e-10
6.20543e-10
6.39062e-10
6.15917e-10
6.34069e-10
6.19461e-10
6.35463e-10
6.25589e-10
6.3783e-10
6.384e-10
6.36988e-10
6.42264e-10
6.13884e-10
6.31428e-10
6.15513e-10
6.74098e-10
-4.56294e-10
2.13413e-10
1.47305e-09
1.06766e-09
3.31869e-10
-5.1109e-11
-5.34242e-11
9.0707e-11
2.55927e-10
3.50387e-10
4.3363e-10
4.58524e-10
4.99894e-10
5.02854e-10
5.33225e-10
5.27785e-10
5.54896e-10
5.47342e-10
5.69867e-10
5.55086e-10
5.78584e-10
5.66637e-10
5.89599e-10
5.72809e-10
5.95554e-10
5.79557e-10
6.02985e-10
5.86269e-10
6.09239e-10
5.89725e-10
6.13219e-10
5.94613e-10
6.19438e-10
6.01105e-10
6.24537e-10
6.01716e-10
6.25783e-10
6.05384e-10
6.30261e-10
6.09772e-10
6.33778e-10
6.11535e-10
6.35673e-10
6.15782e-10
6.39888e-10
6.20645e-10
6.39452e-10
6.15928e-10
6.34323e-10
6.19383e-10
6.36105e-10
6.25247e-10
6.38794e-10
6.37542e-10
6.39235e-10
6.40046e-10
6.18451e-10
6.22673e-10
6.32234e-10
6.87774e-10
-5.18469e-10
2.65624e-10
1.52825e-09
9.457e-10
2.99029e-10
-1.29168e-11
-3.89136e-11
9.42266e-11
2.58279e-10
3.52937e-10
4.35554e-10
4.59165e-10
4.99679e-10
5.02309e-10
5.32676e-10
5.27159e-10
5.54278e-10
5.4685e-10
5.69551e-10
5.54604e-10
5.7803e-10
5.66206e-10
5.89328e-10
5.72476e-10
5.95187e-10
5.79277e-10
6.02756e-10
5.86074e-10
6.09094e-10
5.89547e-10
6.13002e-10
5.94457e-10
6.19292e-10
6.01039e-10
6.24545e-10
6.01631e-10
6.25602e-10
6.05314e-10
6.30222e-10
6.09767e-10
6.33817e-10
6.11515e-10
6.35651e-10
6.15753e-10
6.40024e-10
6.2074e-10
6.39921e-10
6.159e-10
6.34644e-10
6.19155e-10
6.36938e-10
6.2462e-10
6.40126e-10
6.36099e-10
6.42317e-10
6.36645e-10
6.24739e-10
6.11374e-10
6.5313e-10
6.97746e-10
-5.88981e-10
3.53755e-10
1.58664e-09
7.77112e-10
2.57823e-10
4.39599e-11
-1.65221e-11
9.80334e-11
2.60373e-10
3.55866e-10
4.37876e-10
4.59993e-10
4.99429e-10
5.01686e-10
5.3201e-10
5.2645e-10
5.5354e-10
5.46285e-10
5.69161e-10
5.54086e-10
5.77374e-10
5.65722e-10
5.88992e-10
5.72128e-10
5.94743e-10
5.78971e-10
6.02471e-10
5.85877e-10
6.08904e-10
5.89373e-10
6.12724e-10
5.94296e-10
6.191e-10
6.00987e-10
6.24528e-10
6.01573e-10
6.25364e-10
6.05246e-10
6.30151e-10
6.09778e-10
6.33833e-10
6.11504e-10
6.356e-10
6.15705e-10
6.4017e-10
6.20816e-10
6.40464e-10
6.15822e-10
6.35055e-10
6.18734e-10
6.37989e-10
6.23652e-10
6.41876e-10
6.33995e-10
6.46272e-10
6.32043e-10
6.3268e-10
5.97994e-10
6.77033e-10
7.04986e-10
-6.67711e-10
4.76837e-10
1.65212e-09
5.66163e-10
2.04672e-10
1.18578e-10
1.50897e-11
1.02291e-10
2.61926e-10
3.59033e-10
4.40535e-10
4.60973e-10
4.99105e-10
5.00955e-10
5.31193e-10
5.25638e-10
5.52665e-10
5.45633e-10
5.68674e-10
5.5353e-10
5.76613e-10
5.65179e-10
5.88577e-10
5.71766e-10
5.94219e-10
5.78641e-10
6.02126e-10
5.8568e-10
6.08663e-10
5.8921e-10
6.12386e-10
5.94135e-10
6.1886e-10
6.00952e-10
6.24479e-10
6.01548e-10
6.25075e-10
6.05179e-10
6.30043e-10
6.09805e-10
6.33826e-10
6.11501e-10
6.35528e-10
6.15633e-10
6.40332e-10
6.20859e-10
6.41085e-10
6.15676e-10
6.35576e-10
6.18095e-10
6.3927e-10
6.22322e-10
6.44042e-10
6.31228e-10
6.51034e-10
6.26398e-10
6.41942e-10
5.83339e-10
7.02293e-10
7.11081e-10
-7.53738e-10
6.28831e-10
1.72684e-09
3.21498e-10
1.37146e-10
2.08064e-10
5.66059e-11
1.07326e-10
2.62714e-10
3.6228e-10
4.43466e-10
4.62074e-10
4.98687e-10
5.00092e-10
5.30209e-10
5.24715e-10
5.51642e-10
5.44877e-10
5.68067e-10
5.52927e-10
5.75745e-10
5.64573e-10
5.8807e-10
5.71386e-10
5.93613e-10
5.78285e-10
6.01716e-10
5.85484e-10
6.08365e-10
5.89058e-10
6.11989e-10
5.93976e-10
6.18573e-10
6.00936e-10
6.24391e-10
6.01557e-10
6.24739e-10
6.05113e-10
6.29903e-10
6.09846e-10
6.33797e-10
6.11503e-10
6.35441e-10
6.15532e-10
6.40514e-10
6.20858e-10
6.41782e-10
6.1545e-10
6.36221e-10
6.17236e-10
6.40768e-10
6.20642e-10
6.46584e-10
6.27895e-10
6.56424e-10
6.20034e-10
6.51988e-10
5.68504e-10
7.26991e-10
7.17723e-10
-8.44584e-10
8.00795e-10
1.81136e-09
5.47331e-11
5.41206e-11
3.07828e-10
1.08025e-10
1.13578e-10
2.62595e-10
3.6543e-10
4.4659e-10
4.63271e-10
4.98157e-10
4.99093e-10
5.29046e-10
5.23673e-10
5.50466e-10
5.44012e-10
5.67326e-10
5.52273e-10
5.7477e-10
5.63901e-10
5.87462e-10
5.70983e-10
5.92925e-10
5.77899e-10
6.01236e-10
5.85286e-10
6.08007e-10
5.88916e-10
6.11534e-10
5.93818e-10
6.18238e-10
6.00935e-10
6.24262e-10
6.01597e-10
6.24366e-10
6.05046e-10
6.29731e-10
6.09896e-10
6.33747e-10
6.11502e-10
6.35349e-10
6.15396e-10
6.40721e-10
6.20806e-10
6.42546e-10
6.15145e-10
6.36985e-10
6.16172e-10
6.42445e-10
6.18668e-10
6.4942e-10
6.2415e-10
6.62177e-10
6.13377e-10
6.62154e-10
5.54611e-10
7.49393e-10
7.26293e-10
-9.36501e-10
9.81847e-10
1.90396e-09
-2.20229e-10
-4.38388e-11
4.12542e-10
1.68518e-10
1.21542e-10
2.61527e-10
3.6828e-10
4.49809e-10
4.64531e-10
4.97511e-10
4.9796e-10
5.27703e-10
5.22511e-10
5.49134e-10
5.43036e-10
5.66441e-10
5.51565e-10
5.73692e-10
5.63164e-10
5.86743e-10
5.70554e-10
5.92155e-10
5.77482e-10
6.00683e-10
5.85083e-10
6.07584e-10
5.8878e-10
6.11024e-10
5.9366e-10
6.17854e-10
6.00948e-10
6.24087e-10
6.01663e-10
6.23961e-10
6.04976e-10
6.29528e-10
6.09952e-10
6.33677e-10
6.11498e-10
6.35255e-10
6.15227e-10
6.40945e-10
6.20703e-10
6.43361e-10
6.14772e-10
6.3785e-10
6.1494e-10
6.44236e-10
6.16485e-10
6.52414e-10
6.2021e-10
6.67975e-10
6.06904e-10
6.7177e-10
5.42665e-10
7.68129e-10
7.37637e-10
-1.02478e-09
1.16107e-09
2.00172e-09
-4.90267e-10
-1.54962e-10
5.16539e-10
2.36638e-10
1.31786e-10
2.59628e-10
3.70654e-10
4.53011e-10
4.65832e-10
4.96758e-10
4.967e-10
5.26184e-10
5.21231e-10
5.47651e-10
5.4195e-10
5.6541e-10
5.50802e-10
5.72516e-10
5.62365e-10
5.85913e-10
5.70094e-10
5.91307e-10
5.77034e-10
6.00055e-10
5.8487e-10
6.07097e-10
5.88645e-10
6.10462e-10
5.935e-10
6.17424e-10
6.00968e-10
6.23865e-10
6.0175e-10
6.23528e-10
6.04902e-10
6.29293e-10
6.10009e-10
6.33586e-10
6.11489e-10
6.35159e-10
6.15029e-10
6.41183e-10
6.20556e-10
6.44203e-10
6.1435e-10
6.38785e-10
6.13594e-10
6.46059e-10
6.14216e-10
6.55407e-10
6.16309e-10
6.73488e-10
6.01072e-10
6.8024e-10
5.33444e-10
7.82458e-10
7.51837e-10
-1.10479e-09
1.32911e-09
2.10019e-09
-7.44353e-10
-2.75791e-10
6.14649e-10
3.10399e-10
1.44836e-10
2.57144e-10
3.72389e-10
4.56066e-10
4.67151e-10
4.95915e-10
4.95329e-10
5.24496e-10
5.19839e-10
5.46025e-10
5.40762e-10
5.64234e-10
5.49982e-10
5.71252e-10
5.61507e-10
5.8497e-10
5.69599e-10
5.90386e-10
5.76556e-10
5.99353e-10
5.84647e-10
6.06544e-10
5.88509e-10
6.09852e-10
5.93337e-10
6.16947e-10
6.00993e-10
6.23595e-10
6.01852e-10
6.23074e-10
6.04823e-10
6.29022e-10
6.10064e-10
6.33472e-10
6.11474e-10
6.35059e-10
6.14811e-10
6.41418e-10
6.20378e-10
6.4504e-10
6.1391e-10
6.39745e-10
6.12207e-10
6.47823e-10
6.11986e-10
6.5823e-10
6.12689e-10
6.78411e-10
5.96268e-10
6.87124e-10
5.27407e-10
7.92156e-10
7.68362e-10
-1.17256e-09
1.47869e-09
2.19441e-09
-9.72952e-10
-4.0176e-10
7.02447e-10
3.87439e-10
1.6107e-10
2.54409e-10
3.73354e-10
4.58828e-10
4.68455e-10
4.94997e-10
4.93863e-10
5.2265e-10
5.18342e-10
5.44267e-10
5.39479e-10
5.62918e-10
5.49106e-10
5.69907e-10
5.60597e-10
5.83918e-10
5.69067e-10
5.89395e-10
5.76049e-10
5.98578e-10
5.8441e-10
6.05929e-10
5.88371e-10
6.09199e-10
5.93172e-10
6.16424e-10
6.01019e-10
6.23277e-10
6.01964e-10
6.22601e-10
6.04742e-10
6.28717e-10
6.10117e-10
6.33331e-10
6.1146e-10
6.34949e-10
6.14584e-10
6.41633e-10
6.20189e-10
6.4584e-10
6.13487e-10
6.40671e-10
6.10859e-10
6.4943e-10
6.09926e-10
6.60721e-10
6.09567e-10
6.82489e-10
5.92778e-10
6.9215e-10
5.24734e-10
7.9739e-10
7.86266e-10
-1.22473e-09
1.60444e-09
2.27927e-09
-1.16903e-09
-5.27909e-10
7.76562e-10
4.65213e-10
1.80686e-10
2.51811e-10
3.7345e-10
4.61144e-10
4.69703e-10
4.94021e-10
4.9232e-10
5.20659e-10
5.16747e-10
5.42384e-10
5.38108e-10
5.61466e-10
5.48175e-10
5.68487e-10
5.5964e-10
5.82763e-10
5.68499e-10
5.88342e-10
5.75516e-10
5.97732e-10
5.84156e-10
6.05255e-10
5.88228e-10
6.08506e-10
5.93005e-10
6.15856e-10
6.01045e-10
6.22912e-10
6.02084e-10
6.2211e-10
6.04661e-10
6.28372e-10
6.1017e-10
6.33157e-10