/*--------------------------------*- C++ -*----------------------------------*\
| =========                 |                                                 |
| \\      /  F ield         | OpenFOAM: The Open Source CFD Toolbox           |
|  \\    /   O peration     | Version:  2312                                  |
|   \\  /    A nd           | Website:  www.openfoam.com                      |
|    \\/     M anipulation  |                                                 |
\*---------------------------------------------------------------------------*/
FoamFile
{
    version     2.0;
    format      ascii;
    arch        "LSB;label=32;scalar=64";
    class       volScalarField;
    location    "1000";
    object      pPrime2Mean;
}
// * * * * * * * * * * * * * * * * * * * * * * * * * * * * * * * * * * * * * //

dimensions      [0 4 -4 0 0 0 0];

internalField   nonuniform List<scalar> 
144000
(
4.96089e-18
4.31009e-18
5.45738e-18
6.25129e-18
4.6497e-18
3.04361e-18
2.36703e-18
2.07263e-18
1.89609e-18
1.76306e-18
1.66727e-18
1.51768e-18
1.40879e-18
1.29918e-18
1.23409e-18
1.16251e-18
1.13916e-18
1.0695e-18
1.0465e-18
9.98098e-19
9.78422e-19
9.2404e-19
9.15789e-19
8.70366e-19
8.74816e-19
8.27546e-19
8.3811e-19
7.96113e-19
7.94231e-19
7.66825e-19
7.62064e-19
7.38271e-19
7.39034e-19
7.03686e-19
7.18594e-19
6.8133e-19
6.87728e-19
6.73275e-19
6.57828e-19
6.50375e-19
6.56221e-19
6.13194e-19
6.55384e-19
6.10798e-19
6.14007e-19
6.32364e-19
5.80785e-19
6.0475e-19
6.44932e-19
5.21777e-19
6.98927e-19
6.02354e-19
5.65e-19
8.6037e-19
5.93851e-19
7.62423e-19
1.48793e-18
9.27201e-19
2.35604e-18
4.92747e-18
5.21658e-18
4.39194e-18
5.59282e-18
6.35585e-18
4.69429e-18
3.06394e-18
2.37942e-18
2.08109e-18
1.90131e-18
1.76689e-18
1.67031e-18
1.51983e-18
1.41005e-18
1.3003e-18
1.23479e-18
1.16312e-18
1.13986e-18
1.07004e-18
1.04682e-18
9.98622e-19
9.78729e-19
9.24383e-19
9.15934e-19
8.70699e-19
8.75057e-19
8.27751e-19
8.38309e-19
7.96467e-19
7.94208e-19
7.67227e-19
7.62099e-19
7.38531e-19
7.39294e-19
7.03705e-19
7.18911e-19
6.81604e-19
6.87646e-19
6.73961e-19
6.57741e-19
6.50667e-19
6.5691e-19
6.13024e-19
6.56126e-19
6.11583e-19
6.13772e-19
6.34157e-19
5.81126e-19
6.05265e-19
6.48339e-19
5.21333e-19
7.02541e-19
6.07491e-19
5.65307e-19
8.71572e-19
6.03542e-19
7.68391e-19
1.52388e-18
9.67838e-19
2.45156e-18
4.98433e-18
5.42191e-18
4.45425e-18
5.60969e-18
6.40146e-18
4.68459e-18
3.05318e-18
2.3772e-18
2.0826e-18
1.90326e-18
1.76915e-18
1.67268e-18
1.52151e-18
1.41114e-18
1.30118e-18
1.23546e-18
1.16355e-18
1.14087e-18
1.07054e-18
1.04726e-18
9.99185e-19
9.79233e-19
9.24654e-19
9.16251e-19
8.70929e-19
8.75574e-19
8.27822e-19
8.38786e-19
7.96807e-19
7.94295e-19
7.67685e-19
7.62243e-19
7.38784e-19
7.39829e-19
7.03599e-19
7.19538e-19
6.81885e-19
6.87666e-19
6.7492e-19
6.57768e-19
6.51006e-19
6.58168e-19
6.12606e-19
6.57532e-19
6.12641e-19
6.13704e-19
6.36863e-19
5.81854e-19
6.06082e-19
6.53495e-19
5.2108e-19
7.07344e-19
6.15499e-19
5.65769e-19
8.85113e-19
6.18604e-19
7.69298e-19
1.55554e-18
1.01851e-18
2.53857e-18
5.05919e-18
5.4443e-18
4.32571e-18
5.42757e-18
6.28498e-18
4.58216e-18
2.98881e-18
2.34597e-18
2.06776e-18
1.89612e-18
1.76557e-18
1.671e-18
1.52043e-18
1.41036e-18
1.30075e-18
1.23514e-18
1.16326e-18
1.1415e-18
1.07068e-18
1.04741e-18
9.99577e-19
9.7959e-19
9.24805e-19
9.1645e-19
8.71062e-19
8.76079e-19
8.27818e-19
8.39311e-19
7.97149e-19
7.94314e-19
7.68216e-19
7.62361e-19
7.39061e-19
7.40499e-19
7.03437e-19
7.20284e-19
6.82216e-19
6.87667e-19
6.76108e-19
6.57837e-19
6.51379e-19
6.59791e-19
6.1203e-19
6.59326e-19
6.13942e-19
6.13701e-19
6.40101e-19
5.82867e-19
6.06935e-19
6.59441e-19
5.21351e-19
7.11317e-19
6.25761e-19
5.64712e-19
8.95602e-19
6.37541e-19
7.54057e-19
1.57514e-18
1.05272e-18
2.52275e-18
5.01078e-18
5.27757e-18
3.9763e-18
5.06849e-18
5.98719e-18
4.38736e-18
2.87347e-18
2.28645e-18
2.03611e-18
1.87788e-18
1.75374e-18
1.66309e-18
1.51495e-18
1.40647e-18
1.29805e-18
1.23307e-18
1.1617e-18
1.14113e-18
1.07001e-18
1.04686e-18
9.99489e-19
9.79517e-19
9.24684e-19
9.16314e-19
8.70978e-19
8.76394e-19
8.27675e-19
8.39739e-19
7.97421e-19
7.94187e-19
7.6874e-19
7.62377e-19
7.39312e-19
7.41212e-19
7.0323e-19
7.21016e-19
6.82595e-19
6.8759e-19
6.77438e-19
6.57935e-19
6.51731e-19
6.61583e-19
6.1138e-19
6.61237e-19
6.15412e-19
6.13699e-19
6.43484e-19
5.84071e-19
6.07556e-19
6.65493e-19
5.21955e-19
7.1364e-19
6.36898e-19
5.61898e-19
9.01032e-19
6.58194e-19
7.22735e-19
1.58705e-18
1.06291e-18
2.42126e-18
4.83425e-18
5.02427e-18
3.54433e-18
4.63325e-18
5.5983e-18
4.14979e-18
2.73271e-18
2.20923e-18
1.99287e-18
1.8509e-18
1.73461e-18
1.64896e-18
1.5049e-18
1.39911e-18
1.29269e-18
1.22895e-18
1.15855e-18
1.13942e-18
1.06827e-18
1.04539e-18
9.98666e-19
9.78793e-19
9.24158e-19
9.1571e-19
8.70534e-19
8.76393e-19
8.27303e-19
8.3995e-19
7.9753e-19
7.93861e-19
7.69163e-19
7.62249e-19
7.39478e-19
7.41879e-19
7.02977e-19
7.21619e-19
6.82989e-19
6.87401e-19
6.78796e-19
6.58042e-19
6.52001e-19
6.63387e-19
6.10686e-19
6.63069e-19
6.16957e-19
6.13599e-19
6.46765e-19
5.85283e-19
6.07812e-19
6.71123e-19
5.22536e-19
7.14509e-19
6.47213e-19
5.58315e-19
9.01293e-19
6.78591e-19
6.8293e-19
1.59486e-18
1.05513e-18
2.31497e-18
4.63766e-18
4.78133e-18
3.19177e-18
4.21563e-18
5.19128e-18
3.90133e-18
2.58411e-18
2.12409e-18
1.94262e-18
1.8178e-18
1.70991e-18
1.62998e-18
1.49091e-18
1.38863e-18
1.28486e-18
1.22286e-18
1.15383e-18
1.13628e-18
1.06538e-18
1.04292e-18
9.96992e-19
9.77298e-19
9.23139e-19
9.14547e-19
8.69658e-19
8.7599e-19
8.2665e-19
8.39852e-19
7.97416e-19
7.93288e-19
7.69416e-19
7.61932e-19
7.39508e-19
7.4242e-19
7.02667e-19
7.22015e-19
6.83359e-19
6.87073e-19
6.80087e-19
6.58129e-19
6.52145e-19
6.65063e-19
6.09984e-19
6.64658e-19
6.18479e-19
6.1337e-19
6.49719e-19
5.86373e-19
6.07691e-19
6.76023e-19
5.22937e-19
7.14357e-19
6.55661e-19
5.55105e-19
8.97052e-19
6.97247e-19
6.4191e-19
1.59778e-18
1.03224e-18
2.26081e-18
4.51142e-18
4.5877e-18
3.02113e-18
3.85051e-18
4.80565e-18
3.65604e-18
2.43641e-18
2.03506e-18
1.88788e-18
1.78056e-18
1.68148e-18
1.60744e-18
1.47399e-18
1.37567e-18
1.27496e-18
1.21503e-18
1.14769e-18
1.1318e-18
1.06146e-18
1.03952e-18
9.94488e-19
9.75028e-19
9.21607e-19
9.12817e-19
8.68326e-19
8.7515e-19
8.25715e-19
8.39384e-19
7.97053e-19
7.9244e-19
7.69455e-19
7.61397e-19
7.39379e-19
7.4277e-19
7.02302e-19
7.22151e-19
6.83664e-19
6.86601e-19
6.81225e-19
6.58173e-19
6.52147e-19
6.66507e-19
6.09301e-19
6.65915e-19
6.19879e-19
6.1304e-19
6.5222e-19
5.87294e-19
6.07253e-19
6.80038e-19
5.23114e-19
7.13594e-19
6.61835e-19
5.52856e-19
8.89313e-19
7.13722e-19
6.02802e-19
1.59461e-18
9.982e-19
2.27223e-18
4.50031e-18
4.46441e-18
3.08739e-18
3.54659e-18
4.46269e-18
3.41874e-18
2.29248e-18
1.94436e-18
1.83016e-18
1.74045e-18
1.65038e-18
1.58237e-18
1.45494e-18
1.36086e-18
1.26342e-18
1.2057e-18
1.14032e-18
1.12613e-18
1.05665e-18
1.03532e-18
9.9125e-19
9.72056e-19
9.19601e-19
9.10567e-19
8.66558e-19
8.73875e-19
8.24531e-19
8.38527e-19
7.96452e-19
7.91326e-19
7.69269e-19
7.6064e-19
7.39092e-19
7.42892e-19
7.01892e-19
7.22013e-19
6.83878e-19
6.85998e-19
6.82165e-19
6.58165e-19
6.52019e-19
6.6766e-19
6.08668e-19
6.66837e-19
6.21096e-19
6.12668e-19
6.54227e-19
5.88044e-19
6.06622e-19
6.83203e-19
5.23105e-19
7.1256e-19
6.65877e-19
5.51713e-19
8.7931e-19
7.27959e-19
5.67414e-19
1.58597e-18
9.59982e-19
2.34575e-18
4.61055e-18
4.4234e-18
3.39086e-18
3.30625e-18
4.17073e-18
3.19466e-18
2.15398e-18
1.85363e-18
1.77061e-18
1.69846e-18
1.61746e-18
1.55548e-18
1.43442e-18
1.34473e-18
1.25063e-18
1.19519e-18
1.13193e-18
1.11943e-18
1.05113e-18
1.03047e-18
9.87408e-19
9.68501e-19
9.17182e-19
9.07872e-19
8.64405e-19
8.72185e-19
8.23158e-19
8.37292e-19
7.95645e-19
7.89983e-19
7.68868e-19
7.59684e-19
7.3866e-19
7.42775e-19
7.01453e-19
7.2162e-19
6.83993e-19
6.85295e-19
6.82896e-19
6.5811e-19
6.51789e-19
6.68518e-19
6.08115e-19
6.67465e-19
6.22126e-19
6.12303e-19
6.55809e-19
5.88665e-19
6.05872e-19
6.8568e-19
5.22956e-19
7.11424e-19
6.68215e-19
5.51503e-19
8.67934e-19
7.39891e-19
5.37062e-19
1.57062e-18
9.24483e-19
2.46547e-18
4.80953e-18
4.46373e-18
3.86943e-18
3.13122e-18
3.93093e-18
2.98865e-18
2.02237e-18
1.76444e-18
1.71024e-18
1.65544e-18
1.58339e-18
1.52731e-18
1.41285e-18
1.32772e-18
1.237e-18
1.18382e-18
1.12275e-18
1.11184e-18
1.045e-18
1.02511e-18
9.83091e-19
9.64505e-19
9.14436e-19
9.04821e-19
8.61943e-19
8.70109e-19
8.21657e-19
8.35712e-19
7.94674e-19
7.88462e-19
7.68279e-19
7.58558e-19
7.38108e-19
7.42432e-19
7.01003e-19
7.21009e-19
6.84015e-19
6.84523e-19
6.83432e-19
6.5802e-19
6.51482e-19
6.69117e-19
6.0766e-19
6.67839e-19
6.23012e-19
6.11944e-19
6.57044e-19
5.8922e-19
6.04983e-19
6.87636e-19
5.22724e-19
7.10073e-19
6.69356e-19
5.51799e-19
8.55618e-19
7.49352e-19
5.11473e-19
1.54629e-18
8.95287e-19
2.6037e-18
5.03438e-18
4.56352e-18
4.40127e-18
3.01918e-18
3.73006e-18
2.80532e-18
1.89902e-18
1.67828e-18
1.65001e-18
1.6122e-18
1.54875e-18
1.49827e-18
1.39056e-18
1.31018e-18
1.2229e-18
1.17193e-18
1.11303e-18
1.10353e-18
1.0384e-18
1.01932e-18
9.78405e-19
9.60183e-19
9.11453e-19
9.01508e-19
8.5926e-19
8.67684e-19
8.20076e-19
8.3383e-19
7.9357e-19
7.8682e-19
7.67542e-19
7.57299e-19
7.37462e-19
7.41886e-19
7.00551e-19
7.20215e-19
6.83962e-19
6.83708e-19
6.83787e-19
6.57911e-19
6.51109e-19
6.69485e-19
6.07316e-19
6.67949e-19
6.23805e-19
6.11556e-19
6.57943e-19
5.89767e-19
6.0385e-19
6.89113e-19
5.22465e-19
7.08155e-19
6.69688e-19
5.52049e-19
8.42366e-19
7.5592e-19
4.89933e-19
1.51058e-18
8.73968e-19
2.72212e-18
5.20485e-18
4.68681e-18
4.85766e-18
2.96069e-18
3.54963e-18
2.64731e-18
1.78497e-18
1.5964e-18
1.59074e-18
1.56942e-18
1.51413e-18
1.46874e-18
1.36783e-18
1.29236e-18
1.20861e-18
1.15979e-18
1.10303e-18
1.0947e-18
1.03145e-18
1.01321e-18
9.73423e-19
9.55641e-19
9.08318e-19
8.9802e-19
8.56455e-19
8.64956e-19
8.18455e-19
8.31692e-19
7.92355e-19
7.85101e-19
7.66693e-19
7.55946e-19
7.36746e-19
7.41166e-19
7.00111e-19
7.19258e-19
6.83851e-19
6.82859e-19
6.83974e-19
6.57802e-19
6.50659e-19
6.69634e-19
6.0709e-19
6.67766e-19
6.24532e-19
6.11086e-19
6.58454e-19
5.90338e-19
6.02366e-19
6.90002e-19
5.22254e-19
7.05237e-19
6.69348e-19
5.51773e-19
8.28082e-19
7.5897e-19
4.71917e-19
1.4624e-18
8.60047e-19
2.78384e-18
5.25149e-18
4.78586e-18
5.13808e-18
2.93697e-18
3.37082e-18
2.51399e-18
1.68106e-18
1.5198e-18
1.53318e-18
1.52763e-18
1.48007e-18
1.43913e-18
1.34493e-18
1.27447e-18
1.19433e-18
1.14765e-18
1.09298e-18
1.08554e-18
1.02427e-18
1.00687e-18
9.68206e-19
9.50951e-19
9.05099e-19
8.94428e-19
8.53612e-19
8.61987e-19
8.16832e-19
8.29339e-19
7.91043e-19
7.83343e-19
7.65761e-19
7.54529e-19
7.35985e-19
7.40299e-19
6.99687e-19
7.18152e-19
6.83687e-19
6.81986e-19
6.83984e-19
6.57697e-19
6.50128e-19
6.69548e-19
6.06992e-19
6.67226e-19
6.25184e-19
6.10502e-19
6.58497e-19
5.9091e-19
6.00475e-19
6.90128e-19
5.22164e-19
7.01022e-19
6.68378e-19
5.50666e-19
8.12744e-19
7.58121e-19
4.57218e-19
1.40298e-18
8.51746e-19
2.7658e-18
5.13756e-18
4.81813e-18
5.18509e-18
2.92372e-18
3.1801e-18
2.40256e-18
1.58794e-18
1.44922e-18
1.47786e-18
1.48725e-18
1.44703e-18
1.40985e-18
1.32211e-18
1.25667e-18
1.18019e-18
1.13566e-18
1.08308e-18
1.07623e-18
1.01698e-18
1.00038e-18
9.62816e-19
9.46159e-19
9.0185e-19
8.90786e-19
8.50801e-19
8.58844e-19
8.15231e-19
8.2682e-19
7.89638e-19
7.81576e-19
7.64761e-19
7.53069e-19
7.35202e-19
7.39307e-19
6.99291e-19
7.16912e-19
6.83471e-19
6.81094e-19
6.8381e-19
6.57592e-19
6.49526e-19
6.69207e-19
6.07028e-19
6.66307e-19
6.25731e-19
6.09803e-19
6.58029e-19
5.91431e-19
5.9823e-19
6.89358e-19
5.22271e-19
6.9543e-19
6.66817e-19
5.48621e-19
7.96607e-19
7.53351e-19
4.45928e-19
1.33478e-18
8.4683e-19
2.65985e-18
4.86211e-18
4.75389e-18
4.99438e-18
2.89748e-18
2.97162e-18
2.30776e-18
1.50605e-18
1.38508e-18
1.4252e-18
1.44845e-18
1.4153e-18
1.38124e-18
1.29961e-18
1.23908e-18
1.16628e-18
1.12392e-18
1.07345e-18
1.0669e-18
1.00971e-18
9.9384e-19
9.57317e-19
9.41299e-19
8.98608e-19
8.8713e-19
8.48071e-19
8.55588e-19
8.13678e-19
8.24186e-19
7.88149e-19
7.79822e-19
7.63705e-19
7.51576e-19
7.34424e-19
7.38213e-19
6.98929e-19
7.15559e-19
6.83199e-19
6.80194e-19
6.83455e-19
6.57473e-19
6.48881e-19
6.68598e-19
6.07206e-19
6.65028e-19
6.26148e-19
6.09009e-19
6.57074e-19
5.91842e-19
5.9576e-19
6.87647e-19
5.22644e-19
6.8858e-19
6.64757e-19
5.45708e-19
7.80161e-19
7.45049e-19
4.38272e-19
1.26119e-18
8.42911e-19
2.47416e-18
4.45311e-18
4.57701e-18
4.60276e-18
2.83727e-18
2.74712e-18
2.22343e-18
1.43549e-18
1.32749e-18
1.37547e-18
1.41128e-18
1.38507e-18
1.35358e-18
1.27765e-18
1.22182e-18
1.15268e-18
1.11249e-18
1.06415e-18
1.05769e-18
1.00256e-18
9.8734e-19
9.51775e-19
9.364e-19
8.954e-19
8.83481e-19
8.45452e-19
8.52273e-19
8.1219e-19
8.21487e-19
7.86592e-19
7.78099e-19
7.62607e-19
7.50059e-19
7.33673e-19
7.37033e-19
6.98614e-19
7.14125e-19
6.82871e-19
6.79298e-19
6.8294e-19
6.57322e-19
6.48232e-19
6.67725e-19
6.07529e-19
6.63446e-19
6.26425e-19
6.08153e-19
6.55721e-19
5.92093e-19
5.93228e-19
6.85053e-19
5.23337e-19
6.8075e-19
6.62356e-19
5.42118e-19
7.6399e-19
7.33914e-19
4.34486e-19
1.18567e-18
8.37927e-19
2.2276e-18
3.95858e-18
4.29255e-18
4.07316e-18
2.73074e-18
2.51356e-18
2.1437e-18
1.37593e-18
1.27632e-18
1.32886e-18
1.37571e-18
1.35636e-18
1.32706e-18
1.25639e-18
1.205e-18
1.13942e-18
1.1014e-18
1.05524e-18
1.04865e-18
9.95583e-19
9.80955e-19
9.46253e-19
9.31493e-19
8.92246e-19
8.79855e-19
8.42955e-19
8.48944e-19
8.10779e-19
8.18772e-19
7.84983e-19
7.76424e-19
7.6148e-19
7.4852e-19
7.32965e-19
7.35786e-19
6.98348e-19
7.12647e-19
6.82496e-19
6.78415e-19
6.82301e-19
6.57124e-19
6.47617e-19
6.6662e-19
6.0799e-19
6.61639e-19
6.26575e-19
6.07265e-19
6.54093e-19
5.92156e-19
5.9079e-19
6.81699e-19
5.24378e-19
6.72268e-19
6.59782e-19
5.38102e-19
7.48621e-19
7.20783e-19
4.34507e-19
1.11134e-18
8.30456e-19
1.94702e-18
3.42813e-18
3.91958e-18
3.47878e-18
2.57392e-18
2.28009e-18
2.06379e-18
1.32668e-18
1.23133e-18
1.28544e-18
1.34166e-18
1.32913e-18
1.30177e-18
1.23598e-18
1.18868e-18
1.12653e-18
1.09064e-18
1.04672e-18
1.03985e-18
9.88827e-19
9.74737e-19
9.40807e-19
9.26606e-19
8.89167e-19
8.76264e-19
8.4058e-19
8.45634e-19
8.09447e-19
8.16079e-19
7.83344e-19
7.7481e-19
7.60342e-19
7.46961e-19
7.32311e-19
7.34491e-19
6.98135e-19
7.11158e-19
6.82087e-19
6.77554e-19
6.8158e-19
6.5687e-19
6.47067e-19
6.65323e-19
6.08583e-19
6.5969e-19
6.26626e-19
6.0637e-19
6.52322e-19
5.92023e-19
5.88573e-19
6.77757e-19
5.25769e-19
6.63464e-19
6.57195e-19
5.33913e-19
7.3446e-19
7.06496e-19
4.38006e-19
1.04051e-18
8.19709e-19
1.6603e-18
2.90646e-18
3.48869e-18
2.88348e-18
2.37197e-18
2.05559e-18
1.98047e-18
1.28663e-18
1.19214e-18
1.24523e-18
1.30902e-18
1.30328e-18
1.27775e-18
1.21648e-18
1.17291e-18
1.11402e-18
1.0802e-18
1.03858e-18
1.0313e-18
9.8231e-19
9.68718e-19
9.35479e-19
9.21764e-19
8.86177e-19
8.72716e-19
8.38319e-19
8.42371e-19
8.08191e-19
8.13436e-19
7.81697e-19
7.73269e-19
7.59211e-19
7.45389e-19
7.31719e-19
7.33166e-19
6.97976e-19
7.09686e-19
6.8166e-19
6.76721e-19
6.80821e-19
6.56558e-19
6.46604e-19
6.63882e-19
6.09294e-19
6.57666e-19
6.26611e-19
6.05487e-19
6.50526e-19
5.91702e-19
5.86659e-19
6.73405e-19
5.27484e-19
6.5464e-19
6.54707e-19
5.2979e-19
7.21734e-19
6.91764e-19
4.44414e-19
9.74772e-19
8.0547e-19
1.39207e-18
2.42619e-18
3.03189e-18
2.33468e-18
2.13579e-18
1.84784e-18
1.89227e-18
1.25442e-18
1.15835e-18
1.20819e-18
1.27772e-18
1.27863e-18
1.25495e-18
1.19792e-18
1.15772e-18
1.10191e-18
1.07008e-18
1.03079e-18
1.02301e-18
9.7604e-19
9.62914e-19
9.303e-19
9.16988e-19
8.83284e-19
8.6922e-19
8.3616e-19
8.39172e-19
8.07004e-19
8.10864e-19
7.80062e-19
7.71806e-19
7.58103e-19
7.43808e-19
7.31189e-19
7.31831e-19
6.97868e-19
7.08251e-19
6.8123e-19
6.7592e-19
6.80062e-19
6.56193e-19
6.4624e-19
6.6234e-19
6.10109e-19
6.55627e-19
6.26562e-19
6.04632e-19
6.48798e-19
5.91214e-19
5.85092e-19
6.6881e-19
5.29474e-19
6.46041e-19
6.52387e-19
5.25925e-19
7.10486e-19
6.77166e-19
4.53018e-19
9.14942e-19
7.88155e-19
1.15933e-18
2.00624e-18
2.58208e-18
1.86199e-18
1.88175e-18
1.66049e-18
1.79945e-18
1.22855e-18
1.12951e-18
1.17421e-18
1.24772e-18
1.25505e-18
1.23331e-18
1.18031e-18
1.14312e-18
1.09018e-18
1.06026e-18
1.02332e-18
1.01499e-18
9.70015e-19
9.5733e-19
9.2529e-19
9.12295e-19
8.80496e-19
8.65789e-19
8.34092e-19
8.36049e-19
8.05878e-19
8.08375e-19
7.78454e-19
7.70424e-19
7.57031e-19
7.42229e-19
7.30718e-19
7.30501e-19
6.97807e-19
7.06866e-19
6.80811e-19
6.75154e-19
6.7933e-19
6.55782e-19
6.45978e-19
6.6074e-19
6.11013e-19
6.53615e-19
6.26502e-19
6.03818e-19
6.47201e-19
5.90589e-19
5.83883e-19
6.64119e-19
5.31674e-19
6.37856e-19
6.50255e-19
5.22472e-19
7.00655e-19
6.63133e-19
4.63056e-19
8.61338e-19
7.68438e-19
9.72833e-19
1.6537e-18
2.16805e-18
1.48022e-18
1.6285e-18
1.49526e-18
1.70368e-18
1.20756e-18
1.10519e-18
1.14318e-18
1.21899e-18
1.23241e-18
1.21275e-18
1.16362e-18
1.12911e-18
1.07882e-18
1.05073e-18
1.01616e-18
1.00723e-18
9.64229e-19
9.51963e-19
9.20454e-19
9.07696e-19
8.77815e-19
8.62428e-19
8.32101e-19
8.33013e-19
8.04805e-19
8.05973e-19
7.76885e-19
7.69127e-19
7.56005e-19
7.40658e-19
7.30304e-19
7.29186e-19
6.97793e-19
7.05538e-19
6.80409e-19
6.74425e-19
6.78646e-19
6.55336e-19
6.45818e-19
6.59117e-19
6.11993e-19
6.51663e-19
6.26445e-19
6.03057e-19
6.45774e-19
5.8986e-19
5.8302e-19
6.59455e-19
5.34016e-19
6.30221e-19
6.48288e-19
5.19537e-19
6.92092e-19
6.49963e-19
4.73839e-19
8.13923e-19
7.46979e-19
8.36846e-19
1.36783e-18
1.81368e-18
1.18961e-18
1.39504e-18
1.35164e-18
1.60747e-18
1.19027e-18
1.08503e-18
1.11498e-18
1.19157e-18
1.2106e-18
1.19316e-18
1.14781e-18
1.11567e-18
1.06784e-18
1.04148e-18
1.00926e-18
9.99713e-19
9.58673e-19
9.46807e-19
9.15791e-19
9.03199e-19
8.75241e-19
8.59144e-19
8.30175e-19
8.30068e-19
8.03777e-19
8.03658e-19
7.75364e-19
7.67916e-19
7.55031e-19
7.39104e-19
7.29939e-19
7.27896e-19
6.97822e-19
7.04271e-19
6.80032e-19
6.73736e-19
6.78019e-19
6.54862e-19
6.45755e-19
6.57498e-19
6.13034e-19
6.49796e-19
6.26395e-19
6.02362e-19
6.44533e-19
5.89062e-19
5.82474e-19
6.54913e-19
5.36432e-19
6.23247e-19
6.46438e-19
5.17192e-19
6.84627e-19
6.3784e-19
4.84782e-19
7.72477e-19
7.24223e-19
7.50603e-19
1.14156e-18
1.53608e-18
9.78999e-19
1.19764e-18
1.22774e-18
1.51327e-18
1.17568e-18
1.06867e-18
1.08951e-18
1.16549e-18
1.18954e-18
1.17444e-18
1.13283e-18
1.10279e-18
1.05719e-18
1.03249e-18
1.0026e-18
9.92426e-19
9.53337e-19
9.41852e-19
9.11294e-19
8.98804e-19
8.72772e-19
8.55939e-19
8.28305e-19
8.27213e-19
8.02786e-19
8.01426e-19
7.73898e-19
7.66792e-19
7.54111e-19
7.37571e-19
7.29619e-19
7.26637e-19
6.97895e-19
7.03067e-19
6.79678e-19
6.73089e-19
6.77456e-19
6.54371e-19
6.45781e-19
6.55909e-19
6.14122e-19
6.48031e-19
6.26351e-19
6.01747e-19
6.43486e-19
5.88229e-19
5.82209e-19
6.50574e-19
5.38854e-19
6.16996e-19
6.44656e-19
5.15473e-19
6.7809e-19
6.26896e-19
4.95412e-19
7.36679e-19
7.00592e-19
7.08958e-19
9.64008e-19
4.98285e-18
4.32224e-18
5.4658e-18
6.26079e-18
4.65706e-18
3.04654e-18
2.36863e-18
2.07422e-18
1.89775e-18
1.76427e-18
1.66804e-18
1.51818e-18
1.40905e-18
1.29922e-18
1.23397e-18
1.1623e-18
1.13903e-18
1.06957e-18
1.04665e-18
9.98278e-19
9.78613e-19
9.24259e-19
9.16002e-19
8.70504e-19
8.74955e-19
8.27593e-19
8.38193e-19
7.96187e-19
7.94301e-19
7.66825e-19
7.62059e-19
7.38192e-19
7.38941e-19
7.0352e-19
7.18436e-19
6.81173e-19
6.87611e-19
6.73141e-19
6.57725e-19
6.50277e-19
6.56172e-19
6.13082e-19
6.55394e-19
6.10639e-19
6.13901e-19
6.32222e-19
5.80579e-19
6.04562e-19
6.44981e-19
5.21362e-19
6.99314e-19
6.02268e-19
5.6496e-19
8.6138e-19
5.94967e-19
7.6205e-19
1.49439e-18
9.28379e-19
2.35622e-18
4.95059e-18
5.24006e-18
4.40414e-18
5.60047e-18
6.3658e-18
4.70143e-18
3.06676e-18
2.38095e-18
2.08267e-18
1.90294e-18
1.76807e-18
1.67106e-18
1.5203e-18
1.41029e-18
1.30032e-18
1.23465e-18
1.16289e-18
1.13973e-18
1.0701e-18
1.04696e-18
9.98796e-19
9.78919e-19
9.24602e-19
9.16146e-19
8.70832e-19
8.75195e-19
8.27795e-19
8.38394e-19
7.96543e-19
7.94282e-19
7.6723e-19
7.62097e-19
7.38452e-19
7.39202e-19
7.03541e-19
7.18753e-19
6.81446e-19
6.8753e-19
6.73827e-19
6.57638e-19
6.50569e-19
6.56864e-19
6.12911e-19
6.56137e-19
6.11422e-19
6.13664e-19
6.34018e-19
5.80917e-19
6.05074e-19
6.48395e-19
5.20905e-19
7.02934e-19
6.07424e-19
5.65247e-19
8.72602e-19
6.04708e-19
7.67982e-19
1.53048e-18
9.69374e-19
2.45193e-18
5.00747e-18
5.44434e-18
4.47087e-18
5.61697e-18
6.41229e-18
4.69145e-18
3.05567e-18
2.37866e-18
2.08404e-18
1.9049e-18
1.77031e-18
1.6734e-18
1.52195e-18
1.41135e-18
1.30117e-18
1.23529e-18
1.16329e-18
1.14072e-18
1.0706e-18
1.04741e-18
9.99349e-19
9.79421e-19
9.24871e-19
9.16464e-19
8.71059e-19
8.75711e-19
8.27861e-19
8.38873e-19
7.96889e-19
7.94375e-19
7.6769e-19
7.62244e-19
7.38706e-19
7.39739e-19
7.03435e-19
7.19382e-19
6.81728e-19
6.8755e-19
6.74785e-19
6.57666e-19
6.5091e-19
6.58126e-19
6.1249e-19
6.57548e-19
6.12477e-19
6.13595e-19
6.36726e-19
5.81642e-19
6.05885e-19
6.53557e-19
5.20641e-19
7.07744e-19
6.15446e-19
5.65683e-19
8.86196e-19
6.19814e-19
7.68844e-19
1.56237e-18
1.02048e-18
2.53859e-18
5.08596e-18
5.46487e-18
4.34636e-18
5.43482e-18
6.29613e-18
4.58859e-18
2.99078e-18
2.34737e-18
2.06934e-18
1.89778e-18
1.76673e-18
1.67169e-18
1.52082e-18
1.41053e-18
1.3007e-18
1.23493e-18
1.16296e-18
1.14131e-18
1.07071e-18
1.04754e-18
9.99728e-19
9.79771e-19
9.2502e-19
9.16665e-19
8.71186e-19
8.76215e-19
8.2785e-19
8.39398e-19
7.97237e-19
7.94402e-19
7.68226e-19
7.62368e-19
7.38983e-19
7.40411e-19
7.03275e-19
7.2013e-19
6.82059e-19
6.87551e-19
6.75973e-19
6.57736e-19
6.51285e-19
6.59754e-19
6.11913e-19
6.59348e-19
6.13776e-19
6.13591e-19
6.39965e-19
5.82651e-19
6.06735e-19
6.59506e-19
5.20911e-19
7.11711e-19
6.25727e-19
5.64606e-19
8.96691e-19
6.38756e-19
7.5352e-19
1.58186e-18
1.05502e-18
2.52348e-18
5.04015e-18
5.29753e-18
3.99925e-18
5.07289e-18
5.99686e-18
4.39316e-18
2.87499e-18
2.28755e-18
2.03773e-18
1.87963e-18
1.75489e-18
1.66373e-18
1.51528e-18
1.40659e-18
1.29794e-18
1.23282e-18
1.16134e-18
1.1409e-18
1.07001e-18
1.04698e-18
9.9962e-19
9.79685e-19
9.24897e-19
9.16531e-19
8.71098e-19
8.76528e-19
8.27697e-19
8.39821e-19
7.97514e-19
7.94286e-19
7.68755e-19
7.6239e-19
7.39235e-19
7.41125e-19
7.0307e-19
7.20865e-19
6.82437e-19
6.87476e-19
6.773e-19
6.57832e-19
6.51639e-19
6.61553e-19
6.11263e-19
6.61264e-19
6.15244e-19
6.13586e-19
6.43349e-19
5.83855e-19
6.07349e-19
6.65553e-19
5.2153e-19
7.14011e-19
6.36878e-19
5.61817e-19
9.02057e-19
6.59447e-19
7.22003e-19
1.59334e-18
1.06557e-18
2.42292e-18
4.86342e-18
5.04339e-18
3.56434e-18
4.6378e-18
5.60638e-18
4.15436e-18
2.73352e-18
2.21018e-18
1.9946e-18
1.85274e-18
1.73581e-18
1.64958e-18
1.50515e-18
1.39916e-18
1.29253e-18
1.22865e-18
1.15813e-18
1.13913e-18
1.06823e-18
1.04549e-18
9.98773e-19
9.78943e-19
9.24362e-19
9.15929e-19
8.7065e-19
8.76523e-19
8.27313e-19
8.40025e-19
7.97626e-19
7.9397e-19
7.69186e-19
7.6227e-19
7.39403e-19
7.41794e-19
7.02818e-19
7.21472e-19
6.82832e-19
6.8729e-19
6.78655e-19
6.57936e-19
6.5191e-19
6.63365e-19
6.10574e-19
6.63103e-19
6.16791e-19
6.13482e-19
6.46632e-19
5.8507e-19
6.07601e-19
6.71175e-19
5.22131e-19
7.14854e-19
6.47204e-19
5.5825e-19
9.02248e-19
6.7987e-19
6.82536e-19
1.60061e-18
1.05822e-18
2.31776e-18
4.66452e-18
4.79963e-18
3.20833e-18
4.21884e-18
5.19721e-18
3.90484e-18
2.58451e-18
2.12499e-18
1.94446e-18
1.81979e-18
1.71116e-18
1.63053e-18
1.4911e-18
1.38862e-18
1.28465e-18
1.22252e-18
1.15336e-18
1.13593e-18
1.0653e-18
1.043e-18
9.97074e-19
9.77425e-19
9.23333e-19
9.14769e-19
8.69771e-19
8.76115e-19
8.26649e-19
8.39914e-19
7.97513e-19
7.93407e-19
7.69447e-19
7.61959e-19
7.39436e-19
7.42337e-19
7.0251e-19
7.21872e-19
6.83203e-19
6.86964e-19
6.79944e-19
6.58019e-19
6.52055e-19
6.6505e-19
6.09877e-19
6.64699e-19
6.18317e-19
6.13249e-19
6.49587e-19
5.86165e-19
6.07483e-19
6.76064e-19
5.22553e-19
7.14664e-19
6.55653e-19
5.55048e-19
8.97923e-19
6.98507e-19
6.41643e-19
1.60301e-18
1.03551e-18
2.26476e-18
4.53507e-18
4.6047e-18
3.03404e-18
3.85236e-18
4.81009e-18
3.65886e-18
2.43652e-18
2.03585e-18
1.88982e-18
1.78265e-18
1.68275e-18
1.60795e-18
1.47412e-18
1.3756e-18
1.2747e-18
1.21465e-18
1.14717e-18
1.1314e-18
1.06134e-18
1.03957e-18
9.94542e-19
9.75131e-19
9.21789e-19
9.1304e-19
8.68437e-19
8.75271e-19
8.25702e-19
8.39431e-19
7.97149e-19
7.92567e-19
7.69495e-19
7.61432e-19
7.39312e-19
7.42688e-19
7.02147e-19
7.22012e-19
6.8351e-19
6.86495e-19
6.81079e-19
6.58059e-19
6.52058e-19
6.66502e-19
6.09202e-19
6.65964e-19
6.19723e-19
6.12917e-19
6.52091e-19
5.8709e-19
6.07045e-19
6.80065e-19
5.22752e-19
7.13863e-19
6.61834e-19
5.52797e-19
8.90114e-19
7.14928e-19
6.02676e-19
1.5992e-18
1.00147e-18
2.27704e-18
4.52075e-18
4.48017e-18
3.09713e-18
3.54742e-18
4.46615e-18
3.42105e-18
2.29238e-18
1.94511e-18
1.83217e-18
1.74262e-18
1.65167e-18
1.58288e-18
1.45503e-18
1.36075e-18
1.26312e-18
1.20529e-18
1.13976e-18
1.12569e-18
1.0565e-18
1.03535e-18
9.91276e-19
9.72133e-19
9.19769e-19
9.1079e-19
8.66668e-19
8.73991e-19
8.24507e-19
8.38558e-19
7.96544e-19
7.91459e-19
7.69318e-19
7.60683e-19
7.39028e-19
7.42811e-19
7.01738e-19
7.21878e-19
6.83727e-19
6.85894e-19
6.82018e-19
6.58046e-19
6.51931e-19
6.67661e-19
6.08579e-19
6.66893e-19
6.20949e-19
6.12543e-19
6.541e-19
5.87842e-19
6.06416e-19
6.83214e-19
5.22764e-19
7.1279e-19
6.65877e-19
5.51638e-19
8.80049e-19
7.2909e-19
5.67447e-19
1.59008e-18
9.63109e-19
2.35119e-18
4.62794e-18
4.43807e-18
3.39819e-18
3.30625e-18
4.1734e-18
3.19653e-18
2.15373e-18
1.85434e-18
1.77267e-18
1.70069e-18
1.61879e-18
1.556e-18
1.43448e-18
1.34459e-18
1.25031e-18
1.19475e-18
1.13133e-18
1.11894e-18
1.05093e-18
1.03048e-18
9.87409e-19
9.68553e-19
9.17337e-19
9.08094e-19
8.64514e-19
8.72297e-19
8.23124e-19
8.37307e-19
7.95732e-19
7.90122e-19
7.68926e-19
7.59734e-19
7.38601e-19
7.42696e-19
7.01302e-19
7.21488e-19
6.83845e-19
6.85194e-19
6.82749e-19
6.57987e-19
6.517e-19
6.68525e-19
6.08036e-19
6.67527e-19
6.21989e-19
6.12177e-19
6.55685e-19
5.88466e-19
6.05668e-19
6.85674e-19
5.22636e-19
7.11615e-19
6.68216e-19
5.51408e-19
8.68617e-19
7.40923e-19
5.37161e-19
1.57425e-18
9.27376e-19
2.47133e-18
4.82462e-18
4.47757e-18
3.87501e-18
3.13056e-18
3.93295e-18
2.99011e-18
2.022e-18
1.76508e-18
1.7123e-18
1.65772e-18
1.58475e-18
1.52783e-18
1.41289e-18
1.32755e-18
1.23666e-18
1.18337e-18
1.12213e-18
1.11131e-18
1.04477e-18
1.02509e-18
9.83071e-19
9.64533e-19
9.14576e-19
9.05039e-19
8.62053e-19
8.70216e-19
8.21614e-19
8.35712e-19
7.94753e-19
7.88604e-19
7.68345e-19
7.58615e-19
7.38055e-19
7.42355e-19
7.00853e-19
7.2088e-19
6.8387e-19
6.84425e-19
6.83285e-19
6.57892e-19
6.51392e-19
6.69128e-19
6.07592e-19
6.67908e-19
6.22886e-19
6.11817e-19
6.56923e-19
5.89022e-19
6.04782e-19
6.87614e-19
5.22422e-19
7.10226e-19
6.69356e-19
5.51682e-19
8.56255e-19
7.50274e-19
5.11623e-19
1.54951e-18
8.97937e-19
2.60979e-18
5.04763e-18
4.57668e-18
4.40591e-18
3.01805e-18
3.73159e-18
2.80644e-18
1.89856e-18
1.67885e-18
1.65208e-18
1.61453e-18
1.55014e-18
1.49879e-18
1.39058e-18
1.30999e-18
1.22254e-18
1.17146e-18
1.1124e-18
1.10297e-18
1.03813e-18
1.01928e-18
9.78366e-19
9.60189e-19
9.11578e-19
9.01722e-19
8.59371e-19
8.67785e-19
8.20025e-19
8.33815e-19
7.93641e-19
7.86962e-19
7.67615e-19
7.57363e-19
7.37415e-19
7.41811e-19
7.00404e-19
7.20088e-19
6.83821e-19
6.83611e-19
6.83641e-19
6.5778e-19
6.51018e-19
6.69501e-19
6.07258e-19
6.68023e-19
6.23691e-19
6.11428e-19
6.57826e-19
5.89571e-19
6.03651e-19
6.89077e-19
5.22179e-19
7.08272e-19
6.69686e-19
5.51907e-19
8.42953e-19
7.56739e-19
4.90122e-19
1.5134e-18
8.764e-19
2.72817e-18
5.21684e-18
4.69946e-18
4.86196e-18
2.95929e-18
3.55078e-18
2.6481e-18
1.78444e-18
1.59688e-18
1.59279e-18
1.57177e-18
1.51554e-18
1.46925e-18
1.36783e-18
1.29216e-18
1.20824e-18
1.15932e-18
1.10239e-18
1.09412e-18
1.03116e-18
1.01315e-18
9.73366e-19
9.55627e-19
9.08428e-19
8.98229e-19
8.56566e-19
8.65053e-19
8.18397e-19
8.31662e-19
7.92418e-19
7.85243e-19
7.66773e-19
7.56016e-19
7.36704e-19
7.41092e-19
6.99966e-19
7.19132e-19
6.83712e-19
6.82763e-19
6.8383e-19
6.57668e-19
6.50567e-19
6.69651e-19
6.07042e-19
6.67844e-19
6.24431e-19
6.10958e-19
6.58338e-19
5.90144e-19
6.02168e-19
6.89949e-19
5.21983e-19
7.05316e-19
6.69344e-19
5.51603e-19
8.28612e-19
7.59685e-19
4.72116e-19
1.46488e-18
8.62286e-19
2.78968e-18
5.26259e-18
4.79824e-18
5.14238e-18
2.93554e-18
3.37163e-18
2.51451e-18
1.68049e-18
1.52021e-18
1.53519e-18
1.52999e-18
1.4815e-18
1.43965e-18
1.34491e-18
1.27426e-18
1.19395e-18
1.14717e-18
1.09233e-18
1.08494e-18
1.02395e-18
1.00679e-18
9.68133e-19
9.5092e-19
9.05196e-19
8.9463e-19
8.53723e-19
8.6208e-19
8.1677e-19
8.29297e-19
7.91097e-19
7.83482e-19
7.65846e-19
7.54605e-19
7.35948e-19
7.40228e-19
6.99546e-19
7.18028e-19
6.83552e-19
6.81892e-19
6.83841e-19
6.57561e-19
6.50034e-19
6.69567e-19
6.06952e-19
6.67308e-19
6.25094e-19
6.10373e-19
6.58383e-19
5.90716e-19
6.00277e-19
6.90061e-19
5.21905e-19
7.01066e-19
6.68366e-19
5.50472e-19
8.13218e-19
7.58745e-19
4.57413e-19
1.40515e-18
8.53775e-19
2.7714e-18
5.14795e-18
4.8303e-18
5.18944e-18
2.92248e-18
3.18061e-18
2.4028e-18
1.58734e-18
1.44956e-18
1.47982e-18
1.48959e-18
1.44845e-18
1.41036e-18
1.32207e-18
1.25645e-18
1.17981e-18
1.13519e-18
1.08243e-18
1.07562e-18
1.01665e-18
1.00028e-18
9.62729e-19
9.46113e-19
9.01934e-19
8.90981e-19
8.50911e-19
8.58932e-19
8.15164e-19
8.26767e-19
7.89683e-19
7.81712e-19
7.64851e-19
7.53149e-19
7.35172e-19
7.39239e-19
6.99152e-19
7.16788e-19
6.83338e-19
6.81e-19
6.83668e-19
6.57455e-19
6.49432e-19
6.69227e-19
6.06997e-19
6.66392e-19
6.25653e-19
6.09675e-19
6.57916e-19
5.91239e-19
5.98031e-19
6.89276e-19
5.22021e-19
6.9544e-19
6.66792e-19
5.48404e-19
7.97022e-19
7.53901e-19
4.46096e-19
1.3367e-18
8.48652e-19
2.66514e-18
4.87183e-18
4.76574e-18
4.99872e-18
2.89651e-18
2.97186e-18
2.30777e-18
1.50544e-18
1.38536e-18
1.42709e-18
1.45075e-18
1.41672e-18
1.38175e-18
1.29956e-18
1.23885e-18
1.16591e-18
1.12345e-18
1.07279e-18
1.06629e-18
1.00937e-18
9.93727e-19
9.57219e-19
9.4124e-19
8.9868e-19
8.87317e-19
8.4818e-19
8.55671e-19
8.13607e-19
8.24122e-19
7.88185e-19
7.79953e-19
7.63799e-19
7.51661e-19
7.344e-19
7.38148e-19
6.98795e-19
7.15436e-19
6.83068e-19
6.801e-19
6.83315e-19
6.57335e-19
6.48786e-19
6.68616e-19
6.07183e-19
6.65113e-19
6.26081e-19
6.08882e-19