/*--------------------------------*- C++ -*----------------------------------*\
| =========                 |                                                 |
| \\      /  F ield         | OpenFOAM: The Open Source CFD Toolbox           |
|  \\    /   O peration     | Version:  2312                                  |
|   \\  /    A nd           | Website:  www.openfoam.com                      |
|    \\/     M anipulation  |                                                 |
\*---------------------------------------------------------------------------*/
FoamFile
{
    version     2.0;
    format      ascii;
    arch        "LSB;label=32;scalar=64";
    class       volScalarField;
    location    "100";
    object      p;
}
// * * * * * * * * * * * * * * * * * * * * * * * * * * * * * * * * * * * * * //

dimensions      [0 2 -2 0 0 0 0];

internalField   nonuniform List<scalar> 
144000
(
-9.04763e-09
3.89413e-09
1.64283e-08
1.15566e-09
-1.52069e-08
-1.13706e-08
1.75229e-09
1.02407e-08
1.18677e-08
9.85453e-09
6.82898e-09
4.16787e-09
2.42294e-09
1.50964e-09
1.15906e-09
1.07735e-09
1.10366e-09
1.19839e-09
1.27635e-09
1.34773e-09
1.42318e-09
1.46914e-09
1.52442e-09
1.56953e-09
1.58834e-09
1.61726e-09
1.6331e-09
1.62368e-09
1.63197e-09
1.65398e-09
1.66299e-09
1.65606e-09
1.68342e-09
1.69334e-09
1.68677e-09
1.7116e-09
1.70498e-09
1.71644e-09
1.72557e-09
1.71351e-09
1.74484e-09
1.73317e-09
1.77204e-09
1.75322e-09
1.81065e-09
1.64673e-09
2.0255e-09
1.30429e-09
2.59984e-09
4.77526e-10
3.51196e-09
9.72759e-11
2.44244e-09
3.67019e-09
-2.85633e-09
7.31828e-09
1.61355e-09
-5.25928e-09
6.86295e-09
4.18326e-09
-9.1827e-09
3.79602e-09
1.66993e-08
1.28791e-09
-1.53615e-08
-1.15174e-08
1.74237e-09
1.02877e-08
1.19047e-08
9.87185e-09
6.83272e-09
4.1641e-09
2.41765e-09
1.50556e-09
1.15692e-09
1.07673e-09
1.1031e-09
1.19846e-09
1.2766e-09
1.34757e-09
1.42337e-09
1.469e-09
1.52429e-09
1.56982e-09
1.58829e-09
1.61723e-09
1.63339e-09
1.62359e-09
1.63172e-09
1.65404e-09
1.66322e-09
1.65583e-09
1.68331e-09
1.69359e-09
1.68639e-09
1.71182e-09
1.70503e-09
1.71628e-09
1.72591e-09
1.71298e-09
1.7451e-09
1.73307e-09
1.7722e-09
1.75318e-09
1.81196e-09
1.64351e-09
2.03195e-09
1.2937e-09
2.61716e-09
4.5525e-10
3.53275e-09
9.72088e-11
2.397e-09
3.78031e-09
-2.9857e-09
7.36012e-09
1.75677e-09
-5.45268e-09
6.87684e-09
4.31583e-09
-9.46613e-09
3.58133e-09
1.71058e-08
1.49251e-09
-1.56242e-08
-1.1733e-08
1.74794e-09
1.03747e-08
1.19678e-08
9.89617e-09
6.83338e-09
4.15285e-09
2.40551e-09
1.49688e-09
1.15246e-09
1.07533e-09
1.10226e-09
1.19871e-09
1.27699e-09
1.34752e-09
1.42387e-09
1.46895e-09
1.52413e-09
1.57028e-09
1.58823e-09
1.61724e-09
1.63382e-09
1.62344e-09
1.63135e-09
1.65415e-09
1.66357e-09
1.65542e-09
1.6833e-09
1.69401e-09
1.68576e-09
1.71223e-09
1.70507e-09
1.71607e-09
1.72646e-09
1.71234e-09
1.74556e-09
1.73284e-09
1.7725e-09
1.75304e-09
1.81432e-09
1.63805e-09
2.04323e-09
1.27438e-09
2.64968e-09
4.10816e-10
3.58002e-09
7.82015e-11
2.34422e-09
3.93629e-09
-3.19804e-09
7.45444e-09
1.94489e-09
-5.75314e-09
6.94794e-09
4.5783e-09
-9.82378e-09
3.15702e-09
1.75692e-08
1.77583e-09
-1.59022e-08
-1.19565e-08
1.76386e-09
1.0472e-08
1.20358e-08
9.91911e-09
6.82856e-09
4.13502e-09
2.38844e-09
1.48528e-09
1.1466e-09
1.07372e-09
1.10163e-09
1.19926e-09
1.27754e-09
1.34766e-09
1.42473e-09
1.46904e-09
1.52395e-09
1.57084e-09
1.58817e-09
1.61727e-09
1.63437e-09
1.62329e-09
1.63089e-09
1.65424e-09
1.66394e-09
1.65503e-09
1.68347e-09
1.69455e-09
1.6849e-09
1.71274e-09
1.70513e-09
1.71585e-09
1.72723e-09
1.71157e-09
1.74607e-09
1.73259e-09
1.77273e-09
1.75316e-09
1.81701e-09
1.63233e-09
2.05542e-09
1.253e-09
2.6864e-09
3.59891e-10
3.63547e-09
5.34181e-11
2.28797e-09
4.11136e-09
-3.4401e-09
7.54998e-09
2.18191e-09
-6.13354e-09
7.01427e-09
5.04798e-09
-1.01699e-08
2.40846e-09
1.79785e-08
2.1734e-09
-1.60918e-08
-1.21363e-08
1.77418e-09
1.05448e-08
1.20846e-08
9.93227e-09
6.81785e-09
4.11366e-09
2.36992e-09
1.47336e-09
1.14084e-09
1.07267e-09
1.10176e-09
1.20035e-09
1.27833e-09
1.34812e-09
1.42598e-09
1.46935e-09
1.52374e-09
1.57138e-09
1.58822e-09
1.61733e-09
1.63498e-09
1.62322e-09
1.63042e-09
1.65424e-09
1.66428e-09
1.65477e-09
1.68383e-09
1.69513e-09
1.68387e-09
1.71327e-09
1.70523e-09
1.71564e-09
1.72812e-09
1.71079e-09
1.74651e-09
1.7324e-09
1.77273e-09
1.75371e-09
1.81951e-09
1.62773e-09
2.06578e-09
1.23402e-09
2.72004e-09
3.12561e-10
3.68781e-09
3.00062e-11
2.23374e-09
4.27954e-09
-3.66741e-09
7.61059e-09
2.47271e-09
-6.56929e-09
7.00387e-09
5.8182e-09
-1.04003e-08
1.29081e-09
1.82313e-08
2.69482e-09
-1.61229e-08
-1.22345e-08
1.77231e-09
1.05699e-08
1.20973e-08
9.92816e-09
6.80047e-09
4.09116e-09
2.35285e-09
1.46339e-09
1.13656e-09
1.07287e-09
1.10313e-09
1.2022e-09
1.27949e-09
1.34902e-09
1.42766e-09
1.46994e-09
1.52355e-09
1.57184e-09
1.58834e-09
1.6174e-09
1.6356e-09
1.62329e-09
1.62997e-09
1.65413e-09
1.66458e-09
1.65471e-09
1.68438e-09
1.69573e-09
1.68276e-09
1.71374e-09
1.70537e-09
1.71543e-09
1.72909e-09
1.71011e-09
1.74678e-09
1.7323e-09
1.77241e-09
1.75481e-09
1.82137e-09
1.62526e-09
2.07242e-09
1.22046e-09
2.74576e-09
2.75182e-10
3.73055e-09
1.0555e-11
2.18867e-09
4.41926e-09
-3.84456e-09
7.61327e-09
2.8074e-09
-7.01489e-09
6.84447e-09
6.89051e-09
-1.04213e-08
-1.55812e-10
1.82521e-08
3.31986e-09
-1.59632e-08
-1.22292e-08
1.75801e-09
1.05359e-08
1.20632e-08
9.901e-09
6.7754e-09
4.0692e-09
2.33955e-09
1.45726e-09
1.13496e-09
1.07495e-09
1.10612e-09
1.20502e-09
1.28113e-09
1.35044e-09
1.42975e-09
1.47085e-09
1.52342e-09
1.57218e-09
1.58852e-09
1.61746e-09
1.63617e-09
1.62352e-09
1.6296e-09
1.6539e-09
1.66481e-09
1.65491e-09
1.68512e-09
1.69631e-09
1.68165e-09
1.71413e-09
1.70555e-09
1.71524e-09
1.73005e-09
1.70962e-09
1.74687e-09
1.7323e-09
1.77174e-09
1.75649e-09
1.8223e-09
1.62554e-09
2.07429e-09
1.21402e-09
2.76084e-09
2.5118e-10
3.76059e-09
-4.69095e-12
2.15886e-09
4.51573e-09
-3.95117e-09
7.55177e-09
3.16025e-09
-7.41356e-09
6.50013e-09
8.19511e-09
-1.01956e-08
-1.82683e-09
1.80131e-08
4.01679e-09
-1.56076e-08
-1.21176e-08
1.73023e-09
1.04393e-08
1.19779e-08
9.84749e-09
6.74204e-09
4.04912e-09
2.33183e-09
1.45648e-09
1.13707e-09
1.07947e-09
1.111e-09
1.20897e-09
1.28341e-09
1.35244e-09
1.43224e-09
1.47208e-09
1.5234e-09
1.57243e-09
1.58876e-09
1.61751e-09
1.63666e-09
1.62391e-09
1.62936e-09
1.65354e-09
1.66495e-09
1.65538e-09
1.686e-09
1.69682e-09
1.68062e-09
1.71442e-09
1.70573e-09
1.71506e-09
1.73093e-09
1.70934e-09
1.74679e-09
1.73239e-09
1.77069e-09
1.75875e-09
1.82215e-09
1.62872e-09
2.0712e-09
1.21501e-09
2.76478e-09
2.40987e-10
3.77785e-09
-1.65813e-11
2.14683e-09
4.56474e-09
-3.98583e-09
7.43526e-09
3.49947e-09
-7.71734e-09
5.98785e-09
9.60583e-09
-9.72499e-09
-3.5846e-09
1.75138e-08
4.74497e-09
-1.50654e-08
-1.19076e-08
1.68498e-09
1.02802e-08
1.18407e-08
9.7666e-09
6.70042e-09
4.03204e-09
2.33118e-09
1.4623e-09
1.14377e-09
1.08696e-09
1.11801e-09
1.21419e-09
1.28641e-09
1.35505e-09
1.43511e-09
1.47364e-09
1.52351e-09
1.57263e-09
1.58907e-09
1.61751e-09
1.63707e-09
1.62446e-09
1.62924e-09
1.65305e-09
1.665e-09
1.65615e-09
1.68698e-09
1.69725e-09
1.67971e-09
1.71461e-09
1.7059e-09
1.71491e-09
1.73169e-09
1.70929e-09
1.74658e-09
1.73258e-09
1.76928e-09
1.76149e-09
1.82105e-09
1.63438e-09
2.06385e-09
1.22241e-09
2.75916e-09
2.42586e-10
3.78394e-09
-2.4737e-11
2.14917e-09
4.57358e-09
-3.9593e-09
7.27992e-09
3.79954e-09
-7.90059e-09
5.35518e-09
1.09815e-08
-9.03594e-09
-5.27989e-09
1.67681e-08
5.45251e-09
-1.43529e-08
-1.16057e-08
1.61861e-09
1.00599e-08
1.16521e-08
9.65859e-09
6.65083e-09
4.01882e-09
2.3387e-09
1.47569e-09
1.15577e-09
1.09788e-09
1.12738e-09
1.22076e-09
1.29027e-09
1.35828e-09
1.43832e-09
1.47552e-09
1.52374e-09
1.57282e-09
1.58949e-09
1.61744e-09
1.63737e-09
1.62516e-09
1.62928e-09
1.65244e-09
1.66495e-09
1.65721e-09
1.68802e-09
1.69755e-09
1.67898e-09
1.71474e-09
1.70604e-09
1.71476e-09
1.73232e-09
1.70943e-09
1.7463e-09
1.73284e-09
1.76758e-09
1.76452e-09
1.81935e-09
1.64171e-09
2.05369e-09
1.23389e-09
2.74695e-09
2.52993e-10
3.78005e-09
-2.60773e-11
2.1564e-09
4.55722e-09
-3.88954e-09
7.09924e-09
4.04791e-09
-7.95808e-09
4.66004e-09
1.21949e-08
-8.18026e-09
-6.77485e-09
1.58088e-08
6.08496e-09
-1.34907e-08
-1.12172e-08
1.53076e-09
9.78206e-09
1.1413e-08
9.52383e-09
6.59323e-09
4.00973e-09
2.35494e-09
1.49729e-09
1.17357e-09
1.11258e-09
1.13929e-09
1.22874e-09
1.29509e-09
1.36217e-09
1.44184e-09
1.47774e-09
1.5241e-09
1.57304e-09
1.59003e-09
1.61728e-09
1.63757e-09
1.62602e-09
1.62948e-09
1.6517e-09
1.66479e-09
1.65853e-09
1.68909e-09
1.69771e-09
1.67845e-09
1.71482e-09
1.70616e-09
1.7146e-09
1.73282e-09
1.70972e-09
1.74596e-09
1.73318e-09
1.76568e-09
1.76754e-09
1.81759e-09
1.64962e-09
2.04257e-09
1.24699e-09
2.73132e-09
2.6974e-10
3.76593e-09
-1.48205e-11
2.15547e-09
4.53292e-09
-3.78862e-09
6.89673e-09
4.24563e-09
-7.89313e-09
3.95456e-09
1.31436e-08
-7.2285e-09
-7.96366e-09
1.46913e-08
6.59848e-09
-1.25096e-08
-1.0749e-08
1.42498e-09
9.45281e-09
1.11333e-08
9.36276e-09
6.52705e-09
4.00426e-09
2.37971e-09
1.52722e-09
1.19743e-09
1.1313e-09
1.15386e-09
1.23818e-09
1.30092e-09
1.36675e-09
1.4456e-09
1.48028e-09
1.52459e-09
1.57328e-09
1.59073e-09
1.61705e-09
1.63766e-09
1.62702e-09
1.62984e-09
1.65087e-09
1.66453e-09
1.66011e-09
1.69014e-09
1.69774e-09
1.67813e-09
1.71488e-09
1.70626e-09
1.7144e-09
1.7332e-09
1.71014e-09
1.74559e-09
1.73355e-09
1.76372e-09
1.77022e-09
1.81635e-09
1.65697e-09
2.03223e-09
1.25942e-09
2.71467e-09
2.91768e-10
3.73922e-09
1.66496e-11
2.13401e-09
4.5138e-09
-3.66395e-09
6.66703e-09
4.40052e-09
-7.71244e-09
3.31811e-09
1.37617e-08
-6.26336e-09
-8.78002e-09
1.34862e-08
6.96184e-09
-1.14503e-08
-1.02094e-08
1.3085e-09
9.08127e-09
1.08147e-08
9.17666e-09
6.45137e-09
4.00105e-09
2.41204e-09
1.56499e-09
1.22723e-09
1.15405e-09
1.17116e-09
1.24908e-09
1.30781e-09
1.37206e-09
1.44958e-09
1.48313e-09
1.52524e-09
1.57359e-09
1.59161e-09
1.61675e-09
1.63767e-09
1.62815e-09
1.63039e-09
1.64995e-09
1.66414e-09
1.66191e-09
1.69114e-09
1.69759e-09
1.67804e-09
1.71494e-09
1.70637e-09
1.71416e-09
1.73346e-09
1.71069e-09
1.74521e-09
1.73391e-09
1.76185e-09
1.77225e-09
1.81612e-09
1.66286e-09
2.02398e-09
1.26975e-09
2.69818e-09
3.19298e-10
3.69688e-09
7.49283e-11
2.0843e-09
4.50531e-09
-3.51669e-09
6.41388e-09
4.51891e-09
-7.42848e-09
2.77515e-09
1.40212e-08
-5.36155e-09
-9.19692e-09
1.22375e-08
7.15434e-09
-1.03551e-08
-9.60774e-09
1.19066e-09
8.67889e-09
1.04647e-08
8.96806e-09
6.36541e-09
3.99829e-09
2.45028e-09
1.6096e-09
1.26248e-09
1.18061e-09
1.19108e-09
1.26143e-09
1.31573e-09
1.37811e-09
1.45376e-09
1.48627e-09
1.52607e-09
1.57395e-09
1.59267e-09
1.6164e-09
1.6376e-09
1.62941e-09
1.63111e-09
1.64898e-09
1.66363e-09
1.6639e-09
1.69208e-09
1.69728e-09
1.67817e-09
1.71501e-09
1.70649e-09
1.71389e-09
1.73364e-09
1.71137e-09
1.74485e-09
1.73422e-09
1.76018e-09
1.77342e-09
1.81721e-09
1.66676e-09
2.0184e-09
1.27759e-09
2.68168e-09
3.53641e-10
3.63646e-09
1.63036e-10
2.00471e-09
4.50623e-09
-3.34484e-09
6.13428e-09
4.60466e-09
-7.05989e-09
2.34945e-09
1.39294e-08
-4.56748e-09
-9.22415e-09
1.1055e-08
7.17133e-09
-9.26334e-09
-8.95553e-09
1.07996e-09
8.25783e-09
1.0092e-08
8.74066e-09
6.26898e-09
3.99403e-09
2.4924e-09
1.65955e-09
1.30233e-09
1.21053e-09
1.21341e-09
1.27513e-09
1.32465e-09
1.38489e-09
1.45811e-09
1.48966e-09
1.52709e-09
1.5744e-09
1.59391e-09
1.61599e-09
1.63747e-09
1.63078e-09
1.632e-09
1.64799e-09
1.66302e-09
1.66606e-09
1.69294e-09
1.69677e-09
1.67852e-09
1.71509e-09
1.70661e-09
1.71359e-09
1.73376e-09
1.71218e-09
1.74455e-09
1.73446e-09
1.75878e-09
1.77367e-09
1.81964e-09
1.66862e-09
2.01536e-09
1.28351e-09
2.66411e-09
3.96315e-10
3.55696e-09
2.79908e-10
1.89926e-09
4.5111e-09
-3.14643e-09
5.83191e-09
4.65987e-09
-6.62765e-09
2.05128e-09
1.35232e-08
-3.91127e-09
-8.90831e-09
9.95763e-09
7.02784e-09
-8.20705e-09
-8.26814e-09
9.82259e-10
7.82942e-09
9.70588e-09
8.49911e-09
6.16264e-09
3.9866e-09
2.53623e-09
1.71312e-09
1.34571e-09
1.2432e-09
1.23779e-09
1.29004e-09
1.33446e-09
1.39237e-09
1.46262e-09
1.49326e-09
1.52831e-09
1.57494e-09
1.5953e-09
1.61555e-09
1.6373e-09
1.63226e-09
1.63305e-09
1.64702e-09
1.66232e-09
1.66835e-09
1.69371e-09
1.69606e-09
1.67905e-09
1.7152e-09
1.70672e-09
1.71328e-09
1.73381e-09
1.71315e-09
1.74432e-09
1.73462e-09
1.75767e-09
1.77306e-09
1.82325e-09
1.66877e-09
2.01415e-09
1.28863e-09
2.64408e-09
4.483e-10
3.45933e-09
4.21211e-10
1.77579e-09
4.51297e-09
-2.92148e-09
5.51359e-09
4.68596e-09
-6.15114e-09
1.87949e-09
1.28599e-08
-3.4104e-09
-8.31849e-09
8.97873e-09
6.75345e-09
-7.21029e-09
-7.56291e-09
9.00596e-10
7.40322e-09
9.31484e-09
8.24849e-09
6.04763e-09
3.97478e-09
2.57979e-09
1.76855e-09
1.39142e-09
1.2779e-09
1.26381e-09
1.30597e-09
1.34506e-09
1.40052e-09
1.46728e-09
1.49702e-09
1.52972e-09
1.57558e-09
1.59684e-09
1.61508e-09
1.63711e-09
1.63383e-09
1.63424e-09
1.64608e-09
1.66155e-09
1.67075e-09
1.69442e-09
1.69516e-09
1.67975e-09
1.71533e-09
1.7068e-09
1.71295e-09
1.73382e-09
1.71427e-09
1.7442e-09
1.73473e-09
1.75681e-09
1.77179e-09
1.82767e-09
1.66783e-09
2.01377e-09
1.29435e-09
2.62031e-09
5.09722e-10
3.34629e-09
5.80659e-10
1.64359e-09
4.50547e-09
-2.67255e-09
5.18775e-09
4.68543e-09
-5.65197e-09
1.82457e-09
1.20096e-08
-3.06303e-09
-7.53113e-09
8.13676e-09
6.38267e-09
-6.28905e-09
-6.85597e-09
8.36e-10
6.98679e-09
8.92631e-09
7.99372e-09
5.92566e-09
3.95789e-09
2.62146e-09
1.82424e-09
1.43831e-09
1.31387e-09
1.291e-09
1.32267e-09
1.35631e-09
1.40925e-09
1.4721e-09
1.5009e-09
1.53133e-09
1.57632e-09
1.59849e-09
1.61459e-09
1.6369e-09
1.6355e-09
1.63556e-09
1.64517e-09
1.66075e-09
1.67325e-09
1.69507e-09
1.69409e-09
1.68058e-09
1.7155e-09
1.70683e-09
1.7126e-09
1.73379e-09
1.71555e-09
1.74418e-09
1.73484e-09
1.75611e-09
1.7701e-09
1.83247e-09
1.66651e-09
2.01315e-09
1.30193e-09
2.59192e-09
5.79855e-10
3.22167e-09
7.49867e-10
1.5117e-09
4.48364e-09
-2.40357e-09
4.86098e-09
4.66279e-09
-5.15199e-09
1.86445e-09
1.10469e-08
-2.85729e-09
-6.62178e-09
7.4371e-09
5.95105e-09
-5.45084e-09
-6.1613e-09
7.87783e-10
6.58554e-09
8.54615e-09
7.73918e-09
5.79867e-09
3.93571e-09
2.66002e-09
1.87882e-09
1.48532e-09
1.35043e-09
1.31891e-09
1.33992e-09
1.36807e-09
1.41849e-09
1.47705e-09
1.50487e-09
1.53312e-09
1.57718e-09
1.60024e-09
1.61408e-09
1.63667e-09
1.63724e-09
1.63698e-09
1.64431e-09
1.65992e-09
1.67583e-09
1.69566e-09
1.69286e-09
1.68154e-09
1.7157e-09
1.70678e-09
1.71223e-09
1.73373e-09
1.71698e-09
1.74426e-09
1.73499e-09
1.7555e-09
1.76828e-09
1.83724e-09
1.6655e-09
2.01135e-09
1.31235e-09
2.55858e-09
6.57263e-10
3.08991e-09
9.21705e-10
1.38793e-09
4.44448e-09
-2.11946e-09
4.54077e-09
4.62132e-09
-4.6653e-09
1.97729e-09
1.00359e-08
-2.77204e-09
-5.65863e-09
6.87395e-09
5.49127e-09
-4.69674e-09
-5.49014e-09
7.54402e-10
6.20319e-09
8.17869e-09
7.48842e-09
5.66848e-09
3.9084e-09
2.69464e-09
1.93126e-09
1.53159e-09
1.38697e-09
1.34711e-09
1.35749e-09
1.38018e-09
1.42815e-09
1.48213e-09
1.5089e-09
1.53508e-09
1.57815e-09
1.60205e-09
1.61355e-09
1.63645e-09
1.63907e-09
1.63849e-09
1.64347e-09
1.6591e-09
1.67848e-09
1.6962e-09
1.6915e-09
1.68261e-09
1.71596e-09
1.70666e-09
1.71181e-09
1.73362e-09
1.71855e-09
1.74443e-09
1.73521e-09
1.75486e-09
1.76657e-09
1.84158e-09
1.66539e-09
2.00764e-09
1.32621e-09
2.52044e-09
7.40084e-10
2.95542e-09
1.08961e-09
1.2785e-09
4.38656e-09
-1.82535e-09
4.23274e-09
4.56369e-09
-4.19819e-09
2.13984e-09
9.02715e-09
-2.78361e-09
-4.69909e-09
6.43642e-09
5.03376e-09
-4.02368e-09
-4.85177e-09
7.33408e-10
5.84196e-09
7.8269e-09
7.24409e-09
5.53672e-09
3.87628e-09
2.72487e-09
1.98078e-09
1.57641e-09
1.42299e-09
1.37527e-09
1.37518e-09
1.39252e-09
1.43814e-09
1.4873e-09
1.51294e-09
1.5372e-09
1.57924e-09
1.60391e-09
1.61302e-09
1.63624e-09
1.64095e-09
1.64008e-09
1.64266e-09
1.6583e-09
1.68119e-09
1.69669e-09
1.69003e-09
1.68378e-09
1.71627e-09
1.70643e-09
1.71136e-09
1.73349e-09
1.72027e-09
1.74467e-09
1.73553e-09
1.7541e-09
1.76519e-09
1.84523e-09
1.66661e-09
2.00158e-09
1.34374e-09
2.47806e-09
8.26289e-10
2.82216e-09
1.24832e-09
1.18761e-09
4.30982e-09
-1.52578e-09
3.9408e-09
4.49236e-09
-3.75366e-09
2.32943e-09
8.05855e-09
-2.86689e-09
-3.78841e-09
6.10931e-09
4.60402e-09
-3.42556e-09
-4.25341e-09
7.21812e-10
5.50295e-09
7.49262e-09
7.00805e-09
5.40474e-09
3.83986e-09
2.7505e-09
2.02691e-09
1.6193e-09
1.45811e-09
1.4031e-09
1.39284e-09
1.40497e-09
1.44839e-09
1.49256e-09
1.51698e-09
1.53945e-09
1.58046e-09
1.60579e-09
1.61246e-09
1.63604e-09
1.6429e-09
1.64172e-09
1.64184e-09
1.65752e-09
1.68396e-09
1.69714e-09
1.68846e-09
1.68504e-09
1.71665e-09
1.70611e-09
1.71087e-09
1.73333e-09
1.72212e-09
1.74496e-09
1.73598e-09
1.75314e-09
1.7643e-09
1.848e-09
1.66939e-09
1.99298e-09
1.36485e-09
2.43226e-09
9.13888e-10
2.69343e-09
1.39397e-09
1.11766e-09
4.21534e-09
-1.22493e-09
3.66763e-09
4.40892e-09
-3.33282e-09
2.52741e-09
7.15735e-09
-2.99813e-09
-2.9599e-09
5.87314e-09
4.21937e-09
-2.89317e-09
-3.69891e-09
7.16891e-10
5.18658e-09
7.17689e-09
6.78143e-09
5.27356e-09
3.79967e-09
2.77158e-09
2.06937e-09
1.65992e-09
1.49204e-09
1.43039e-09
1.4103e-09
1.41743e-09
1.45881e-09
1.49788e-09
1.52098e-09
1.54181e-09
1.5818e-09
1.60769e-09
1.6119e-09
1.63587e-09
1.64491e-09
1.64341e-09
1.64101e-09
1.65677e-09
1.68679e-09
1.69753e-09
1.68682e-09
1.68639e-09
1.71709e-09
1.70569e-09
1.71032e-09
1.73316e-09
1.72409e-09
1.74527e-09
1.73655e-09
1.75195e-09
1.764e-09
1.8498e-09
1.67386e-09
1.98186e-09
1.38919e-09
2.38402e-09
1.00106e-09
2.57186e-09
1.52399e-09
1.06961e-09
4.10498e-09
-9.26564e-10
3.41499e-09
4.31454e-09
-2.93571e-09
2.72021e-09
6.34272e-09
-3.15664e-09
-2.23677e-09
5.7057e-09
3.8906e-09
-2.41488e-09
-3.1891e-09
7.16311e-10
4.89271e-09
6.88015e-09
6.56483e-09
5.14388e-09
3.75623e-09
2.78825e-09
2.10805e-09
1.69808e-09
1.52457e-09
1.45696e-09
1.42744e-09
1.42982e-09
1.46933e-09
1.50322e-09
1.52493e-09
1.54427e-09
1.58327e-09
1.60957e-09
1.61131e-09
1.63574e-09
1.64698e-09
1.64513e-09
1.64014e-09
1.65607e-09
1.68966e-09
1.69787e-09
1.68514e-09
1.68783e-09
1.71761e-09
1.70517e-09
1.70972e-09
1.73299e-09
1.72619e-09
1.74562e-09
1.73724e-09
1.75049e-09
1.76433e-09
1.85062e-09
1.68e-09
1.96842e-09
1.41627e-09
2.33438e-09
1.08622e-09
2.45941e-09
1.63698e-09
1.04325e-09
3.98113e-09
-6.33951e-10
3.18382e-09
4.21094e-09
-2.56359e-09
2.89812e-09
5.62883e-09
-3.32325e-09
-1.63309e-09
5.58621e-09
3.62458e-09
-1.97951e-09
-2.72365e-09
7.17796e-10
4.62084e-09
6.60248e-09
6.35845e-09
5.01616e-09
3.70996e-09
2.80073e-09
2.14292e-09
1.73364e-09
1.55557e-09
1.48267e-09
1.44419e-09
1.4421e-09
1.47989e-09
1.50856e-09
1.52881e-09
1.5468e-09
1.58484e-09
1.61144e-09
1.61069e-09
1.63564e-09
1.6491e-09
1.64688e-09
1.6392e-09
1.65543e-09
1.69258e-09
1.69812e-09
1.68342e-09
1.68937e-09
1.71818e-09
1.70455e-09
1.70906e-09
1.73282e-09
1.72841e-09
1.74599e-09
1.73803e-09
1.74875e-09
1.7653e-09
1.85049e-09
1.6877e-09
1.95296e-09
1.4455e-09
2.28428e-09
1.1681e-09
2.35727e-09
1.73257e-09
1.03736e-09
3.8465e-09
-3.49681e-10
2.97401e-09
4.10041e-09
-2.21691e-09
3.05211e-09
5.02318e-09
-9.04489e-09
3.89992e-09
1.64415e-08
1.1615e-09
-1.52142e-08
-1.13742e-08
1.75866e-09
1.02522e-08
1.18796e-08
9.86333e-09
6.83455e-09
4.17068e-09
2.42342e-09
1.50847e-09
1.15693e-09
1.07486e-09
1.10143e-09
1.19659e-09
1.27483e-09
1.34651e-09
1.42243e-09
1.46887e-09
1.52422e-09
1.56954e-09
1.58828e-09
1.61725e-09
1.63309e-09
1.62377e-09
1.63183e-09
1.65384e-09
1.66274e-09
1.65588e-09
1.68302e-09
1.69293e-09
1.68623e-09
1.71124e-09
1.70448e-09
1.71601e-09
1.72512e-09
1.71326e-09
1.74448e-09
1.73301e-09
1.77163e-09
1.75262e-09
1.80959e-09
1.64528e-09
2.02372e-09
1.30156e-09
2.59755e-09
4.72896e-10
3.50975e-09
8.9978e-11
2.43924e-09
3.66575e-09
-2.86716e-09
7.32202e-09
1.60869e-09
-5.27211e-09
6.86024e-09
4.18673e-09
-9.17993e-09
3.80222e-09
1.67125e-08
1.29416e-09
-1.53688e-08
-1.15213e-08
1.7486e-09
1.02993e-08
1.19166e-08
9.8807e-09
6.8383e-09
4.16689e-09
2.41809e-09
1.50435e-09
1.15476e-09
1.0742e-09
1.10086e-09
1.19664e-09
1.27507e-09
1.34636e-09
1.42262e-09
1.46874e-09
1.52408e-09
1.56982e-09
1.58822e-09
1.61722e-09
1.6334e-09
1.6237e-09
1.6316e-09
1.6539e-09
1.66299e-09
1.65565e-09
1.68292e-09
1.69318e-09
1.68583e-09
1.71145e-09
1.70454e-09
1.71584e-09
1.72546e-09
1.71274e-09
1.74474e-09
1.73291e-09
1.77178e-09
1.75256e-09
1.8109e-09
1.64204e-09
2.03017e-09
1.29092e-09
2.61489e-09
4.50565e-10
3.53056e-09
8.98343e-11
2.39372e-09
3.77605e-09
-2.99689e-09
7.36409e-09
1.75227e-09
-5.46577e-09
6.87394e-09
4.31898e-09
-9.4637e-09
3.58851e-09
1.71198e-08
1.49939e-09
-1.56317e-08
-1.17374e-08
1.7539e-09
1.03863e-08
1.19797e-08
9.90513e-09
6.83899e-09
4.15562e-09
2.4059e-09
1.49562e-09
1.15024e-09
1.07274e-09
1.09997e-09
1.19688e-09
1.27545e-09
1.34629e-09
1.42311e-09
1.4687e-09
1.52393e-09
1.57028e-09
1.58816e-09
1.61722e-09
1.63385e-09
1.62358e-09
1.63124e-09
1.65402e-09
1.66334e-09
1.65524e-09
1.68293e-09
1.69361e-09
1.6852e-09
1.71187e-09
1.70457e-09
1.71562e-09
1.72601e-09
1.7121e-09
1.74521e-09
1.73267e-09
1.77208e-09
1.7524e-09
1.81326e-09
1.63656e-09
2.04145e-09
1.27156e-09
2.64743e-09
4.06036e-10
3.57792e-09
7.06835e-11
2.34089e-09
3.93231e-09
-3.20981e-09
7.45872e-09
1.94083e-09
-5.76619e-09
6.94518e-09
4.5804e-09
-9.82236e-09
3.16527e-09
1.75846e-08
1.78342e-09
-1.59101e-08
-1.19617e-08
1.7695e-09
1.04838e-08
1.20479e-08
9.92824e-09
6.83423e-09
4.13776e-09
2.38877e-09
1.48394e-09
1.14431e-09
1.07104e-09
1.09926e-09
1.19739e-09
1.27599e-09
1.3464e-09
1.42396e-09
1.46879e-09
1.52375e-09
1.57084e-09
1.58811e-09
1.61724e-09
1.63441e-09
1.62346e-09
1.63082e-09
1.65412e-09
1.66372e-09
1.65485e-09
1.6831e-09
1.69415e-09
1.68435e-09
1.71238e-09
1.70464e-09
1.71539e-09
1.72677e-09
1.71134e-09
1.74573e-09
1.73243e-09
1.77232e-09
1.7525e-09
1.81594e-09
1.63083e-09
2.05365e-09
1.25013e-09
2.68418e-09
3.5501e-10
3.63348e-09
4.57777e-11
2.28456e-09
4.10772e-09
-3.45253e-09
7.55433e-09
2.17833e-09
-6.14648e-09
7.01231e-09
5.04837e-09
-1.01701e-08
2.41781e-09
1.79954e-08
2.1817e-09
-1.60999e-08
-1.21421e-08
1.77951e-09
1.05567e-08
1.2097e-08
9.94162e-09
6.82358e-09
4.11635e-09
2.37016e-09
1.47193e-09
1.13847e-09
1.06989e-09
1.0993e-09
1.19842e-09
1.27677e-09
1.34682e-09
1.42519e-09
1.4691e-09
1.52356e-09
1.57138e-09
1.58817e-09
1.61728e-09
1.63501e-09
1.62341e-09
1.63037e-09
1.65415e-09
1.66409e-09
1.65459e-09
1.68347e-09
1.69475e-09
1.68334e-09
1.7129e-09
1.70475e-09
1.71515e-09
1.72765e-09
1.71057e-09
1.74618e-09
1.73224e-09
1.77234e-09
1.75304e-09
1.81843e-09
1.62623e-09
2.06402e-09
1.23111e-09
2.71785e-09
3.076e-10
3.68594e-09
2.22458e-11
2.23024e-09
4.27621e-09
-3.68047e-09
7.61498e-09
2.46966e-09
-6.58214e-09
7.00292e-09
5.81693e-09
-1.04028e-08
1.30094e-09
1.82498e-08
2.70383e-09
-1.6131e-08
-1.22407e-08
1.77741e-09
1.05819e-08
1.211e-08
9.93773e-09
6.80626e-09
4.09379e-09
2.35301e-09
1.46188e-09
1.13411e-09
1.06999e-09
1.10056e-09
1.20021e-09
1.27791e-09
1.34768e-09
1.42684e-09
1.4697e-09
1.52338e-09
1.57184e-09
1.58829e-09
1.61732e-09
1.63561e-09
1.6235e-09
1.62997e-09
1.65407e-09
1.66442e-09
1.65454e-09
1.68403e-09
1.69536e-09
1.68224e-09
1.71337e-09
1.7049e-09
1.71493e-09
1.72861e-09
1.7099e-09
1.74648e-09
1.73216e-09
1.77206e-09
1.75413e-09
1.82029e-09
1.62376e-09
2.07068e-09
1.21753e-09
2.74358e-09
2.70189e-10
3.72877e-09
2.70798e-12
2.18505e-09
4.41623e-09
-3.85797e-09
7.61751e-09
2.80493e-09
-7.02767e-09
6.84471e-09
6.88823e-09
-1.04268e-08
-1.4558e-10
1.82727e-08
3.32962e-09
-1.59714e-08
-1.22357e-08
1.76298e-09
1.0548e-08
1.20761e-08
9.91076e-09
6.78123e-09
4.07177e-09
2.3396e-09
1.45566e-09
1.13244e-09
1.07197e-09
1.10343e-09
1.20296e-09
1.27954e-09
1.34906e-09
1.42889e-09
1.4706e-09
1.52328e-09
1.57218e-09
1.58848e-09
1.61736e-09
1.63614e-09
1.62374e-09
1.62965e-09
1.65387e-09
1.66468e-09
1.65475e-09
1.68477e-09
1.69594e-09
1.68114e-09
1.71376e-09
1.70508e-09
1.71472e-09
1.72955e-09
1.70942e-09
1.7466e-09
1.73218e-09
1.77142e-09
1.75582e-09
1.82121e-09
1.62406e-09
2.07256e-09
1.21111e-09
2.75866e-09
2.46196e-10
3.75887e-09
-1.25858e-11
2.15515e-09
4.51289e-09
-3.96473e-09
7.55565e-09
3.1583e-09
-7.42617e-09
6.50158e-09
8.19262e-09
-1.02043e-08
-1.81776e-09
1.80359e-08
4.02729e-09
-1.56158e-08
-1.21241e-08
1.73522e-09
1.04517e-08
1.19911e-08
9.85742e-09
6.74789e-09
4.05159e-09
2.33178e-09
1.45479e-09
1.13449e-09
1.0764e-09
1.1082e-09
1.20684e-09
1.28177e-09
1.35102e-09
1.43133e-09
1.47182e-09
1.52329e-09
1.57244e-09
1.58873e-09
1.61737e-09
1.6366e-09
1.62413e-09
1.62944e-09
1.65354e-09
1.66486e-09
1.65524e-09
1.68565e-09
1.69647e-09
1.68013e-09
1.71405e-09
1.70528e-09
1.71454e-09
1.73041e-09
1.70915e-09
1.74655e-09
1.73231e-09
1.77043e-09
1.75811e-09
1.82105e-09
1.62725e-09
2.06948e-09
1.21214e-09
2.76259e-09
2.36059e-10
3.77618e-09
-2.44928e-11
2.14308e-09
4.56203e-09
-3.99938e-09
7.43859e-09
3.49784e-09
-7.72956e-09
5.99045e-09
9.6048e-09
-9.73595e-09
-3.57681e-09
1.75383e-08
4.75595e-09
-1.50735e-08
-1.19138e-08
1.69011e-09
1.02928e-08
1.18541e-08
9.77669e-09
6.70627e-09
4.03441e-09
2.33104e-09
1.46052e-09
1.14113e-09
1.08381e-09
1.1151e-09
1.21197e-09
1.28474e-09
1.35358e-09
1.43416e-09
1.47336e-09
1.52342e-09
1.57265e-09
1.58905e-09
1.61735e-09
1.63696e-09
1.62466e-09
1.62937e-09
1.65309e-09
1.66494e-09
1.65602e-09
1.68663e-09
1.6969e-09
1.67924e-09
1.71424e-09
1.70547e-09
1.71438e-09
1.73116e-09
1.7091e-09
1.74639e-09
1.73253e-09
1.76908e-09
1.76089e-09
1.81995e-09
1.63295e-09
2.06213e-09
1.21964e-09
2.75696e-09
2.37736e-10
3.78229e-09
-3.26369e-11
2.14546e-09
4.57081e-09
-3.9727e-09
7.28258e-09
3.79804e-09
-7.91216e-09
5.35848e-09
1.09819e-08
-9.04788e-09
-5.27341e-09
1.6793e-08
5.46333e-09
-1.43611e-08
-1.16116e-08
1.624e-09
1.00728e-08
1.1666e-08
9.6688e-09
6.65666e-09
4.0211e-09
2.33847e-09
1.47384e-09
1.15308e-09
1.09466e-09
1.12437e-09
1.21846e-09
1.28856e-09
1.35678e-09
1.43733e-09
1.47521e-09
1.52367e-09
1.57285e-09
1.58946e-09
1.61725e-09
1.63722e-09
1.62535e-09
1.62944e-09
1.65252e-09
1.66493e-09
1.6571e-09
1.68767e-09
1.6972e-09
1.67852e-09
1.71437e-09
1.70563e-09
1.71424e-09
1.73177e-09
1.70924e-09
1.74615e-09
1.73284e-09
1.76743e-09
1.76396e-09
1.81825e-09
1.64033e-09
2.05198e-09
1.23123e-09
2.74473e-09
2.4823e-10
3.77843e-09
-3.39523e-11
2.15284e-09
4.55428e-09
-3.90262e-09
7.10121e-09
4.04644e-09
-7.9689e-09
4.66355e-09
1.21963e-08
-8.19269e-09
-6.77022e-09
1.58333e-08
6.09554e-09
-1.34986e-08
-1.12225e-08
1.53646e-09
9.79511e-09
1.1427e-08
9.53415e-09
6.59908e-09
4.01195e-09
2.35464e-09
1.49537e-09
1.17086e-09
1.10932e-09
1.13619e-09
1.22636e-09
1.29334e-09
1.36065e-09
1.4408e-09
1.47739e-09
1.52405e-09
1.57306e-09
1.59001e-09
1.61708e-09
1.63737e-09
1.62618e-09
1.62966e-09
1.65182e-09
1.66482e-09
1.65844e-09
1.68874e-09
1.69737e-09
1.67801e-09
1.71446e-09
1.70577e-09
1.71408e-09
1.73226e-09
1.70953e-09
1.74584e-09
1.73322e-09
1.76559e-09
1.76703e-09
1.8165e-09
1.6483e-09
2.04086e-09
1.24443e-09
2.72909e-09
2.65086e-10
3.76433e-09
-2.26865e-11
2.15212e-09
4.52977e-09
-3.80126e-09
6.898e-09
4.24398e-09
-7.90328e-09
3.95818e-09
1.31464e-08
-7.2413e-09
-7.96113e-09
1.47147e-08
6.60901e-09
-1.25164e-08
-1.07536e-08
1.431e-09
9.46599e-09
1.11473e-08
9.37314e-09
6.5329e-09
4.00643e-09
2.37938e-09
1.52526e-09
1.1947e-09
1.12801e-09
1.15071e-09
1.23572e-09
1.29914e-09
1.36522e-09
1.44452e-09
1.47991e-09
1.52456e-09
1.57332e-09
1.59072e-09
1.61683e-09
1.63743e-09
1.62715e-09
1.63005e-09
1.65102e-09
1.66459e-09
1.66004e-09
1.6898e-09
1.69739e-09
1.67771e-09
1.71453e-09
1.70589e-09
1.71389e-09
1.73262e-09
1.70995e-09
1.74551e-09
1.73364e-09
1.76369e-09
1.76977e-09
1.81527e-09
1.6557e-09
2.03053e-09
1.25698e-09
2.71243e-09
2.87236e-10
3.73764e-09
8.77923e-12
2.13092e-09
4.51043e-09
-3.67608e-09
6.66784e-09
4.39862e-09
-7.72207e-09
3.32128e-09
1.37659e-08
-6.27561e-09
-8.77941e-09
1.35076e-08
6.97228e-09
-1.14556e-08
-1.02131e-08
1.31484e-09
9.09452e-09
1.08287e-08
9.18704e-09
6.45721e-09
4.0032e-09
2.4117e-09
1.56305e-09
1.22451e-09
1.15074e-09
1.16796e-09
1.24657e-09
1.30599e-09
1.37051e-09
1.44847e-09
1.48273e-09
1.52522e-09
1.57362e-09
1.5916e-09
1.61652e-09
1.6374e-09
1.62825e-09
1.6306e-09
1.65012e-09
1.66423e-09
1.66186e-09
1.69082e-09
1.69724e-09
1.67763e-09
1.7146e-09
1.70601e-09
1.71367e-09
1.73289e-09
1.71049e-09
1.74516e-09
1.73404e-09
1.76187e-09
1.77186e-09
1.81507e-09
1.66164e-09
2.0223e-09
1.2674e-09
2.69596e-09
3.14886e-10
3.6953e-09
6.7079e-11
2.08137e-09
4.50174e-09
-3.5283e-09
6.41407e-09
4.51667e-09
-7.4376e-09
2.77709e-09
1.40266e-08
-5.37127e-09
-9.19811e-09
1.22532e-08
7.16465e-09
-1.03591e-08
-9.61042e-09
1.19732e-09
8.69213e-09
1.04786e-08
8.97839e-09
6.37123e-09
4.00041e-09
2.44995e-09
1.60769e-09
1.25978e-09
1.1773e-09
1.18785e-09
1.25888e-09
1.31389e-09
1.37655e-09
1.45262e-09
1.48584e-09
1.52605e-09
1.574e-09
1.59267e-09
1.61615e-09
1.6373e-09
1.62948e-09
1.63133e-09
1.64918e-09
1.66376e-09
1.66388e-09
1.69176e-09
1.69692e-09
1.67777e-09
1.71467e-09
1.70614e-09
1.71341e-09
1.73308e-09
1.71116e-09
1.74482e-09
1.73439e-09
1.76025e-09
1.7731e-09
1.81619e-09
1.66558e-09
2.01675e-09
1.27532e-09
2.6795e-09
3.49344e-10
3.63488e-09
1.55305e-10
2.00185e-09
4.50248e-09
-3.35594e-09
6.13393e-09
4.6021e-09
-7.06855e-09
2.34982e-09
1.39357e-08
-4.57343e-09
-9.22691e-09
1.10683e-08
7.1815e-09
-9.266e-09
-8.95726e-09
1.08688e-09
8.27098e-09
1.01057e-08
8.75087e-09
6.27475e-09
3.99614e-09
2.49208e-09
1.6577e-09
1.29967e-09
1.20726e-09
1.21018e-09
1.27256e-09
1.32279e-09
1.38332e-09
1.45694e-09
1.4892e-09
1.52706e-09
1.57445e-09
1.5939e-09
1.61573e-09
1.63715e-09
1.63082e-09
1.63222e-09
1.64821e-09
1.66317e-09
1.66605e-09
1.69263e-09
1.69642e-09
1.67812e-09
1.71476e-09
1.70628e-09
1.71314e-09
1.7332e-09
1.71197e-09
1.74454e-09
1.73466e-09
1.75891e-09
1.7734e-09
1.81867e-09
1.66748e-09
2.01375e-09
1.2813e-09
2.66199e-09
3.92129e-10
3.55538e-09
2.72482e-10
1.89641e-09
4.50725e-09
-3.15706e-09
5.83108e-09
4.65708e-09
-6.63595e-09
2.0499e-09
1.35305e-08
-3.91337e-09
-8.91231e-09
9.96824e-09
7.03783e-09
-8.20855e-09
-8.26906e-09
9.89384e-10
7.8424e-09
9.71931e-09
8.50915e-09
6.16833e-09
3.98868e-09
2.53594e-09
1.71134e-09
1.34311e-09
1.23997e-09
1.23459e-09
1.28747e-09
1.33259e-09
1.39081e-09
1.46144e-09
1.49276e-09
1.52826e-09
1.57499e-09
1.59529e-09
1.61528e-09