/*--------------------------------*- C++ -*----------------------------------*\
| =========                 |                                                 |
| \\      /  F ield         | OpenFOAM: The Open Source CFD Toolbox           |
|  \\    /   O peration     | Version:  2312                                  |
|   \\  /    A nd           | Website:  www.openfoam.com                      |
|    \\/     M anipulation  |                                                 |
\*---------------------------------------------------------------------------*/
FoamFile
{
    version     2.0;
    format      ascii;
    arch        "LSB;label=32;scalar=64";
    class       volScalarField;
    location    "100";
    object      pMean;
}
// * * * * * * * * * * * * * * * * * * * * * * * * * * * * * * * * * * * * * //

dimensions      [0 2 -2 0 0 0 0];

internalField   nonuniform List<scalar> 
144000
(
1.05439e-09
3.12036e-09
1.33273e-09
-7.93569e-10
-1.58304e-09
-1.63983e-09
-1.54975e-09
-1.5226e-09
-1.5301e-09
-1.53056e-09
-1.50563e-09
-1.45558e-09
-1.38632e-09
-1.31135e-09
-1.23487e-09
-1.16381e-09
-1.09526e-09
-1.0337e-09
-9.77214e-10
-9.27633e-10
-8.79743e-10
-8.35886e-10
-7.9262e-10
-7.53905e-10
-7.15087e-10
-6.80674e-10
-6.45714e-10
-6.13995e-10
-5.81002e-10
-5.51931e-10
-5.21433e-10
-4.95073e-10
-4.66046e-10
-4.40338e-10
-4.11909e-10
-3.87389e-10
-3.59834e-10
-3.36339e-10
-3.09644e-10
-2.86469e-10
-2.59607e-10
-2.37651e-10
-2.11779e-10
-1.92526e-10
-1.67064e-10
-1.46775e-10
-1.17873e-10
-1.032e-10
-6.19105e-11
-6.17574e-11
1.3239e-11
-2.11467e-11
1.08758e-10
7.79276e-11
1.95095e-10
3.0868e-10
3.3625e-10
1.28553e-09
-1.83521e-10
-1.77748e-09
1.01976e-09
3.11826e-09
1.34248e-09
-7.88848e-10
-1.57707e-09
-1.63639e-09
-1.54729e-09
-1.52143e-09
-1.52998e-09
-1.53095e-09
-1.50622e-09
-1.45622e-09
-1.38693e-09
-1.31194e-09
-1.23546e-09
-1.16439e-09
-1.09581e-09
-1.03422e-09
-9.77732e-10
-9.28136e-10
-8.8023e-10
-8.3634e-10
-7.93063e-10
-7.54327e-10
-7.155e-10
-6.81056e-10
-6.46095e-10
-6.14346e-10
-5.81349e-10
-5.52254e-10
-5.21764e-10
-4.95376e-10
-4.66355e-10
-4.40601e-10
-4.12194e-10
-3.87631e-10
-3.60108e-10
-3.36557e-10
-3.09903e-10
-2.86661e-10
-2.59848e-10
-2.37822e-10
-2.12015e-10
-1.92677e-10
-1.67314e-10
-1.46861e-10
-1.18094e-10
-1.03333e-10
-6.20553e-11
-6.2019e-11
1.32795e-11
-2.16357e-11
1.08493e-10
7.81942e-11
1.92816e-10
3.09146e-10
3.28458e-10
1.29023e-09
-1.48427e-10
-1.78287e-09
1.1009e-09
3.12468e-09
1.2771e-09
-8.03888e-10
-1.55893e-09
-1.62322e-09
-1.53973e-09
-1.51758e-09
-1.52839e-09
-1.53066e-09
-1.50655e-09
-1.45686e-09
-1.38757e-09
-1.31259e-09
-1.23613e-09
-1.16511e-09
-1.09652e-09
-1.03487e-09
-9.78369e-10
-9.28779e-10
-8.80855e-10
-8.36925e-10
-7.93604e-10
-7.54861e-10
-7.16011e-10
-6.8155e-10
-6.4658e-10
-6.14791e-10
-5.81769e-10
-5.52651e-10
-5.22162e-10
-4.95761e-10
-4.66744e-10
-4.40933e-10
-4.12532e-10
-3.87932e-10
-3.60443e-10
-3.3683e-10
-3.10236e-10
-2.86883e-10
-2.6015e-10
-2.38003e-10
-2.12326e-10
-1.92818e-10
-1.67687e-10
-1.4696e-10
-1.18304e-10
-1.03599e-10
-6.19795e-11
-6.27994e-11
1.40776e-11
-2.3222e-11
1.09507e-10
7.6954e-11
1.93269e-10
3.06288e-10
3.28092e-10
1.30349e-09
-1.86786e-10
-1.79096e-09
1.27655e-09
3.10263e-09
1.14301e-09
-8.34369e-10
-1.5263e-09
-1.59702e-09
-1.52496e-09
-1.50913e-09
-1.52383e-09
-1.52847e-09
-1.50576e-09
-1.4568e-09
-1.38778e-09
-1.31297e-09
-1.23665e-09
-1.1658e-09
-1.09729e-09
-1.03559e-09
-9.79076e-10
-9.29532e-10
-8.81627e-10
-8.37637e-10
-7.94265e-10
-7.55508e-10
-7.16649e-10
-6.82159e-10
-6.47194e-10
-6.15335e-10
-5.82278e-10
-5.53135e-10
-5.22655e-10
-4.96225e-10
-4.6725e-10
-4.41334e-10
-4.12946e-10
-3.88278e-10
-3.60872e-10
-3.37151e-10
-3.10667e-10
-2.87149e-10
-2.60511e-10
-2.38211e-10
-2.1269e-10
-1.93055e-10
-1.681e-10
-1.47172e-10
-1.18463e-10
-1.03974e-10
-6.18768e-11
-6.37226e-11
1.50391e-11
-2.5244e-11
1.11038e-10
7.44347e-11
1.96286e-10
2.98004e-10
3.37251e-10
1.30498e-09
-2.88098e-10
-1.75532e-09
1.48863e-09
3.04167e-09
9.64413e-10
-8.74348e-10
-1.48144e-09
-1.55851e-09
-1.5035e-09
-1.49596e-09
-1.51531e-09
-1.52314e-09
-1.50274e-09
-1.45517e-09
-1.3869e-09
-1.31255e-09
-1.23661e-09
-1.16615e-09
-1.09789e-09
-1.03622e-09
-9.79746e-10
-9.30307e-10
-8.82496e-10
-8.38456e-10
-7.95034e-10
-7.56268e-10
-7.1743e-10
-6.82907e-10
-6.47968e-10
-6.16012e-10
-5.82928e-10
-5.53732e-10
-5.23285e-10
-4.96819e-10
-4.67914e-10
-4.41844e-10
-4.13464e-10
-3.88721e-10
-3.61421e-10
-3.37577e-10
-3.11229e-10
-2.87507e-10
-2.60966e-10
-2.38512e-10
-2.13128e-10
-1.93376e-10
-1.68672e-10
-1.47452e-10
-1.18726e-10
-1.04409e-10
-6.19188e-11
-6.4802e-11
1.59504e-11
-2.76013e-11
1.12655e-10
7.13046e-11
2.00194e-10
2.88243e-10
3.49296e-10
1.28865e-09
-4.10803e-10
-1.67311e-09
1.6933e-09
2.95053e-09
7.72078e-10
-9.17928e-10
-1.43118e-09
-1.51212e-09
-1.47739e-09
-1.47947e-09
-1.50343e-09
-1.51468e-09
-1.49701e-09
-1.45151e-09
-1.38444e-09
-1.31089e-09
-1.23562e-09
-1.1658e-09
-1.09802e-09
-1.0365e-09
-9.80154e-10
-9.30905e-10
-8.83292e-10
-8.3925e-10
-7.95808e-10
-7.57051e-10
-7.1828e-10
-6.83738e-10
-6.48848e-10
-6.16791e-10
-5.83686e-10
-5.54426e-10
-5.2404e-10
-4.97533e-10
-4.68725e-10
-4.42486e-10
-4.14098e-10
-3.8926e-10
-3.62093e-10
-3.38118e-10
-3.11925e-10
-2.87981e-10
-2.61517e-10
-2.3889e-10
-2.13694e-10
-1.93817e-10
-1.69384e-10
-1.47854e-10
-1.191e-10
-1.04916e-10
-6.20937e-11
-6.59139e-11
1.65402e-11
-2.99765e-11
1.13923e-10
6.80025e-11
2.04054e-10
2.79214e-10
3.61669e-10
1.2571e-09
-5.29113e-10
-1.56232e-09
1.86636e-09
2.83736e-09
5.85231e-10
-9.59776e-10
-1.38037e-09
-1.46156e-09
-1.44876e-09
-1.46109e-09
-1.48921e-09
-1.50358e-09
-1.48888e-09
-1.44571e-09
-1.3803e-09
-1.3079e-09
-1.23357e-09
-1.16457e-09
-1.09748e-09
-1.03625e-09
-9.80134e-10
-9.3115e-10
-8.83831e-10
-8.39862e-10
-7.96446e-10
-7.57731e-10
-7.19079e-10
-6.84545e-10
-6.49731e-10
-6.17587e-10
-5.84474e-10
-5.55155e-10
-5.24861e-10
-4.98318e-10
-4.69625e-10
-4.43219e-10
-4.14816e-10
-3.89873e-10
-3.62868e-10
-3.38764e-10
-3.12724e-10
-2.88551e-10
-2.62163e-10
-2.39364e-10
-2.1438e-10
-1.94366e-10
-1.70232e-10
-1.48381e-10
-1.19625e-10
-1.05434e-10
-6.2522e-11
-6.69918e-11
1.67143e-11
-3.22135e-11
1.1464e-10
6.46413e-11
2.07504e-10
2.71098e-10
3.73017e-10
1.21448e-09
-6.31574e-10
-1.43291e-09
1.99259e-09
2.69925e-09
4.17314e-10
-9.93814e-10
-1.33167e-09
-1.40984e-09
-1.41877e-09
-1.44181e-09
-1.47366e-09
-1.4907e-09
-1.47878e-09
-1.43817e-09
-1.37474e-09
-1.30372e-09
-1.23052e-09
-1.16251e-09
-1.09624e-09
-1.03545e-09
-9.7964e-10
-9.30985e-10
-8.84035e-10
-8.40197e-10
-7.96859e-10
-7.5822e-10
-7.19737e-10
-6.8524e-10
-6.50531e-10
-6.18318e-10
-5.85219e-10
-5.5585e-10
-5.25679e-10
-4.99107e-10
-4.70548e-10
-4.43984e-10
-4.15572e-10
-3.90513e-10
-3.63701e-10
-3.3947e-10
-3.1359e-10
-2.89183e-10
-2.62885e-10
-2.39902e-10
-2.15162e-10
-1.94992e-10
-1.71181e-10
-1.49004e-10
-1.20282e-10
-1.05983e-10
-6.3183e-11
-6.79936e-11
1.64107e-11
-3.41737e-11
1.14681e-10
6.15009e-11
2.10068e-10
2.64165e-10
3.82569e-10
1.16157e-09
-7.09146e-10
-1.28747e-09
2.06337e-09
2.5336e-09
2.75269e-10
-1.01438e-09
-1.28597e-09
-1.35907e-09
-1.38821e-09
-1.42219e-09
-1.45741e-09
-1.47655e-09
-1.4672e-09
-1.42924e-09
-1.36803e-09
-1.29859e-09
-1.22665e-09
-1.15973e-09
-1.09442e-09
-1.03415e-09
-9.78731e-10
-9.30435e-10
-8.83908e-10
-8.40253e-10
-7.97039e-10
-7.58495e-10
-7.20221e-10
-6.85786e-10
-6.51203e-10
-6.18939e-10
-5.85881e-10
-5.56469e-10
-5.26446e-10
-4.99851e-10
-4.71443e-10
-4.44731e-10
-4.16325e-10
-3.91141e-10
-3.6455e-10
-3.40192e-10
-3.14479e-10
-2.89839e-10
-2.63649e-10
-2.40475e-10
-2.16002e-10
-1.95674e-10
-1.72192e-10
-1.49697e-10
-1.2105e-10
-1.06544e-10
-6.40468e-11
-6.891e-11
1.56138e-11
-3.58385e-11
1.13952e-10
5.88339e-11
2.11278e-10
2.58721e-10
3.89305e-10
1.09944e-09
-7.5491e-10
-1.12741e-09
2.0758e-09
2.34183e-09
1.61708e-10
-1.01792e-09
-1.24356e-09
-1.31093e-09
-1.35773e-09
-1.4025e-09
-1.44084e-09
-1.46159e-09
-1.45454e-09
-1.41927e-09
-1.36043e-09
-1.29271e-09
-1.22214e-09
-1.15641e-09
-1.09214e-09
-1.03249e-09
-9.77492e-10
-9.29573e-10
-8.835e-10
-8.40068e-10
-7.97018e-10
-7.58579e-10
-7.20546e-10
-6.86186e-10
-6.51744e-10
-6.19443e-10
-5.86452e-10
-5.57e-10
-5.27145e-10
-5.00528e-10
-4.72284e-10
-4.45432e-10
-4.17052e-10
-3.91738e-10
-3.65383e-10
-3.40903e-10
-3.15359e-10
-2.90496e-10
-2.64426e-10
-2.41067e-10
-2.16869e-10
-1.9639e-10
-1.73222e-10
-1.50439e-10
-1.219e-10
-1.07112e-10
-6.50703e-11
-6.97377e-11
1.43582e-11
-3.71024e-11
1.1239e-10
5.68851e-11
2.10775e-10
2.55107e-10
3.92706e-10
1.02999e-09
-7.66234e-10
-9.55554e-10
2.03364e-09
2.12805e-09
7.53932e-11
-1.00452e-09
-1.20396e-09
-1.26663e-09
-1.32788e-09
-1.38285e-09
-1.42419e-09
-1.44613e-09
-1.4411e-09
-1.40847e-09
-1.35212e-09
-1.28623e-09
-1.21716e-09
-1.15267e-09
-1.0895e-09
-1.03053e-09
-9.76011e-10
-9.28478e-10
-8.8287e-10
-8.3969e-10
-7.96841e-10
-7.58511e-10
-7.20739e-10
-6.86463e-10
-6.52171e-10
-6.19845e-10
-5.86943e-10
-5.57452e-10
-5.27777e-10
-5.01138e-10
-4.73064e-10
-4.4608e-10
-4.17746e-10
-3.923e-10
-3.66185e-10
-3.41592e-10
-3.16211e-10
-2.91144e-10
-2.65199e-10
-2.41669e-10
-2.17743e-10
-1.97126e-10
-1.74245e-10
-1.51213e-10
-1.22803e-10
-1.07692e-10
-6.62064e-11
-7.04938e-11
1.27253e-11
-3.79768e-11
1.09968e-10
5.58276e-11
2.08393e-10
2.53413e-10
3.92455e-10
9.55255e-10
-7.43853e-10
-7.77375e-10
1.94434e-09
1.89894e-09
1.29853e-11
-9.75446e-10
-1.16676e-09
-1.22693e-09
-1.29912e-09
-1.36329e-09
-1.40757e-09
-1.43043e-09
-1.42712e-09
-1.39702e-09
-1.34322e-09
-1.27929e-09
-1.2118e-09
-1.1486e-09
-1.08658e-09
-1.02836e-09
-9.74355e-10
-9.27209e-10
-8.82071e-10
-8.39163e-10
-7.96547e-10
-7.5833e-10
-7.20833e-10
-6.86644e-10
-6.52509e-10
-6.20164e-10
-5.87371e-10
-5.57843e-10
-5.28351e-10
-5.01691e-10
-4.73786e-10
-4.46681e-10
-4.18407e-10
-3.92833e-10
-3.66951e-10
-3.42258e-10
-3.1703e-10
-2.91779e-10
-2.6596e-10
-2.4228e-10
-2.18615e-10
-1.97872e-10
-1.75247e-10
-1.5201e-10
-1.23736e-10
-1.08293e-10
-6.74149e-11
-7.11964e-11
1.07631e-11
-3.84518e-11
1.06675e-10
5.57469e-11
2.04146e-10
2.53479e-10
3.88882e-10
8.77902e-10
-6.91386e-10
-5.98232e-10
1.81769e-09
1.66108e-09
-3.03816e-11
-9.33676e-10
-1.13146e-09
-1.19205e-09
-1.2718e-09
-1.34384e-09
-1.39105e-09
-1.41466e-09
-1.41278e-09
-1.38507e-09
-1.33386e-09
-1.27199e-09
-1.20616e-09
-1.14428e-09
-1.08346e-09
-1.02603e-09
-9.72569e-10
-9.2581e-10
-8.81143e-10
-8.38523e-10
-7.96168e-10
-7.58067e-10
-7.20851e-10
-6.86755e-10
-6.52776e-10
-6.20423e-10
-5.87754e-10
-5.58191e-10
-5.2888e-10
-5.02199e-10
-4.7446e-10
-4.47243e-10
-4.19041e-10
-3.93345e-10
-3.67685e-10
-3.42903e-10
-3.17816e-10
-2.92403e-10
-2.6671e-10
-2.429e-10
-2.19479e-10
-1.98625e-10
-1.76222e-10
-1.52828e-10
-1.24686e-10
-1.08926e-10
-6.86649e-11
-7.18568e-11
8.51287e-12
-3.85149e-11
1.02523e-10
5.66406e-11
1.98215e-10
2.54995e-10
3.82426e-10
7.99959e-10
-6.13758e-10
-4.22702e-10
1.66443e-09
1.42164e-09
-5.99548e-11
-8.82913e-10
-1.09758e-09
-1.16182e-09
-1.24616e-09
-1.32456e-09
-1.37468e-09
-1.39896e-09
-1.39826e-09
-1.37276e-09
-1.32414e-09
-1.26439e-09
-1.20029e-09
-1.13977e-09
-1.08016e-09
-1.02356e-09
-9.70684e-10
-9.24316e-10
-8.80114e-10
-8.37793e-10
-7.95724e-10
-7.57744e-10
-7.20813e-10
-6.86812e-10
-6.52991e-10
-6.20637e-10
-5.88103e-10
-5.5851e-10
-5.29374e-10
-5.02673e-10
-4.75094e-10
-4.47776e-10
-4.19654e-10
-3.93846e-10
-3.68391e-10
-3.43533e-10
-3.18573e-10
-2.93021e-10
-2.67452e-10
-2.43532e-10
-2.20336e-10
-1.99384e-10
-1.7717e-10
-1.53665e-10
-1.25647e-10
-1.09597e-10
-6.99432e-11
-7.24821e-11
5.99719e-12
-3.81649e-11
9.75707e-11
5.84165e-11
1.90917e-10
2.57543e-10
3.73859e-10
7.23352e-10
-5.17509e-10
-2.55107e-10
1.49545e-09
1.18668e-09
-8.05539e-11
-8.26949e-10
-1.06488e-09
-1.13586e-09
-1.22239e-09
-1.30552e-09
-1.35847e-09
-1.38343e-09
-1.38369e-09
-1.36021e-09
-1.31414e-09
-1.25656e-09
-1.19425e-09
-1.1351e-09
-1.07673e-09
-1.02098e-09
-9.68722e-10
-9.2275e-10
-8.79006e-10
-8.3699e-10
-7.9523e-10
-7.57378e-10
-7.20732e-10
-6.86828e-10
-6.53163e-10
-6.20819e-10
-5.88429e-10
-5.58812e-10
-5.2984e-10
-5.03122e-10
-4.75697e-10
-4.48287e-10
-4.2025e-10
-3.94342e-10
-3.69074e-10
-3.44152e-10
-3.19306e-10
-2.93638e-10
-2.68189e-10
-2.44177e-10
-2.21189e-10
-2.00149e-10
-1.78095e-10
-1.54519e-10
-1.26609e-10
-1.10304e-10
-7.12512e-11
-7.30622e-11
3.22812e-12
-3.74428e-11
9.19223e-11
6.08884e-11
1.82663e-10
2.60669e-10
3.63946e-10
6.49456e-10
-4.09217e-10
-9.82449e-11
1.3199e-09
9.61109e-10
-9.63961e-11
-7.69276e-10
-1.03317e-09
-1.11365e-09
-1.20058e-09
-1.2868e-09
-1.34243e-09
-1.36814e-09
-1.3692e-09
-1.34754e-09
-1.30395e-09
-1.24857e-09
-1.18807e-09
-1.13032e-09
-1.07319e-09
-1.01832e-09
-9.66698e-10
-9.21126e-10
-8.77832e-10
-8.36127e-10
-7.94694e-10
-7.56978e-10
-7.20615e-10
-6.86811e-10
-6.53302e-10
-6.20977e-10
-5.88738e-10
-5.59103e-10
-5.30286e-10
-5.03553e-10
-4.76274e-10
-4.48782e-10
-4.20834e-10
-3.94838e-10
-3.69738e-10
-3.44765e-10
-3.20018e-10
-2.94256e-10
-2.68925e-10
-2.44839e-10
-2.22037e-10
-2.00921e-10
-1.79002e-10
-1.55389e-10
-1.27578e-10
-1.11041e-10
-7.25974e-11
-7.35853e-11
2.21446e-13
-3.63985e-11
8.57346e-11
6.3816e-11
1.73884e-10
2.6395e-10
3.53413e-10
5.79347e-10
-2.95067e-10
4.60481e-11
1.14519e-09
7.48193e-10
-1.10858e-10
-7.12872e-10
-1.00239e-09
-1.09456e-09
-1.18073e-09
-1.26846e-09
-1.32653e-09
-1.35312e-09
-1.35486e-09
-1.33483e-09
-1.29364e-09
-1.24046e-09
-1.1818e-09
-1.12544e-09
-1.06956e-09
-1.01559e-09
-9.64621e-10
-9.19455e-10
-8.76604e-10
-8.35213e-10
-7.94123e-10
-7.5655e-10
-7.20468e-10
-6.86768e-10
-6.53414e-10
-6.21117e-10
-5.89033e-10
-5.59388e-10
-5.30715e-10
-5.03969e-10
-4.76831e-10
-4.49267e-10
-4.21407e-10
-3.95337e-10
-3.70386e-10
-3.45373e-10
-3.20713e-10
-2.94879e-10
-2.69661e-10
-2.45519e-10
-2.22884e-10
-2.01701e-10
-1.79896e-10
-1.56271e-10
-1.28562e-10
-1.11798e-10
-7.39904e-11
-7.40436e-11
-2.99717e-12
-3.51123e-11
7.91722e-11
6.69568e-11
1.64987e-10
2.67043e-10
3.42654e-10
5.13657e-10
-1.79688e-10
1.77309e-10
9.77158e-10
5.50044e-10
-1.26441e-10
-6.60077e-10
-9.7257e-10
-1.07795e-09
-1.16276e-09
-1.25061e-09
-1.31078e-09
-1.33837e-09
-1.34074e-09
-1.32216e-09
-1.28327e-09
-1.23227e-09
-1.17546e-09
-1.1205e-09
-1.06586e-09
-1.0128e-09
-9.62501e-10
-9.17746e-10
-8.7533e-10
-8.34254e-10
-7.93519e-10
-7.56099e-10
-7.20294e-10
-6.86702e-10
-6.535e-10
-6.21243e-10
-5.89317e-10
-5.5967e-10
-5.31128e-10
-5.04375e-10
-4.77369e-10
-4.49744e-10
-4.21971e-10
-3.95842e-10
-3.7102e-10
-3.45978e-10
-3.21395e-10
-2.95509e-10
-2.70399e-10
-2.46217e-10
-2.23732e-10
-2.0249e-10
-1.80781e-10
-1.57163e-10
-1.29565e-10
-1.12562e-10
-7.54444e-11
-7.44345e-11
-6.38789e-12
-3.3645e-11
7.24025e-11
7.00717e-11
1.56293e-10
2.69549e-10
3.3202e-10
4.52581e-10
-6.73615e-11
2.95796e-10
8.20204e-10
3.67958e-10
-1.44831e-10
-6.12682e-10
-9.43858e-10
-1.06326e-09
-1.14662e-09
-1.23336e-09
-1.29519e-09
-1.3239e-09
-1.32689e-09
-1.3096e-09
-1.27288e-09
-1.22404e-09
-1.16908e-09
-1.1155e-09
-1.0621e-09
-1.00996e-09
-9.60341e-10
-9.16003e-10
-8.74015e-10
-8.33256e-10
-7.92885e-10
-7.55628e-10
-7.20096e-10
-6.86615e-10
-6.53566e-10
-6.21358e-10
-5.89591e-10
-5.59949e-10
-5.31529e-10
-5.04771e-10
-4.77891e-10
-4.50216e-10
-4.22527e-10
-3.96352e-10
-3.71641e-10
-3.46582e-10
-3.22065e-10
-2.96147e-10
-2.71141e-10
-2.46933e-10
-2.24581e-10
-2.03288e-10
-1.81663e-10
-1.5806e-10
-1.30592e-10
-1.13326e-10
-7.69635e-11
-7.47607e-11
-9.90969e-12
-3.20929e-11
6.55902e-11
7.29662e-11
1.48064e-10
2.71285e-10
3.21693e-10
3.96289e-10
3.90188e-11
4.02082e-10
6.7748e-10
2.02473e-10
-1.67152e-10
-5.72001e-10
-9.16471e-10
-1.05e-09
-1.13216e-09
-1.21679e-09
-1.27978e-09
-1.30969e-09
-1.31333e-09
-1.2972e-09
-1.26251e-09
-1.21579e-09
-1.16268e-09
-1.11048e-09
-1.0583e-09
-1.00707e-09
-9.58146e-10
-9.1423e-10
-8.72663e-10
-8.32222e-10
-7.92223e-10
-7.55137e-10
-7.19875e-10
-6.8651e-10
-6.53611e-10
-6.21463e-10
-5.89856e-10
-5.60226e-10
-5.31916e-10
-5.0516e-10
-4.78398e-10
-4.50683e-10
-4.23075e-10
-3.96868e-10
-3.72252e-10
-3.47183e-10
-3.22724e-10
-2.96794e-10
-2.71886e-10
-2.47667e-10
-2.25431e-10
-2.04095e-10
-1.82548e-10
-1.58961e-10
-1.31646e-10
-1.14083e-10
-7.8547e-11
-7.50331e-11
-1.35184e-11
-3.05431e-11
5.8887e-11
7.54772e-11
1.40495e-10
2.72105e-10
3.11803e-10
3.44841e-10
1.37148e-10
4.97021e-10
5.51006e-10
5.34043e-11
-1.94211e-10
-5.38974e-10
-8.90665e-10
-1.03774e-09
-1.11922e-09
-1.201e-09
-1.26458e-09
-1.29573e-09
-1.30006e-09
-1.28497e-09
-1.2522e-09
-1.20754e-09
-1.15626e-09
-1.10544e-09
-1.05446e-09
-1.00415e-09
-9.55918e-10
-9.12429e-10
-8.71278e-10
-8.31155e-10
-7.91531e-10
-7.54628e-10
-7.19632e-10
-6.86386e-10
-6.53637e-10
-6.21559e-10
-5.90111e-10
-5.60502e-10
-5.32292e-10
-5.05542e-10
-4.78892e-10
-4.51148e-10
-4.23615e-10
-3.97389e-10
-3.72852e-10
-3.47784e-10
-3.23374e-10
-2.97451e-10
-2.72635e-10
-2.48417e-10
-2.26283e-10
-2.04909e-10
-1.83435e-10
-1.59866e-10
-1.32728e-10
-1.1483e-10
-8.019e-11
-7.52701e-11
-1.71693e-11
-2.90732e-11
5.24068e-11
7.74869e-11
1.33701e-10
2.7188e-10
3.02314e-10
2.982e-10
2.25739e-10
5.81759e-10
4.42081e-10
-7.99119e-11
-2.26447e-10
-5.13959e-10
-8.66717e-10
-1.02617e-09
-1.10762e-09
-1.18601e-09
-1.24963e-09
-1.28199e-09
-1.28709e-09
-1.27293e-09
-1.24196e-09
-1.19931e-09
-1.14985e-09
-1.10038e-09
-1.05059e-09
-1.0012e-09
-9.5366e-10
-9.10601e-10
-8.69862e-10
-8.30057e-10
-7.90812e-10
-7.54101e-10
-7.19367e-10
-6.86246e-10
-6.53646e-10
-6.21648e-10
-5.90356e-10
-5.60775e-10
-5.32654e-10
-5.05917e-10
-4.79374e-10
-4.5161e-10
-4.24146e-10
-3.97915e-10
-3.73442e-10
-3.48384e-10
-3.24016e-10
-2.98116e-10
-2.73387e-10
-2.49184e-10
-2.27137e-10
-2.0573e-10
-1.84327e-10
-1.60774e-10
-1.33839e-10
-1.15564e-10
-8.18848e-11
-7.54863e-11
-2.08198e-11
-2.7743e-11
4.62425e-11
7.89164e-11
1.27723e-10
2.70542e-10
2.93146e-10
2.56138e-10
3.04054e-10
6.57711e-10
3.51634e-10
-1.98145e-10
-2.64032e-10
-4.97228e-10
-8.44921e-10
-1.01514e-09
-1.09723e-09
-1.17189e-09
-1.23496e-09
-1.26847e-09
-1.2744e-09
-1.26111e-09
-1.23182e-09
-1.19111e-09
-1.14344e-09
-1.09532e-09
-1.04671e-09
-9.98222e-10
-9.51374e-10
-9.08747e-10
-8.68416e-10
-8.28932e-10
-7.90065e-10
-7.53555e-10
-7.19081e-10
-6.86088e-10
-6.53637e-10
-6.21729e-10
-5.90592e-10
-5.61046e-10
-5.33005e-10
-5.06286e-10
-4.79843e-10
-4.52071e-10
-4.2467e-10
-3.98443e-10
-3.74023e-10
-3.48982e-10
-3.24652e-10
-2.98792e-10
-2.74144e-10
-2.49967e-10
-2.27992e-10
-2.06558e-10
-1.85224e-10
-1.61686e-10
-1.34974e-10
-1.1629e-10
-8.36181e-11
-7.57005e-11
-2.44303e-11
-2.65972e-11
4.04594e-11
7.97172e-11
1.22549e-10
2.67999e-10
2.84215e-10
2.18307e-10
3.71535e-10
7.26174e-10
2.80656e-10
-3.01792e-10
-3.06956e-10
-4.88772e-10
-8.25577e-10
-1.0047e-09
-1.08804e-09
-1.15875e-09
-1.22068e-09
-1.2552e-09
-1.26199e-09
-1.24951e-09
-1.22178e-09
-1.18296e-09
-1.13706e-09
-1.09025e-09
-1.0428e-09
-9.95224e-10
-9.49064e-10
-9.06869e-10
-8.66941e-10
-8.2778e-10
-7.89293e-10
-7.52992e-10
-7.18775e-10
-6.85914e-10
-6.53612e-10
-6.21804e-10
-5.90821e-10
-5.61315e-10
-5.33345e-10
-5.06647e-10
-4.80301e-10
-4.5253e-10
-4.25186e-10
-3.98974e-10
-3.74595e-10
-3.49578e-10
-3.2528e-10
-2.99478e-10
-2.74907e-10
-2.50765e-10
-2.28849e-10
-2.07389e-10
-1.86127e-10
-1.62605e-10
-1.36132e-10
-1.17007e-10
-8.53754e-11
-7.5929e-11
-2.79656e-11
-2.56657e-11
3.51076e-11
7.99006e-11
1.18151e-10
2.64221e-10
2.75474e-10
1.84235e-10
4.27571e-10
7.88498e-10
2.29559e-10
-3.90978e-10
-3.54811e-10
-4.88247e-10
-8.08838e-10
-9.94866e-10
-1.08002e-09
-1.14666e-09
-1.2069e-09
-1.24223e-09
-1.24989e-09
-1.23814e-09
-1.21187e-09
-1.17487e-09
-1.13069e-09
-1.08519e-09
-1.03889e-09
-9.92212e-10
-9.46735e-10
-9.04966e-10
-8.65439e-10
-8.26606e-10
-7.88496e-10
-7.52409e-10
-7.18449e-10
-6.85723e-10
-6.53571e-10
-6.21873e-10
-5.91042e-10
-5.6158e-10
-5.33674e-10
-5.06999e-10
-4.80746e-10
-4.5299e-10
-4.25696e-10
-3.99505e-10
-3.75157e-10
-3.5017e-10
-3.25902e-10
-3.00174e-10
-2.75676e-10
-2.51577e-10
-2.2971e-10
-2.08223e-10
-1.87035e-10
-1.63532e-10
-1.3731e-10
-1.17716e-10
-8.7143e-11
-7.61838e-11
-3.13923e-11
-2.49587e-11
3.02235e-11
7.94855e-11
1.14512e-10
2.59168e-10
2.66945e-10
1.53862e-10
4.71404e-10
8.44721e-10
1.02369e-09
3.12234e-09
1.35306e-09
-7.81126e-10
-1.57654e-09
-1.6362e-09
-1.5476e-09
-1.52146e-09
-1.52956e-09
-1.53026e-09
-1.50559e-09
-1.45594e-09
-1.38703e-09
-1.31226e-09
-1.23591e-09
-1.16488e-09
-1.09636e-09
-1.03479e-09
-9.78239e-10
-9.2853e-10
-8.80525e-10
-8.36536e-10
-7.93184e-10
-7.54323e-10
-7.15464e-10
-6.80917e-10
-6.45943e-10
-6.14106e-10
-5.8111e-10
-5.51889e-10
-5.21434e-10
-4.94922e-10
-4.65982e-10
-4.40093e-10
-4.11811e-10
-3.87111e-10
-3.59784e-10
-3.36054e-10
-3.09638e-10
-2.86155e-10
-2.59652e-10
-2.37328e-10
-2.11994e-10
-1.92309e-10
-1.67571e-10
-1.46732e-10
-1.18814e-10
-1.03466e-10
-6.34731e-11
-6.24312e-11
1.09044e-11
-2.23614e-11
1.05399e-10
7.5934e-11
1.90173e-10
3.05123e-10
3.29656e-10
1.27761e-09
-1.6176e-10
-1.78326e-09
9.88535e-10
3.11983e-09
1.36253e-09
-7.76328e-10
-1.57047e-09
-1.63271e-09
-1.54513e-09
-1.52028e-09
-1.52942e-09
-1.53063e-09
-1.50616e-09
-1.45656e-09
-1.38763e-09
-1.31283e-09
-1.23649e-09
-1.16545e-09
-1.09691e-09
-1.0353e-09
-9.78755e-10
-9.29026e-10
-8.8101e-10
-8.36988e-10
-7.93626e-10
-7.54741e-10
-7.15876e-10
-6.81296e-10
-6.46325e-10
-6.14458e-10
-5.81459e-10
-5.52211e-10
-5.21766e-10
-4.95223e-10
-4.66292e-10
-4.40357e-10
-4.12096e-10
-3.87352e-10
-3.60061e-10
-3.36271e-10
-3.09896e-10
-2.86347e-10
-2.59894e-10
-2.37502e-10
-2.1223e-10
-1.92462e-10
-1.6782e-10
-1.46824e-10
-1.19032e-10
-1.03593e-10
-6.36133e-11
-6.27084e-11
1.09429e-11
-2.28491e-11
1.05134e-10
7.61698e-11
1.879e-10
3.05552e-10
3.21788e-10
1.28218e-09
-1.26254e-10
-1.78837e-09
1.06984e-09
3.12845e-09
1.29719e-09
-7.92136e-10
-1.55244e-09
-1.61949e-09
-1.53754e-09
-1.51638e-09
-1.52781e-09
-1.53031e-09
-1.50647e-09
-1.45717e-09
-1.38825e-09
-1.31346e-09
-1.23714e-09
-1.16616e-09
-1.09761e-09
-1.03594e-09
-9.79387e-10
-9.29661e-10
-8.81632e-10
-8.37571e-10
-7.94168e-10
-7.55273e-10
-7.16387e-10
-6.81786e-10
-6.46811e-10
-6.14904e-10
-5.81884e-10
-5.52609e-10
-5.2217e-10
-4.95609e-10
-4.66685e-10
-4.40688e-10
-4.12439e-10
-3.87652e-10
-3.60398e-10
-3.36542e-10
-3.10234e-10
-2.86569e-10
-2.60197e-10
-2.37683e-10
-2.12547e-10
-1.92598e-10
-1.68195e-10
-1.4691e-10
-1.19249e-10
-1.03861e-10
-6.35311e-11
-6.34641e-11
1.17506e-11
-2.44333e-11
1.06179e-10
7.4944e-11
1.88367e-10
3.02672e-10
3.21128e-10
1.2961e-09
-1.64196e-10
-1.79867e-09
1.24559e-09
3.1101e-09
1.16293e-09
-8.23968e-10
-1.5201e-09
-1.5932e-09
-1.52278e-09
-1.50794e-09
-1.52323e-09
-1.52809e-09
-1.50563e-09
-1.45708e-09
-1.38844e-09
-1.31382e-09
-1.23764e-09
-1.16681e-09
-1.09836e-09
-1.03665e-09
-9.80087e-10
-9.30402e-10
-8.82398e-10
-8.38279e-10
-7.9483e-10
-7.55916e-10
-7.17025e-10
-6.82388e-10
-6.47425e-10
-6.15449e-10
-5.824e-10
-5.53094e-10
-5.22669e-10
-4.96071e-10
-4.67194e-10
-4.41091e-10
-4.12854e-10
-3.87997e-10
-3.60829e-10
-3.36861e-10
-3.1067e-10
-2.86833e-10
-2.60566e-10
-2.37891e-10
-2.12913e-10
-1.92832e-10
-1.68609e-10
-1.47115e-10
-1.19391e-10
-1.04236e-10
-6.3415e-11
-6.44016e-11
1.27202e-11
-2.65037e-11
1.07738e-10
7.24231e-11
1.91393e-10
2.94584e-10
3.29941e-10
1.29872e-09
-2.64962e-10
-1.7666e-09
1.4583e-09
3.05361e-09
9.84114e-10
-8.65751e-10
-1.47564e-09
-1.55462e-09
-1.50121e-09
-1.49473e-09
-1.51471e-09
-1.52272e-09
-1.50257e-09
-1.4554e-09
-1.38753e-09
-1.31337e-09
-1.23758e-09
-1.16714e-09
-1.09893e-09
-1.03726e-09
-9.80749e-10
-9.31161e-10
-8.83256e-10
-8.39091e-10
-7.95599e-10
-7.56671e-10
-7.17803e-10
-6.83129e-10
-6.48194e-10
-6.16125e-10
-5.83058e-10
-5.53693e-10
-5.23305e-10
-4.96664e-10
-4.67861e-10
-4.416e-10
-4.13376e-10
-3.88438e-10
-3.61384e-10
-3.37287e-10
-3.11228e-10
-2.87189e-10
-2.61026e-10
-2.38192e-10
-2.13349e-10
-1.93151e-10
-1.6917e-10
-1.47394e-10
-1.19637e-10
-1.04653e-10
-6.34252e-11
-6.54766e-11
1.37013e-11
-2.88921e-11
1.09382e-10
6.92544e-11
1.95311e-10
2.85073e-10
3.41642e-10
1.28362e-09
-3.87461e-10
-1.68853e-09
1.66403e-09
2.96603e-09
7.91142e-10
-9.11015e-10
-1.4257e-09
-1.50808e-09
-1.47499e-09
-1.47822e-09
-1.50282e-09
-1.51425e-09
-1.49681e-09
-1.45168e-09
-1.38503e-09
-1.31168e-09
-1.23656e-09
-1.16674e-09
-1.09903e-09
-1.03752e-09
-9.81147e-10
-9.31741e-10
-8.84037e-10
-8.39875e-10
-7.96374e-10
-7.57451e-10
-7.18649e-10
-6.83951e-10
-6.49067e-10
-6.16902e-10
-5.83822e-10
-5.5439e-10
-5.24066e-10
-4.9738e-10
-4.68672e-10
-4.42241e-10
-4.14015e-10
-3.8898e-10
-3.62062e-10
-3.37829e-10
-3.11918e-10
-2.87664e-10
-2.61579e-10
-2.38579e-10
-2.1391e-10
-1.93598e-10
-1.69861e-10
-1.47803e-10
-1.19983e-10
-1.05159e-10
-6.35611e-11
-6.66125e-11
1.43263e-11
-3.12948e-11
1.10729e-10
6.58916e-11
1.99087e-10
2.76024e-10
3.53611e-10
1.25318e-09
-5.05834e-10
-1.58111e-09
1.83805e-09
2.85589e-09
6.04029e-10
-9.5429e-10
-1.37533e-09
-1.45745e-09
-1.44629e-09
-1.45983e-09
-1.48861e-09
-1.50314e-09
-1.48861e-09
-1.44583e-09
-1.38085e-09
-1.30866e-09
-1.23448e-09
-1.16548e-09
-1.09844e-09
-1.03725e-09
-9.81109e-10
-9.3197e-10
-8.84559e-10
-8.40475e-10
-7.97011e-10
-7.58126e-10
-7.19443e-10
-6.84748e-10
-6.49942e-10
-6.17694e-10
-5.84615e-10
-5.55122e-10
-5.24892e-10
-4.98167e-10
-4.69572e-10
-4.42976e-10
-4.14735e-10
-3.89597e-10
-3.62836e-10
-3.38473e-10
-3.12711e-10
-2.88238e-10
-2.62223e-10
-2.39059e-10
-2.14591e-10
-1.94155e-10
-1.70683e-10
-1.4834e-10
-1.20473e-10
-1.05698e-10
-6.39358e-11
-6.77043e-11
1.45661e-11
-3.35313e-11
1.11523e-10
6.25056e-11
2.02486e-10
2.67874e-10
3.64805e-10
1.21139e-09
-6.08752e-10
-1.45411e-09
1.9653e-09
2.71989e-09
4.35948e-10
-9.89462e-10
-1.32715e-09
-1.40571e-09
-1.41623e-09
-1.44055e-09
-1.47307e-09
-1.49022e-09
-1.47847e-09
-1.43824e-09
-1.37524e-09
-1.30445e-09
-1.23141e-09
-1.16338e-09
-1.09717e-09
-1.03641e-09
-9.80596e-10
-9.31782e-10
-8.84744e-10
-8.40796e-10
-7.97422e-10
-7.5861e-10
-7.20095e-10
-6.85433e-10
-6.50731e-10
-6.18421e-10
-5.85364e-10
-5.55821e-10
-5.25713e-10
-4.98958e-10
-4.70494e-10
-4.43745e-10
-4.15492e-10
-3.90242e-10
-3.63667e-10
-3.39178e-10
-3.13567e-10
-2.88876e-10
-2.62938e-10
-2.39608e-10
-2.15362e-10
-1.94794e-10
-1.71607e-10
-1.48971e-10
-1.21088e-10
-1.06259e-10
-6.45372e-11
-6.8715e-11
1.43414e-11
-3.55294e-11
1.11639e-10
5.93331e-11
2.05033e-10
2.60903e-10
3.74527e-10
1.15899e-09
-6.87251e-10
-1.3101e-09
2.0377e-09
2.55529e-09
2.93619e-10
-1.01087e-09
-1.28196e-09
-1.35497e-09
-1.38562e-09
-1.42093e-09
-1.45682e-09
-1.47605e-09
-1.46687e-09
-1.42928e-09
-1.36849e-09
-1.29929e-09
-1.22751e-09
-1.16056e-09
-1.09531e-09
-1.03508e-09
-9.79664e-10
-9.31206e-10
-8.84595e-10
-8.40837e-10
-7.97597e-10
-7.5888e-10
-7.20573e-10
-6.85969e-10
-6.51391e-10
-6.19036e-10
-5.86027e-10
-5.56445e-10
-5.26483e-10
-4.99706e-10
-4.71389e-10
-4.44496e-10
-4.16244e-10
-3.90876e-10
-3.64512e-10
-3.39904e-10
-3.14444e-10
-2.89539e-10
-2.63692e-10
-2.40195e-10
-2.16189e-10
-1.95492e-10
-1.72592e-10
-1.49671e-10
-1.21808e-10
-1.06827e-10
-6.53372e-11
-6.96399e-11
1.3622e-11
-3.72085e-11
1.11003e-10
5.66221e-11
2.06269e-10
2.55307e-10
3.81562e-10
1.09709e-09
-7.3446e-10
-1.15018e-09
2.05202e-09
2.36356e-09
1.79601e-10
-1.01493e-09
-1.24e-09
-1.30688e-09
-1.3551e-09
-1.40122e-09
-1.44025e-09
-1.46108e-09
-1.45418e-09
-1.41927e-09
-1.36086e-09
-1.29337e-09
-1.22297e-09
-1.1572e-09
-1.09298e-09
-1.03338e-09
-9.78403e-10
-9.30324e-10
-8.84166e-10
-8.40635e-10
-7.97567e-10
-7.58958e-10
-7.2089e-10
-6.86359e-10
-6.5192e-10
-6.19533e-10
-5.86598e-10
-5.5698e-10
-5.27183e-10
-5.00388e-10
-4.72229e-10
-4.45201e-10
-4.16968e-10
-3.91479e-10
-3.65341e-10
-3.40621e-10
-3.15311e-10
-2.90203e-10
-2.64456e-10
-2.40803e-10
-2.17044e-10
-1.96226e-10
-1.73594e-10
-1.50422e-10
-1.22604e-10
-1.07404e-10
-6.62941e-11
-7.04809e-11
1.24515e-11
-3.8481e-11
1.09537e-10
5.46099e-11
2.05862e-10
2.51536e-10
3.8538e-10
1.02764e-09
-7.47759e-10
-9.77517e-10
2.01209e-09
2.14887e-09
9.25909e-11
-1.00176e-09
-1.20075e-09
-1.26265e-09
-1.32521e-09
-1.38156e-09
-1.4236e-09
-1.44562e-09
-1.44072e-09
-1.40843e-09
-1.35251e-09
-1.28687e-09
-1.21795e-09
-1.15343e-09
-1.0903e-09
-1.03139e-09
-9.76895e-10
-9.29208e-10
-8.83516e-10
-8.40241e-10
-7.9738e-10
-7.58885e-10
-7.21075e-10
-6.86627e-10
-6.52336e-10
-6.19928e-10
-5.87087e-10
-5.57437e-10
-5.27815e-10
-5.01003e-10
-4.73007e-10
-4.45854e-10
-4.17658e-10
-3.92048e-10
-3.66138e-10
-3.41316e-10
-3.1615e-10
-2.90857e-10
-2.65215e-10
-2.41422e-10
-2.17902e-10
-1.9698e-10
-1.74587e-10
-1.51206e-10
-1.23452e-10
-1.07991e-10
-6.73613e-11
-7.12485e-11
1.0913e-11
-3.93762e-11
1.0722e-10
5.34711e-11
2.0364e-10
2.49649e-10
3.85655e-10
9.52766e-10
-7.27753e-10
-7.97663e-10
1.92538e-09
1.91822e-09
2.9247e-11
-9.72676e-10
-1.16377e-09
-1.22303e-09
-1.29644e-09
-1.36199e-09
-1.40699e-09
-1.42992e-09
-1.42672e-09
-1.39694e-09
-1.34358e-09
-1.2799e-09
-1.21257e-09
-1.14933e-09
-1.08735e-09
-1.02918e-09
-9.75213e-10
-9.27917e-10
-8.82697e-10
-8.39698e-10
-7.97074e-10
-7.58699e-10
-7.21161e-10
-6.86801e-10
-6.52662e-10
-6.2024e-10
-5.87511e-10
-5.57832e-10
-5.28389e-10
-5.01562e-10
-4.73727e-10
-4.4646e-10
-4.18316e-10
-3.92589e-10
-3.66898e-10
-3.41989e-10
-3.16955e-10
-2.915e-10
-2.65963e-10
-2.4205e-10
-2.18757e-10
-1.97744e-10
-1.75559e-10
-1.52014e-10
-1.24332e-10
-1.086e-10
-6.85006e-11
-7.19597e-11
9.04758e-12
-3.98739e-11
1.04044e-10
5.3303e-11
1.99586e-10
2.49519e-10
3.82696e-10
8.75218e-10
-6.77958e-10
-6.16322e-10
1.80159e-09
1.67834e-09
-1.53167e-11
-9.30729e-10
-1.12858e-09
-1.18823e-09
-1.2691e-09
-1.34253e-09
-1.39048e-09
-1.41416e-09
-1.41237e-09
-1.38496e-09
-1.33419e-09
-1.27256e-09
-1.2069e-09
-1.14498e-09
-1.08419e-09
-1.0268e-09
-9.734e-10
-9.26498e-10
-8.81748e-10
-8.39039e-10
-7.96683e-10
-7.5843e-10
-7.2117e-10
-6.86904e-10
-6.52918e-10
-6.20493e-10
-5.87888e-10
-5.58184e-10
-5.28917e-10
-5.02075e-10
-4.74398e-10
-4.47028e-10
-4.18946e-10
-3.93109e-10
-3.67625e-10
-3.42643e-10
-3.17729e-10
-2.92132e-10
-2.66699e-10
-2.42686e-10
-2.19606e-10
-1.98514e-10
-1.76504e-10
-1.52842e-10
-1.25228e-10
-1.09241e-10
-6.96798e-11
-7.26296e-11
6.9034e-12
-3.99698e-11
1.00019e-10
5.41097e-11
1.93872e-10
2.50837e-10
3.76807e-10
7.97077e-10
-6.03179e-10
-4.38272e-10
1.65133e-09
1.43659e-09
-4.6307e-11
-8.79681e-10
-1.09471e-09
-1.15807e-09