/*--------------------------------*- C++ -*----------------------------------*\
| =========                 |                                                 |
| \\      /  F ield         | OpenFOAM: The Open Source CFD Toolbox           |
|  \\    /   O peration     | Version:  2312                                  |
|   \\  /    A nd           | Website:  www.openfoam.com                      |
|    \\/     M anipulation  |                                                 |
\*---------------------------------------------------------------------------*/
FoamFile
{
    version     2.0;
    format      ascii;
    arch        "LSB;label=32;scalar=64";
    class       volScalarField;
    location    "840";
    object      nut;
}
// * * * * * * * * * * * * * * * * * * * * * * * * * * * * * * * * * * * * * //

dimensions      [0 2 -1 0 0 0 0];

internalField   nonuniform List<scalar> 
144000
(
3.33592e-30
1.4916e-30
1.00707e-30
1.29379e-28
2.26525e-29
1.49603e-31
1.43384e-29
3.21257e-30
8.96362e-30
5.88092e-30
8.30102e-30
6.5636e-30
9.15395e-30
8.01493e-30
8.40338e-30
6.8901e-30
9.79978e-30
1.07379e-29
9.98874e-30
9.37734e-30
1.12949e-29
1.19623e-29
1.18962e-29
1.16235e-29
1.12491e-29
1.15146e-29
1.27719e-29
1.29969e-29
1.30674e-29
1.26701e-29
1.15774e-29
1.1055e-29
1.30046e-29
1.3094e-29
1.20129e-29
1.05767e-29
9.26321e-30
8.24543e-30
7.74857e-30
5.39631e-30
5.6529e-30
2.91137e-30
8.11156e-30
6.79444e-30
4.86454e-30
4.47569e-30
1.88022e-30
1.04038e-30
2.15949e-31
7.10963e-32
8.85631e-32
8.03967e-31
6.30768e-30
1.76895e-29
9.72046e-29
4.52445e-29
2.05746e-28
1.53632e-26
3.3965e-26
5.54209e-27
9.67762e-27
1.1808e-27
3.77586e-28
1.27843e-27
1.02954e-29
2.19209e-30
2.55294e-29
9.65331e-30
1.23509e-29
1.84206e-29
1.19855e-29
1.83039e-29
1.44159e-29
2.09578e-29
1.4815e-29
1.62725e-29
1.67416e-29
2.56897e-29
1.91199e-29
2.01543e-29
2.0874e-29
2.69183e-29
2.24901e-29
2.5308e-29
2.1165e-29
2.44068e-29
2.37863e-29
2.79883e-29
2.46239e-29
2.65157e-29
2.19803e-29
2.19648e-29
2.37238e-29
2.67811e-29
2.24389e-29
2.00936e-29
1.6753e-29
1.47794e-29
1.37605e-29
1.04704e-29
1.06346e-29
8.35615e-30
1.93019e-29
9.46894e-30
1.03116e-29
8.05766e-30
4.06402e-30
1.37136e-30
4.6445e-31
5.22663e-32
9.36506e-32
3.14951e-30
1.03471e-29
5.49658e-29
1.62984e-28
2.09368e-28
2.50825e-28
3.31185e-26
1.94826e-25
3.87666e-27
4.27345e-26
2.56133e-27
3.45709e-27
1.13024e-27
5.94857e-29
1.02384e-30
3.83514e-29
1.42486e-29
1.82572e-29
2.36281e-29
1.87799e-29
2.26303e-29
2.23775e-29
2.6971e-29
2.19206e-29
2.2236e-29
2.50048e-29
3.37698e-29
2.76956e-29
2.78208e-29
3.00692e-29
3.62875e-29
3.18794e-29
3.47308e-29
2.96714e-29
3.41233e-29
3.3195e-29
3.83392e-29
3.40401e-29
3.64806e-29
2.98253e-29
3.11342e-29
3.21459e-29
3.61557e-29
2.98765e-29
2.72694e-29
2.19763e-29
2.03266e-29
1.82165e-29
1.49634e-29
1.62959e-29
1.20171e-29
3.15981e-29
1.12877e-29
1.58729e-29
1.10035e-29
5.52897e-30
2.20948e-30
5.68341e-31
1.75193e-31
2.39339e-31
2.77062e-30
1.88655e-29
5.96981e-29
2.63038e-28
1.71729e-28
8.88317e-28
5.90877e-26
2.034e-25
1.63005e-26
2.04226e-25
3.09023e-26
1.47696e-26
4.37852e-27
5.36954e-29
1.3973e-30
3.81521e-29
1.7459e-29
1.81847e-29
2.39559e-29
1.90317e-29
2.25449e-29
2.27604e-29
2.70359e-29
2.22921e-29
2.206e-29
2.50598e-29
3.39211e-29
2.78233e-29
2.75733e-29
3.01382e-29
3.60539e-29
3.19741e-29
3.42938e-29
2.95842e-29
3.37904e-29
3.2678e-29
3.81589e-29
3.3517e-29
3.5864e-29
2.92556e-29
3.05611e-29
3.10284e-29
3.56483e-29
2.87994e-29
2.6524e-29
2.12957e-29
2.00971e-29
1.83026e-29
1.58044e-29
1.69533e-29
1.65149e-29
3.08237e-29
1.05077e-29
1.85573e-29
1.03304e-29
6.3786e-30
2.109e-30
7.8793e-31
2.73491e-31
1.2783e-31
3.01432e-30
1.58598e-29
5.65146e-29
2.28531e-28
1.4975e-28
1.12053e-27
8.55764e-26
2.99189e-25
6.27912e-26
4.83091e-25
1.75599e-25
2.87042e-26
1.49222e-26
1.1417e-28
2.25019e-30
4.2987e-29
2.21464e-29
1.81196e-29
2.56479e-29
1.84148e-29
2.4038e-29
2.24911e-29
2.80822e-29
2.21602e-29
2.24584e-29
2.48751e-29
3.49919e-29
2.76427e-29
2.76353e-29
3.01643e-29
3.63846e-29
3.19052e-29
3.41714e-29
2.93998e-29
3.36828e-29
3.24223e-29
3.83318e-29
3.30062e-29
3.57605e-29
2.87875e-29
3.03368e-29
3.05852e-29
3.61114e-29
2.82958e-29
2.69063e-29
2.13853e-29
2.12208e-29
1.92747e-29
1.74921e-29
1.77203e-29
1.84481e-29
2.73748e-29
1.21154e-29
2.10654e-29
1.03056e-29
7.33181e-30
2.23402e-30
1.14139e-30
5.13822e-31
5.61146e-32
3.11129e-30
1.28913e-29
5.25423e-29
1.89512e-28
1.17168e-28
1.58265e-27
1.36365e-25
4.19363e-25
2.50526e-25
7.92538e-25
5.91115e-25
3.73516e-26
3.80129e-26
3.20989e-28
5.05779e-30
5.34778e-29
2.7885e-29
1.96791e-29
2.78482e-29
1.8256e-29
2.57625e-29
2.27543e-29
2.97907e-29
2.24306e-29
2.36556e-29
2.54632e-29
3.70556e-29
2.79732e-29
2.85998e-29
3.1015e-29
3.7864e-29
3.26549e-29
3.4969e-29
3.00933e-29
3.45723e-29
3.33155e-29
3.97105e-29
3.37159e-29
3.67752e-29
2.94257e-29
3.1343e-29
3.18148e-29
3.8261e-29
2.93912e-29
2.88752e-29
2.29404e-29
2.39279e-29
2.13561e-29
1.96243e-29
1.81802e-29
2.24477e-29
2.5333e-29
1.599e-29
2.37275e-29
1.1498e-29
8.5663e-30
2.78256e-30
1.76317e-30
1.04835e-30
2.88386e-32
3.26323e-30
9.96753e-30
4.76788e-29
1.46478e-28
8.0177e-29
2.28963e-27
2.22319e-25
5.48194e-25
7.59038e-25
1.04421e-24
1.48086e-24
3.73658e-26
7.90642e-26
8.53341e-28
1.17325e-29
6.91728e-29
3.55521e-29
2.25047e-29
2.98577e-29
1.86708e-29
2.7154e-29
2.35053e-29
3.1385e-29
2.29215e-29
2.49257e-29
2.66856e-29
3.93099e-29
2.85614e-29
3.00085e-29
3.23477e-29
3.97845e-29
3.36942e-29
3.61616e-29
3.12323e-29
3.60743e-29
3.49708e-29
4.15959e-29
3.50543e-29
3.84205e-29
3.07979e-29
3.33164e-29
3.42786e-29
4.13776e-29
3.15345e-29
3.1845e-29
2.55647e-29
2.77798e-29
2.4281e-29
2.22094e-29
1.91201e-29
2.47695e-29
2.39916e-29
2.21858e-29
2.70191e-29
1.39301e-29
1.01074e-29
3.96966e-30
2.89885e-30
2.23646e-30
9.02258e-32
3.70823e-30
7.55798e-30
4.1265e-29
1.02978e-28
4.95547e-29
3.07409e-27
3.51444e-25
7.03219e-25
1.82011e-24
1.18258e-24
3.0165e-24
3.076e-26
1.41683e-25
1.97502e-27
2.31383e-29
9.00742e-29
4.5448e-29
2.60819e-29
3.18509e-29
1.94427e-29
2.8226e-29
2.45326e-29
3.27915e-29
2.35729e-29
2.60367e-29
2.82356e-29
4.14892e-29
2.92723e-29
3.15035e-29
3.38698e-29
4.19148e-29
3.48302e-29
3.75439e-29
3.26535e-29
3.7886e-29
3.69106e-29
4.38581e-29
3.68468e-29
4.0421e-29
3.27285e-29
3.58549e-29
3.74943e-29
4.5207e-29
3.44642e-29
3.55641e-29
2.91874e-29
3.2746e-29
2.81237e-29
2.53466e-29
2.09056e-29
2.93177e-29
2.32282e-29
2.98703e-29
3.16542e-29
1.78779e-29
1.22069e-29
6.26799e-30
4.98228e-30
4.86444e-30
5.64774e-31
5.23733e-30
6.88634e-30
3.64634e-29
7.08015e-29
4.44045e-29
3.8884e-27
5.29859e-25
8.99874e-25
3.58518e-24
1.20263e-24
5.40156e-24
2.08e-26
2.30606e-25
4.19091e-27
4.11192e-29
1.17074e-28
5.61604e-29
3.00371e-29
3.40484e-29
2.04377e-29
2.91135e-29
2.5873e-29
3.40231e-29
2.43992e-29
2.72596e-29
3.0234e-29
4.35661e-29
3.01312e-29
3.30722e-29
3.57914e-29
4.41482e-29
3.60404e-29
3.91486e-29
3.43377e-29
4.0033e-29
3.93627e-29
4.63998e-29
3.89148e-29
4.2876e-29
3.51518e-29
3.89915e-29
4.16077e-29
4.96797e-29
3.8087e-29
4.02042e-29
3.40778e-29
3.93761e-29
3.39098e-29
3.10942e-29
2.6374e-29
3.81015e-29
2.08944e-29
3.99256e-29
3.87741e-29
2.39009e-29
1.53972e-29
1.04921e-29
9.02015e-30
1.054e-29
2.62659e-30
1.00888e-29
1.07618e-29
3.98588e-29
6.85865e-29
1.07166e-28
4.51893e-27
7.65911e-25
1.22243e-24
6.23242e-24
1.11305e-24
8.71864e-24
1.266e-26
3.44388e-25
8.21353e-27
6.79617e-29
1.51302e-28
6.66522e-29
3.43448e-29
3.65365e-29
2.16199e-29
2.98952e-29
2.74998e-29
3.51266e-29
2.55358e-29
2.8459e-29
3.2575e-29
4.55194e-29
3.12387e-29
3.46393e-29
3.80233e-29
4.64476e-29
3.7496e-29
4.08911e-29
3.63886e-29
4.24461e-29
4.20729e-29
4.92808e-29
4.13964e-29
4.56591e-29
3.8106e-29
4.26448e-29
4.63553e-29
5.49055e-29
4.25957e-29
4.59293e-29
4.06895e-29
4.84455e-29
4.28824e-29
4.2218e-29
4.2219e-29
4.11053e-29
1.78516e-29
5.13875e-29
4.97226e-29
3.30205e-29
2.05927e-29
1.80294e-29
1.68855e-29
2.23173e-29
9.43008e-30
2.39177e-29
2.78225e-29
6.74835e-29
1.34785e-28
4.04546e-28
5.07916e-27
1.07045e-24
1.72411e-24
9.74475e-24
9.77346e-25
1.30863e-23
8.94016e-27
4.81897e-25
1.52107e-26
1.09288e-28
1.95695e-28
7.57815e-29
3.87147e-29
3.93971e-29
2.29415e-29
3.05955e-29
2.94373e-29
3.61026e-29
2.68849e-29
2.97094e-29
3.53768e-29
4.72979e-29
3.25589e-29
3.6234e-29
4.07292e-29
4.8663e-29
3.91585e-29
4.27602e-29
3.87629e-29
4.511e-29
4.52811e-29
5.22836e-29
4.41541e-29
4.88278e-29
4.15422e-29
4.69147e-29
5.19523e-29
6.07935e-29
4.79937e-29
5.29318e-29
4.93755e-29
6.04891e-29
5.57832e-29
5.94183e-29
5.91231e-29
5.41535e-29
1.9534e-29
5.71697e-29
7.02713e-29
4.54843e-29
2.94685e-29
3.09954e-29
3.21977e-29
4.58623e-29
2.80475e-29
5.97781e-29
8.20416e-29
1.60824e-28
3.87081e-28
1.32381e-27
5.39418e-27
1.46843e-24
2.61851e-24
1.41614e-23
8.23869e-25
1.84406e-23
1.41673e-26
6.34817e-25
2.665e-26
1.74463e-28
2.50145e-28
8.3181e-29
4.29756e-29
4.30098e-29
2.41742e-29
3.1453e-29
3.13996e-29
3.72226e-29
2.83605e-29
3.10276e-29
3.83561e-29
4.90359e-29
3.40112e-29
3.78551e-29
4.36628e-29
5.08624e-29
4.10254e-29
4.47122e-29
4.14918e-29
4.79282e-29
4.8622e-29
5.5469e-29
4.73395e-29
5.22556e-29
4.55225e-29
5.16857e-29
5.81768e-29
6.7471e-29
5.44665e-29
6.13798e-29
6.06062e-29
7.59279e-29
7.29631e-29
8.68219e-29
9.23343e-29
8.82422e-29
1.85426e-29
6.30226e-29
1.00645e-28
6.34186e-29
4.44049e-29
5.27371e-29
6.07565e-29
9.05904e-29
7.30103e-29
1.44289e-28
2.25353e-28
4.13697e-28
1.08953e-27
3.59044e-27
5.69205e-27
2.0012e-24
4.02758e-24
1.9219e-23
7.45942e-25
2.47922e-23
3.34699e-26
7.96604e-25
4.43166e-26
2.85205e-28
3.24132e-28
8.67242e-29
4.71163e-29
4.73016e-29
2.5313e-29
3.2425e-29
3.33858e-29
3.84939e-29
2.97363e-29
3.25144e-29
4.16154e-29
5.06844e-29
3.54571e-29
3.95607e-29
4.69602e-29
5.29567e-29
4.29209e-29
4.68168e-29
4.44284e-29
5.08494e-29
5.24309e-29
5.86881e-29
5.07071e-29
5.60821e-29
4.99607e-29
5.70017e-29
6.54995e-29
7.49385e-29
6.21291e-29
7.2015e-29
7.56788e-29
9.76754e-29
1.02812e-28
1.61408e-28
3.96163e-28
2.58008e-28
7.58872e-30
1.10217e-28
1.15753e-28
9.89575e-29
6.5692e-29
8.99193e-29
1.11489e-28
1.715e-28
1.68756e-28
3.24653e-28
5.50184e-28
9.95717e-28
2.68718e-27
8.11777e-27
5.79483e-27
2.70514e-24
6.44558e-24
2.47902e-23
7.70011e-25
3.21679e-23
8.31733e-26
9.6307e-25
6.99155e-26
4.8294e-28
4.18987e-28
8.58722e-29
5.11072e-29
5.23374e-29
2.63755e-29
3.34578e-29
3.53357e-29
3.98524e-29
3.11878e-29
3.40793e-29
4.47983e-29
5.23307e-29
3.69505e-29
4.13349e-29
5.02571e-29
5.50356e-29
4.49329e-29
4.89745e-29
4.76329e-29
5.38503e-29
5.62875e-29
6.20939e-29
5.44418e-29
6.01392e-29
5.50005e-29
6.28345e-29
7.35279e-29
8.35103e-29
7.1495e-29
8.55829e-29
9.71196e-29
1.33038e-28
1.71862e-28
4.24963e-28
8.32434e-28
9.89241e-30
9.35143e-30
1.10373e-28
1.35271e-28
1.56752e-28
9.76879e-29
1.51443e-28
1.97998e-28
3.11121e-28
3.54849e-28
6.70672e-28
1.20054e-27
2.15983e-27
5.834e-27
1.61928e-26
5.82479e-27
3.64538e-24
1.01575e-23
3.05895e-23
1.05147e-24
4.0586e-23
1.68778e-25
1.13173e-24
1.04602e-25
8.44044e-28
5.41674e-28
7.97482e-29
5.49293e-29
5.77806e-29
2.75514e-29
3.42386e-29
3.75561e-29
4.10151e-29
3.27133e-29
3.56585e-29
4.81755e-29
5.37526e-29
3.84687e-29
4.31352e-29
5.37865e-29
5.69083e-29
4.69932e-29
5.1227e-29
5.09921e-29
5.69287e-29
6.04988e-29
6.55066e-29
5.83747e-29
6.45719e-29
6.04571e-29
6.91698e-29
8.22955e-29
9.22342e-29
8.07859e-29
9.77759e-29
1.13285e-28
1.48851e-28
1.98282e-28
5.34348e-28
1.37273e-29
8.82192e-28
1.66934e-27
8.36189e-30
3.06419e-28
1.88224e-28
1.6473e-28
2.40568e-28
3.4236e-28
5.38593e-28
6.83478e-28
1.28082e-27
2.35942e-27
4.24102e-27
1.12471e-26
2.88658e-26
5.69893e-27
4.91618e-24
1.60924e-23
3.63411e-23
1.66329e-24
5.00643e-23
3.13796e-25
1.31464e-24
1.4982e-25
1.54087e-27
6.65435e-28
7.01902e-29
5.79677e-29
6.44283e-29
2.83737e-29
3.51727e-29
3.96277e-29
4.22935e-29
3.42583e-29
3.72797e-29
5.13234e-29
5.51956e-29
3.99547e-29
4.50054e-29
5.71612e-29
5.87758e-29
4.91309e-29
5.35581e-29
5.45637e-29
6.00948e-29
6.45709e-29
6.91019e-29
6.2753e-29
6.92488e-29
6.64832e-29
7.60082e-29
9.16335e-29
1.02242e-28
9.23598e-29
1.14887e-28
1.42515e-28
2.02315e-28
3.72881e-28
1.4482e-27
2.92398e-27
4.29985e-27
2.3017e-30
3.31963e-29
3.40548e-28
2.93455e-28
2.43735e-28
3.76663e-28
5.63481e-28
8.88291e-28
1.22204e-27
2.25821e-27
4.23847e-27
7.555e-27
1.96258e-26
4.68325e-26
5.74873e-27
6.71528e-24
2.44513e-23
4.16925e-23
2.93945e-24
5.98938e-23
5.06987e-25
1.51596e-24
2.03065e-25
2.7933e-27
7.99292e-28
5.7945e-29
6.17676e-29
7.08335e-29
2.91936e-29
3.5991e-29
4.17463e-29
4.35982e-29
3.55819e-29
3.89638e-29
5.46072e-29
5.64558e-29
4.13061e-29
4.69312e-29
6.07345e-29
6.04978e-29
5.11682e-29
5.61138e-29
5.81365e-29
6.33008e-29
6.90025e-29
7.2754e-29
6.72107e-29
7.44742e-29
7.28568e-29
8.348e-29
1.0253e-28
1.14043e-28
1.07531e-28
1.41448e-28
1.96409e-28
3.30087e-28
8.56155e-28
4.69198e-27
5.00668e-26
7.04915e-29
1.15037e-26
1.43574e-28
2.69324e-28
4.98298e-28
3.27506e-28
5.74735e-28
8.81408e-28
1.39992e-27
2.02378e-27
3.71765e-27
7.00009e-27
1.23829e-26
3.13931e-26
7.00733e-26
5.95881e-27
9.10542e-24
3.64711e-23
4.56968e-23
5.02775e-24
7.03289e-23
7.49177e-25
1.77892e-24
2.61003e-25
4.96199e-27
9.32102e-28
4.67247e-29
6.38538e-29
7.82391e-29
2.95827e-29
3.69798e-29
4.36403e-29
4.50039e-29
3.68776e-29
4.0698e-29
5.7493e-29
5.78036e-29
4.26107e-29
4.89755e-29
6.40062e-29
6.23116e-29
5.32446e-29
5.87755e-29
6.18199e-29
6.65908e-29
7.32911e-29
7.66993e-29
7.19007e-29
7.99169e-29
7.9613e-29
9.10169e-29
1.12727e-28
1.24095e-28
1.17608e-28
1.51596e-28
1.98794e-28
2.84289e-28
5.32995e-28
1.8524e-27
4.53429e-27
3.56283e-27
4.12778e-30
8.40954e-30
6.78935e-28
5.21548e-28
5.18567e-28
8.12138e-28
1.33714e-27
2.08248e-27
3.15204e-27
5.69876e-27
1.07524e-26
1.87733e-26
4.68322e-26
9.88753e-26
6.55105e-27
1.2188e-23
5.18859e-23
4.7881e-23
9.12635e-24
8.19415e-23
9.64463e-25
2.10277e-24
3.18315e-25
8.51029e-27
1.06023e-27
3.61425e-29
6.46026e-29
8.62782e-29
2.98272e-29
3.76788e-29
4.58839e-29
4.60252e-29
3.82498e-29
4.23141e-29
6.05218e-29
5.88226e-29
4.39283e-29
5.10178e-29
6.73951e-29
6.39015e-29
5.53461e-29
6.15714e-29
6.54944e-29
6.99436e-29
7.78253e-29
8.07201e-29
7.66546e-29
8.58288e-29
8.65603e-29
9.90496e-29
1.23532e-28
1.34374e-28
1.27914e-28
1.62216e-28
2.00381e-28
2.46017e-28
2.88783e-28
4.96902e-28
1.02128e-31
1.27116e-27
1.84455e-27
6.01577e-29
8.91201e-28
6.58775e-28
7.13996e-28
1.16014e-27
1.90047e-27
2.96889e-27
4.582e-27
8.21864e-27
1.5348e-26
2.65705e-26
6.49899e-26
1.31077e-25
7.77571e-27
1.61797e-23
7.2996e-23
4.87031e-23
1.52974e-23
9.52948e-23
1.17595e-24
2.5716e-24
3.70961e-25
1.42784e-26
1.0774e-27
2.7681e-29
6.6855e-29
9.39959e-29
2.97074e-29
3.85977e-29
4.79469e-29
4.71e-29
3.96901e-29
4.3999e-29
6.30703e-29
5.99426e-29
4.52511e-29
5.32113e-29
7.03623e-29
6.55663e-29
5.7547e-29
6.44759e-29
6.9264e-29
7.34564e-29
8.20106e-29
8.50026e-29
8.18274e-29
9.20118e-29
9.40155e-29
1.07787e-28
1.34846e-28
1.47117e-28
1.43553e-28
1.86376e-28
2.4047e-28
3.18693e-28
4.13065e-28
8.15987e-28
8.5008e-28
3.00784e-29
3.91844e-30
7.13085e-28
7.82949e-28
9.18941e-28
9.12698e-28
1.5978e-27
2.5764e-27
4.01748e-27
6.28589e-27
1.10995e-26
2.05688e-26
3.51645e-26
8.48093e-26
1.64827e-25
1.11002e-26
2.13867e-23
9.75576e-23
4.81874e-23
2.48731e-23
1.08213e-22
1.31866e-24
3.18081e-24
4.06316e-25
2.26047e-26
1.03191e-27
2.46471e-29
7.18775e-29
1.00096e-28
2.92371e-29
3.98188e-29
4.96711e-29
4.83857e-29
4.0723e-29
4.58588e-29
6.53365e-29
6.10116e-29
4.63149e-29
5.55436e-29
7.31133e-29
6.721e-29
5.95078e-29
6.76715e-29
7.27425e-29
7.70048e-29
8.61971e-29
8.93363e-29
8.67686e-29
9.85453e-29
1.01088e-28
1.16223e-28
1.45214e-28
1.57291e-28
1.53376e-28
1.97327e-28
2.44556e-28
3.04929e-28
3.37233e-28
4.99436e-28
7.31782e-28
6.17135e-28
2.4268e-29
7.34213e-28
1.18237e-27
1.00701e-27
1.23886e-27
2.04311e-27
3.35096e-27
5.12253e-27
8.1138e-27
1.40543e-26
2.57936e-26
4.33759e-26
1.04078e-25
1.94738e-25
1.73352e-26
2.76234e-23
1.26667e-22
4.47745e-23
3.82514e-23
1.21281e-22
1.39492e-24
4.00649e-24
4.19956e-25
3.38518e-26
9.29511e-28
2.45248e-29
7.6918e-29
1.0614e-28
2.79431e-29
4.179e-29
5.05063e-29
5.01415e-29
4.12323e-29
4.79528e-29
6.68109e-29
6.23754e-29
4.70836e-29
5.80491e-29
7.525e-29
6.90656e-29
6.11423e-29
7.10157e-29
7.57941e-29
8.05146e-29
8.99356e-29
9.38196e-29
9.12682e-29
1.05082e-28
1.07704e-28
1.24178e-28
1.5459e-28
1.66485e-28
1.60976e-28
2.04716e-28
2.40257e-28
2.78292e-28
2.48423e-28
2.41484e-28
1.9773e-28
2.4012e-28
2.5091e-28
8.77959e-28
1.42224e-27
1.18459e-27
1.54645e-27
2.52881e-27
4.10993e-27
6.17852e-27
9.86244e-27
1.6657e-26
3.01982e-26
4.94886e-26
1.19508e-25
2.13439e-25
3.01451e-26
3.47722e-23
1.57433e-22
3.94501e-23
5.65409e-23
1.32612e-22
1.41353e-24
5.01508e-24
4.06427e-25
4.70266e-26
8.04561e-28
2.85395e-29
8.61431e-29
1.0788e-28
2.72717e-29
4.27027e-29
5.19918e-29
5.08802e-29
4.18897e-29
4.93285e-29
6.84153e-29
6.30701e-29
4.77687e-29
6.00083e-29
7.73194e-29
7.02948e-29
6.25638e-29
7.39189e-29
7.82498e-29
8.35324e-29
9.32142e-29
9.77951e-29
9.49238e-29
1.11182e-28
1.12999e-28
1.31414e-28
1.6274e-28
1.74771e-28
1.67706e-28
2.14277e-28
2.42958e-28
2.77085e-28
2.34827e-28
2.05041e-28
1.34829e-28
3.10783e-28
4.19314e-28
1.23133e-27
1.47323e-27
1.39367e-27
1.82005e-27
2.99173e-27
4.76978e-27
7.12206e-27
1.11668e-26
1.86494e-26
3.27373e-26
5.29408e-26
1.26768e-25
2.18756e-25
5.16334e-26
4.23498e-23
1.88018e-22
3.21103e-23
7.8634e-23
1.46164e-22
1.44289e-24
6.42402e-24
3.70191e-25
6.1612e-26
6.81823e-28
4.01256e-29
1.05113e-28
1.0296e-28
2.83824e-29
4.08482e-29
5.59115e-29
4.91278e-29
4.44848e-29
4.85343e-29
7.06285e-29
6.2394e-29
4.93912e-29
6.03418e-29
7.95676e-29
7.04033e-29
6.47205e-29
7.55529e-29
8.09072e-29
8.56496e-29
9.55219e-29
1.01181e-28
9.82597e-29
1.16198e-28
1.17297e-28
1.3736e-28
1.66908e-28
1.81715e-28
1.71124e-28
2.19716e-28
2.38116e-28
2.69138e-28
2.18634e-28
1.94889e-28
1.15926e-28
3.79877e-28
6.177e-28
1.47482e-27
1.53062e-27
1.55976e-27
2.04881e-27
3.39044e-27
5.17954e-27
7.82863e-27
1.16934e-26
1.95992e-26
3.2498e-26
5.29145e-26
1.23422e-25
2.18216e-25
8.40093e-26
4.97492e-23
2.14343e-22
2.51723e-23
1.10803e-22
1.61491e-22
1.48822e-24
8.30941e-24
3.26661e-25
8.13801e-26
5.6358e-28
6.23765e-29
1.38868e-28
1.02249e-28
2.84921e-29
4.18623e-29
6.02703e-29
5.01935e-29
4.67702e-29
5.04227e-29
7.47424e-29
6.45398e-29
5.12222e-29
6.36531e-29
8.38009e-29
7.32478e-29
6.76888e-29
7.99243e-29
8.5246e-29
9.04748e-29
1.00702e-28
1.07373e-28
1.03649e-28
1.24396e-28
1.23985e-28
1.46722e-28
1.76329e-28
1.9197e-28
1.76972e-28
2.27967e-28
2.38145e-28
2.65276e-28
2.14009e-28
1.95822e-28
1.18517e-28
4.56317e-28
8.5168e-28
1.65238e-27
1.61267e-27
1.72042e-27
2.27816e-27
3.72891e-27
5.5255e-27
8.21485e-27
1.18963e-26
1.95018e-26
3.11152e-26
5.01124e-26
1.16946e-25
2.16599e-25
1.25784e-25
5.82276e-23
2.45372e-22
1.83449e-23
5.44915e-30
1.38813e-30
9.48245e-31
1.28747e-28
2.06484e-29
2.11548e-31
1.31456e-29
3.57955e-30
8.41973e-30
6.0551e-30
8.08719e-30
6.52577e-30
9.04843e-30
7.84996e-30
8.50105e-30
6.64638e-30
9.89262e-30
1.03849e-29
1.01288e-29
9.08359e-30
1.14411e-29
1.17548e-29
1.20474e-29
1.1459e-29
1.16262e-29
1.13804e-29
1.31407e-29
1.33018e-29
1.33419e-29
1.3316e-29
1.21382e-29
1.19081e-29
1.39191e-29
1.45716e-29
1.34764e-29
1.25305e-29
1.14441e-29
1.09201e-29
1.0732e-29
8.94502e-30
7.75659e-30
5.60323e-30
5.51187e-30
6.82477e-30
4.54644e-30
4.77485e-30
1.75541e-30
1.09945e-30
1.96951e-31
7.78863e-32
9.13123e-32
7.4938e-31
6.48803e-30
1.67566e-29
9.85113e-29
4.85645e-29
1.96467e-28
1.5637e-26
3.54551e-26
5.39203e-27
1.0277e-26
1.23329e-27
3.70483e-28
1.2613e-27
8.79059e-30
2.50583e-30
2.34891e-29
1.04373e-29
1.14585e-29
1.88662e-29
1.15586e-29
1.83388e-29
1.40531e-29
2.08028e-29
1.47329e-29
1.59914e-29
1.67255e-29
2.52872e-29
1.90687e-29
1.9965e-29
2.09579e-29
2.6873e-29
2.27133e-29
2.52946e-29
2.19516e-29
2.44826e-29
2.4822e-29
2.89206e-29
2.56644e-29
2.82478e-29
2.36675e-29
2.42568e-29
2.63131e-29
3.07501e-29
2.64093e-29
2.50543e-29
2.21396e-29
2.11046e-29
2.06026e-29
1.82658e-29
1.54554e-29
1.45734e-29
1.18363e-29
1.0528e-29
9.38961e-30
8.69447e-30
3.74383e-30
1.48782e-30
4.09383e-31
5.99702e-32
1.07318e-31
2.97558e-30
1.07569e-29
5.35267e-29
1.66181e-28
2.19763e-28
2.39426e-28
3.36554e-26
2.01241e-25
3.72737e-27
4.29635e-26
2.59148e-27
3.4119e-27
1.10168e-27
5.47186e-29
1.18466e-30
3.55285e-29
1.50892e-29
1.71078e-29
2.39696e-29
1.82211e-29
2.2599e-29
2.18328e-29
2.67761e-29
2.17623e-29
2.19248e-29
2.49987e-29
3.34287e-29
2.75262e-29
2.79033e-29
3.00597e-29
3.67564e-29
3.21235e-29
3.52059e-29
3.08493e-29
3.47562e-29
3.49186e-29
4.02459e-29
3.59903e-29
3.95488e-29
3.2794e-29
3.51869e-29
3.66384e-29
4.28344e-29
3.65082e-29
3.54688e-29
3.05564e-29
3.05132e-29
2.87321e-29
2.69583e-29
2.36823e-29
2.13552e-29
1.68891e-29
1.43489e-29
1.35827e-29
1.22979e-29
4.89145e-30
2.47288e-30
4.62732e-31
2.01246e-31
2.93716e-31
2.56762e-30
1.99458e-29
5.8093e-29
2.70524e-28
1.7695e-28
8.7304e-28
5.99769e-26
2.09097e-25
1.59365e-26
2.04506e-25
3.08689e-26
1.4667e-26
4.3047e-27
4.92728e-29
1.56407e-30
3.5496e-29
1.82315e-29
1.72264e-29
2.41382e-29
1.85551e-29
2.25126e-29
2.21881e-29
2.69415e-29
2.20874e-29
2.20468e-29
2.51046e-29
3.38263e-29
2.76707e-29
2.81087e-29
3.00962e-29
3.71797e-29
3.21522e-29
3.54808e-29
3.08754e-29
3.52291e-29
3.47025e-29
4.09651e-29
3.59167e-29
3.98973e-29
3.28692e-29
3.56761e-29
3.63823e-29
4.37179e-29
3.64256e-29
3.59903e-29
3.08792e-29
3.14522e-29
2.98568e-29
2.92079e-29
2.59583e-29
2.33724e-29
1.6279e-29
1.43093e-29
1.47041e-29
1.22277e-29
5.36641e-30
2.47891e-30
6.0583e-31
3.14185e-31
1.81347e-31
2.75604e-30
1.71338e-29
5.45022e-29
2.35478e-28
1.51849e-28
1.11873e-27
8.63759e-26
3.05275e-25
6.23885e-26
4.83013e-25
1.75499e-25
2.85975e-26
1.47615e-26
1.07745e-28
2.35551e-30
4.0319e-29
2.28102e-29
1.73659e-29
2.57855e-29
1.80505e-29
2.40589e-29
2.194e-29
2.81758e-29
2.19639e-29
2.27601e-29
2.49933e-29
3.51824e-29
2.76374e-29
2.8611e-29
3.02182e-29
3.81503e-29
3.21003e-29
3.61778e-29
3.08175e-29
3.60041e-29
3.4763e-29
4.20325e-29
3.58005e-29
4.07922e-29
3.28988e-29
3.63971e-29
3.65451e-29
4.53158e-29
3.6444e-29
3.72446e-29
3.13691e-29
3.32623e-29
3.13562e-29
3.20509e-29
2.79997e-29
2.47134e-29
1.56359e-29
1.52993e-29
1.57083e-29
1.28909e-29
5.86042e-30
2.76328e-30
8.34419e-31
5.93861e-31
9.58259e-32
2.78559e-30
1.42183e-29
4.98797e-29
1.96538e-28
1.17343e-28
1.5959e-27
1.37008e-25
4.26173e-25
2.50531e-25
7.91637e-25
5.90926e-25
3.7303e-26
3.77187e-26
3.10126e-28
5.04776e-30
5.03906e-29
2.84462e-29
1.90179e-29
2.80942e-29
1.79695e-29
2.59017e-29
2.2263e-29
3.01231e-29
2.23015e-29
2.4187e-29
2.5721e-29
3.75532e-29
2.823e-29
2.99831e-29
3.12887e-29
4.02199e-29
3.29906e-29
3.78195e-29
3.16858e-29
3.78142e-29
3.59677e-29
4.43205e-29
3.68572e-29
4.28477e-29
3.38862e-29
3.83263e-29
3.8169e-29
4.84438e-29
3.77402e-29
3.98579e-29
3.29741e-29
3.64478e-29
3.37057e-29
3.59116e-29
3.07893e-29
2.78548e-29
1.63233e-29
1.72801e-29
1.73011e-29
1.4756e-29
6.64149e-30
3.5382e-30
1.26402e-30
1.21692e-30
4.62577e-32
2.91231e-30
1.11568e-29
4.47733e-29
1.53671e-28
7.92096e-29
2.32704e-27
2.2296e-25
5.55594e-25
7.59838e-25
1.04254e-24
1.48169e-24
3.7355e-26
7.86272e-26
8.35575e-28
1.1503e-29
6.55119e-29
3.64793e-29
2.17383e-29
3.04967e-29
1.83302e-29
2.75975e-29
2.2996e-29
3.21243e-29
2.28278e-29
2.58764e-29
2.69978e-29
4.02239e-29
2.907e-29
3.18039e-29
3.28717e-29
4.26812e-29
3.42451e-29
3.98165e-29
3.29811e-29
4.01889e-29
3.78719e-29
4.69832e-29
3.84579e-29
4.53817e-29
3.53877e-29
4.10498e-29
4.06824e-29
5.21592e-29
3.9635e-29
4.30237e-29
3.51157e-29
4.02697e-29
3.65088e-29
4.05393e-29
3.47768e-29
3.23739e-29
1.80749e-29
1.98421e-29
1.98482e-29
1.77545e-29
7.83141e-30
5.01982e-30
2.11533e-30
2.58286e-30
7.36268e-32
3.44058e-30
8.42675e-30
3.88697e-29
1.09723e-28
4.83382e-29
3.13441e-27
3.52297e-25
7.1196e-25
1.82381e-24
1.18026e-24
3.01937e-24
3.07521e-26
1.41104e-25
1.94526e-27
2.25064e-29
8.58584e-29
4.68672e-29
2.5174e-29
3.30756e-29
1.89442e-29
2.91516e-29
2.39126e-29
3.41003e-29
2.3437e-29
2.75883e-29
2.84958e-29
4.29619e-29
2.99538e-29
3.37495e-29
3.46085e-29
4.5329e-29
3.55952e-29
4.19073e-29
3.44924e-29
4.27854e-29
3.9912e-29
4.98666e-29
4.0343e-29
4.80123e-29
3.71759e-29
4.40669e-29
4.35214e-29
5.61041e-29
4.17472e-29
4.62766e-29
3.74859e-29
4.43059e-29
3.94561e-29
4.63952e-29
4.02903e-29
3.91711e-29
2.08584e-29
2.26683e-29
2.37182e-29
2.21649e-29
9.68991e-30
7.70229e-30
3.79226e-30
5.5447e-30
4.17906e-31
5.23026e-30
7.28015e-30
3.52203e-29
7.56872e-29
4.34798e-29
3.97431e-27
5.30829e-25
9.10209e-25
3.59295e-24
1.20011e-24
5.41057e-24
2.071e-26
2.29992e-25
4.14444e-27
3.9923e-29
1.1233e-28
5.78882e-29
2.90318e-29
3.59617e-29
1.97104e-29
3.06491e-29
2.50343e-29
3.60385e-29
2.41023e-29
2.94584e-29
3.02908e-29
4.57387e-29
3.08483e-29
3.58173e-29
3.66201e-29
4.80694e-29
3.69419e-29
4.41213e-29
3.61492e-29
4.55939e-29
4.22779e-29
5.28377e-29
4.22984e-29
5.08068e-29
3.91791e-29
4.73586e-29
4.67907e-29
6.01013e-29
4.3897e-29
4.96109e-29
4.011e-29
4.86885e-29
4.30818e-29
5.40893e-29
4.74333e-29
4.8168e-29
2.43463e-29
2.60133e-29
2.96864e-29
2.84687e-29
1.27361e-29
1.24154e-29
7.23317e-30
1.1794e-29
2.09846e-30
1.06672e-29
1.03959e-29
4.02765e-29
7.08846e-29
1.07809e-28
4.62098e-27
7.66748e-25
1.23564e-24
6.24914e-24
1.11017e-24
8.73697e-24
1.24429e-26
3.43779e-25
8.14092e-27
6.60119e-29
1.45933e-28
6.86167e-29
3.32859e-29
3.91375e-29
2.06507e-29
3.20716e-29
2.63744e-29
3.79052e-29
2.49889e-29
3.13458e-29
3.22745e-29
4.851e-29
3.18454e-29
3.79319e-29
3.87822e-29
5.08811e-29
3.8408e-29
4.63736e-29
3.80361e-29
4.85502e-29
4.4694e-29
5.59904e-29
4.44506e-29
5.36426e-29
4.14436e-29
5.08367e-29
5.02084e-29
6.42426e-29
4.62639e-29
5.31191e-29
4.32429e-29
5.37229e-29
4.74563e-29
6.42499e-29
5.69972e-29
5.73875e-29
2.91248e-29
3.02211e-29
3.82451e-29
3.76738e-29
1.78722e-29
2.05818e-29
1.4242e-29
2.44988e-29
8.06352e-30
2.56918e-29
2.57929e-29
7.06486e-29
1.32718e-28
4.13411e-28
5.19803e-27
1.07096e-24
1.74028e-24
9.7712e-24
9.75737e-25
1.31221e-23
8.52726e-27
4.8146e-25
1.51094e-26
1.06456e-28
1.89798e-28
7.78582e-29
3.76766e-29
4.25906e-29
2.17681e-29
3.33417e-29
2.80111e-29
3.96065e-29
2.60423e-29
3.32715e-29
3.45979e-29
5.11543e-29
3.2921e-29
4.00963e-29
4.1253e-29
5.36043e-29
3.99343e-29
4.86742e-29
4.00939e-29
5.16496e-29
4.74028e-29
5.91298e-29
4.66493e-29
5.66409e-29
4.39084e-29
5.46266e-29
5.40363e-29
6.85033e-29
4.88758e-29
5.70879e-29
4.70668e-29
5.97014e-29
5.29621e-29
7.69652e-29
6.70038e-29
7.21835e-29
3.6578e-29
3.5239e-29
5.06815e-29
5.10556e-29
2.64599e-29
3.44932e-29
2.82051e-29
4.9641e-29
2.50705e-29
6.39048e-29
7.64238e-29
1.69466e-28
3.75667e-28
1.35676e-27
5.51327e-27
1.46845e-24
2.64429e-24
1.42052e-23
8.23273e-25
1.84993e-23
1.33459e-26
6.34598e-25
2.65263e-26
1.70647e-28
2.43606e-28
8.52721e-29
4.19807e-29
4.67518e-29
2.28196e-29
3.47231e-29
2.96579e-29
4.1425e-29
2.71714e-29
3.52514e-29
3.7005e-29
5.38013e-29
3.39989e-29
4.23214e-29
4.37879e-29
5.63409e-29
4.15135e-29
5.10067e-29
4.23604e-29
5.48309e-29
5.00459e-29
6.23752e-29
4.90627e-29
5.97256e-29
4.66588e-29
5.86491e-29
5.80947e-29
7.31291e-29
5.19384e-29
6.16782e-29
5.18223e-29
6.68334e-29
5.95147e-29
9.3946e-29
8.05003e-29
8.70145e-29
4.81477e-29
4.1873e-29
6.76403e-29
7.094e-29
4.05956e-29
5.78037e-29
5.45417e-29
9.68361e-29
6.7223e-29
1.5263e-28
2.13204e-28
4.32927e-28
1.06103e-27
3.68227e-27
5.8165e-27
2.00164e-24
4.06489e-24
1.92808e-23
7.47351e-25
2.48833e-23
3.17835e-26
7.96554e-25
4.42019e-26
2.80492e-28
3.17084e-28
8.86616e-29
4.61748e-29
5.15155e-29
2.38249e-29
3.6128e-29
3.13615e-29
4.33135e-29
2.82086e-29
3.73533e-29
3.96573e-29
5.63246e-29
3.49972e-29
4.46359e-29
4.65603e-29
5.89779e-29
4.30018e-29
5.34683e-29
4.471e-29
5.80604e-29
5.29834e-29
6.56071e-29
5.14528e-29
6.31314e-29
4.96341e-29
6.30251e-29
6.28285e-29
7.81125e-29
5.54128e-29
6.72192e-29
5.764e-29
7.54345e-29
6.78572e-29
1.16651e-28
9.49758e-29
1.08222e-28
6.30232e-29
5.04777e-29
9.10335e-29
1.00315e-28
6.31194e-29
9.64502e-29
1.02388e-28
1.8101e-28
1.58583e-28
3.40312e-28
5.27424e-28
1.03421e-27
2.63245e-27
8.31082e-27
5.91822e-27
2.70521e-24
6.50506e-24
2.48788e-23
7.74164e-25
3.23074e-23
7.99022e-26
9.63111e-25
6.98446e-26
4.7773e-28
4.10925e-28
8.75452e-29
5.0151e-29
5.70308e-29
2.4769e-29
3.75393e-29
3.30449e-29
4.52231e-29
2.93336e-29
3.94901e-29
4.22126e-29
5.88112e-29
3.59994e-29
4.7018e-29
4.92333e-29
6.16078e-29
4.45221e-29
5.59613e-29
4.72301e-29
6.13324e-29
5.58345e-29
6.90081e-29
5.40526e-29
6.67149e-29
5.30315e-29
6.77808e-29
6.78291e-29
8.37575e-29
5.96108e-29
7.37475e-29
6.47396e-29
8.55476e-29
7.76302e-29
1.43819e-28
1.03368e-28
1.18998e-28
8.13729e-29
6.05913e-29
1.23809e-28
1.42606e-28
9.89057e-29
1.5858e-28
1.85896e-28
3.25572e-28
3.38229e-28
6.98269e-28
1.16227e-27
2.23069e-27
5.74486e-27
1.65627e-26
5.94537e-27
3.64441e-24
1.02477e-23
3.07119e-23
1.06353e-24
4.07889e-23
1.63089e-25
1.13165e-24
1.04654e-25
8.39595e-28
5.31763e-28
8.1039e-29
5.39392e-29
6.29111e-29
2.58357e-29
3.86324e-29
3.50084e-29
4.68603e-29
3.05429e-29
4.15999e-29
4.49794e-29
6.10012e-29
3.70092e-29
4.94206e-29
5.20845e-29
6.40157e-29
4.60298e-29
5.85483e-29
4.98333e-29
6.46615e-29
5.8953e-29
7.24123e-29
5.67426e-29
7.06983e-29
5.67533e-29
7.30722e-29
7.35114e-29
8.99311e-29
6.44391e-29
8.13845e-29
7.2876e-29
9.66871e-29
8.82759e-29
1.70088e-28
1.15444e-28
1.79774e-28
1.1237e-28
7.04843e-29
1.73234e-28
2.00082e-28
1.54753e-28
2.55338e-28
3.22959e-28
5.63006e-28
6.56586e-28
1.32842e-27
2.29897e-27
4.36515e-27
1.11132e-26
2.94804e-26
5.8094e-27
4.914e-24
1.62448e-23
3.65066e-23
1.68098e-24
5.03396e-23
3.05682e-25
1.3143e-24
1.50177e-25
1.5433e-27
6.51386e-28
7.12108e-29
5.67994e-29
7.00875e-29
2.65553e-29
3.9882e-29
3.68167e-29
4.86084e-29
3.17635e-29
4.37378e-29
4.75159e-29
6.31854e-29
3.79637e-29
5.19018e-29
5.47219e-29
6.64283e-29
4.7562e-29
6.12183e-29
5.25904e-29
6.80843e-29
6.18658e-29
7.60387e-29
5.97946e-29
7.49589e-29
6.09547e-29
7.88266e-29
7.95269e-29
9.7004e-29
7.03101e-29
9.05897e-29
8.32804e-29
1.11913e-28
1.05894e-28
2.21068e-28
2.04179e-28
1.80552e-28
1.47606e-28
9.65423e-29
2.3298e-28
2.82048e-28
2.37266e-28
3.97308e-28