/*--------------------------------*- C++ -*----------------------------------*\
| =========                 |                                                 |
| \\      /  F ield         | OpenFOAM: The Open Source CFD Toolbox           |
|  \\    /   O peration     | Version:  2312                                  |
|   \\  /    A nd           | Website:  www.openfoam.com                      |
|    \\/     M anipulation  |                                                 |
\*---------------------------------------------------------------------------*/
FoamFile
{
    version     2.0;
    format      ascii;
    arch        "LSB;label=32;scalar=64";
    class       volScalarField;
    location    "840";
    object      p;
}
// * * * * * * * * * * * * * * * * * * * * * * * * * * * * * * * * * * * * * //

dimensions      [0 2 -2 0 0 0 0];

internalField   nonuniform List<scalar> 
144000
(
1.29221e-10
1.16098e-10
-2.87336e-11
-1.52932e-10
-1.70533e-10
-1.52567e-10
-1.17423e-10
-9.91487e-11
-7.90123e-11
-7.52341e-11
-6.34422e-11
-6.39443e-11
-5.42035e-11
-5.60991e-11
-4.61611e-11
-4.77805e-11
-3.92084e-11
-4.23267e-11
-3.19236e-11
-3.35552e-11
-2.39873e-11
-2.75322e-11
-1.80176e-11
-2.14165e-11
-1.19468e-11
-1.52585e-11
-6.13093e-12
-1.04148e-11
-1.13773e-12
-5.05927e-12
4.54109e-12
1.08396e-12
9.67759e-12
4.59846e-12
1.34034e-11
9.05487e-12
1.74179e-11
1.33174e-11
2.07842e-11
1.60379e-11
2.2239e-11
1.85083e-11
2.47003e-11
2.15433e-11
2.83694e-11
2.50214e-11
3.09505e-11
2.97377e-11
3.33752e-11
3.33062e-11
3.48087e-11
3.67382e-11
2.91865e-11
2.72594e-11
5.01055e-12
2.07275e-12
-4.43441e-11
-9.8764e-11
-2.49459e-10
-3.21679e-11
1.36881e-10
1.20248e-10
-3.01047e-11
-1.54684e-10
-1.71495e-10
-1.52888e-10
-1.17599e-10
-9.92289e-11
-7.91455e-11
-7.53123e-11
-6.35645e-11
-6.39976e-11
-5.43072e-11
-5.61373e-11
-4.6241e-11
-4.7792e-11
-3.92826e-11
-4.23428e-11
-3.19889e-11
-3.35497e-11
-2.40493e-11
-2.75297e-11
-1.80732e-11
-2.13991e-11
-1.1997e-11
-1.52369e-11
-6.18272e-12
-1.03958e-11
-1.18552e-12
-5.03024e-12
4.49978e-12
1.11936e-12
9.63294e-12
4.62506e-12
1.33639e-11
9.095e-12
1.73858e-11
1.3358e-11
2.07577e-11
1.60652e-11
2.21784e-11
1.8432e-11
2.46094e-11
2.1596e-11
2.83693e-11
2.50882e-11
3.09661e-11
2.98281e-11
3.34171e-11
3.34022e-11
3.49017e-11
3.68655e-11
2.93598e-11
2.73943e-11
5.33134e-12
2.42359e-12
-4.31947e-11
-9.83275e-11
-2.54807e-10
-3.5557e-11
1.46225e-10
1.24769e-10
-3.16295e-11
-1.56836e-10
-1.72832e-10
-1.53493e-10
-1.17846e-10
-9.93886e-11
-7.92745e-11
-7.54563e-11
-6.36868e-11
-6.41205e-11
-5.44016e-11
-5.62362e-11
-4.63114e-11
-4.78525e-11
-3.9326e-11
-4.24111e-11
-3.20381e-11
-3.35946e-11
-2.40818e-11
-2.75774e-11
-1.81002e-11
-2.14235e-11
-1.2014e-11
-1.52586e-11
-6.19714e-12
-1.04211e-11
-1.19616e-12
-5.04008e-12
4.49523e-12
1.11447e-12
9.63385e-12
4.60973e-12
1.33641e-11
9.10144e-12
1.73982e-11
1.33648e-11
2.07797e-11
1.60686e-11
2.21519e-11
1.82713e-11
2.45027e-11
2.15977e-11
2.84336e-11
2.51513e-11
3.10345e-11
2.9926e-11
3.35228e-11
3.35115e-11
3.50377e-11
3.70179e-11
2.95957e-11
2.76104e-11
5.72654e-12
2.84232e-12
-4.16037e-11
-9.62964e-11
-2.63132e-10
-3.95441e-11
1.5717e-10
1.29287e-10
-3.29413e-11
-1.59262e-10
-1.74799e-10
-1.54422e-10
-1.18189e-10
-9.9569e-11
-7.94048e-11
-7.56296e-11
-6.38327e-11
-6.4274e-11
-5.45141e-11
-5.63676e-11
-4.63999e-11
-4.79336e-11
-3.93646e-11
-4.2503e-11
-3.21013e-11
-3.36602e-11
-2.41113e-11
-2.76439e-11
-1.81289e-11
-2.14596e-11
-1.20253e-11
-1.52922e-11
-6.20172e-12
-1.04596e-11
-1.19984e-12
-5.05898e-12
4.50043e-12
1.10062e-12
9.65463e-12
4.58264e-12
1.33757e-11
9.10133e-12
1.74327e-11
1.33639e-11
2.08339e-11
1.60759e-11
2.21479e-11
1.80467e-11
2.43338e-11
2.15489e-11
2.85494e-11
2.52261e-11
3.11478e-11
3.00342e-11
3.36981e-11
3.36245e-11
3.52495e-11
3.71695e-11
2.99677e-11
2.78223e-11
6.32013e-12
3.23508e-12
-3.91295e-11
-9.30698e-11
-2.73942e-10
-4.38224e-11
1.68168e-10
1.32745e-10
-3.34405e-11
-1.61301e-10
-1.77255e-10
-1.55669e-10
-1.18613e-10
-9.97392e-11
-7.95316e-11
-7.58264e-11
-6.40163e-11
-6.44643e-11
-5.46601e-11
-5.65325e-11
-4.65214e-11
-4.80337e-11
-3.94109e-11
-4.26147e-11
-3.21915e-11
-3.37414e-11
-2.41474e-11
-2.77227e-11
-1.81717e-11
-2.15019e-11
-1.20412e-11
-1.53302e-11
-6.20576e-12
-1.05033e-11
-1.20809e-12
-5.08091e-12
4.50569e-12
1.08545e-12
9.68732e-12
4.5512e-12
1.33889e-11
9.09887e-12
1.74833e-11
1.33584e-11
2.09195e-11
1.60928e-11
2.21731e-11
1.77799e-11
2.40652e-11
2.14333e-11
2.87141e-11
2.53139e-11
3.1302e-11
3.01429e-11
3.3946e-11
3.37226e-11
3.55466e-11
3.72881e-11
3.0501e-11
2.79726e-11
7.16221e-12
3.49584e-12
-3.5666e-11
-8.8909e-11
-2.86532e-10
-4.75899e-11
1.78071e-10
1.33427e-10
-3.28614e-11
-1.62177e-10
-1.79939e-10
-1.57204e-10
-1.19092e-10
-9.98717e-11
-7.96381e-11
-7.60418e-11
-6.42401e-11
-6.46955e-11
-5.48449e-11
-5.67355e-11
-4.66821e-11
-4.81572e-11
-3.94692e-11
-4.2748e-11
-3.23126e-11
-3.38415e-11
-2.41927e-11
-2.78144e-11
-1.82319e-11
-2.15529e-11
-1.20638e-11
-1.5374e-11
-6.21066e-12
-1.05527e-11
-1.22321e-12
-5.10788e-12
4.50976e-12
1.0675e-12
9.73168e-12
4.51498e-12
1.34027e-11
9.08973e-12
1.75518e-11
1.33434e-11
2.10433e-11
1.61182e-11
2.22451e-11
1.7472e-11
2.36645e-11
2.12278e-11
2.89306e-11
2.54101e-11
3.14977e-11
3.02368e-11
3.42705e-11
3.37854e-11
3.59384e-11
3.73405e-11
3.12151e-11
2.80072e-11
8.29568e-12
3.51373e-12
-3.11519e-11
-8.40313e-11
-3.00448e-10
-4.94795e-11
1.86478e-10
1.29401e-10
-3.13584e-11
-1.61141e-10
-1.82538e-10
-1.58982e-10
-1.19598e-10
-9.99311e-11
-7.97045e-11
-7.62666e-11
-6.45019e-11
-6.49679e-11
-5.50707e-11
-5.69789e-11
-4.68856e-11
-4.83118e-11
-3.95434e-11
-4.29036e-11
-3.2467e-11
-3.39645e-11
-2.42494e-11
-2.79198e-11
-1.83117e-11
-2.16157e-11
-1.20944e-11
-1.54253e-11
-6.21762e-12
-1.06081e-11
-1.24651e-12
-5.14214e-12
4.51236e-12
1.0445e-12
9.78727e-12
4.47348e-12
1.34175e-11
9.06909e-12
1.76407e-11
1.33131e-11
2.12124e-11
1.61493e-11
2.23923e-11
1.71176e-11
2.30877e-11
2.09089e-11
2.92025e-11
2.55097e-11
3.17369e-11
3.02998e-11
3.46767e-11
3.37932e-11
3.6438e-11
3.72918e-11
3.21328e-11
2.78683e-11
9.77062e-12
3.18428e-12
-2.55392e-11
-7.86348e-11
-3.15605e-10
-4.79295e-11
1.93622e-10
1.18808e-10
-2.94515e-11
-1.57518e-10
-1.84694e-10
-1.60945e-10
-1.20107e-10
-9.98869e-11
-7.97121e-11
-7.64903e-11
-6.47976e-11
-6.52794e-11
-5.53384e-11
-5.72626e-11
-4.71339e-11
-4.84996e-11
-3.96379e-11
-4.3081e-11
-3.26559e-11
-3.41129e-11
-2.43213e-11
-2.80387e-11
-1.84134e-11
-2.16922e-11
-1.21347e-11
-1.54849e-11
-6.22906e-12
-1.06695e-11
-1.27953e-12
-5.18497e-12
4.51269e-12
1.01533e-12
9.85208e-12
4.42687e-12
1.34335e-11
9.03319e-12
1.77512e-11
1.32629e-11
2.14335e-11
1.61826e-11
2.26554e-11
1.66874e-11
2.22748e-11
2.04559e-11
2.95343e-11
2.56069e-11
3.20229e-11
3.0316e-11
3.51699e-11
3.3726e-11
3.70607e-11
3.71081e-11
3.32779e-11
2.75025e-11
1.16356e-11
2.42296e-12
-1.88241e-11
-7.28463e-11
-3.32197e-10
-4.14958e-11
2.0029e-10
1.00043e-10
-2.79536e-11
-1.50753e-10
-1.86025e-10
-1.6303e-10
-1.20604e-10
-9.97144e-11
-7.96431e-11
-7.67023e-11
-6.51227e-11
-6.56264e-11
-5.56478e-11
-5.7585e-11
-4.7427e-11
-4.87222e-11
-3.97571e-11
-4.32787e-11
-3.28797e-11
-3.42881e-11
-2.44118e-11
-2.81705e-11
-1.85384e-11
-2.17838e-11
-1.21866e-11
-1.55529e-11
-6.2475e-12
-1.07364e-11
-1.32364e-12
-5.23718e-12
4.50985e-12
9.79289e-13
9.92351e-12
4.37556e-12
1.34506e-11
8.97911e-12
1.78838e-11
1.31886e-11
2.17141e-11
1.62129e-11
2.30927e-11
1.61396e-11
2.11471e-11
1.98522e-11
2.99324e-11
2.56959e-11
3.236e-11
3.02707e-11
3.57554e-11
3.35652e-11
3.78209e-11
3.67604e-11
3.4671e-11
2.68672e-11
1.3925e-11
1.18045e-12
-1.10587e-11
-6.67054e-11
-3.50623e-10
-2.90149e-11
2.07561e-10
7.19007e-11
-2.78331e-11
-1.40431e-10
-1.86144e-10
-1.65173e-10
-1.21088e-10
-9.93959e-11
-7.94829e-11
-7.68931e-11
-6.54725e-11
-6.60052e-11
-5.59978e-11
-5.79436e-11
-4.77641e-11
-4.89803e-11
-3.99048e-11
-4.3495e-11
-3.31373e-11
-3.44905e-11
-2.45244e-11
-2.83146e-11
-1.86873e-11
-2.18914e-11
-1.22519e-11
-1.56293e-11
-6.27546e-12
-1.08085e-11
-1.37951e-12
-5.29927e-12
4.50296e-12
9.36104e-13
9.99862e-12
4.31987e-12
1.34694e-11
8.90473e-12
1.80382e-11
1.3086e-11
2.20617e-11
1.62374e-11
2.37826e-11
1.54121e-11
1.96051e-11
1.90883e-11
3.0404e-11
2.57704e-11
3.27529e-11
3.01511e-11
3.6437e-11
3.32956e-11
3.87296e-11
3.62227e-11
3.63237e-11
2.59368e-11
1.66505e-11
-5.55239e-13
-2.3707e-12
-6.01435e-11
-3.71304e-10
-9.76174e-12
2.1676e-10
3.36857e-11
-3.01891e-11
-1.26329e-10
-1.84666e-10
-1.67298e-10
-1.21568e-10
-9.89239e-11
-7.92213e-11
-7.70553e-11
-6.58434e-11
-6.64124e-11
-5.63874e-11
-5.83361e-11
-4.8144e-11
-4.92738e-11
-4.00842e-11
-4.37286e-11
-3.34275e-11
-3.47201e-11
-2.46618e-11
-2.84703e-11
-1.88603e-11
-2.20155e-11
-1.2332e-11
-1.57139e-11
-6.31496e-12
-1.08853e-11
-1.44749e-12
-5.37153e-12
4.4911e-12
8.85758e-13
1.00747e-11
4.26015e-12
1.349e-11
8.8088e-12
1.8213e-11
1.29524e-11
2.24818e-11
1.62544e-11
2.48347e-11
1.43686e-11
1.75227e-11
1.81599e-11
3.09543e-11
2.58233e-11
3.32052e-11
2.99479e-11
3.7216e-11
3.29069e-11
3.97924e-11
3.54852e-11
3.8235e-11
2.47071e-11
1.97961e-11
-2.75092e-12
7.0646e-12
-5.30259e-11
-3.94659e-10
1.65233e-11
2.29193e-10
-1.47778e-11
-3.61241e-11
-1.08427e-10
-1.81229e-10
-1.69307e-10
-1.22059e-10
-9.8301e-11
-7.88523e-11
-7.71834e-11
-6.6233e-11
-6.68458e-11
-5.68163e-11
-5.87607e-11
-4.85657e-11
-4.96023e-11
-4.02982e-11
-4.39785e-11
-3.37488e-11
-3.49763e-11
-2.48269e-11
-2.86373e-11
-1.9057e-11
-2.21565e-11
-1.24282e-11
-1.58065e-11
-6.36777e-12
-1.09667e-11
-1.5276e-12
-5.45398e-12
4.47335e-12
8.28627e-13
1.01489e-11
4.19685e-12
1.35124e-11
8.69153e-12
1.8405e-11
1.27867e-11
2.29789e-11
1.62563e-11
2.64424e-11
1.28767e-11
1.47203e-11
1.70664e-11
3.1582e-11
2.58448e-11
3.37174e-11
2.96556e-11
3.80891e-11
3.2395e-11
4.10067e-11
3.45489e-11
4.03886e-11
2.31971e-11
2.33193e-11
-5.33326e-12
1.70208e-11
-4.51992e-11
-4.20945e-10
4.96723e-11
2.46158e-10
-7.3167e-11
-4.67357e-11
-8.69338e-11
-1.75508e-10
-1.71075e-10
-1.22576e-10
-9.75401e-11
-7.83742e-11
-7.72724e-11
-6.66386e-11
-6.73034e-11
-5.72838e-11
-5.92159e-11
-4.90282e-11
-4.99653e-11
-4.05493e-11
-4.42438e-11
-3.40994e-11
-3.52585e-11
-2.50216e-11
-2.88157e-11
-1.9277e-11
-2.23142e-11
-1.25421e-11
-1.59066e-11
-6.43507e-12
-1.10524e-11
-1.61985e-12
-5.54635e-12
4.44859e-12
7.65235e-13
1.02189e-11
4.13077e-12
1.35358e-11
8.55479e-12
1.86094e-11
1.25897e-11
2.35532e-11
1.62357e-11
2.88252e-11
1.0782e-11
1.10106e-11
1.58435e-11
3.2291e-11
2.58291e-11
3.4288e-11
2.92741e-11
3.90473e-11
3.17626e-11
4.23603e-11
3.34287e-11
4.27523e-11
2.14496e-11
2.71507e-11
-8.19347e-12
2.727e-11
-3.65547e-11
-4.50311e-10
8.91766e-11
2.68624e-10
-1.40598e-10
-6.29082e-11
-6.22852e-11
-1.67259e-10
-1.72453e-10
-1.23135e-10
-9.66672e-11
-7.77906e-11
-7.73179e-11
-6.70576e-11
-6.7783e-11
-5.77893e-11
-5.96998e-11
-4.95298e-11
-5.03615e-11
-4.08396e-11
-4.45243e-11
-3.44775e-11
-3.55655e-11
-2.52481e-11
-2.90055e-11
-1.95194e-11
-2.24885e-11
-1.26746e-11
-1.60142e-11
-6.51807e-12
-1.11424e-11
-1.72399e-12
-5.6479e-12
4.41571e-12
6.96339e-13
1.02818e-11
4.06311e-12
1.35584e-11
8.40285e-12
1.88179e-11
1.23683e-11
2.41834e-11
1.62359e-11
3.21165e-11
7.87125e-12
6.22941e-12
1.45898e-11
3.31023e-11
2.57845e-11
3.49173e-11
2.88113e-11
4.00768e-11
3.1025e-11
4.38304e-11
3.2154e-11
4.52777e-11
1.95286e-11
3.11988e-11
-1.12023e-11
3.75591e-11
-2.70028e-11
-4.82622e-10
1.34123e-10
2.97255e-10
-2.1558e-10
-8.52877e-11
-3.51553e-11
-1.56335e-10
-1.73271e-10
-1.23749e-10
-9.57211e-11
-7.71116e-11
-7.73168e-11
-6.7487e-11
-6.82829e-11
-5.83319e-11
-6.02109e-11
-5.00692e-11
-5.07899e-11
-4.11705e-11
-4.482e-11
-3.48813e-11
-3.58963e-11
-2.55079e-11
-2.92072e-11
-1.97834e-11
-2.26786e-11
-1.2827e-11
-1.61289e-11
-6.61753e-12
-1.12364e-11
-1.83981e-12
-5.75777e-12
4.37325e-12
6.22934e-13
1.03349e-11
3.99563e-12
1.35777e-11
8.24195e-12
1.90196e-11
1.21388e-11
2.4814e-11
1.6475e-11
3.70113e-11
2.38331e-12
-3.17137e-13
1.3264e-11
3.39865e-11
2.57157e-11
3.56001e-11
2.8281e-11
4.11591e-11
3.02029e-11
4.53842e-11
3.07678e-11
4.79015e-11
1.75163e-11
3.53519e-11
-1.42119e-11
4.76525e-11
-1.64898e-11
-5.17536e-10
1.8319e-10
3.32211e-10
-2.96166e-10
-1.14183e-10
-6.40201e-12
-1.42702e-10
-1.73341e-10
-1.24418e-10
-9.47532e-11
-7.63549e-11
-7.72674e-11
-6.79243e-11
-6.8802e-11
-5.89116e-11
-6.07485e-11
-5.06455e-11
-5.12491e-11
-4.1543e-11
-4.5131e-11
-3.53095e-11
-3.62495e-11
-2.58019e-11
-2.94215e-11
-2.00684e-11
-2.28842e-11
-1.30004e-11
-1.62506e-11
-6.7342e-12
-1.13342e-11
-1.96717e-12
-5.87482e-12
4.31968e-12
5.46263e-13
1.03755e-11
3.92986e-12
1.35911e-11
8.0767e-12
1.92083e-11
1.19096e-11
2.54071e-11
1.61936e-11
4.51169e-11
-1.04365e-12
-9.20856e-12
1.15501e-11
3.47567e-11
2.5593e-11
3.63137e-11
2.76949e-11
4.2267e-11
2.93251e-11
4.69792e-11
2.93253e-11
5.05482e-11
1.55107e-11
3.94881e-11
-1.70693e-11
5.73262e-11
-5.0392e-12
-5.54396e-10
2.34771e-10
3.73399e-10
-3.80247e-10
-1.49708e-10
2.29365e-11
-1.26425e-10
-1.72443e-10
-1.25122e-10
-9.38209e-11
-7.55455e-11
-7.71691e-11
-6.83663e-11
-6.93391e-11
-5.95277e-11
-6.13113e-11
-5.12575e-11
-5.17379e-11
-4.19574e-11
-4.54578e-11
-3.57607e-11
-3.66237e-11
-2.6131e-11
-2.96492e-11
-2.03738e-11
-2.31044e-11
-1.31957e-11
-1.63793e-11
-6.86836e-12
-1.14356e-11
-2.10632e-12
-5.99778e-12
4.25319e-12
4.67831e-13
1.04011e-11
3.86859e-12
1.35935e-11
7.91831e-12
1.93616e-11
1.17368e-11
2.58333e-11
1.58337e-11
5.05904e-11
-1.10998e-14
-1.48351e-11
9.98857e-12
3.53768e-11
2.54365e-11
3.70524e-11
2.70691e-11
4.33695e-11
2.84273e-11
4.85651e-11
2.78907e-11
5.3133e-11
1.3618e-11
4.34816e-11
-1.96275e-11
6.64368e-11
7.18907e-12
-5.92446e-10
2.87302e-10
4.20443e-10
-4.65545e-10
-1.91701e-10
5.16856e-11
-1.07705e-10
-1.70365e-10
-1.25823e-10
-9.29862e-11
-7.47177e-11
-7.70241e-11
-6.88098e-11
-6.98927e-11
-6.01798e-11
-6.18982e-11
-5.19034e-11
-5.22546e-11
-4.24138e-11
-4.58005e-11
-3.62335e-11
-3.70174e-11
-2.64955e-11
-2.98908e-11
-2.06991e-11
-2.33382e-11
-1.34137e-11
-1.65149e-11
-7.02051e-12
-1.15402e-11
-2.25748e-12
-6.12499e-12
4.17206e-12
3.89378e-13
1.04081e-11
3.8156e-12
1.35773e-11
7.78349e-12
1.94469e-11
1.17092e-11
2.59203e-11
1.63018e-11
4.602e-11
1.28488e-13
-9.51488e-12
9.98303e-12
3.58952e-11
2.53008e-11
3.78209e-11
2.64555e-11
4.4432e-11
2.75515e-11
5.00869e-11
2.65356e-11
5.55665e-11
1.1949e-11
4.72069e-11
-2.1748e-11
7.48457e-11
2.0003e-11
-6.30773e-10
3.39634e-10
4.72782e-10
-5.48415e-10
-2.3971e-10
7.85551e-11
-8.68881e-11
-1.66909e-10
-1.26478e-10
-9.22934e-11
-7.39091e-11
-7.68358e-11
-6.9251e-11
-7.04615e-11
-6.0867e-11
-6.25083e-11
-5.25819e-11
-5.27974e-11
-4.29113e-11
-4.61594e-11
-3.67266e-11
-3.7429e-11
-2.68952e-11
-3.01471e-11
-2.10437e-11
-2.35845e-11
-1.36551e-11
-1.66572e-11
-7.19091e-12
-1.16474e-11
-2.42098e-12
-6.2548e-12
4.07458e-12
3.12254e-13
1.03945e-11
3.7721e-12
1.35416e-11
7.67075e-12
1.94753e-11
1.17759e-11
2.57843e-11
1.66832e-11
3.8408e-11
4.27311e-12
3.79912e-13
1.05364e-11
3.61783e-11
2.51326e-11
3.85779e-11
2.58664e-11
4.5414e-11
2.67409e-11
5.14855e-11
2.53333e-11
5.77569e-11
1.06145e-11
5.05376e-11
-2.32892e-11
8.24232e-11
3.3243e-11
-6.68442e-10
3.8856e-10
5.29275e-10
-6.26203e-10
-2.92882e-10
1.02269e-10
-6.44297e-11
-1.61898e-10
-1.27032e-10
-9.18586e-11
-7.31599e-11
-7.66094e-11
-6.96867e-11
-7.10445e-11
-6.15897e-11
-6.31414e-11
-5.32919e-11
-5.33649e-11
-4.34493e-11
-4.65349e-11
-3.72393e-11
-3.7857e-11
-2.73299e-11
-3.04187e-11
-2.14078e-11
-2.38423e-11
-1.39204e-11
-1.6806e-11
-7.37992e-12
-1.17566e-11
-2.59727e-12
-6.38543e-12
3.95916e-12
2.38014e-13
1.03585e-11
3.73896e-12
1.34856e-11
7.57726e-12
1.94596e-11
1.18728e-11
2.5567e-11
1.66436e-11
3.34749e-11
1.05918e-11
7.59397e-12
1.06643e-11
3.62586e-11
2.49298e-11
3.92846e-11
2.53343e-11
4.62791e-11
2.60416e-11
5.27029e-11
2.43574e-11
5.96167e-11
9.72178e-12
5.33562e-11
-2.41157e-11
8.90436e-11
4.67226e-11
-7.04233e-10
4.32567e-10
5.88637e-10
-6.95936e-10
-3.50211e-10
1.21565e-10
-4.08598e-11
-1.55175e-10
-1.27402e-10
-9.17156e-11
-7.25183e-11
-7.6355e-11
-7.01142e-11
-7.16408e-11
-6.23481e-11
-6.37977e-11
-5.40333e-11
-5.3956e-11
-4.40263e-11
-4.69273e-11
-3.77713e-11
-3.83e-11
-2.77988e-11
-3.07062e-11
-2.17914e-11
-2.41107e-11
-1.42101e-11
-1.69613e-11
-7.58748e-12
-1.18671e-11
-2.78728e-12
-6.51526e-12
3.82404e-12
1.68517e-13
1.02983e-11
3.71923e-12
1.34043e-11
7.51101e-12
1.93879e-11
1.20204e-11
2.52443e-11
1.66458e-11
3.02857e-11
1.35381e-11
1.32878e-11
1.12317e-11
3.63253e-11
2.47691e-11
3.99294e-11
2.48983e-11
4.69932e-11
2.5497e-11
5.36843e-11
2.36745e-11
6.10645e-11
9.36718e-12
5.55541e-11
-2.41022e-11
9.46446e-11
6.02298e-11
-7.36964e-10
4.6963e-10
6.49458e-10
-7.54618e-10
-4.10533e-10
1.35283e-10
-1.67738e-11
-1.46646e-10
-1.27494e-10
-9.19124e-11
-7.20405e-11
-7.60881e-11
-7.05321e-11
-7.22493e-11
-6.31419e-11
-6.44773e-11
-5.48051e-11
-5.45695e-11
-4.46406e-11
-4.73365e-11
-3.83222e-11
-3.87572e-11
-2.83009e-11
-3.101e-11
-2.2195e-11
-2.43887e-11
-1.45244e-11
-1.71227e-11
-7.8136e-12
-1.19782e-11
-2.99169e-12
-6.64267e-12
3.66812e-12
1.04795e-13
1.02131e-11
3.71353e-12
1.3297e-11
7.4705e-12
1.92643e-11
1.22041e-11
2.48602e-11
1.67387e-11
2.8057e-11
1.56093e-11
1.80797e-11
1.21245e-11
3.6357e-11
2.46285e-11
4.04718e-11
2.45808e-11
4.75245e-11
2.51422e-11
5.43819e-11
2.33447e-11
6.20334e-11
9.6251e-12
5.7041e-11
-2.31523e-11
9.91503e-11
7.36817e-11
-7.65408e-10
4.97579e-10
7.10398e-10
-7.99237e-10
-4.72639e-10
1.42405e-10
7.21068e-12
-1.363e-10
-1.27222e-10
-9.24953e-11
-7.17835e-11
-7.58285e-11
-7.09401e-11
-7.28694e-11
-6.39709e-11
-6.51802e-11
-5.56065e-11
-5.52054e-11
-4.52906e-11
-4.77623e-11
-3.88914e-11
-3.92282e-11
-2.88355e-11
-3.13303e-11
-2.26185e-11
-2.46758e-11
-1.48632e-11
-1.72907e-11
-8.05827e-12
-1.20889e-11
-3.2107e-12
-6.76635e-12
3.4909e-12
4.70194e-14
1.01025e-11
3.72195e-12
1.3165e-11
7.45078e-12
1.91004e-11
1.23898e-11
2.44859e-11
1.68198e-11
2.65847e-11
1.69311e-11
2.19496e-11
1.31735e-11
3.6333e-11
2.45168e-11
4.08863e-11
2.4403e-11
4.78499e-11
2.50216e-11
5.4761e-11
2.34163e-11
6.24791e-11
1.05759e-11
5.77589e-11
-2.11497e-11
1.02248e-10
8.72282e-11
-7.88384e-10
5.13997e-10
7.70166e-10
-8.26771e-10
-5.35331e-10
1.42101e-10
3.05154e-11
-1.2421e-10
-1.26547e-10
-9.35081e-11
-7.18058e-11
-7.56013e-11
-7.13424e-11
-7.35042e-11
-6.48381e-11
-6.5909e-11
-5.64382e-11
-5.58662e-11
-4.59762e-11
-4.8205e-11
-3.9479e-11
-3.97143e-11
-2.94027e-11
-3.16673e-11
-2.30627e-11
-2.49724e-11
-1.52264e-11
-1.74659e-11
-8.32176e-12
-1.21985e-11
-3.44437e-12
-6.8854e-12
3.29239e-12
-5.07919e-15
9.96614e-12
3.74513e-12
1.3009e-11
7.449e-12
1.89019e-11
1.25709e-11
2.41414e-11
1.68687e-11
2.56766e-11
1.77542e-11
2.50192e-11
1.43336e-11
3.6269e-11
2.44664e-11
4.11597e-11
2.43904e-11
4.7954e-11
2.51555e-11
5.48027e-11
2.39142e-11
6.23827e-11
1.22429e-11
5.76862e-11
-1.79758e-11
1.03547e-10
1.0131e-10
-8.04648e-10
5.16064e-10
8.27406e-10
-8.34174e-10
-5.97497e-10
1.33659e-10
5.26581e-11
-1.10477e-10
-1.25444e-10
-9.49858e-11
-7.21681e-11
-7.54331e-11
-7.1744e-11
-7.41571e-11
-6.57482e-11
-6.66666e-11
-5.73026e-11
-5.65549e-11
-4.66984e-11
-4.86637e-11
-4.00855e-11
-4.0216e-11
-3.00034e-11
-3.20206e-11
-2.35291e-11
-2.52787e-11
-1.56154e-11
-1.76486e-11
-8.60505e-12
-1.23055e-11
-3.69385e-12
-6.99877e-12
3.07157e-12
-5.14673e-14
9.80336e-12
3.78468e-12
1.28289e-11
7.46223e-12
1.86725e-11
1.27433e-11
2.3824e-11
1.68941e-11
2.51665e-11
1.82673e-11
2.74176e-11
1.55764e-11
3.6176e-11
2.44993e-11
4.12763e-11
2.45511e-11
4.78225e-11
2.55558e-11
5.44964e-11
2.48466e-11
6.17371e-11
1.46368e-11
5.68081e-11
-1.33772e-11
1.02412e-10
1.16622e-10
-8.12697e-10
5.00668e-10
1.28614e-10
1.14618e-10
-3.03266e-11
-1.54463e-10
-1.71993e-10
-1.53752e-10
-1.18398e-10
-9.9934e-11
-7.96889e-11
-7.58241e-11
-6.3946e-11
-6.43569e-11
-5.45592e-11
-5.63921e-11
-4.64134e-11
-4.79869e-11
-3.93446e-11
-4.23854e-11
-3.1954e-11
-3.3561e-11
-2.3974e-11
-2.75001e-11
-1.79925e-11
-2.13937e-11
-1.19303e-11
-1.52663e-11
-6.12792e-12
-1.04283e-11
-1.15954e-12
-5.11482e-12
4.50708e-12
1.00252e-12
9.64118e-12
4.49075e-12
1.33997e-11
8.96452e-12
1.75174e-11
1.32508e-11
2.10514e-11
1.60413e-11
2.28593e-11
1.89036e-11
2.51436e-11
2.20717e-11
2.8754e-11
2.53608e-11
3.13324e-11
3.01865e-11
3.3898e-11
3.39013e-11
3.54804e-11
3.7466e-11
3.00592e-11
2.82002e-11
6.06215e-12
3.13783e-12
-4.36209e-11
-9.88413e-11
-2.51135e-10
-3.33711e-11
1.36268e-10
1.18766e-10
-3.17117e-11
-1.56212e-10
-1.72952e-10
-1.54071e-10
-1.18572e-10
-1.00014e-10
-7.98234e-11
-7.59052e-11
-6.40709e-11
-6.44136e-11
-5.4666e-11
-5.6434e-11
-4.64968e-11
-4.80031e-11
-3.94207e-11
-4.24037e-11
-3.20205e-11
-3.35579e-11
-2.40357e-11
-2.74982e-11
-1.80482e-11
-2.13774e-11
-1.19807e-11
-1.52459e-11
-6.17804e-12
-1.0408e-11
-1.20599e-12
-5.085e-12
4.46648e-12
1.0383e-12
9.5971e-12
4.51897e-12
1.33594e-11
9.00694e-12
1.74833e-11
1.32962e-11
2.10219e-11
1.60816e-11
2.28167e-11
1.88883e-11
2.50928e-11
2.21313e-11
2.87537e-11
2.54277e-11
3.13485e-11
3.02769e-11
3.39408e-11
3.39982e-11
3.5574e-11
3.7594e-11
3.02338e-11
2.83366e-11
6.38525e-12
3.49042e-12
-4.24693e-11
-9.84053e-11
-2.56482e-10
-3.67658e-11
1.45602e-10
1.23289e-10
-3.32524e-11
-1.58356e-10
-1.74283e-10
-1.54671e-10
-1.18818e-10
-1.00174e-10
-7.99554e-11
-7.60536e-11
-6.41972e-11
-6.45409e-11
-5.47642e-11
-5.65377e-11
-4.65714e-11
-4.80695e-11
-3.94669e-11
-4.24749e-11
-3.2071e-11
-3.36054e-11
-2.40678e-11
-2.75457e-11
-1.8075e-11
-2.14033e-11
-1.19976e-11
-1.52689e-11
-6.19005e-12
-1.04313e-11
-1.21414e-12
-5.09404e-12
4.46354e-12
1.03354e-12
9.59948e-12
4.50513e-12
1.33598e-11
9.01496e-12
1.74947e-11
1.33075e-11
2.10426e-11
1.60959e-11
2.28164e-11
1.88097e-11
2.50592e-11
2.21604e-11
2.8819e-11
2.54897e-11
3.14173e-11
3.03746e-11
3.40471e-11
3.41079e-11
3.57109e-11
3.77462e-11
3.04709e-11
2.85542e-11
6.77905e-12
3.90927e-12
-4.08793e-11
-9.63622e-11
-2.64795e-10
-4.07734e-11
1.56525e-10
1.27808e-10
-3.45894e-11
-1.60773e-10
-1.76237e-10
-1.55593e-10
-1.19157e-10
-1.00355e-10
-8.00891e-11
-7.62321e-11
-6.43482e-11
-6.46995e-11
-5.48815e-11
-5.66746e-11
-4.6665e-11
-4.81576e-11
-3.951e-11
-4.25705e-11
-3.2136e-11
-3.36742e-11
-2.40972e-11
-2.76119e-11
-1.81032e-11
-2.14409e-11
-1.20088e-11
-1.53041e-11
-6.19237e-12
-1.04668e-11
-1.21459e-12
-5.11159e-12
4.47056e-12
1.0203e-12
9.62155e-12
4.48046e-12
1.33711e-11
9.01752e-12
1.75268e-11
1.3313e-11
2.10928e-11
1.61107e-11
2.28431e-11
1.86857e-11
2.5009e-11
2.21707e-11
2.89384e-11
2.55615e-11
3.15314e-11
3.04824e-11
3.42226e-11
3.42212e-11
3.59235e-11
3.78982e-11
3.08434e-11
2.8769e-11
7.36831e-12
4.30095e-12
-3.84049e-11
-9.31167e-11
-2.75578e-10
-4.50772e-11
1.67491e-10
1.31264e-10
-3.51227e-11
-1.62804e-10
-1.78676e-10
-1.56829e-10
-1.19575e-10
-1.00523e-10
-8.02182e-11
-7.64342e-11
-6.45372e-11
-6.48952e-11
-5.50326e-11
-5.68455e-11
-4.67922e-11
-4.82655e-11
-3.95624e-11
-4.26867e-11
-3.22283e-11
-3.3759e-11
-2.41339e-11
-2.76899e-11
-1.81451e-11
-2.14847e-11
-1.2025e-11
-1.53438e-11
-6.19481e-12
-1.05069e-11
-1.21909e-12
-5.13118e-12
4.47746e-12
1.0069e-12
9.65456e-12
4.45333e-12
1.33822e-11
9.02076e-12
1.75709e-11
1.33191e-11
2.11668e-11
1.61326e-11
2.28968e-11
1.85237e-11
2.49219e-11
2.21591e-11
2.91097e-11
2.56436e-11
3.16865e-11
3.05907e-11
3.447e-11
3.4319e-11
3.62207e-11
3.80169e-11
3.13755e-11
2.89222e-11
8.20351e-12
4.55893e-12
-3.49395e-11
-8.89347e-11
-2.88125e-10
-4.88671e-11
1.77358e-10
1.31943e-10
-3.45848e-11
-1.63676e-10
-1.81339e-10
-1.58351e-10
-1.20045e-10
-1.00653e-10
-8.0325e-11
-7.66539e-11
-6.47663e-11
-6.51315e-11
-5.52223e-11
-5.70546e-11
-4.69586e-11
-4.83979e-11
-3.96282e-11
-4.28253e-11
-3.23522e-11
-3.38631e-11
-2.41806e-11
-2.77808e-11
-1.82042e-11
-2.1537e-11
-1.20483e-11
-1.53894e-11
-6.19918e-12
-1.05518e-11
-1.23032e-12
-5.15455e-12
4.4826e-12
9.92367e-13
9.69755e-12
4.42408e-12
1.3391e-11
9.02216e-12
1.76265e-11
1.33241e-11
2.12661e-11
1.6161e-11
2.29851e-11
1.83203e-11
2.47844e-11
2.21162e-11
2.93351e-11
2.57305e-11
3.18833e-11
3.06844e-11
3.47931e-11
3.43806e-11
3.66117e-11
3.80686e-11
3.20865e-11
2.8959e-11
9.32821e-12
4.57164e-12
-3.04218e-11
-8.40349e-11
-3.01987e-10
-5.07701e-11
1.85736e-10
1.27912e-10
-3.31299e-11
-1.62642e-10
-1.83917e-10
-1.60112e-10
-1.20539e-10
-1.00705e-10
-8.03897e-11
-7.68816e-11
-6.50327e-11
-6.54082e-11
-5.54523e-11
-5.73034e-11
-4.71674e-11
-4.85603e-11
-3.97109e-11
-4.29868e-11
-3.25097e-11
-3.39903e-11
-2.42397e-11
-2.78852e-11
-1.82826e-11
-2.16006e-11
-1.20798e-11
-1.54423e-11
-6.20695e-12
-1.06025e-11
-1.25e-12
-5.18372e-12
4.48526e-12
9.74874e-13
9.74943e-12
4.39294e-12
1.33966e-11
9.01873e-12
1.76936e-11
1.33255e-11
2.1392e-11
1.61957e-11
2.31173e-11
1.80713e-11
2.45856e-11
2.2033e-11
2.96169e-11
2.58164e-11
3.21243e-11
3.07476e-11
3.51969e-11
3.43861e-11
3.71092e-11
3.80181e-11
3.29989e-11
2.88211e-11
1.07935e-11
4.23471e-12
-2.48028e-11
-7.86183e-11
-3.17086e-10
-4.92175e-11
1.92861e-10
1.17309e-10
-3.12762e-11
-1.5903e-10
-1.86055e-10
-1.62057e-10
-1.21034e-10
-1.00652e-10
-8.0393e-11
-7.71063e-11
-6.53319e-11
-6.5723e-11
-5.57233e-11
-5.75916e-11
-4.74201e-11
-4.8755e-11
-3.98146e-11
-4.31706e-11
-3.27022e-11
-3.41428e-11
-2.43147e-11
-2.80033e-11
-1.83828e-11
-2.16772e-11
-1.21215e-11
-1.55029e-11
-6.22072e-12
-1.06587e-11
-1.28011e-12
-5.21977e-12
4.48431e-12
9.53662e-13
9.80758e-12
4.36073e-12
1.3398e-11
9.00827e-12
1.77713e-11
1.33221e-11
2.15444e-11
1.62369e-11
2.33034e-11
1.77697e-11
2.43172e-11
2.19031e-11
2.99563e-11
2.5895e-11
3.2413e-11
3.07649e-11
3.5687e-11
3.43155e-11
3.77282e-11
3.78312e-11
3.41369e-11
2.84548e-11
1.26491e-11
3.46387e-12
-1.80792e-11
-7.28137e-11
-3.33623e-10
-4.27598e-11
1.99525e-10
9.85286e-11
-2.98339e-11
-1.52281e-10
-1.87371e-10
-1.64124e-10
-1.21515e-10
-1.00469e-10
-8.03175e-11
-7.73171e-11
-6.56591e-11
-6.60721e-11
-5.60348e-11
-5.79174e-11
-4.77169e-11
-4.89836e-11
-3.9943e-11
-4.3375e-11
-3.29299e-11
-3.4322e-11
-2.44094e-11
-2.81346e-11
-1.85064e-11
-2.17681e-11
-1.21752e-11
-1.55714e-11
-6.24299e-12
-1.07202e-11
-1.32242e-12
-5.26341e-12
4.47853e-12
9.28306e-13
9.86899e-12
4.32833e-12
1.33944e-11
8.98899e-12
1.78584e-11
1.3313e-11
2.17227e-11
1.62847e-11
2.35548e-11
1.74065e-11
2.39714e-11
2.17221e-11
3.0354e-11
2.59595e-11
3.27543e-11
3.07217e-11
3.6269e-11
3.41504e-11
3.84834e-11
3.74785e-11
3.55211e-11
2.7817e-11
1.49301e-11
2.21048e-12
-1.03031e-11
-6.66618e-11
-3.52002e-10
-3.02328e-11
2.06811e-10
7.03694e-11
-2.97673e-11
-1.41978e-10
-1.8748e-10
-1.66252e-10
-1.21983e-10
-1.00138e-10
-8.01489e-11
-7.75047e-11
-6.60095e-11
-6.64516e-11
-5.63857e-11
-5.82779e-11
-4.80567e-11
-4.92462e-11
-4.00995e-11
-4.3598e-11
-3.31921e-11
-3.45282e-11
-2.45269e-11
-2.82784e-11
-1.86544e-11
-2.18742e-11
-1.22427e-11
-1.56476e-11
-6.27622e-12
-1.07867e-11
-1.37794e-12
-5.31513e-12
4.4669e-12
8.98549e-13
9.93049e-12
4.29622e-12
1.33858e-11
8.95939e-12
1.79536e-11
1.32976e-11
2.1925e-11
1.63391e-11
2.38844e-11
1.6973e-11
2.35428e-11
2.1488e-11
3.08099e-11
2.60024e-11
3.3153e-11
3.06055e-11
3.6947e-11
3.38756e-11
3.93861e-11
3.69346e-11
3.71634e-11
2.68817e-11
1.76487e-11
4.62961e-13
-1.60306e-12
-6.00918e-11
-3.72648e-10
-1.0916e-11
2.16049e-10
3.21395e-11
-3.21733e-11
-1.27898e-10
-1.85997e-10
-1.68363e-10
-1.22446e-10
-9.96537e-11
-7.98774e-11
-7.76618e-11
-6.63797e-11
-6.68582e-11
-5.67749e-11
-5.8671e-11
-4.84383e-11
-4.95429e-11
-4.0287e-11
-4.38381e-11
-3.34871e-11
-3.47614e-11
-2.467e-11
-2.84342e-11
-1.8827e-11
-2.19961e-11
-1.23254e-11
-1.57311e-11
-6.32222e-12
-1.08578e-11
-1.44719e-12
-5.37538e-12
4.44849e-12
8.64208e-13
9.98949e-12
4.26468e-12
1.33727e-11
8.91819e-12
1.80552e-11
1.32753e-11
2.2149e-11
1.63993e-11
2.43041e-11
1.64612e-11
2.30281e-11
2.12006e-11
3.13223e-11
2.60166e-11
3.36128e-11
3.04069e-11
3.77221e-11
3.34808e-11
4.04418e-11
3.61888e-11
3.90631e-11
2.56444e-11
2.0789e-11
-1.74467e-12
7.84611e-12
-5.29675e-11
-3.95987e-10
1.54431e-11
2.28543e-10
-1.63344e-11
-3.81506e-11
-1.10016e-10
-1.82561e-10
-1.70364e-10
-1.22921e-10
-9.90179e-11
-7.94976e-11
-7.77833e-11
-6.67671e-11
-6.72898e-11
-5.72022e-11
-5.9095e-11
-4.88607e-11
-4.98732e-11
-4.05083e-11
-4.4094e-11
-3.38134e-11
-3.5021e-11
-2.48412e-11
-2.86018e-11
-1.9024e-11
-2.21342e-11
-1.24248e-11
-1.58218e-11
-6.38258e-12
-1.09332e-11
-1.5302e-12
-5.44439e-12
4.42247e-12
8.25359e-13
1.00438e-11
4.23353e-12
1.33556e-11
8.8644e-12
1.81617e-11
1.32459e-11
2.23918e-11
1.6463e-11
2.48296e-11
1.58738e-11
2.24278e-11
2.08605e-11
3.18863e-11
2.5996e-11
3.41354e-11
3.01205e-11
3.85919e-11
3.29621e-11
4.16485e-11
3.52427e-11
4.12041e-11
2.41242e-11
2.43083e-11
-4.3386e-12
1.78169e-11
-4.51338e-11
-4.22275e-10
4.86701e-11
2.4559e-10
-7.47294e-11
-4.87964e-11
-8.85414e-11
-1.76845e-10
-1.72127e-10
-1.23424e-10
-9.82445e-11
-7.90085e-11
-7.78645e-11
-6.71695e-11
-6.77446e-11
-5.76671e-11
-5.95483e-11
-4.9323e-11
-5.02366e-11
-4.07656e-11
-4.43648e-11
-3.41692e-11
-3.53063e-11
-2.50425e-11
-2.8781e-11
-1.9245e-11
-2.22886e-11
-1.25421e-11
-1.59193e-11
-6.45819e-12
-1.1013e-11
-1.62684e-12
-5.52232e-12
4.3881e-12
7.82045e-13
1.00916e-11
4.20251e-12
1.33353e-11
8.79755e-12
1.82707e-11
1.32089e-11
2.26488e-11
1.65264e-11
2.54686e-11
1.52226e-11
2.17549e-11
2.0471e-11
3.24945e-11
2.5937e-11
3.47197e-11
2.97462e-11
3.95465e-11
3.23213e-11
4.29938e-11
3.41109e-11
4.35544e-11
2.23639e-11
2.81366e-11
-7.20938e-12
2.80814e-11
-3.64838e-11
-4.51662e-10
8.82567e-11
2.68154e-10
-1.42161e-10
-6.49912e-11
-6.39041e-11
-1.68603e-10
-1.73505e-10
-1.23973e-10
-9.736e-11
-7.84142e-11
-7.79017e-11
-6.75843e-11
-6.82207e-11
-5.81692e-11
-6.00293e-11
-4.98237e-11
-5.06322e-11
-4.1061e-11
-4.465e-11
-3.45524e-11
-3.5616e-11
-2.52759e-11
-2.8972e-11
-1.94892e-11
-2.24591e-11
-1.26785e-11
-1.60236e-11
-6.54993e-12
-1.10971e-11
-1.73655e-12
-5.60893e-12
4.34473e-12
7.34303e-13
1.01312e-11
4.17114e-12
1.33125e-11
8.71798e-12
1.83797e-11
1.31648e-11
2.2913e-11
1.65835e-11
2.6212e-11
1.45457e-11
2.10459e-11
2.00385e-11
3.31349e-11
2.58396e-11
3.53615e-11
2.92896e-11
4.05725e-11
3.15755e-11
4.44551e-11
3.28231e-11
4.60657e-11
2.04278e-11
3.21817e-11
-1.0228e-11
3.83861e-11
-2.69257e-11
-4.84011e-10
1.33286e-10
2.96894e-10
-2.1713e-10
-8.73771e-11