/*--------------------------------*- C++ -*----------------------------------*\
| =========                 |                                                 |
| \\      /  F ield         | OpenFOAM: The Open Source CFD Toolbox           |
|  \\    /   O peration     | Version:  2312                                  |
|   \\  /    A nd           | Website:  www.openfoam.com                      |
|    \\/     M anipulation  |                                                 |
\*---------------------------------------------------------------------------*/
FoamFile
{
    version     2.0;
    format      ascii;
    arch        "LSB;label=32;scalar=64";
    class       volScalarField;
    location    "840";
    object      pPrime2Mean;
}
// * * * * * * * * * * * * * * * * * * * * * * * * * * * * * * * * * * * * * //

dimensions      [0 4 -4 0 0 0 0];

internalField   nonuniform List<scalar> 
144000
(
3.13368e-18
3.6928e-18
3.46136e-18
2.87538e-18
2.04545e-18
1.44147e-18
1.06735e-18
7.88453e-19
5.85931e-19
4.82202e-19
4.50907e-19
4.07637e-19
3.4836e-19
2.78877e-19
2.33793e-19
1.9632e-19
1.80652e-19
1.54288e-19
1.43897e-19
1.27285e-19
1.15267e-19
9.47722e-20
9.62934e-20
7.22157e-20
7.66859e-20
5.98907e-20
6.09633e-20
4.90017e-20
4.88596e-20
3.80196e-20
4.0393e-20
2.9209e-20
3.36816e-20
2.40716e-20
2.58141e-20
2.51917e-20
1.40675e-20
2.80975e-20
1.00343e-20
1.81659e-20
2.32826e-20
2.66169e-21
3.57134e-20
8.714e-21
2.60161e-20
3.93013e-20
1.54377e-20
5.38308e-20
4.19219e-20
4.49489e-20
8.09994e-20
7.11227e-20
1.03935e-19
1.49916e-19
1.87086e-19
2.782e-19
4.47089e-19
8.0372e-19
2.07805e-18
2.02891e-18
3.29001e-18
3.78005e-18
3.55338e-18
2.94435e-18
2.07697e-18
1.45964e-18
1.0793e-18
7.96111e-19
5.90175e-19
4.84735e-19
4.53018e-19
4.09505e-19
3.49711e-19
2.79764e-19
2.34392e-19
1.96793e-19
1.81093e-19
1.54651e-19
1.44145e-19
1.27616e-19
1.15532e-19
9.48788e-20
9.65134e-20
7.23975e-20
7.67669e-20
6.00834e-20
6.10475e-20
4.91472e-20
4.89608e-20
3.81102e-20
4.05237e-20
2.92734e-20
3.38081e-20
2.41961e-20
2.58466e-20
2.55147e-20
1.39721e-20
2.84767e-20
1.02045e-20
1.81628e-20
2.39879e-20
2.46442e-21
3.64202e-20
9.20153e-21
2.61406e-20
4.0694e-20
1.57264e-20
5.51234e-20
4.36545e-20
4.61279e-20
8.38411e-20
7.41233e-20
1.07704e-19
1.56208e-19
1.95108e-19
2.90063e-19
4.66938e-19
8.34416e-19
2.16938e-18
2.08251e-18
3.40786e-18
3.84693e-18
3.58842e-18
2.96365e-18
2.08294e-18
1.46479e-18
1.08505e-18
8.00814e-19
5.93037e-19
4.8653e-19
4.54914e-19
4.11306e-19
3.51067e-19
2.80575e-19
2.34977e-19
1.97231e-19
1.81648e-19
1.55022e-19
1.4444e-19
1.28006e-19
1.15883e-19
9.49375e-20
9.68824e-20
7.25371e-20
7.69719e-20
6.02762e-20
6.12277e-20
4.93104e-20
4.91613e-20
3.82044e-20
4.0781e-20
2.93367e-20
3.40617e-20
2.43713e-20
2.59483e-20
2.60246e-20
1.38541e-20
2.91288e-20
1.046e-20
1.82707e-20
2.50865e-20
2.2404e-21
3.76208e-20
9.95084e-21
2.65449e-20
4.28239e-20
1.63499e-20
5.72478e-20
4.63723e-20
4.81497e-20
8.82424e-20
7.87524e-20
1.13375e-19
1.65137e-19
2.0598e-19
3.04458e-19
4.88617e-19
8.67457e-19
2.26305e-18
2.13526e-18
3.39737e-18
3.79704e-18
3.52187e-18
2.88901e-18
2.0445e-18
1.44415e-18
1.07542e-18
7.96397e-19
5.90443e-19
4.84915e-19
4.54422e-19
4.11366e-19
3.51144e-19
2.80525e-19
2.34933e-19
1.97211e-19
1.81881e-19
1.5512e-19
1.44479e-19
1.28237e-19
1.1612e-19
9.48642e-20
9.71744e-20
7.26198e-20
7.71241e-20
6.04549e-20
6.13956e-20
4.9474e-20
4.93576e-20
3.83023e-20
4.10608e-20
2.93987e-20
3.43555e-20
2.45707e-20
2.60597e-20
2.66305e-20
1.37125e-20
2.99126e-20
1.07739e-20
1.84114e-20
2.63939e-20
2.0121e-21
3.90222e-20
1.0891e-20
2.70187e-20
4.53186e-20
1.7143e-20
5.96687e-20
4.95641e-20
5.04543e-20
9.31186e-20
8.39318e-20
1.19256e-19
1.74292e-19
2.1629e-19
3.1632e-19
5.03844e-19
8.76016e-19
2.32361e-18
2.11932e-18
3.26578e-18
3.67854e-18
3.3688e-18
2.72194e-18
1.96444e-18
1.39719e-18
1.04862e-18
7.8085e-19
5.80641e-19
4.78245e-19
4.49914e-19
4.08232e-19
3.4892e-19
2.78923e-19
2.33768e-19
1.96347e-19
1.81417e-19
1.54663e-19
1.44018e-19
1.28055e-19
1.1604e-19
9.45528e-20
9.72122e-20
7.25589e-20
7.71381e-20
6.0533e-20
6.14831e-20
4.95798e-20
4.94901e-20
3.83628e-20
4.13052e-20
2.94349e-20
3.4629e-20
2.47573e-20
2.6139e-20
2.72422e-20
1.35526e-20
3.06853e-20
1.11093e-20
1.85317e-20
2.77086e-20
1.8088e-21
4.03519e-20
1.1902e-20
2.7428e-20
4.77629e-20
1.79733e-20
6.18766e-20
5.26929e-20
5.25815e-20
9.75214e-20
8.87163e-20
1.24087e-19
1.81701e-19
2.24008e-19
3.23085e-19
5.11781e-19
8.59639e-19
2.36536e-18
2.06031e-18
3.10044e-18
3.62057e-18
3.18164e-18
2.50205e-18
1.85894e-18
1.33354e-18
1.00818e-18
7.55604e-19
5.64249e-19
4.66605e-19
4.41121e-19
4.01537e-19
3.44023e-19
2.75457e-19
2.31257e-19
1.9445e-19
1.80076e-19
1.53501e-19
1.42927e-19
1.27306e-19
1.15507e-19
9.39242e-20
9.68905e-20
7.22683e-20
7.69559e-20
6.04461e-20
6.14443e-20
4.95862e-20
4.95158e-20
3.8356e-20
4.14674e-20
2.94192e-20
3.48332e-20
2.49e-20
2.6154e-20
2.77897e-20
1.33746e-20
3.13688e-20
1.14257e-20
1.86127e-20
2.88869e-20
1.6443e-21
4.1461e-20
1.28608e-20
2.77264e-20
4.98409e-20
1.87428e-20
6.36406e-20
5.53509e-20
5.43527e-20
1.00934e-19
9.26258e-20
1.27551e-19
1.86938e-19
2.28864e-19
3.2575e-19
5.14225e-19
8.26869e-19
2.4242e-18
2.02009e-18
2.9429e-18
3.70534e-18
2.99194e-18
2.26068e-18
1.73588e-18
1.25796e-18
9.57086e-19
7.22558e-19
5.42393e-19
4.50775e-19
4.28529e-19
3.91525e-19
3.36563e-19
2.70185e-19
2.27431e-19
1.91547e-19
1.77855e-19
1.5162e-19
1.41209e-19
1.25958e-19
1.14487e-19
9.29513e-20
9.61658e-20
7.16968e-20
7.65393e-20
6.01679e-20
6.12342e-20
4.94748e-20
4.94068e-20
3.82649e-20
4.1518e-20
2.93409e-20
3.49365e-20
2.49825e-20
2.6089e-20
2.82332e-20
1.31796e-20
3.19106e-20
1.16946e-20
1.8659e-20
2.98617e-20
1.51666e-21
4.23174e-20
1.36851e-20
2.79315e-20
5.14666e-20
1.93796e-20
6.49612e-20
5.73854e-20
5.57626e-20
1.03359e-19
9.55293e-20
1.29779e-19
1.90117e-19
2.31098e-19
3.25497e-19
5.12207e-19
7.83889e-19
2.51317e-18
2.04647e-18
2.80858e-18
3.96061e-18
2.81359e-18
2.02083e-18
1.59857e-18
1.17312e-18
8.97578e-19
6.83222e-19
5.16217e-19
4.31615e-19
4.1284e-19
3.78789e-19
3.26946e-19
2.63334e-19
2.22438e-19
1.8774e-19
1.7484e-19
1.49104e-19
1.38944e-19
1.24075e-19
1.13027e-19
9.1655e-20
9.50626e-20
7.08508e-20
7.58747e-20
5.97044e-20
6.08393e-20
4.92472e-20
4.91575e-20
3.80898e-20
4.14485e-20
2.92032e-20
3.49272e-20
2.50068e-20
2.59404e-20
2.85645e-20
1.2972e-20
3.23139e-20
1.19154e-20
1.86716e-20
3.06568e-20
1.411e-21
4.29537e-20
1.43707e-20
2.80652e-20
5.27044e-20
1.98556e-20
6.59856e-20
5.88447e-20
5.68588e-20
1.05028e-19
9.75377e-20
1.3099e-19
1.9165e-19
2.30983e-19
3.23241e-19
5.05882e-19
7.35505e-19
2.62862e-18
2.15195e-18
2.70286e-18
4.3511e-18
2.65417e-18
1.80093e-18
1.45143e-18
1.08191e-18
8.3217e-19
6.39433e-19
4.87095e-19
4.10108e-19
3.94943e-19
3.64026e-19
3.15697e-19
2.55257e-19
2.16504e-19
1.83185e-19
1.71162e-19
1.46065e-19
1.36241e-19
1.21766e-19
1.11215e-19
9.00915e-20
9.36455e-20
6.97739e-20
7.49664e-20
5.90802e-20
6.02617e-20
4.89149e-20
4.87758e-20
3.78444e-20
4.12678e-20
2.90191e-20
3.48106e-20
2.49875e-20
2.57117e-20
2.88025e-20
1.27572e-20
3.25908e-20
1.2115e-20
1.86382e-20
3.13404e-20
1.30351e-21
4.3433e-20
1.4968e-20
2.80961e-20
5.37048e-20
2.01323e-20
6.6767e-20
5.98523e-20
5.75778e-20
1.06085e-19
9.86434e-20
1.31136e-19
1.91696e-19
2.28503e-19
3.18862e-19
4.94514e-19
6.85255e-19
2.75294e-18
2.30779e-18
2.62257e-18
4.79603e-18
2.51958e-18
1.6093e-18
1.30129e-18
9.87487e-19
7.63767e-19
5.93164e-19
4.56362e-19
3.8728e-19
3.75657e-19
3.47934e-19
3.03372e-19
2.46348e-19
2.09908e-19
1.78086e-19
1.66976e-19
1.4262e-19
1.33205e-19
1.19143e-19
1.09167e-19
8.83327e-20
9.19998e-20
6.85384e-20
7.38364e-20
5.83387e-20
5.95168e-20
4.84933e-20
4.82753e-20
3.7547e-20
4.09899e-20
2.88034e-20
3.4596e-20
2.49445e-20
2.54036e-20
2.89648e-20
1.25402e-20
3.27375e-20
1.23341e-20
1.85175e-20
3.19835e-20
1.17176e-21
4.37395e-20
1.5547e-20
2.79214e-20
5.45445e-20
2.01598e-20
6.72015e-20
6.04612e-20
5.76987e-20
1.06405e-19
9.8736e-20
1.29876e-19
1.89974e-19
2.23089e-19
3.11393e-19
4.75614e-19
6.33623e-19
2.85922e-18
2.45087e-18
2.55391e-18
5.17492e-18
2.41209e-18
1.44328e-18
1.1557e-18
8.93242e-19
6.95275e-19
5.46321e-19
4.25339e-19
3.64085e-19
3.5577e-19
3.31185e-19
2.90477e-19
2.36984e-19
2.02935e-19
1.72661e-19
1.6245e-19
1.38907e-19
1.29923e-19
1.163e-19
1.06988e-19
8.64521e-20
9.02004e-20
6.72274e-20
7.25227e-20
5.75145e-20
5.86309e-20
4.79917e-20
4.76744e-20
3.72137e-20
4.06256e-20
2.857e-20
3.42899e-20
2.48914e-20
2.50162e-20
2.90626e-20
1.23253e-20
3.27317e-20
1.26075e-20
1.82579e-20
3.26132e-20
1.00258e-21
4.3801e-20
1.61464e-20
2.74277e-20
5.5173e-20
1.98859e-20
6.70818e-20
6.06123e-20
5.69944e-20
1.05759e-19
9.7582e-20
1.26764e-19
1.86081e-19
2.14353e-19
2.99882e-19
4.48458e-19
5.80306e-19
2.91301e-18
2.52001e-18
2.48001e-18
5.39502e-18
2.32847e-18
1.2962e-18
1.02072e-18
8.02042e-19
6.29127e-19
5.0046e-19
3.95046e-19
3.41302e-19
3.35937e-19
3.14318e-19
2.7743e-19
2.27481e-19
1.95821e-19
1.67096e-19
1.57739e-19
1.3504e-19
1.26483e-19
1.13314e-19
1.04743e-19
8.45155e-20
8.83043e-20
6.59131e-20
7.10721e-20
5.66439e-20
5.7635e-20
4.74194e-20
4.69881e-20
3.68548e-20
4.01802e-20
2.83294e-20
3.3902e-20
2.48346e-20
2.45476e-20
2.90916e-20
1.21185e-20
3.25396e-20
1.2942e-20
1.78207e-20
3.32144e-20
7.97665e-22
4.35454e-20
1.67591e-20
2.65248e-20
5.55054e-20
1.92918e-20
6.62601e-20
6.02508e-20
5.53636e-20
1.03996e-19
9.51127e-20
1.21739e-19
1.79929e-19
2.0241e-19
2.84104e-19
4.141e-19
5.25775e-19
2.89139e-18
2.4767e-18
2.3829e-18
5.40117e-18
2.25868e-18
1.15981e-18
9.00041e-19
7.15986e-19
5.67218e-19
4.56724e-19
3.66181e-19
3.19499e-19
3.16672e-19
2.97772e-19
2.64573e-19
2.18068e-19
1.88747e-19
1.61547e-19
1.5298e-19
1.31132e-19
1.22972e-19
1.10254e-19
1.02479e-19
8.25767e-20
8.6354e-20
6.4648e-20
6.95404e-20
5.5757e-20
5.65695e-20
4.67886e-20
4.62334e-20
3.64747e-20
3.96567e-20
2.80901e-20
3.34371e-20
2.47732e-20
2.40078e-20
2.90399e-20
1.19263e-20
3.21409e-20
1.33251e-20
1.72161e-20
3.3794e-20
5.72231e-22
4.29576e-20
1.73593e-20
2.52337e-20
5.54817e-20
1.84109e-20
6.47071e-20
5.93794e-20
5.28378e-20
1.01163e-19
9.14738e-20
1.15019e-19
1.71829e-19
1.8796e-19
2.64815e-19
3.74964e-19
4.7098e-19
2.78451e-18
2.31465e-18
2.25114e-18
5.18766e-18
2.19084e-18
1.02847e-18
7.94992e-19
6.36434e-19
5.1061e-19
4.15877e-19
3.39163e-19
2.99049e-19
2.98327e-19
2.81872e-19
2.52143e-19
2.08942e-19
1.81856e-19
1.56138e-19
1.48283e-19
1.27282e-19
1.19473e-19
1.07182e-19
1.00222e-19
8.06775e-20
8.43796e-20
6.34614e-20
6.79726e-20
5.4878e-20
5.54695e-20
4.6116e-20
4.54279e-20
3.60792e-20
3.90616e-20
2.78586e-20
3.29045e-20
2.47042e-20
2.3415e-20
2.89027e-20
1.17552e-20
3.15471e-20
1.37355e-20
1.64732e-20
3.44012e-20
3.51038e-22
4.21234e-20
1.79328e-20
2.36266e-20
5.50987e-20
1.73247e-20
6.25132e-20
5.81003e-20
4.96121e-20
9.74721e-20
8.6977e-20
1.07089e-19
1.6235e-19
1.72046e-19
2.43316e-19
3.34399e-19
4.17433e-19
2.59991e-18
2.05882e-18
2.07981e-18
4.78948e-18
2.11291e-18
9.00581e-19
7.04881e-19
5.64138e-19
4.59721e-19
3.78365e-19
3.14188e-19
2.80134e-19
2.81134e-19
2.66818e-19
2.40293e-19
2.00221e-19
1.75224e-19
1.50946e-19
1.43724e-19
1.23557e-19
1.16049e-19
1.04153e-19
9.79928e-20
7.88481e-20
8.24048e-20
6.23638e-20
6.64048e-20
5.40244e-20
5.43629e-20
4.54217e-20
4.4592e-20
3.56763e-20
3.84067e-20
2.76401e-20
3.23193e-20
2.46261e-20
2.27946e-20
2.86854e-20
1.16145e-20
3.07875e-20
1.41619e-20
1.56171e-20
3.5192e-20
1.65371e-22
4.12611e-20
1.84887e-20
2.17995e-20
5.44087e-20
1.61387e-20
5.98081e-20
5.65563e-20
4.59313e-20
9.31968e-20
8.19952e-20
9.84955e-20
1.52141e-19
1.55758e-19
2.2103e-19
2.95228e-19
3.66496e-19
2.35484e-18
1.7488e-18
1.87278e-18
4.26634e-18
2.01593e-18
7.78031e-19
6.27744e-19
4.99397e-19
4.14528e-19
3.44364e-19
2.91271e-19
2.62796e-19
2.65179e-19
2.52717e-19
2.29115e-19
1.91961e-19
1.68895e-19
1.46017e-19
1.39354e-19
1.19997e-19
1.12745e-19
1.01215e-19
9.58063e-20
7.71098e-20
8.045e-20
6.13541e-20
6.48629e-20
5.32066e-20
5.32732e-20
4.47276e-20
4.37439e-20
3.52751e-20
3.77091e-20
2.7437e-20
3.17011e-20
2.4539e-20
2.21726e-20
2.83999e-20
1.15132e-20
2.9904e-20
1.45943e-20
1.46759e-20
3.6427e-20
4.53254e-23
4.07393e-20
1.90441e-20
1.98509e-20
5.34875e-20
1.4953e-20
5.67656e-20
5.48921e-20
4.20324e-20
8.86074e-20
7.68681e-20
8.97284e-20
1.41767e-19
1.40006e-19
1.99177e-19
2.59391e-19
3.19019e-19
2.07404e-18
1.42879e-18
1.63972e-18
3.68062e-18
1.89377e-18
6.64076e-19
5.61028e-19
4.42133e-19
3.74675e-19
3.1384e-19
2.70319e-19
2.46972e-19
2.50469e-19
2.3961e-19
2.1864e-19
1.84185e-19
1.62889e-19
1.41372e-19
1.35197e-19
1.16622e-19
1.09588e-19
9.84031e-20
9.36749e-20
7.54756e-20
7.85306e-20
6.04259e-20
6.33626e-20
5.24305e-20
5.22174e-20
4.40501e-20
4.29004e-20
3.48848e-20
3.69872e-20
2.72508e-20
3.10681e-20
2.44466e-20
2.15661e-20
2.8068e-20
1.14422e-20
2.89609e-20
1.49754e-20
1.37567e-20
3.70625e-20
6.36927e-28
3.99035e-20
1.94977e-20
1.78826e-20
5.24004e-20
1.38469e-20
5.35325e-20
5.32226e-20
3.81098e-20
8.39271e-20
7.18574e-20
8.11599e-20
1.31684e-19
1.25369e-19
1.78562e-19
2.27897e-19
2.755e-19
1.78118e-18
1.13171e-18
1.39662e-18
3.08993e-18
1.7459e-18
5.62131e-19
5.02299e-19
3.92027e-19
3.3964e-19
2.86636e-19
2.51195e-19
2.32549e-19
2.3696e-19
2.27487e-19
2.08865e-19
1.7689e-19
1.57208e-19
1.37014e-19
1.31264e-19
1.13442e-19
1.0659e-19
9.57395e-20
9.16066e-20
7.39519e-20
7.66663e-20
5.95713e-20
6.19185e-20
5.16978e-20
5.12051e-20
4.34013e-20
4.20745e-20
3.45127e-20
3.62587e-20
2.70822e-20
3.04357e-20
2.43541e-20
2.0985e-20
2.77132e-20
1.13886e-20
2.8015e-20
1.5253e-20
1.29466e-20
3.56388e-20
4.12685e-23
3.75228e-20
1.97687e-20
1.5974e-20
5.12086e-20
1.28754e-20
5.02227e-20
5.16261e-20
3.43069e-20
7.93064e-20
6.71395e-20
7.30396e-20
1.22162e-19
1.12207e-19
1.59643e-19
2.00905e-19
2.36323e-19
1.49794e-18
8.79991e-19
1.16088e-18
2.53773e-18
1.57625e-18
4.74732e-19
4.49604e-19
3.48579e-19
3.08874e-19
2.6254e-19
2.33749e-19
2.19389e-19
2.24575e-19
2.16307e-19
1.99767e-19
1.70066e-19
1.5184e-19
1.32934e-19
1.27553e-19
1.10451e-19
1.03752e-19
9.32357e-20
8.9607e-20
7.25387e-20
7.48665e-20
5.87822e-20
6.05349e-20
5.1008e-20
5.02417e-20
4.27888e-20
4.12763e-20
3.41634e-20
3.55388e-20
2.69304e-20
2.98185e-20
2.4264e-20
2.04415e-20
2.73469e-20
1.13637e-20
2.70781e-20
1.54785e-20
1.22015e-20
3.38047e-20
1.66165e-22
3.49238e-20
1.9996e-20
1.416e-20
4.99591e-20
1.20696e-20
4.69228e-20
5.01483e-20
3.07195e-20
7.48499e-20
6.28146e-20
6.55131e-20
1.13341e-19
1.00637e-19
1.42576e-19
1.78133e-19
2.01726e-19
1.24028e-18
6.84225e-19
9.49441e-19
2.05092e-18
1.39242e-18
4.02564e-19
4.01642e-19
3.11185e-19
2.8184e-19
2.41295e-19
2.17836e-19
2.07347e-19
2.13217e-19
2.06012e-19
1.91308e-19
1.63682e-19
1.46767e-19
1.29117e-19
1.24057e-19
1.0764e-19
1.01071e-19
9.08942e-20
8.76791e-20
7.12318e-20
7.31392e-20
5.80512e-20
5.92142e-20
5.03599e-20
4.93296e-20
4.22164e-20
4.05131e-20
3.38395e-20
3.48391e-20
2.67943e-20
2.92267e-20
2.41781e-20
1.9943e-20
2.69785e-20
1.13766e-20
2.61576e-20
1.57041e-20
1.14845e-20
3.25442e-20
4.08092e-22
3.28944e-20
2.02727e-20
1.24669e-20
4.86808e-20
1.14471e-20
4.36929e-20
4.88109e-20
2.74057e-20
7.05991e-20
5.89278e-20
5.8639e-20
1.05262e-19
9.06187e-20
1.27278e-19
1.59024e-19
1.71823e-19
1.01839e-18
5.44473e-19
7.74886e-19
1.64048e-18
1.20286e-18
3.44668e-19
3.57685e-19
2.79142e-19
2.58072e-19
2.22617e-19
2.03323e-19
1.96283e-19
2.02784e-19
1.96535e-19
1.83443e-19
1.57703e-19
1.41968e-19
1.25545e-19
1.20768e-19
1.04999e-19
9.8536e-20
8.87116e-20
8.58238e-20
7.00239e-20
7.1489e-20
5.73718e-20
5.7957e-20
4.97515e-20
4.84691e-20
4.16858e-20
3.97893e-20
3.35417e-20
3.41668e-20
2.66733e-20
2.86669e-20
2.40994e-20
1.94892e-20
2.66187e-20
1.14198e-20
2.52746e-20
1.59269e-20
1.08218e-20
3.16262e-20
7.34044e-22
3.11584e-20
2.05875e-20
1.09252e-20
4.73934e-20
1.10058e-20
4.0574e-20
4.76148e-20
2.43947e-20
6.65826e-20
5.54872e-20
5.24213e-20
9.79043e-20
8.19989e-20
1.13605e-19
1.42939e-19
1.46613e-19
8.35819e-19
4.53506e-19
6.46497e-19
1.30659e-18
1.01666e-18
2.98697e-19
3.17457e-19
2.51754e-19
2.37163e-19
2.06228e-19
1.90096e-19
1.86075e-19
1.93176e-19
1.87808e-19
1.76127e-19
1.52095e-19
1.37421e-19
1.222e-19
1.17672e-19
1.02514e-19
9.61386e-20
8.66803e-20
8.40407e-20
6.89072e-20
6.99185e-20
5.67379e-20
5.67621e-20
4.918e-20
4.76593e-20
4.11962e-20
3.91076e-20
3.32695e-20
3.35263e-20
2.65664e-20
2.81432e-20
2.40286e-20
1.90809e-20
2.62725e-20
1.14902e-20
2.44386e-20
1.61408e-20
1.02375e-20
3.08775e-20
1.10848e-21
2.95772e-20
2.09237e-20
9.54579e-21
4.61114e-20
1.07359e-20
3.75927e-20
4.65503e-20
2.16979e-20
6.28045e-20
5.24693e-20
4.68298e-20
9.12146e-20
7.4604e-20
1.01333e-19
1.29321e-19
1.2591e-19
6.92015e-19
4.00266e-19
5.69455e-19
1.04105e-18
8.42749e-19
2.61605e-19
2.80971e-19
2.28336e-19
2.18779e-19
1.91862e-19
1.78059e-19
1.76619e-19
1.84301e-19
1.79766e-19
1.69317e-19
1.46825e-19
1.33104e-19
1.19063e-19
1.14757e-19
1.00172e-19
9.38683e-20
8.47908e-20
8.23286e-20
6.78732e-20
6.84278e-20
5.6144e-20
5.56278e-20
4.86424e-20
4.68985e-20
4.0746e-20
3.84697e-20
3.30218e-20
3.29205e-20
2.64719e-20
2.76583e-20
2.39654e-20
1.87185e-20
2.59414e-20
1.15877e-20
2.36496e-20
1.6349e-20
9.73521e-21
3.02126e-20
1.52083e-21
2.81065e-20
2.12827e-20
8.32619e-21
4.48433e-20
1.06234e-20
3.47662e-20
4.5601e-20
1.93137e-20
5.92539e-20
4.98416e-20
4.18155e-20
8.51279e-20
6.82583e-20
9.02614e-20
1.17661e-19
1.09385e-19
5.83263e-19
3.7235e-19
5.45426e-19
8.32023e-19
6.88955e-19
2.30318e-19
2.48376e-19
2.08289e-19
2.02647e-19
1.79279e-19
1.6713e-19
1.67829e-19
1.76077e-19
1.72345e-19
1.62971e-19
1.41861e-19
1.28999e-19
1.16115e-19
1.12009e-19
9.79608e-20
9.17152e-20
8.3032e-20
8.0685e-20
6.69133e-20
6.70162e-20
5.55852e-20
5.45517e-20
4.81355e-20
4.61847e-20
4.03334e-20
3.78762e-20
3.27969e-20
3.23502e-20
2.63885e-20
2.72131e-20
2.39092e-20
1.84015e-20
2.56268e-20
1.17108e-20
2.29083e-20
1.65547e-20
9.31025e-21
2.95856e-20
1.96784e-21
2.67292e-20
2.16616e-20
7.26221e-21
4.35946e-20
1.06507e-20
3.21074e-20
4.47474e-20
1.72326e-20
5.59169e-20
4.7564e-20
3.73283e-20
7.95729e-20
6.28027e-20
8.0206e-20
1.0757e-19
9.67415e-20
5.04187e-19
3.5717e-19
5.72367e-19
6.65006e-19
5.60883e-19
2.02212e-19
2.19717e-19
1.91106e-19
1.88545e-19
1.68266e-19
1.57235e-19
1.59636e-19
1.6843e-19
1.6549e-19
1.57051e-19
1.37174e-19
1.25085e-19
1.13339e-19
1.09416e-19
9.58702e-20
8.96696e-20
8.13934e-20
7.91072e-20
6.602e-20
6.56812e-20
5.5058e-20
5.35301e-20
4.76568e-20
4.55153e-20
3.99565e-20
3.7327e-20
3.25936e-20
3.18151e-20
2.63152e-20
2.68077e-20
2.38598e-20
1.81287e-20
2.533e-20
1.18566e-20
2.22169e-20
1.6758e-20
8.95791e-21
2.8987e-20
2.4458e-21
2.54391e-20
2.20531e-20
6.34864e-21
4.23745e-20
1.07991e-20
2.96265e-20
4.39756e-20
1.5441e-20
5.27867e-20
4.55988e-20
3.3325e-20
7.44973e-20
5.81169e-20
7.1019e-20
9.8737e-20
8.77176e-20
4.48161e-19
3.4324e-19
3.13985e-18
3.70606e-18
3.47415e-18
2.8826e-18
2.04986e-18
1.44373e-18
1.06925e-18
7.90213e-19
5.87376e-19
4.83151e-19
4.5144e-19
4.07904e-19
3.48449e-19
2.78868e-19
2.33712e-19
1.96233e-19
1.80562e-19
1.54253e-19
1.43885e-19
1.27284e-19
1.15278e-19
9.47864e-20
9.63232e-20
7.22226e-20
7.67116e-20
5.98919e-20
6.09876e-20
4.90079e-20
4.8891e-20
3.80142e-20
4.0417e-20
2.91965e-20
3.36907e-20
2.40589e-20
2.58176e-20
2.51842e-20
1.40741e-20
2.80946e-20
1.00462e-20
1.81646e-20
2.33073e-20
2.65564e-21
3.57197e-20
8.69993e-21
2.60382e-20
3.93498e-20
1.54271e-20
5.39014e-20
4.19256e-20
4.50247e-20
8.10268e-20
7.12009e-20
1.03877e-19
1.49951e-19
1.86905e-19
2.7798e-19
4.46645e-19
8.02475e-19
2.08718e-18
2.03475e-18
3.29602e-18
3.7941e-18
3.56625e-18
2.95204e-18
2.08135e-18
1.46189e-18
1.08121e-18
7.97861e-19
5.9162e-19
4.85681e-19
4.53545e-19
4.09767e-19
3.49797e-19
2.7975e-19
2.34307e-19
1.96701e-19
1.81001e-19
1.54613e-19
1.44133e-19
1.27614e-19
1.15542e-19
9.48926e-20
9.65431e-20
7.24038e-20
7.67923e-20
6.00842e-20
6.10719e-20
4.91539e-20
4.89925e-20
3.81052e-20
4.05476e-20
2.92613e-20
3.38168e-20
2.41842e-20
2.58495e-20
2.5508e-20
1.39781e-20
2.84742e-20
1.0216e-20
1.81616e-20
2.4014e-20
2.45833e-21
3.64281e-20
9.18679e-21
2.61634e-20
4.07447e-20
1.57163e-20
5.51953e-20
4.366e-20
4.62035e-20
8.38707e-20
7.42008e-20
1.0764e-19
1.56235e-19
1.94917e-19
2.8983e-19
4.66397e-19
8.33142e-19
2.17865e-18
2.08836e-18
3.41559e-18
3.86151e-18
3.60113e-18
2.97143e-18
2.08716e-18
1.46683e-18
1.08685e-18
8.02543e-19
5.94463e-19
4.87469e-19
4.55436e-19
4.11558e-19
3.51146e-19
2.80555e-19
2.34885e-19
1.97133e-19
1.81552e-19
1.54981e-19
1.44427e-19
1.28001e-19
1.15893e-19
9.4951e-20
9.69122e-20
7.25425e-20
7.69968e-20
6.02764e-20
6.12524e-20
4.9318e-20
4.91942e-20
3.82e-20
4.08055e-20
2.93252e-20
3.407e-20
2.43604e-20
2.59511e-20
2.6019e-20
1.38597e-20
2.91278e-20
1.04716e-20
1.82693e-20
2.51149e-20
2.23413e-21
3.76323e-20
9.93395e-21
2.657e-20
4.28788e-20
1.63413e-20
5.73217e-20
4.63809e-20
4.82281e-20
8.8278e-20
7.88361e-20
1.13319e-19
1.65188e-19
2.05802e-19
3.04243e-19
4.8806e-19
8.66683e-19
2.27216e-18
2.14185e-18
3.4056e-18
3.81232e-18
3.53347e-18
2.89629e-18
2.04835e-18
1.44579e-18
1.0771e-18
7.98043e-19
5.91848e-19
4.85832e-19
4.5493e-19
4.11605e-19
3.51211e-19
2.80496e-19
2.34834e-19
1.97104e-19
1.81778e-19
1.55076e-19
1.44464e-19
1.28231e-19
1.16128e-19
9.48775e-20
9.72041e-20
7.26245e-20
7.71482e-20
6.04545e-20
6.14197e-20
4.94829e-20
4.93911e-20
3.8299e-20
4.10856e-20
2.93881e-20
3.43632e-20
2.45611e-20
2.60612e-20
2.66265e-20
1.37171e-20
2.99116e-20
1.07855e-20
1.84098e-20
2.64289e-20
2.00601e-21
3.90378e-20
1.08685e-20
2.70481e-20
4.53786e-20
1.71366e-20
5.97486e-20
4.95789e-20
5.05381e-20
9.31684e-20
8.40315e-20
1.19216e-19
1.74373e-19
2.16167e-19
3.16202e-19
5.03434e-19
8.76047e-19
2.33358e-18
2.12656e-18
3.27205e-18
3.6924e-18
3.37846e-18
2.72817e-18
1.96766e-18
1.39874e-18
1.05005e-18
7.82385e-19
5.81982e-19
4.79135e-19
4.50395e-19
4.08459e-19
3.4897e-19
2.78879e-19
2.3366e-19
1.96229e-19
1.81304e-19
1.54613e-19
1.43999e-19
1.28046e-19
1.16045e-19
9.45659e-20
9.72414e-20
7.25635e-20
7.71605e-20
6.05321e-20
6.15052e-20
4.95905e-20
4.95241e-20
3.83617e-20
4.13293e-20
2.94262e-20
3.46348e-20
2.47498e-20
2.61393e-20
2.72399e-20
1.3555e-20
3.06861e-20
1.11207e-20
1.85293e-20
2.77489e-20
1.80361e-21
4.03727e-20
1.18689e-20
2.74634e-20
4.78298e-20
1.79705e-20
6.19621e-20
5.27146e-20
5.26761e-20
9.75897e-20
8.88378e-20
1.24083e-19
1.81833e-19
2.23957e-19
3.2311e-19
5.11606e-19
8.59758e-19
2.37629e-18
2.06736e-18
3.10739e-18
3.63118e-18
3.18948e-18
2.50716e-18
1.86141e-18
1.33478e-18
1.00943e-18
7.57029e-19
5.65577e-19
4.6749e-19
4.41583e-19
4.01739e-19
3.44058e-19
2.75402e-19
2.31139e-19
1.94322e-19
1.79953e-19
1.53445e-19
1.42904e-19
1.27294e-19
1.15508e-19
9.39367e-20
9.69186e-20
7.22733e-20
7.69759e-20
6.04453e-20
6.14629e-20
4.95992e-20
4.95495e-20
3.83579e-20
4.14906e-20
2.94129e-20
3.48357e-20
2.48954e-20
2.61511e-20
2.77905e-20
1.33748e-20
3.1371e-20
1.14362e-20
1.86094e-20
2.89353e-20
1.641e-21
4.1488e-20
1.2811e-20
2.77687e-20
4.99143e-20
1.87446e-20
6.37307e-20
5.53803e-20
5.44587e-20
1.01017e-19
9.27698e-20
1.27574e-19
1.87122e-19
2.28867e-19
3.25916e-19
5.14215e-19
8.2733e-19
2.43549e-18
2.02589e-18
2.94952e-18
3.71184e-18
2.99803e-18
2.26482e-18
1.7379e-18
1.25892e-18
9.58191e-19
7.2394e-19
5.43703e-19
4.5164e-19
4.28965e-19
3.91701e-19
3.36583e-19
2.7012e-19
2.27304e-19
1.9141e-19
1.77721e-19
1.51556e-19
1.4118e-19
1.25943e-19
1.14482e-19
9.29634e-20
9.61922e-20
7.17031e-20
7.65561e-20
6.01677e-20
6.1248e-20
4.94904e-20
4.94387e-20
3.82707e-20
4.15385e-20
2.9338e-20
3.49349e-20
2.49817e-20
2.60817e-20
2.82383e-20
1.31759e-20
3.19139e-20
1.1703e-20
1.86526e-20
2.99182e-20
1.51633e-21
4.23509e-20
1.36111e-20
2.79813e-20
5.15464e-20
1.93864e-20
6.5054e-20
5.74222e-20
5.58784e-20
1.03455e-19
9.56944e-20
1.29822e-19
1.90352e-19
2.3113e-19
3.25785e-19
5.12295e-19
7.8454e-19
2.52422e-18
2.0506e-18
2.81465e-18
3.96315e-18
2.81798e-18
2.02419e-18
1.60023e-18
1.17381e-18
8.98542e-19
6.84573e-19
5.17517e-19
4.32463e-19
4.13268e-19
3.78947e-19
3.26954e-19
2.6326e-19
2.22305e-19
1.87595e-19
1.74696e-19
1.49033e-19
1.3891e-19
1.24057e-19
1.13016e-19
9.1667e-20
9.50865e-20
7.08591e-20
7.58872e-20
5.97053e-20
6.08473e-20
4.92658e-20
4.91863e-20
3.81004e-20
4.14648e-20
2.92049e-20
3.49196e-20
2.50109e-20
2.59272e-20
2.85738e-20
1.2962e-20
3.23203e-20
1.1919e-20
1.8661e-20
3.07175e-20
1.41456e-21
4.30066e-20
1.42632e-20
2.81214e-20
5.27866e-20
1.98667e-20
6.60804e-20
5.88873e-20
5.69829e-20
1.05132e-19
9.77219e-20
1.31048e-19
1.91923e-19
2.31026e-19
3.23622e-19
5.0597e-19
7.36211e-19
2.63895e-18
2.15438e-18
2.70837e-18
4.35054e-18
2.65701e-18
1.8036e-18
1.45278e-18
1.08237e-18
8.33004e-19
6.4074e-19
4.88369e-19
4.10939e-19
3.95356e-19
3.64168e-19
3.15695e-19
2.55177e-19
2.16363e-19
1.83036e-19
1.71008e-19
1.45989e-19
1.36202e-19
1.21745e-19
1.11197e-19
9.01037e-20
9.36658e-20
6.97852e-20
7.49744e-20
5.90827e-20
6.0263e-20
4.89369e-20
4.88004e-20
3.78606e-20
4.12792e-20
2.90262e-20
3.47957e-20
2.49978e-20
2.56904e-20
2.88163e-20
1.27383e-20
3.26021e-20
1.21077e-20
1.8622e-20
3.13982e-20
1.311e-21
4.35047e-20
1.48147e-20
2.81561e-20
5.3794e-20
2.01473e-20
6.68618e-20
5.98999e-20
5.77068e-20
1.06192e-19
9.88412e-20
1.312e-19
1.91994e-19
2.28536e-19
3.19303e-19
4.94619e-19
6.85969e-19
2.7623e-18
2.30893e-18
2.62758e-18
4.79364e-18
2.52101e-18
1.61149e-18
1.30238e-18
9.87739e-19
7.64471e-19
5.94417e-19
4.57609e-19
3.88096e-19
3.76059e-19
3.48068e-19
3.03362e-19
2.46264e-19
2.09764e-19
1.77934e-19
1.66816e-19
1.4254e-19
1.33162e-19
1.19121e-19
1.09143e-19
8.83456e-20
9.20157e-20
6.85532e-20
7.38397e-20
5.83432e-20
5.95109e-20
4.8519e-20
4.82954e-20
3.75692e-20
4.09951e-20
2.88167e-20
3.45723e-20
2.49618e-20
2.5373e-20
2.89858e-20
1.25094e-20
3.27563e-20
1.23109e-20
1.85013e-20
3.20204e-20
1.18245e-21
4.38499e-20
1.53339e-20
2.79823e-20
5.46384e-20
2.0178e-20
6.7294e-20
6.05117e-20
5.78297e-20
1.06514e-19
9.89392e-20
1.29934e-19
1.90285e-19
2.2311e-19
3.11865e-19
4.7569e-19
6.34307e-19
2.86755e-18
2.45146e-18
2.55855e-18
5.17178e-18
2.41244e-18
1.44513e-18
1.15656e-18
8.93331e-19
6.95851e-19
5.47513e-19
4.26562e-19
3.64889e-19
3.56164e-19
3.31311e-19
2.90462e-19
2.36896e-19
2.02789e-19
1.72507e-19
1.62284e-19
1.38823e-19
1.29875e-19
1.16277e-19
1.06957e-19
8.64662e-20
9.02116e-20
6.72453e-20
7.2521e-20
5.75215e-20
5.86178e-20
4.8021e-20
4.76886e-20
3.72425e-20
4.06238e-20
2.85902e-20
3.42573e-20
2.49165e-20
2.49737e-20
2.90933e-20
1.22798e-20
3.27591e-20
1.25556e-20
1.82369e-20
3.25992e-20
1.0148e-21
4.39483e-20
1.58597e-20
2.74852e-20
5.52709e-20
1.99062e-20
6.71696e-20
6.06636e-20
5.7123e-20
1.05866e-19
9.77842e-20
1.26818e-19
1.86387e-19
2.14356e-19
3.00334e-19
4.48513e-19
5.80914e-19
2.92026e-18
2.52071e-18
2.48448e-18
5.39203e-18
2.32798e-18
1.29779e-18
1.0214e-18
8.01973e-19
6.29577e-19
5.01589e-19
3.9624e-19
3.42091e-19
3.36323e-19
3.14439e-19
2.77413e-19
2.27391e-19
1.95674e-19
1.66941e-19
1.57569e-19
1.34953e-19
1.26429e-19
1.13291e-19
1.04707e-19
8.45308e-20
8.83112e-20
6.59349e-20
7.10657e-20
5.66534e-20
5.76155e-20
4.7452e-20
4.69959e-20
3.68898e-20
4.01712e-20
2.83567e-20
3.38596e-20
2.48679e-20
2.44934e-20
2.91322e-20
1.20549e-20
3.25805e-20
1.28507e-20
1.77959e-20
3.31047e-20
8.10367e-22
4.3716e-20
1.63866e-20
2.65785e-20
5.56044e-20
1.93132e-20
6.63412e-20
6.03016e-20
5.54862e-20
1.04097e-19
9.53057e-20
1.21785e-19
1.80215e-19
2.02399e-19
2.84502e-19
4.14136e-19
5.26292e-19
2.89762e-18
2.47794e-18
2.38733e-18
5.39883e-18
2.25763e-18
1.1612e-18
9.00585e-19
7.15821e-19
5.67546e-19
4.57782e-19
3.67343e-19
3.20271e-19
3.17051e-19
2.97891e-19
2.64553e-19
2.17981e-19
1.88602e-19
1.61392e-19
1.52808e-19
1.31045e-19
1.22913e-19
1.10232e-19
1.02438e-19
8.25933e-20
8.63567e-20
6.46734e-20
6.95296e-20
5.57689e-20
5.65433e-20
4.68241e-20
4.62348e-20
3.65155e-20
3.96409e-20
2.81243e-20
3.33848e-20
2.48147e-20
2.3941e-20
2.90906e-20
1.18432e-20
3.21987e-20
1.31865e-20
1.71781e-20
3.34876e-20
5.86962e-22
4.31074e-20
1.68941e-20
2.5278e-20
5.55783e-20
1.84331e-20
6.47807e-20
5.9428e-20
5.29507e-20
1.01256e-19
9.16524e-20
1.15057e-19
1.72082e-19
1.87939e-19
2.65129e-19
3.74989e-19
4.714e-19
2.7898e-18
2.31648e-18
2.25561e-18
5.18618e-18
2.18954e-18
1.02966e-18
7.95422e-19
6.36199e-19
5.10821e-19
4.16858e-19
3.40288e-19
2.99801e-19
2.98693e-19
2.81987e-19
2.5212e-19
2.08857e-19
1.8171e-19
1.55983e-19
1.48109e-19
1.27195e-19
1.1941e-19
1.0716e-19
1.00176e-19
8.06951e-20
8.43785e-20
6.34901e-20
6.79577e-20
5.4892e-20
5.54373e-20
4.61539e-20
4.54233e-20
3.6125e-20
3.90395e-20
2.78993e-20
3.28439e-20
2.47532e-20
2.33376e-20
2.89628e-20
1.16545e-20
3.16209e-20
1.35455e-20
1.64159e-20
3.37154e-20
3.71679e-22
4.21493e-20
1.73687e-20
2.36564e-20
5.51922e-20
1.73473e-20
6.25773e-20
5.81459e-20
4.97135e-20
9.75571e-20
8.71367e-20
1.07122e-19
1.62559e-19
1.7202e-19
2.43527e-19
3.34416e-19
4.1775e-19
2.60437e-18
2.06117e-18
2.08433e-18
4.78874e-18
2.11158e-18
9.0156e-19
7.05219e-19
5.63861e-19
4.5983e-19
3.79265e-19
3.15271e-19
2.80865e-19
2.81491e-19
2.66928e-19
2.40268e-19
2.00137e-19
1.75079e-19
1.50793e-19
1.43549e-19
1.2347e-19
1.15983e-19
1.04132e-19
9.79429e-20
7.88666e-20
8.24003e-20
6.23951e-20
6.63865e-20
5.40401e-20
5.43258e-20
4.54615e-20
4.45821e-20
3.57263e-20
3.83794e-20
2.76863e-20
3.22521e-20
2.46811e-20
2.27087e-20
2.87525e-20
1.14975e-20
3.08795e-20
1.39102e-20
1.55578e-20
3.37778e-20
1.92805e-22
4.08966e-20
1.78116e-20
2.18185e-20
5.44966e-20
1.61603e-20
5.98635e-20
5.65983e-20
4.60201e-20
9.32733e-20
8.21331e-20
9.8524e-20
1.52301e-19
1.55735e-19
2.2113e-19
2.95238e-19
3.6671e-19
2.35853e-18
1.75156e-18
1.87729e-18
4.26615e-18
2.01473e-18
7.78778e-19
6.28006e-19
4.99103e-19
4.14551e-19
3.4518e-19
2.92308e-19
2.63505e-19
2.65525e-19
2.52822e-19
2.29087e-19
1.91878e-19
1.68752e-19
1.45866e-19
1.39179e-19
1.1991e-19
1.12676e-19
1.01196e-19
9.57535e-20
7.71289e-20
8.04425e-20
6.13875e-20
6.48419e-20
5.32236e-20
5.32321e-20
4.47684e-20
4.37296e-20
3.53283e-20
3.76777e-20
2.74875e-20
3.1629e-20
2.45989e-20
2.20795e-20
2.84746e-20
1.13779e-20
3.00201e-20
1.42679e-20
1.46565e-20
3.36791e-20
7.39676e-23
3.94387e-20
1.82323e-20
1.98707e-20
5.35637e-20
1.49728e-20
5.68118e-20
5.49302e-20