/*--------------------------------*- C++ -*----------------------------------*\
| =========                 |                                                 |
| \\      /  F ield         | OpenFOAM: The Open Source CFD Toolbox           |
|  \\    /   O peration     | Version:  2312                                  |
|   \\  /    A nd           | Website:  www.openfoam.com                      |
|    \\/     M anipulation  |                                                 |
\*---------------------------------------------------------------------------*/
FoamFile
{
    version     2.0;
    format      ascii;
    arch        "LSB;label=32;scalar=64";
    class       volScalarField;
    location    "120";
    object      pPrime2Mean;
}
// * * * * * * * * * * * * * * * * * * * * * * * * * * * * * * * * * * * * * //

dimensions      [0 4 -4 0 0 0 0];

internalField   nonuniform List<scalar> 
144000
(
1.8777e-17
2.52295e-17
2.32727e-17
1.81771e-17
1.32026e-17
9.67389e-18
7.34445e-18
5.46934e-18
4.05783e-18
3.33241e-18
3.0995e-18
2.80484e-18
2.3798e-18
1.9063e-18
1.58232e-18
1.33332e-18
1.21718e-18
1.04733e-18
9.6849e-19
8.64548e-19
7.74009e-19
6.42611e-19
6.4716e-19
4.88873e-19
5.14471e-19
4.05672e-19
4.08361e-19
3.32827e-19
3.2724e-19
2.58245e-19
2.70846e-19
1.98259e-19
2.26177e-19
1.64416e-19
1.73757e-19
1.73356e-19
9.35074e-20
1.94497e-19
6.67415e-20
1.25787e-19
1.60507e-19
1.77743e-20
2.47594e-19
5.99881e-20
1.80253e-19
2.72971e-19
1.06167e-19
3.74261e-19
2.90478e-19
3.12163e-19
5.62537e-19
4.95763e-19
7.18812e-19
1.04392e-18
1.29041e-18
1.9154e-18
3.05602e-18
4.87846e-18
1.12525e-17
1.39367e-17
1.97105e-17
2.57911e-17
2.38898e-17
1.86337e-17
1.34213e-17
9.80186e-18
7.42791e-18
5.52259e-18
4.08744e-18
3.35013e-18
3.11441e-18
2.81799e-18
2.3894e-18
1.91256e-18
1.58663e-18
1.33664e-18
1.22034e-18
1.04988e-18
9.70295e-19
8.66858e-19
7.75906e-19
6.43347e-19
6.48742e-19
4.90119e-19
5.15075e-19
4.06986e-19
4.0898e-19
3.33823e-19
3.27974e-19
2.58853e-19
2.71786e-19
1.98685e-19
2.2708e-19
1.65272e-19
1.74004e-19
1.75598e-19
9.2864e-20
1.97136e-19
6.79542e-20
1.25764e-19
1.65465e-19
1.64072e-20
2.52561e-19
6.34094e-20
1.81152e-19
2.82732e-19
1.08214e-19
3.83344e-19
3.02636e-19
3.20454e-19
5.82498e-19
5.16777e-19
7.45349e-19
1.08786e-18
1.34696e-18
1.99887e-18
3.19492e-18
5.05079e-18
1.17937e-17
1.42517e-17
2.02655e-17
2.62874e-17
2.40804e-17
1.87872e-17
1.34773e-17
9.84302e-18
7.46924e-18
5.5555e-18
4.10737e-18
3.36271e-18
3.12779e-18
2.83076e-18
2.399e-18
1.9184e-18
1.59081e-18
1.3398e-18
1.22426e-18
1.05256e-18
9.72392e-19
8.69632e-19
7.78351e-19
6.43798e-19
6.5132e-19
4.91106e-19
5.165e-19
4.08326e-19
4.10218e-19
3.34965e-19
3.29358e-19
2.59501e-19
2.73573e-19
1.99112e-19
2.28823e-19
1.66489e-19
1.74699e-19
1.79141e-19
9.20294e-20
2.01673e-19
6.97308e-20
1.26502e-19
1.73145e-19
1.48349e-20
2.60943e-19
6.8638e-20
1.83974e-19
2.97612e-19
1.12574e-19
3.9821e-19
3.21652e-19
3.34611e-19
6.13334e-19
5.49179e-19
7.85122e-19
1.15038e-18
1.42312e-18
2.10147e-18
3.3467e-18
5.23119e-18
1.22449e-17
1.45969e-17
1.99158e-17
2.61039e-17
2.35493e-17
1.83655e-17
1.32436e-17
9.70801e-18
7.40468e-18
5.52529e-18
4.08928e-18
3.35148e-18
3.12453e-18
2.83142e-18
2.39973e-18
1.91826e-18
1.59066e-18
1.33978e-18
1.22594e-18
1.05336e-18
9.72733e-19
8.71318e-19
7.8e-19
6.43335e-19
6.53373e-19
4.917e-19
5.17559e-19
4.09565e-19
4.11366e-19
3.36112e-19
3.30715e-19
2.60178e-19
2.75517e-19
1.99531e-19
2.30838e-19
1.67878e-19
1.75462e-19
1.83358e-19
9.10285e-20
2.07132e-19
7.19136e-20
1.27471e-19
1.82291e-19
1.32378e-20
2.70734e-19
7.52021e-20
1.87288e-19
3.1504e-19
1.18133e-19
4.15147e-19
3.43999e-19
3.50735e-19
6.47514e-19
5.8541e-19
8.26339e-19
1.21459e-18
1.49486e-18
2.18848e-18
3.44797e-18
5.28064e-18
1.23903e-17
1.45556e-17
1.87721e-17
2.55247e-17
2.24101e-17
1.74206e-17
1.27449e-17
9.39062e-18
7.22088e-18
5.41784e-18
4.02095e-18
3.30496e-18
3.09329e-18
2.80984e-18
2.38446e-18
1.90734e-18
1.58276e-18
1.3339e-18
1.22279e-18
1.05028e-18
9.69641e-19
8.70129e-19
7.79464e-19
6.4121e-19
6.53683e-19
4.91291e-19
5.17673e-19
4.10094e-19
4.11964e-19
3.36849e-19
3.31644e-19
2.60592e-19
2.77226e-19
1.99768e-19
2.32714e-19
1.69178e-19
1.76015e-19
1.87617e-19
8.99082e-20
2.12515e-19
7.42539e-20
1.28304e-19
1.91503e-19
1.18282e-20
2.80042e-19
8.22681e-20
1.90171e-19
3.32128e-19
1.23977e-19
4.30598e-19
3.65934e-19
3.65608e-19
6.7841e-19
6.18847e-19
8.60171e-19
1.26669e-18
1.54781e-18
2.24127e-18
3.49061e-18
5.20849e-18
1.23392e-17
1.42854e-17
1.74171e-17
2.5251e-17
2.10177e-17
1.62132e-17
1.20963e-17
8.9555e-18
6.94144e-18
5.24284e-18
3.90659e-18
3.22376e-18
3.03226e-18
2.76347e-18
2.35065e-18
1.88346e-18
1.56558e-18
1.32085e-18
1.21358e-18
1.0423e-18
9.62218e-19
8.64998e-19
7.75794e-19
6.36872e-19
6.51522e-19
4.89281e-19
5.16445e-19
4.09467e-19
4.11698e-19
3.36888e-19
3.31849e-19
2.60536e-19
2.78378e-19
1.99642e-19
2.34115e-19
1.70172e-19
1.76135e-19
1.91433e-19
8.86736e-20
2.17282e-19
7.64721e-20
1.28873e-19
1.9978e-19
1.07047e-20
2.87833e-19
8.89751e-20
1.92308e-19
3.4667e-19
1.29422e-19
4.42948e-19
3.84605e-19
3.77974e-19
7.02403e-19
6.46112e-19
8.84366e-19
1.30369e-18
1.57991e-18
2.26549e-18
3.48563e-18
5.06474e-18
1.23083e-17
1.40951e-17
1.60868e-17
2.55741e-17
1.95666e-17
1.49119e-17
1.13529e-17
8.43503e-18
6.58644e-18
5.01327e-18
3.75398e-18
3.11327e-18
2.94481e-18
2.69403e-18
2.29909e-18
1.84704e-18
1.53933e-18
1.30083e-18
1.1983e-18
1.02933e-18
9.50486e-19
8.55705e-19
7.68776e-19
6.30133e-19
6.4659e-19
4.85317e-19
5.13612e-19
4.07506e-19
4.10259e-19
3.36103e-19
3.31141e-19
2.59896e-19
2.78768e-19
1.99081e-19
2.34826e-19
1.7075e-19
1.75714e-19
1.9453e-19
8.73334e-20
2.21068e-19
7.83693e-20
1.29212e-19
2.06647e-19
9.85546e-21
2.9389e-19
9.47436e-20
1.93819e-19
3.58069e-19
1.33965e-19
4.52198e-19
3.98944e-19
3.87787e-19
7.19506e-19
6.66272e-19
8.99827e-19
1.32623e-18
1.59276e-18
2.26744e-18
3.44114e-18
4.87238e-18
1.23721e-17
1.41393e-17
1.48558e-17
2.64386e-17
1.81322e-17
1.36052e-17
1.05323e-17
7.84788e-18
6.17099e-18
4.73949e-18
3.57105e-18
2.97949e-18
2.83586e-18
2.60566e-18
2.23261e-18
1.79968e-18
1.50506e-18
1.27457e-18
1.17758e-18
1.01195e-18
9.35008e-19
8.42698e-19
7.58735e-19
6.21144e-19
6.39063e-19
4.79446e-19
5.09083e-19
4.04255e-19
4.07559e-19
3.34507e-19
3.29482e-19
2.58675e-19
2.7834e-19
1.98112e-19
2.34768e-19
1.70925e-19
1.74728e-19
1.96855e-19
8.59185e-20
2.23899e-19
7.99387e-20
1.29327e-19
2.12262e-19
9.17664e-21
2.9845e-19
9.95405e-20
1.94856e-19
3.66775e-19
1.37401e-19
4.59374e-19
4.09284e-19
3.95373e-19
7.31335e-19
6.80075e-19
9.08105e-19
1.33697e-18
1.58846e-18
2.25187e-18
3.36341e-18
4.64199e-18
1.25272e-17
1.43698e-17
1.37484e-17
2.75239e-17
1.67509e-17
1.23549e-17
9.65443e-18
7.21577e-18
5.71237e-18
4.43421e-18
3.36737e-18
2.82927e-18
2.7116e-18
2.50324e-18
2.15488e-18
1.74384e-18
1.46435e-18
1.24315e-18
1.15232e-18
9.90944e-19
9.16545e-19
8.26741e-19
7.46303e-19
6.10297e-19
6.29391e-19
4.71975e-19
5.02891e-19
3.99889e-19
4.03617e-19
3.32183e-19
3.26928e-19
2.56971e-19
2.77159e-19
1.96824e-19
2.33983e-19
1.70801e-19
1.73201e-19
1.98541e-19
8.44654e-20
2.25861e-19
8.13655e-20
1.29133e-19
2.17085e-19
8.50053e-21
3.01961e-19
1.03711e-19
1.95192e-19
3.73839e-19
1.39457e-19
4.64846e-19
4.16488e-19
4.00284e-19
7.38906e-19
6.87452e-19
9.08896e-19
1.33683e-18
1.56747e-18
2.21752e-18
3.25547e-18
4.38192e-18
1.27057e-17
1.46019e-17
1.27635e-17
2.84158e-17
1.54552e-17
1.11817e-17
8.75236e-18
6.56231e-18
5.23084e-18
4.11115e-18
3.15229e-18
2.6698e-18
2.57776e-18
2.39164e-18
2.06981e-18
1.68227e-18
1.41914e-18
1.20801e-18
1.12363e-18
9.67138e-19
8.95838e-19
8.0862e-19
7.32298e-19
5.98095e-19
6.18173e-19
4.6341e-19
4.95192e-19
3.94712e-19
3.98543e-19
3.29239e-19
3.23575e-19
2.54913e-19
2.75321e-19
1.95324e-19
2.32536e-19
1.70518e-19
1.71135e-19
1.99712e-19
8.30077e-20
2.26927e-19
8.29296e-20
1.28338e-19
2.21593e-19
7.6666e-21
3.04318e-19
1.07739e-19
1.94099e-19
3.79794e-19
1.39776e-19
4.67884e-19
4.2092e-19
4.00974e-19
7.41348e-19
6.87623e-19
8.99933e-19
1.32378e-18
1.52664e-18
2.15858e-18
3.10751e-18
4.0904e-18
1.28077e-17
1.45489e-17
1.18589e-17
2.86169e-17
1.42641e-17
1.00672e-17
7.86342e-18
5.91315e-18
4.74688e-18
3.78361e-18
2.93506e-18
2.50774e-18
2.43983e-18
2.27553e-18
1.9809e-18
1.6176e-18
1.37142e-18
1.17066e-18
1.09268e-18
9.4149e-19
8.73477e-19
7.88983e-19
7.17436e-19
5.85054e-19
6.05927e-19
4.54329e-19
4.86253e-19
3.88969e-19
3.92521e-19
3.25739e-19
3.19552e-19
2.52611e-19
2.72903e-19
1.93706e-19
2.30475e-19
1.70169e-19
1.6853e-19
2.00445e-19
8.15731e-20
2.26939e-19
8.48679e-20
1.2658e-19
2.25951e-19
6.57807e-21
3.05009e-19
1.11885e-19
1.90777e-19
3.84284e-19
1.3799e-19
4.67037e-19
4.22166e-19
3.9586e-19
7.37066e-19
6.78973e-19
8.78192e-19
1.29509e-18
1.46409e-18
2.07008e-18
2.91873e-18
3.76751e-18
1.26966e-17
1.40087e-17
1.09842e-17
2.78673e-17
1.31762e-17
8.9949e-18
7.01752e-18
5.28982e-18
4.27787e-18
3.46251e-18
2.72288e-18
2.34857e-18
2.30238e-18
2.15868e-18
1.89106e-18
1.55202e-18
1.32282e-18
1.13239e-18
1.06054e-18
9.14808e-19
8.50069e-19
7.68372e-19
7.02192e-19
5.71634e-19
5.93048e-19
4.45239e-19
4.76396e-19
3.82913e-19
3.85766e-19
3.2175e-19
3.1496e-19
2.50137e-19
2.69938e-19
1.92045e-19
2.27864e-19
1.69799e-19
1.6537e-19
2.00708e-19
8.02025e-20
2.25658e-19
8.7222e-20
1.23582e-19
2.30011e-19
5.24199e-21
3.03511e-19
1.16096e-19
1.84586e-19
3.8671e-19
1.33964e-19
4.61273e-19
4.19835e-19
3.84244e-19
7.25005e-19
6.61061e-19
8.43342e-19
1.25033e-18
1.38119e-18
1.952e-18
2.69599e-18
3.42119e-18
1.22911e-17
1.29208e-17
1.00828e-17
2.6124e-17
1.21609e-17
7.95001e-18
6.23323e-18
4.70778e-18
3.83766e-18
3.15583e-18
2.5207e-18
2.19626e-18
2.16898e-18
2.04413e-18
1.80267e-18
1.48714e-18
1.2746e-18
1.09429e-18
1.02817e-18
8.87864e-19
8.26224e-19
7.47267e-19
6.86872e-19
5.58212e-19
5.7983e-19
4.36503e-19
4.66011e-19
3.76754e-19
3.78559e-19
3.17354e-19
3.09914e-19
2.47519e-19
2.66446e-19
1.90398e-19
2.24736e-19
1.69396e-19
1.61723e-19
2.00414e-19
7.894e-20
2.22941e-19
8.99037e-20
1.19413e-19
2.33767e-19
3.75985e-21
2.99667e-19
1.2019e-19
1.75667e-19
3.86649e-19
1.27927e-19
4.50389e-19
4.13941e-19
3.66361e-19
7.0549e-19
6.34961e-19
7.96959e-19
1.19188e-18
1.28293e-18
1.81048e-18
2.45238e-18
3.06391e-18
1.15645e-17
1.13673e-17
9.11912e-18
2.35374e-17
1.11819e-17
6.93248e-18
5.51878e-18
4.17638e-18
3.43438e-18
2.86892e-18
2.33151e-18
2.05344e-18
2.04206e-18
1.93415e-18
1.71736e-18
1.42431e-18
1.22774e-18
1.05723e-18
9.96304e-19
8.61365e-19
8.02508e-19
7.26089e-19
6.71657e-19
5.45079e-19
5.66476e-19
4.28326e-19
4.55407e-19
3.70664e-19
3.7114e-19
3.12669e-19
3.04537e-19
2.44796e-19
2.62468e-19
1.88808e-19
2.21155e-19
1.68939e-19
1.57716e-19
1.99524e-19
7.78334e-20
2.18861e-19
9.27734e-20
1.14266e-19
2.37493e-19
2.30489e-21
2.9398e-19
1.24078e-19
1.64522e-19
3.84077e-19
1.20443e-19
4.3502e-19
4.05191e-19
3.43591e-19
6.79996e-19
6.02903e-19
7.42429e-19
1.12385e-18
1.1762e-18
1.65471e-18
2.20508e-18
2.71136e-18
1.05628e-17
9.54248e-18
8.08073e-18
2.03941e-17
1.02061e-17
5.95711e-18
4.87379e-18
3.69973e-18
3.07172e-18
2.60493e-18
2.15674e-18
1.92139e-18
1.92323e-18
1.8301e-18
1.63617e-18
1.36435e-18
1.18274e-18
1.02172e-18
9.65482e-19
8.35762e-19
7.79352e-19
7.0523e-19
6.56681e-19
5.32446e-19
5.53148e-19
4.20778e-19
4.4483e-19
3.64761e-19
3.63701e-19
3.07834e-19
2.98963e-19
2.42021e-19
2.58084e-19
1.8731e-19
2.17223e-19
1.68412e-19
1.53524e-19
1.98072e-19
7.69475e-20
2.1362e-19
9.57596e-20
1.08311e-19
2.42058e-19
1.10896e-21
2.87787e-19
1.2783e-19
1.51824e-19
3.79354e-19
1.12246e-19
4.16078e-19
3.94572e-19
3.17664e-19
6.50408e-19
5.67531e-19
6.83466e-19
1.05085e-18
1.06787e-18
1.49423e-18
1.96786e-18
2.37651e-18
9.362e-18
7.65986e-18
6.98286e-18
1.70334e-17
9.21605e-18
5.0481e-18
4.2931e-18
3.278e-18
2.75028e-18
2.3651e-18
1.99658e-18
1.80043e-18
1.81305e-18
1.73272e-18
1.55973e-18
1.30764e-18
1.13991e-18
9.88066e-19
9.36029e-19
8.11334e-19
7.57059e-19
6.85017e-19
6.42044e-19
5.20462e-19
5.39981e-19
4.1385e-19
4.34457e-19
3.59119e-19
3.56401e-19
3.02999e-19
2.93319e-19
2.39255e-19
2.53409e-19
1.85916e-19
2.13074e-19
1.67815e-19
1.49329e-19
1.96138e-19
7.63424e-20
2.07507e-19
9.87877e-20
1.01768e-19
2.48758e-19
3.10172e-22
2.83244e-19
1.31579e-19
1.3828e-19
3.73003e-19
1.04034e-19
3.94782e-19
3.83084e-19
2.90246e-19
6.18585e-19
5.31239e-19
6.2337e-19
9.76834e-19
9.63454e-19
1.33709e-18
1.74951e-18
2.06725e-18
8.0648e-18
5.92024e-18
5.86199e-18
1.3744e-17
8.20359e-18
4.22715e-18
3.76932e-18
2.90828e-18
2.46818e-18
2.14924e-18
1.8504e-18
1.69013e-18
1.71157e-18
1.64228e-18
1.48822e-18
1.25434e-18
1.09935e-18
9.5643e-19
9.08112e-19
7.88227e-19
7.35808e-19
6.6569e-19
6.27821e-19
5.09215e-19
5.2708e-19
4.07495e-19
4.24392e-19
3.53776e-19
3.49354e-19
2.98279e-19
2.87715e-19
2.36561e-19
2.4857e-19
1.84635e-19
2.08832e-19
1.67169e-19
1.45248e-19
1.93868e-19
7.59615e-20
2.00962e-19
1.01506e-19
9.53743e-20
2.51744e-19
2.97463e-27
2.76469e-19
1.34721e-19
1.24595e-19
3.65486e-19
9.63547e-20
3.72163e-19
3.7152e-19
2.62705e-19
5.86054e-19
4.95857e-19
5.64591e-19
9.04941e-19
8.66246e-19
1.18861e-18
1.55456e-18
1.78726e-18
6.76314e-18
4.44125e-18
4.7705e-18
1.07465e-17
7.17728e-18
3.5091e-18
3.29556e-18
2.58605e-18
2.22222e-18
1.95629e-18
1.71724e-18
1.58971e-18
1.61847e-18
1.55869e-18
1.42162e-18
1.2044e-18
1.06109e-18
9.2681e-19
8.8178e-19
7.66488e-19
7.15679e-19
6.47405e-19
6.14061e-19
4.9875e-19
5.14575e-19
4.01656e-19
4.1473e-19
3.48742e-19
3.42622e-19
2.93755e-19
2.8224e-19
2.33985e-19
2.43685e-19
1.8347e-19
2.04604e-19
1.66508e-19
1.41354e-19
1.91421e-19
7.57255e-20
1.94369e-19
1.03605e-19
8.9707e-20
2.43696e-19
2.79507e-22
2.60861e-19
1.36787e-19
1.11311e-19
3.57232e-19
8.95898e-20
3.49021e-19
3.60418e-19
2.36046e-19
5.53837e-19
4.62609e-19
5.08739e-19
8.37044e-19
7.78239e-19
1.05195e-18
1.38357e-18
1.5383e-18
5.53514e-18
3.2803e-18
3.76139e-18
8.17387e-18
6.15818e-18
2.90093e-18
2.86652e-18
2.30587e-18
2.00874e-18
1.78489e-18
1.59602e-18
1.49823e-18
1.53317e-18
1.48165e-18
1.35974e-18
1.15777e-18
1.02501e-18
8.99135e-19
8.57006e-19
7.46084e-19
6.96678e-19
6.30237e-19
6.00794e-19
4.89064e-19
5.02528e-19
3.96274e-19
4.05496e-19
3.44012e-19
3.36236e-19
2.89481e-19
2.7696e-19
2.3156e-19
2.38859e-19
1.82413e-19
2.00487e-19
1.65848e-19
1.37726e-19
1.88878e-19
7.56999e-20
1.87817e-19
1.05383e-19
8.44859e-20
2.33072e-19
1.1398e-21
2.43623e-19
1.38635e-19
9.86825e-20
3.48565e-19
8.39563e-20
3.25959e-19
3.50091e-19
2.10936e-19
5.22649e-19
4.3219e-19
4.56743e-19
7.74145e-19
7.00049e-19
9.28461e-19
1.23518e-18
1.32043e-18
4.4342e-18
2.44074e-18
2.88155e-18
6.07655e-18
5.17499e-18
2.39916e-18
2.47877e-18
2.06231e-18
1.8239e-18
1.63335e-18
1.48569e-18
1.41468e-18
1.45502e-18
1.41075e-18
1.30229e-18
1.11419e-18
9.90978e-19
8.73297e-19
8.33739e-19
7.26947e-19
6.78761e-19
6.14204e-19
5.88035e-19
4.80127e-19
4.90989e-19
3.91297e-19
3.96703e-19
3.39575e-19
3.30209e-19
2.85479e-19
2.71921e-19
2.29301e-19
2.34169e-19
1.81454e-19
1.96547e-19
1.65202e-19
1.34411e-19
1.86305e-19
7.59364e-20
1.81365e-19
1.07154e-19
7.94597e-20
2.25304e-19
2.77891e-21
2.29743e-19
1.40804e-19
8.68865e-20
3.39687e-19
7.95757e-20
3.03395e-19
3.40689e-19
1.87779e-19
4.92773e-19
4.0491e-19
4.0898e-19
7.166e-19
6.31414e-19
8.17975e-19
1.10683e-18
1.13265e-18
3.4904e-18
1.88687e-18
2.16182e-18
4.4415e-18
4.25518e-18
1.99348e-18
2.13045e-18
1.84986e-18
1.66402e-18
1.49985e-18
1.38524e-18
1.3381e-18
1.38329e-18
1.34551e-18
1.24895e-18
1.07344e-18
9.58835e-19
8.49168e-19
8.11904e-19
7.08993e-19
6.61863e-19
5.99277e-19
5.75782e-19
4.71886e-19
4.79989e-19
3.86677e-19
3.88348e-19
3.35415e-19
3.2454e-19
2.81762e-19
2.67152e-19
2.27212e-19
2.29662e-19
1.80589e-19
1.92828e-19
1.6459e-19
1.31406e-19
1.83777e-19
7.63838e-20
1.75163e-19
1.08897e-19
7.48064e-20
2.19431e-19
4.99588e-21
2.17638e-19
1.43201e-19
7.61186e-20
3.30739e-19
7.64356e-20
2.81617e-19
3.32224e-19
1.66777e-19
4.64423e-19
3.80832e-19
3.65507e-19
6.64375e-19
5.71492e-19
7.19981e-19
9.95696e-19
9.7328e-19
2.71097e-18
1.56308e-18
1.61855e-18
3.22671e-18
3.42156e-18
1.66896e-18
1.82041e-18
1.66378e-18
1.52572e-18
1.3826e-18
1.29378e-18
1.2676e-18
1.31728e-18
1.28546e-18
1.19939e-18
1.03526e-18
9.28421e-19
8.2661e-19
7.91396e-19
6.92125e-19
6.4591e-19
5.85406e-19
5.64029e-19
4.64285e-19
4.69541e-19
3.82372e-19
3.80422e-19
3.31512e-19
3.19217e-19
2.78322e-19
2.62669e-19
2.25288e-19
2.25367e-19
1.79809e-19
1.89356e-19
1.64018e-19
1.28713e-19
1.81328e-19
7.70152e-20
1.69282e-19
1.10563e-19
7.06964e-20
2.14522e-19
7.57728e-21
2.06526e-19
1.45721e-19
6.64587e-20
3.21826e-19
7.44705e-20
2.60809e-19
3.24635e-19
1.48007e-19
4.37649e-19
3.59805e-19
3.26175e-19
6.17201e-19
5.19376e-19
6.33317e-19
8.99407e-19
8.39969e-19
2.08849e-18
1.4071e-18
1.25521e-18
2.35644e-18
2.69401e-18
1.40899e-18
1.54755e-18
1.4999e-18
1.40598e-18
1.27989e-18
1.21057e-18
1.20245e-18
1.25635e-18
1.23013e-18
1.1533e-18
9.99422e-19
8.99585e-19
8.0549e-19
7.72124e-19
6.76252e-19
6.30827e-19
5.7252e-19
5.52761e-19
4.57265e-19
4.59643e-19
3.78344e-19
3.72907e-19
3.27842e-19
3.14226e-19
2.75149e-19
2.5848e-19
2.23522e-19
2.21303e-19
1.79104e-19
1.86145e-19
1.63484e-19
1.26332e-19
1.78974e-19
7.78263e-20
1.63726e-19
1.12165e-19
6.71584e-20
2.1008e-19
1.04304e-20
1.9617e-19
1.48356e-19
5.78984e-20
3.13006e-19
7.35866e-20
2.41087e-19
3.17821e-19
1.31454e-19
4.1241e-19
3.41611e-19
2.9073e-19
5.7471e-19
4.74146e-19
5.56919e-19
8.15631e-19
7.29968e-19
1.60599e-18
1.36003e-18
1.06425e-18
1.75294e-18
2.08577e-18
1.1981e-18
1.31055e-18
1.35496e-18
1.30232e-18
1.19016e-18
1.13495e-18
1.14203e-18
1.19992e-18
1.17908e-18
1.11038e-18
9.65695e-19
8.72181e-19
7.85674e-19
7.5399e-19
6.61287e-19
6.16541e-19
5.60544e-19
5.4196e-19
4.50763e-19
4.50287e-19
3.74557e-19
3.65787e-19
3.24383e-19
3.0955e-19
2.72229e-19
2.54588e-19
2.21902e-19
2.17471e-19
1.78465e-19
1.832e-19
1.62985e-19
1.24256e-19
1.76726e-19
7.88039e-20
1.58502e-19
1.13728e-19
6.41597e-20
2.05826e-19
1.35241e-20
1.86482e-19
1.51079e-19
5.04143e-20
3.04319e-19
7.36643e-20
2.22541e-19
3.1166e-19
1.1705e-19
3.88645e-19
3.25976e-19
2.58906e-19
5.36443e-19
4.34952e-19
4.89693e-19
7.42625e-19
6.40869e-19
1.24245e-18
1.37004e-18
1.02925e-18
1.34366e-18
1.60153e-18
1.02384e-18
1.10727e-18
1.22632e-18
1.21264e-18
1.11204e-18
1.06637e-18
1.08583e-18
1.1475e-18
1.13191e-18
1.07036e-18
9.33867e-19
8.46069e-19
7.67043e-19
7.36903e-19
6.4715e-19
6.02983e-19
5.49403e-19
5.31604e-19
4.44726e-19
4.41454e-19
3.70988e-19
3.59033e-19
3.21118e-19
3.05169e-19
2.69549e-19
2.50992e-19
2.20419e-19
2.1387e-19
1.77886e-19
1.80519e-19
1.62522e-19
1.22478e-19
1.74594e-19
7.99277e-20
1.53627e-19
1.15257e-19
6.16674e-20
2.01725e-19
1.68298e-20
1.7743e-19
1.53844e-19
4.39743e-20
2.9583e-19
7.45784e-20
2.05238e-19
3.06067e-19
1.04692e-19
3.6634e-19
3.12633e-19
2.30473e-19
5.02032e-19
4.01121e-19
4.30768e-19
6.78936e-19
5.70169e-19
9.76507e-19
1.39497e-18
1.88252e-17
2.53112e-17
2.33736e-17
1.82397e-17
1.32418e-17
9.69599e-18
7.36105e-18
5.48278e-18
4.06775e-18
3.33876e-18
3.10301e-18
2.8067e-18
2.38056e-18
1.90645e-18
1.58205e-18
1.33299e-18
1.21684e-18
1.04726e-18
9.68553e-19
8.64629e-19
7.7415e-19
6.42736e-19
6.47381e-19
4.88934e-19
5.14657e-19
4.05695e-19
4.08527e-19
3.32868e-19
3.27435e-19
2.58209e-19
2.70994e-19
1.98186e-19
2.26235e-19
1.64349e-19
1.73783e-19
1.73325e-19
9.35524e-20
1.94494e-19
6.68216e-20
1.25785e-19
1.60655e-19
1.77347e-20
2.47642e-19
5.98848e-20
1.80452e-19
2.73242e-19
1.06181e-19
3.74621e-19
2.90638e-19
3.1253e-19
5.62956e-19
4.96227e-19
7.189e-19
1.04451e-18
1.29019e-18
1.9152e-18
3.0552e-18
4.87612e-18
1.13177e-17
1.39744e-17
1.97571e-17
2.58771e-17
2.39912e-17
1.86994e-17
1.34603e-17
9.82398e-18
7.44461e-18
5.53597e-18
4.09738e-18
3.35646e-18
3.11788e-18
2.81981e-18
2.39013e-18
1.91268e-18
1.58634e-18
1.33629e-18
1.22e-18
1.0498e-18
9.70355e-19
8.66931e-19
7.76047e-19
6.43469e-19
6.48963e-19
4.90175e-19
5.1526e-19
4.07007e-19
4.09146e-19
3.33867e-19
3.2817e-19
2.58819e-19
2.71934e-19
1.98614e-19
2.27135e-19
1.6521e-19
1.74026e-19
1.75572e-19
9.29051e-20
1.97136e-19
6.80317e-20
1.25763e-19
1.65621e-19
1.63655e-20
2.52618e-19
6.33011e-20
1.81356e-19
2.83018e-19
1.0823e-19
3.83715e-19
3.02807e-19
3.20822e-19
5.82928e-19
5.1724e-19
7.45388e-19
1.0884e-18
1.34665e-18
1.99857e-18
3.19343e-18
5.04828e-18
1.18597e-17
1.42889e-17
2.03219e-17
2.63754e-17
2.41808e-17
1.88524e-17
1.3515e-17
9.8637e-18
7.48515e-18
5.56875e-18
4.11718e-18
3.369e-18
3.13123e-18
2.83252e-18
2.3997e-18
1.91848e-18
1.59048e-18
1.33941e-18
1.22388e-18
1.05246e-18
9.72448e-19
8.69695e-19
7.78489e-19
6.43918e-19
6.51542e-19
4.91156e-19
5.16681e-19
4.08343e-19
4.10386e-19
3.35014e-19
3.29562e-19
2.59471e-19
2.73725e-19
1.99045e-19
2.28877e-19
1.66433e-19
1.74721e-19
1.79122e-19
9.20681e-20
2.01682e-19
6.98088e-20
1.26499e-19
1.73313e-19
1.47916e-20
2.61023e-19
6.85136e-20
1.84195e-19
2.97927e-19
1.12601e-19
3.98595e-19
3.21846e-19
3.34999e-19
6.13806e-19
5.49685e-19
7.85216e-19
1.15108e-18
1.4229e-18
2.10126e-18
3.34507e-18
5.23134e-18
1.2309e-17
1.46378e-17
1.99734e-17
2.61963e-17
2.36424e-17
1.84257e-17
1.32785e-17
9.72583e-18
7.41977e-18
5.53795e-18
4.09893e-18
3.35762e-18
3.12787e-18
2.8331e-18
2.40033e-18
1.91828e-18
1.59028e-18
1.33934e-18
1.22552e-18
1.05323e-18
9.72779e-19
8.71369e-19
7.80128e-19
6.43453e-19
6.53594e-19
4.91747e-19
5.17735e-19
4.09579e-19
4.1153e-19
3.36168e-19
3.30922e-19
2.60155e-19
2.7567e-19
1.9947e-19
2.30887e-19
1.6783e-19
1.75476e-19
1.83349e-19
9.10615e-20
2.0714e-19
7.19922e-20
1.27468e-19
1.82499e-19
1.31964e-20
2.70838e-19
7.50393e-20
1.8754e-19
3.1539e-19
1.18174e-19
4.15574e-19
3.44235e-19
3.5116e-19
6.48084e-19
5.86027e-19
8.2654e-19
1.21549e-18
1.49504e-18
2.18886e-18
3.44745e-18
5.28493e-18
1.24597e-17
1.46e-17
1.88164e-17
2.5611e-17
2.24905e-17
1.74716e-17
1.27748e-17
9.40769e-18
7.23427e-18
5.42972e-18
4.03014e-18
3.31092e-18
3.09646e-18
2.81143e-18
2.38495e-18
1.90726e-18
1.58232e-18
1.33338e-18
1.22231e-18
1.05011e-18
9.69663e-19
8.70163e-19
7.79573e-19
6.41327e-19
6.53899e-19
4.91336e-19
5.17839e-19
4.10105e-19
4.12116e-19
3.36917e-19
3.31852e-19
2.60583e-19
2.77375e-19
1.99718e-19
2.32752e-19
1.69143e-19
1.76022e-19
1.87619e-19
8.99282e-20
2.12536e-19
7.43316e-20
1.28297e-19
1.91739e-19
1.17934e-20
2.8018e-19
8.20349e-20
1.90464e-19
3.32526e-19
1.24042e-19
4.31064e-19
3.66216e-19
3.66108e-19
6.79107e-19
6.1961e-19
8.60627e-19
1.26794e-18
1.54856e-18
2.24249e-18
3.49193e-18
5.21216e-18
1.24151e-17
1.43303e-17
1.74661e-17
2.53239e-17
2.10865e-17
1.62546e-17
1.21205e-17
8.97038e-18
6.95356e-18
5.25394e-18
3.91567e-18
3.22966e-18
3.03529e-18
2.76489e-18
2.35104e-18
1.8833e-18
1.56507e-18
1.32026e-18
1.21304e-18
1.0421e-18
9.62209e-19
8.65009e-19
7.75877e-19
6.36983e-19
6.51729e-19
4.89328e-19
5.16595e-19
4.09479e-19
4.11829e-19
3.3697e-19
3.32056e-19
2.60546e-19
2.78521e-19
1.99606e-19
2.34133e-19
1.70155e-19
1.76122e-19
1.91454e-19
8.86808e-20
2.17311e-19
7.65452e-20
1.2886e-19
2.00057e-19
1.06829e-20
2.88014e-19
8.86335e-20
1.92643e-19
3.47113e-19
1.29517e-19
4.43447e-19
3.84938e-19
3.78553e-19
7.03198e-19
6.47023e-19
8.85029e-19
1.30525e-18
1.58113e-18
2.26748e-18
3.48842e-18
5.06962e-18
1.23872e-17
1.41366e-17
1.61355e-17
2.56322e-17
1.96249e-17
1.4945e-17
1.13733e-17
8.44784e-18
6.59757e-18
5.02404e-18
3.76291e-18
3.11903e-18
2.94766e-18
2.69527e-18
2.29937e-18
1.84681e-18
1.53876e-18
1.30018e-18
1.19769e-18
1.02907e-18
9.50444e-19
8.55693e-19
7.68824e-19
6.30242e-19
6.46785e-19
4.85371e-19
5.1374e-19
4.07521e-19
4.10362e-19
3.36201e-19
3.31335e-19
2.59929e-19
2.78894e-19
1.99066e-19
2.34819e-19
1.70756e-19
1.75675e-19
1.94578e-19
8.7318e-20
2.21104e-19
7.84296e-20
1.29179e-19
2.06965e-19
9.85342e-21
2.94116e-19
9.42505e-20
1.94197e-19
3.58556e-19
1.3409e-19
4.52718e-19
3.99323e-19
3.88433e-19
7.20386e-19
6.67314e-19
9.00656e-19
1.32808e-18
1.59432e-18
2.27002e-18
3.44496e-18
4.87777e-18
1.24508e-17
1.41771e-17
1.49031e-17
2.64847e-17
1.8181e-17
1.36316e-17
1.05493e-17
7.85877e-18
6.18118e-18
4.75001e-18
3.57987e-18
2.98511e-18
2.83865e-18
2.60678e-18
2.23281e-18
1.79939e-18
1.50444e-18
1.27387e-18
1.1769e-18
1.01165e-18
9.34936e-19
8.42669e-19
7.58744e-19
6.21251e-19
6.3924e-19
4.79512e-19
5.09183e-19
4.04277e-19
4.07627e-19
3.34624e-19
3.29656e-19
2.58737e-19
2.78441e-19
1.98124e-19
2.34726e-19
1.7096e-19
1.74655e-19
1.96927e-19
8.58662e-20
2.23953e-19
7.99709e-20
1.29268e-19
2.12597e-19
9.19953e-21
2.98803e-19
9.88398e-20
1.95266e-19
3.67277e-19
1.37552e-19
4.59911e-19
4.09699e-19
3.96075e-19
7.32274e-19
6.81232e-19
9.09057e-19
1.33901e-18
1.59025e-18
2.25482e-18
3.36751e-18
4.64727e-18
1.26022e-17
1.44042e-17
1.37938e-17
2.75622e-17
1.67913e-17
1.23756e-17
9.66835e-18
7.22492e-18
5.72172e-18
4.44439e-18
3.37597e-18
2.83477e-18
2.71428e-18
2.50425e-18
2.15501e-18
1.7435e-18
1.46367e-18
1.24242e-18
1.15158e-18
9.90611e-19
9.16442e-19
8.26697e-19
7.46272e-19
6.10405e-19
6.29545e-19
4.72059e-19
5.02964e-19
3.99921e-19
4.03645e-19
3.32321e-19
3.27077e-19
2.57068e-19
2.7723e-19
1.96869e-19
2.33898e-19
1.70875e-19
1.73081e-19
1.98639e-19
8.43616e-20
2.25943e-19
8.13314e-20
1.29036e-19
2.17403e-19
8.54754e-21
3.0242e-19
1.02736e-19
1.95613e-19
3.74388e-19
1.39631e-19
4.65387e-19
4.1693e-19
4.0102e-19
7.39867e-19
6.88681e-19
9.09924e-19
1.33897e-18
1.56933e-18
2.22064e-18
3.25984e-18
4.3871e-18
1.27746e-17
1.46336e-17
1.28063e-17
2.84501e-17
1.54882e-17
1.1198e-17
8.76355e-18
6.56995e-18
5.23939e-18
4.12095e-18
3.16067e-18
2.67519e-18
2.58036e-18
2.39257e-18
2.06987e-18
1.68189e-18
1.41844e-18
1.20725e-18
1.12285e-18
9.66773e-19
8.95703e-19
8.08567e-19
7.32227e-19
5.98209e-19
6.18297e-19
4.63515e-19
4.95235e-19
3.94757e-19
3.98529e-19
3.294e-19
3.23698e-19
2.55045e-19
2.75355e-19
1.95405e-19
2.324e-19
1.70633e-19
1.70963e-19
1.99853e-19
8.28349e-20
2.27054e-19
8.28022e-20
1.28243e-19
2.21796e-19
7.73109e-21
3.04997e-19
1.06412e-19
1.94512e-19
3.80374e-19
1.39968e-19
4.68414e-19
4.21374e-19
4.01724e-19
7.42314e-19
6.8887e-19
9.00941e-19
1.32594e-18
1.52851e-18
2.16174e-18
3.11168e-18
4.09543e-18
1.28692e-17
1.45789e-17
1.18981e-17
2.86483e-17
1.42913e-17
1.008e-17
7.87224e-18
5.91952e-18
4.75467e-18
3.793e-18
2.94325e-18
2.51304e-18
2.44238e-18
2.27641e-18
1.98092e-18
1.61718e-18
1.3707e-18
1.16988e-18
1.09186e-18
9.411e-19
8.73306e-19
7.88927e-19
7.17329e-19
5.85176e-19
6.0602e-19
4.54453e-19
4.86264e-19
3.89029e-19
3.92464e-19
3.25922e-19
3.19639e-19
2.52784e-19
2.72895e-19
1.9383e-19
2.30287e-19
1.70332e-19
1.68288e-19
2.00645e-19
8.13163e-20
2.27116e-19
8.45696e-20
1.26452e-19
2.25877e-19
6.64698e-21
3.05867e-19
1.10136e-19
1.91152e-19
3.84889e-19
1.38192e-19
4.67542e-19
4.22617e-19
3.96596e-19
7.38008e-19
6.80197e-19
8.79179e-19
1.29718e-18
1.46586e-18
2.07303e-18
2.92257e-18
3.77216e-18
1.2749e-17
1.40374e-17
1.10197e-17
2.78968e-17
1.31984e-17
9.00497e-18
7.02433e-18
5.29492e-18
4.28492e-18
3.47149e-18
2.73085e-18
2.35375e-18
2.30487e-18
2.15952e-18
1.89106e-18
1.55158e-18
1.32208e-18
1.13159e-18
1.05969e-18
9.14396e-19
8.49862e-19
7.68313e-19
7.02048e-19
5.71764e-19
5.93114e-19
4.45385e-19
4.76378e-19
3.82987e-19
3.85673e-19
3.21953e-19
3.15008e-19
2.50346e-19
2.69887e-19
1.9221e-19
2.2762e-19
1.70009e-19
1.65061e-19
2.00967e-19
7.98414e-20
2.25915e-19
8.66945e-20
1.23428e-19
2.29431e-19
5.30638e-21
3.04437e-19
1.1387e-19
1.84925e-19
3.87321e-19
1.34168e-19
4.61739e-19
4.20272e-19
3.84943e-19
7.25897e-19
6.62216e-19
8.44263e-19
1.25226e-18
1.38282e-18
1.95461e-18
2.6994e-18
3.42541e-18
1.23344e-17
1.29478e-17
1.01142e-17
2.61515e-17
1.2179e-17
7.95792e-18
6.23837e-18
4.71198e-18
3.84401e-18
3.16436e-18
2.52844e-18
2.20132e-18
2.17142e-18
2.04495e-18
1.80264e-18
1.4867e-18
1.27386e-18
1.09348e-18
1.02729e-18
8.87446e-19
8.25983e-19
7.47208e-19
6.86696e-19
5.5835e-19
5.7987e-19
4.36671e-19
4.65966e-19
3.76843e-19
3.78426e-19
3.17576e-19
3.09925e-19
2.47762e-19
2.66355e-19
1.90603e-19
2.24434e-19
1.69655e-19
1.61341e-19
2.00731e-19
7.84674e-20
2.23298e-19
8.9108e-20
1.19167e-19
2.32112e-19
3.82912e-21
3.00377e-19
1.17468e-19
1.75939e-19
3.87242e-19
1.28129e-19
4.50812e-19
4.14352e-19
3.67001e-19
7.0631e-19
6.36022e-19
7.97802e-19
1.1936e-18
1.28439e-18
1.81267e-18
2.45532e-18
3.06764e-18
1.15991e-17
1.13918e-17
9.14634e-18
2.35623e-17
1.11969e-17
6.9386e-18
5.52254e-18
4.17982e-18
3.44007e-18
2.877e-18
2.339e-18
2.05836e-18
2.04442e-18
1.93494e-18
1.7173e-18
1.42388e-18
1.22698e-18
1.05641e-18
9.95412e-19
8.60939e-19
8.02237e-19
7.26032e-19
6.71452e-19
5.45223e-19
5.66493e-19
4.28512e-19
4.55337e-19
3.70764e-19
3.70971e-19
3.12905e-19
3.04512e-19
2.45068e-19
2.6234e-19
1.89051e-19
2.20805e-19
1.69241e-19
1.57273e-19
1.99896e-19
7.72615e-20
2.1931e-19
9.1688e-20
1.13891e-19
2.33693e-19
2.4003e-21
2.93863e-19
1.20834e-19
1.647e-19
3.84647e-19
1.2064e-19
4.35388e-19
4.05567e-19
3.44164e-19
6.80736e-19
6.03852e-19
7.43175e-19
1.12533e-18
1.17745e-18
1.65645e-18
2.20752e-18
2.71452e-18
1.05894e-17
9.56397e-18
8.10379e-18
2.04156e-17
1.02186e-17
5.96177e-18
4.87648e-18
3.70255e-18
3.0768e-18
2.61254e-18
2.16396e-18
1.92618e-18
1.92553e-18
1.83085e-18
1.63609e-18
1.36392e-18
1.18198e-18
1.0209e-18
9.64576e-19
8.35331e-19
7.79056e-19
7.05175e-19
6.56451e-19
5.32596e-19
5.53143e-19
4.2098e-19
4.44739e-19
3.6487e-19
3.63503e-19
3.08081e-19
2.98908e-19
2.42317e-19
2.57925e-19
1.87584e-19
2.16835e-19
1.68749e-19
1.53034e-19
1.98482e-19
7.62818e-20
2.14177e-19
9.43127e-20
1.07938e-19
2.34113e-19
1.2139e-21
2.85268e-19
1.23976e-19
1.5194e-19
3.79888e-19
1.12428e-19
4.16397e-19
3.94908e-19
3.18166e-19
6.51062e-19
5.68361e-19
6.84116e-19
1.05209e-18
1.06894e-18
1.49553e-18
1.96981e-18
2.37907e-18
9.38169e-18
7.67879e-18
7.00223e-18
1.70514e-17
9.22659e-18
5.05154e-18
4.29499e-18
3.28036e-18
2.75483e-18
2.37225e-18
2.00351e-18
1.80507e-18
1.81529e-18
1.73344e-18
1.55962e-18
1.3072e-18
1.13915e-18
9.87254e-19
9.35117e-19
8.10903e-19
7.56742e-19
6.84967e-19
6.41794e-19
5.20614e-19
5.39959e-19
4.14063e-19
4.34351e-19
3.59235e-19
3.56179e-19
3.03252e-19
2.93237e-19
2.3957e-19
2.53225e-19
1.86216e-19
2.12657e-19
1.6818e-19
1.48795e-19
1.96592e-19
7.55671e-20
2.08213e-19
9.68952e-20
1.01677e-19
2.33419e-19
4.31748e-22
2.75206e-19
1.26961e-19
1.384e-19
3.73465e-19