/*--------------------------------*- C++ -*----------------------------------*\
| =========                 |                                                 |
| \\      /  F ield         | OpenFOAM: The Open Source CFD Toolbox           |
|  \\    /   O peration     | Version:  2312                                  |
|   \\  /    A nd           | Website:  www.openfoam.com                      |
|    \\/     M anipulation  |                                                 |
\*---------------------------------------------------------------------------*/
FoamFile
{
    version     2.0;
    format      ascii;
    arch        "LSB;label=32;scalar=64";
    class       volScalarField;
    location    "520";
    object      nut;
}
// * * * * * * * * * * * * * * * * * * * * * * * * * * * * * * * * * * * * * //

dimensions      [0 2 -1 0 0 0 0];

internalField   nonuniform List<scalar> 
144000
(
4.78003e-28
9.07648e-29
2.27576e-29
6.527e-28
1.72461e-28
6.18167e-32
6.06135e-29
1.48309e-29
4.11505e-29
2.54335e-29
3.76418e-29
2.79296e-29
4.10345e-29
3.44028e-29
3.81748e-29
3.10305e-29
4.4707e-29
4.54764e-29
4.44083e-29
4.14273e-29
5.07368e-29
5.14441e-29
5.23584e-29
5.04737e-29
5.12432e-29
5.10482e-29
5.75399e-29
5.72359e-29
5.82862e-29
5.59521e-29
5.38176e-29
5.10031e-29
6.01161e-29
5.86655e-29
5.52535e-29
4.92391e-29
4.60444e-29
4.15773e-29
4.11014e-29
3.26432e-29
3.21306e-29
2.27884e-29
4.40849e-29
2.9559e-29
2.52118e-29
1.97732e-29
1.05296e-29
5.28782e-30
1.74649e-30
4.10082e-31
1.21266e-31
2.70785e-30
2.22034e-29
7.84007e-29
3.77308e-28
1.42226e-28
2.13026e-27
1.19145e-25
1.9424e-25
1.66407e-26
1.0642e-25
4.46441e-27
3.88254e-27
6.65926e-27
1.34717e-28
2.51426e-30
1.13205e-28
3.9334e-29
5.92909e-29
7.93219e-29
5.65151e-29
7.65361e-29
6.76862e-29
8.77911e-29
7.01287e-29
7.16986e-29
8.04502e-29
1.06482e-28
8.75866e-29
8.80694e-29
9.73775e-29
1.13901e-28
1.02538e-28
1.07829e-28
1.00292e-28
1.07049e-28
1.1106e-28
1.21771e-28
1.13947e-28
1.15517e-28
1.06076e-28
1.01581e-28
1.13989e-28
1.20341e-28
1.07501e-28
9.48017e-29
8.84223e-29
7.79243e-29
7.81774e-29
6.62048e-29
6.44772e-29
5.42695e-29
9.34739e-29
4.38293e-29
5.35826e-29
3.52422e-29
2.23899e-29
7.11754e-30
3.62321e-30
3.23111e-31
1.47175e-31
1.0308e-29
3.90822e-29
2.39202e-28
6.67741e-28
6.67111e-28
2.7081e-27
2.88807e-25
1.13397e-24
1.106e-26
3.10988e-25
3.30906e-26
2.33748e-26
7.37669e-27
4.75741e-28
2.32517e-30
1.46037e-28
6.41112e-29
8.31668e-29
1.04265e-28
8.83841e-29
9.70173e-29
1.05453e-28
1.12187e-28
1.05194e-28
9.68866e-29
1.21112e-28
1.39003e-28
1.29439e-28
1.1993e-28
1.42774e-28
1.52117e-28
1.48478e-28
1.46861e-28
1.43494e-28
1.48275e-28
1.58269e-28
1.65786e-28
1.61346e-28
1.58446e-28
1.48078e-28
1.42991e-28
1.59124e-28
1.62998e-28
1.49089e-28
1.30189e-28
1.22366e-28
1.0899e-28
1.1065e-28
9.47793e-29
9.93594e-29
7.73727e-29
1.3864e-28
5.54992e-29
8.29407e-29
4.69645e-29
3.23048e-29
1.04936e-29
5.14878e-30
7.24054e-31
2.84531e-31
1.06195e-29
6.35407e-29
2.84841e-28
9.73951e-28
5.93099e-28
8.93785e-27
4.85052e-25
1.19209e-24
9.85123e-26
1.26693e-24
3.49178e-25
8.65063e-26
3.31606e-26
5.25408e-28
4.13208e-30
1.46925e-28
7.21954e-29
8.56221e-29
1.03638e-28
9.27692e-29
9.53881e-29
1.10461e-28
1.10782e-28
1.09877e-28
9.50569e-29
1.24656e-28
1.382e-28
1.33425e-28
1.17608e-28
1.46904e-28
1.49873e-28
1.52862e-28
1.4395e-28
1.47073e-28
1.45881e-28
1.60564e-28
1.64322e-28
1.63716e-28
1.55798e-28
1.50219e-28
1.40697e-28
1.59775e-28
1.62124e-28
1.50226e-28
1.2891e-28
1.251e-28
1.10004e-28
1.16757e-28
9.92014e-29
1.05855e-28
9.12258e-29
1.34945e-28
5.51248e-29
9.34547e-29
4.54379e-29
3.67985e-29
1.02335e-29
6.78857e-30
1.06679e-30
1.1781e-31
1.14586e-29
5.25353e-29
2.67187e-28
8.22629e-28
5.1509e-28
1.14127e-26
7.32298e-25
1.73121e-24
5.62216e-25
2.62579e-24
1.73576e-24
1.45965e-25
1.15053e-25
1.19832e-27
1.07067e-29
1.62066e-28
8.54228e-29
8.68216e-29
1.10601e-28
9.15654e-29
1.00637e-28
1.11677e-28
1.15339e-28
1.11492e-28
9.68677e-29
1.26815e-28
1.42645e-28
1.35317e-28
1.17993e-28
1.50646e-28
1.51372e-28
1.5634e-28
1.43432e-28
1.50402e-28
1.45556e-28
1.64278e-28
1.65495e-28
1.66503e-28
1.56064e-28
1.5322e-28
1.40761e-28
1.63984e-28
1.65914e-28
1.5389e-28
1.32222e-28
1.30931e-28
1.15902e-28
1.2513e-28
1.05271e-28
1.10348e-28
9.23116e-29
1.2676e-28
6.39529e-29
1.02365e-28
4.74789e-29
4.14594e-29
1.13483e-29
9.33378e-30
2.04357e-30
6.8987e-32
1.13971e-29
4.16571e-29
2.42718e-28
6.41382e-28
3.90808e-28
1.65885e-26
1.19034e-24
2.33397e-24
2.36202e-24
3.8218e-24
5.31104e-24
1.63479e-25
2.88449e-25
3.13557e-27
2.88907e-29
1.95161e-28
1.02526e-28
9.46963e-29
1.20093e-28
9.24994e-29
1.08223e-28
1.15325e-28
1.23134e-28
1.14938e-28
1.02026e-28
1.32972e-28
1.51869e-28
1.3967e-28
1.23191e-28
1.5839e-28
1.58609e-28
1.63551e-28
1.47949e-28
1.58101e-28
1.5064e-28
1.73704e-28
1.72709e-28
1.75163e-28
1.621e-28
1.619e-28
1.4714e-28
1.76432e-28
1.77163e-28
1.64859e-28
1.42289e-28
1.43393e-28
1.27951e-28
1.37407e-28
1.12123e-28
1.11778e-28
1.01972e-28
1.28343e-28
8.10025e-29
1.14128e-28
5.49598e-29
4.8006e-29
1.4878e-29
1.38184e-29
4.48937e-30
2.79072e-31
1.14741e-29
3.14384e-29
2.10422e-28
4.49138e-28
2.487e-28
2.45699e-26
1.9175e-24
2.94841e-24
6.77713e-24
4.56355e-24
1.23504e-23
1.38539e-25
5.89982e-25
7.77026e-27
6.39035e-29
2.44121e-28
1.21957e-28
1.08263e-28
1.28455e-28
9.66712e-29
1.14604e-28
1.21914e-28
1.30723e-28
1.1997e-28
1.08313e-28
1.42389e-28
1.62387e-28
1.45611e-28
1.30782e-28
1.68672e-28
1.68402e-28
1.72293e-28
1.55058e-28
1.68139e-28
1.59151e-28
1.86793e-28
1.82886e-28
1.86883e-28
1.71562e-28
1.7425e-28
1.5813e-28
1.94552e-28
1.92521e-28
1.80311e-28
1.56301e-28
1.60414e-28
1.44012e-28
1.52457e-28
1.2049e-28
1.14638e-28
1.05607e-28
1.34443e-28
1.07494e-28
1.31416e-28
6.78452e-29
5.74732e-29
2.21131e-29
2.21636e-29
1.04783e-29
1.75965e-30
1.29907e-29
2.53135e-29
1.70441e-28
2.85683e-28
1.51132e-28
3.30667e-26
2.9507e-24
3.8422e-24
1.50883e-23
4.67735e-24
2.36922e-23
9.07655e-26
1.03751e-24
1.73988e-26
1.1534e-28
3.07692e-28
1.42255e-28
1.24657e-28
1.36896e-28
1.02805e-28
1.19756e-28
1.30594e-28
1.37766e-28
1.26451e-28
1.14801e-28
1.53799e-28
1.72988e-28
1.52588e-28
1.39114e-28
1.80361e-28
1.79505e-28
1.81799e-28
1.63622e-28
1.7973e-28
1.69601e-28
2.01346e-28
1.9517e-28
2.00706e-28
1.83106e-28
1.89184e-28
1.71852e-28
2.15957e-28
2.10871e-28
1.99034e-28
1.73406e-28
1.81881e-28
1.64282e-28
1.71307e-28
1.30986e-28
1.19992e-28
1.17887e-28
1.42656e-28
1.42708e-28
1.56925e-28
8.78491e-29
7.21072e-29
3.59374e-29
3.80821e-29
2.49087e-29
8.39568e-30
2.1873e-29
3.12766e-29
1.4685e-28
2.20536e-28
2.4064e-28
4.19729e-26
4.32747e-24
5.15864e-24
2.76895e-23
4.4084e-24
4.00743e-23
4.65943e-26
1.64301e-24
3.63122e-26
1.87619e-28
3.93959e-28
1.58981e-28
1.41823e-28
1.46913e-28
1.0988e-28
1.24589e-28
1.41345e-28
1.4448e-28
1.34186e-28
1.21759e-28
1.67972e-28
1.83488e-28
1.60702e-28
1.48028e-28
1.94484e-28
1.91356e-28
1.9205e-28
1.73531e-28
1.92884e-28
1.81812e-28
2.18423e-28
2.09058e-28
2.1586e-28
1.96986e-28
2.06464e-28
1.88428e-28
2.41549e-28
2.32297e-28
2.2104e-28
1.94946e-28
2.09852e-28
1.92021e-28
1.99857e-28
1.51653e-28
1.39206e-28
1.45031e-28
1.41545e-28
1.93716e-28
1.95622e-28
1.18983e-28
9.55949e-29
6.17961e-29
6.98526e-29
5.83322e-29
3.13937e-29
5.47064e-29
7.56328e-29
1.91272e-28
4.03061e-28
1.02344e-27
4.86396e-26
6.0926e-24
7.69941e-24
4.47397e-23
3.90017e-24
6.15079e-23
2.7935e-26
2.37719e-24
7.05567e-26
2.8871e-28
5.13795e-28
1.69485e-28
1.59578e-28
1.59216e-28
1.17531e-28
1.29695e-28
1.53752e-28
1.51293e-28
1.43616e-28
1.29e-28
1.84263e-28
1.93924e-28
1.70341e-28
1.57305e-28
2.10641e-28
2.03752e-28
2.03846e-28
1.84368e-28
2.0817e-28
1.95455e-28
2.37058e-28
2.24696e-28
2.33196e-28
2.12748e-28
2.26599e-28
2.07816e-28
2.70627e-28
2.57732e-28
2.4801e-28
2.22478e-28
2.47629e-28
2.31755e-28
2.44696e-28
1.92672e-28
2.00423e-28
1.43643e-28
1.2476e-28
2.63139e-28
2.53652e-28
1.68285e-28
1.34371e-28
1.09787e-28
1.33267e-28
1.32105e-28
9.9501e-29
1.55913e-28
2.45966e-28
4.46224e-28
1.34469e-27
4.21961e-27
5.41184e-26
8.31453e-24
1.20559e-23
6.52418e-23
3.69734e-24
8.79603e-23
3.97948e-26
3.20971e-24
1.28481e-25
4.49845e-28
6.92026e-28
1.69694e-28
1.77477e-28
1.74048e-28
1.2561e-28
1.35138e-28
1.67941e-28
1.58283e-28
1.5421e-28
1.36973e-28
2.03035e-28
2.04259e-28
1.81256e-28
1.67157e-28
2.2949e-28
2.16227e-28
2.17021e-28
1.96143e-28
2.25497e-28
2.10472e-28
2.58505e-28
2.41386e-28
2.5242e-28
2.30791e-28
2.4979e-28
2.30629e-28
3.04808e-28
2.87397e-28
2.80594e-28
2.57323e-28
2.96797e-28
2.84222e-28
3.04257e-28
2.48837e-28
2.60693e-28
1.70257e-28
1.32554e-28
3.18784e-28
3.61125e-28
2.39046e-28
2.00715e-28
1.95648e-28
2.55201e-28
2.86888e-28
2.75349e-28
4.34998e-28
7.62063e-28
1.30219e-27
4.37949e-27
1.32863e-26
5.62739e-26
1.11845e-23
2.03144e-23
8.80914e-23
3.79145e-24
1.189e-22
1.33766e-25
4.10216e-24
2.20704e-25
7.66317e-28
9.21634e-28
1.59957e-28
1.94299e-28
1.93345e-28
1.33034e-28
1.41804e-28
1.82637e-28
1.66464e-28
1.65592e-28
1.45844e-28
2.22968e-28
2.15094e-28
1.93067e-28
1.77723e-28
2.49908e-28
2.29161e-28
2.31627e-28
2.0886e-28
2.45087e-28
2.26699e-28
2.81322e-28
2.5958e-28
2.74607e-28
2.50908e-28
2.76685e-28
2.56742e-28
3.43671e-28
3.22265e-28
3.20203e-28
3.00492e-28
3.59302e-28
3.50409e-28
3.79631e-28
3.3481e-28
3.73921e-28
2.60928e-28
1.31549e-28
3.78916e-28
5.2726e-28
3.4407e-28
3.13332e-28
3.44956e-28
4.77917e-28
5.93097e-28
6.78676e-28
1.10464e-27
2.06306e-27
3.57534e-27
1.19731e-26
3.34915e-26
5.8386e-26
1.50885e-23
3.34991e-23
1.11247e-22
5.20857e-24
1.53529e-22
3.60169e-25
5.00932e-24
3.53444e-25
1.46523e-27
1.24394e-27
1.36533e-28
2.11092e-28
2.17075e-28
1.39678e-28
1.49565e-28
1.97961e-28
1.75857e-28
1.76739e-28
1.5601e-28
2.4466e-28
2.26288e-28
2.05159e-28
1.89292e-28
2.72609e-28
2.42367e-28
2.46895e-28
2.22949e-28
2.66396e-28
2.44113e-28
3.07309e-28
2.78991e-28
2.98867e-28
2.74049e-28
3.07266e-28
2.86801e-28
3.9035e-28
3.6361e-28
3.69655e-28
3.59556e-28
4.52093e-28
4.66713e-28
5.67549e-28
7.15191e-28
1.38582e-27
7.02406e-28
1.53445e-29
6.89295e-28
6.28784e-28
5.56755e-28
4.76992e-28
6.11068e-28
8.72563e-28
1.16595e-27
1.50002e-27
2.52654e-27
4.86347e-27
8.58939e-27
2.75325e-26
7.03681e-26
5.86551e-26
2.04583e-23
5.66196e-23
1.32777e-22
8.55596e-24
1.94938e-22
7.5996e-25
5.97651e-24
5.34661e-25
3.03972e-27
1.64836e-27
1.03844e-28
2.27979e-28
2.45693e-28
1.45697e-28
1.58135e-28
2.13795e-28
1.86153e-28
1.88677e-28
1.67076e-28
2.66623e-28
2.38218e-28
2.17921e-28
2.01858e-28
2.96063e-28
2.56301e-28
2.63411e-28
2.38106e-28
2.89901e-28
2.62827e-28
3.34719e-28
3.00469e-28
3.26288e-28
2.99795e-28
3.42566e-28
3.2111e-28
4.43394e-28
4.13093e-28
4.31537e-28
4.36848e-28
5.82187e-28
6.46311e-28
9.20106e-28
1.65303e-27
2.82647e-27
9.18794e-29
3.199e-29
8.21552e-28
7.71438e-28
9.07422e-28
7.21831e-28
1.05264e-27
1.5412e-27
2.17018e-27
3.0315e-27
5.21229e-27
1.01879e-26
1.81335e-26
5.55108e-26
1.30415e-25
5.88108e-26
2.77453e-23
9.14499e-23
1.50577e-22
1.55973e-23
2.38855e-22
1.31575e-24
7.06434e-24
7.58734e-25
6.25731e-27
2.19517e-27
6.68695e-29
2.49525e-28
2.76177e-28
1.5254e-28
1.66012e-28
2.31953e-28
1.96176e-28
2.01532e-28
1.78771e-28
2.90319e-28
2.50027e-28
2.31371e-28
2.15313e-28
3.21538e-28
2.7032e-28
2.81061e-28
2.54702e-28
3.1518e-28
2.82941e-28
3.65153e-28
3.23424e-28
3.56153e-28
3.28788e-28
3.81594e-28
3.5915e-28
5.01634e-28
4.63839e-28
4.91053e-28
5.01333e-28
6.64577e-28
6.94939e-28
9.4148e-28
1.55445e-27
1.22279e-28
2.2985e-27
4.63823e-27
1.16775e-28
1.72917e-27
1.12023e-27
1.21791e-27
1.66077e-27
2.65664e-27
3.79492e-27
5.64576e-27
9.82181e-27
1.92138e-26
3.42897e-26
9.98784e-26
2.17929e-25
5.77204e-26
3.75433e-23
1.44394e-22
1.60461e-22
2.67843e-23
2.81226e-22
2.25086e-24
8.59445e-24
1.01136e-24
1.29397e-26
2.71449e-27
3.73148e-29
2.71739e-28
3.12626e-28
1.57888e-28
1.7495e-28
2.50583e-28
2.0715e-28
2.15252e-28
1.91213e-28
3.13976e-28
2.62637e-28
2.45447e-28
2.29857e-28
3.47414e-28
2.85206e-28
3.00206e-28
2.72663e-28
3.42705e-28
3.04578e-28
3.96428e-28
3.48664e-28
3.89966e-28
3.60675e-28
4.25727e-28
4.02061e-28
5.67081e-28
5.26062e-28
5.71601e-28
6.05247e-28
8.50143e-28
9.80991e-28
1.80122e-27
4.66938e-27
9.70142e-27
8.03512e-27
3.92858e-31
2.93655e-28
2.02445e-27
1.77791e-27
1.80961e-27
2.6292e-27
4.31044e-27
6.28535e-27
9.74256e-27
1.69565e-26
3.2995e-26
5.83145e-26
1.62033e-25
3.27436e-25
6.3731e-26
5.16443e-23
2.17183e-22
1.66011e-22
4.87619e-23
3.3156e-22
3.11672e-24
1.04864e-23
1.26898e-24
2.63127e-26
3.07927e-27
2.06435e-29
2.97548e-28
3.54335e-28
1.61499e-28
1.84904e-28
2.70184e-28
2.1906e-28
2.28447e-28
2.04694e-28
3.39451e-28
2.75287e-28
2.59695e-28
2.45502e-28
3.75534e-28
3.0042e-28
3.19958e-28
2.92639e-28
3.71562e-28
3.27534e-28
4.31222e-28
3.75651e-28
4.26053e-28
3.96919e-28
4.74224e-28
4.50827e-28
6.45881e-28
6.03383e-28
6.82274e-28
7.72623e-28
1.1995e-27
1.66632e-27
4.19374e-27
1.62305e-26
1.36585e-25
3.12242e-28
2.15007e-26
1.3874e-27
1.80665e-27
2.98548e-27
2.46023e-27
4.12084e-27
6.58878e-27
9.88368e-27
1.55767e-26
2.71655e-26
5.2026e-26
9.08049e-26
2.41149e-25
4.53044e-25
7.75786e-26
7.0871e-23
3.19373e-22
1.64425e-22
8.46494e-23
4.01222e-22
3.71044e-24
1.32118e-23
1.50927e-24
5.06756e-26
3.21795e-27
1.80898e-29
3.32297e-28
3.99783e-28
1.63153e-28
1.96505e-28
2.89864e-28
2.32016e-28
2.42352e-28
2.19118e-28
3.64281e-28
2.89143e-28
2.74665e-28
2.62531e-28
4.03564e-28
3.16963e-28
3.41107e-28
3.1407e-28
4.0243e-28
3.51945e-28
4.6712e-28
4.05219e-28
4.64937e-28
4.3538e-28
5.2579e-28
4.99846e-28
7.19344e-28
6.6613e-28
7.50829e-28
8.29074e-28
1.20179e-27
1.41763e-27
2.64681e-27
6.43791e-27
1.52641e-26
9.71361e-27
2.28116e-30
3.61474e-28
4.02793e-27
3.25916e-27
3.81627e-27
5.84531e-27
9.80937e-27
1.4538e-26
2.34161e-26
4.03491e-26
7.62181e-26
1.30546e-25
3.34947e-25
5.89212e-25
1.05328e-25
9.57184e-23
4.48027e-22
1.57671e-22
1.40286e-22
4.77307e-22
3.97971e-24
1.70749e-23
1.66371e-24
8.84033e-26
3.17881e-27
3.71676e-29
3.93568e-28
4.37768e-28
1.65956e-28
2.07115e-28
3.13026e-28
2.43818e-28
2.57575e-28
2.3383e-28
3.91153e-28
3.02529e-28
2.90628e-28
2.80473e-28
4.33596e-28
3.33528e-28
3.63581e-28
3.37143e-28
4.34712e-28
3.77704e-28
5.06168e-28
4.3643e-28
5.06017e-28
4.77625e-28
5.80366e-28
5.52967e-28
7.99338e-28
7.3336e-28
8.25683e-28
8.95881e-28
1.22385e-27
1.25398e-27
1.57795e-27
1.92577e-27
3.43258e-29
4.24361e-27
4.84229e-27
1.21443e-27
4.96593e-27
4.35297e-27
5.17984e-27
8.25784e-27
1.36478e-26
2.03697e-26
3.28128e-26
5.60935e-26
1.03676e-25
1.74597e-25
4.33643e-25
7.19694e-25
1.53283e-25
1.27035e-22
6.10323e-22
1.44457e-22
2.13981e-22
5.66714e-22
3.99363e-24
2.2717e-23
1.72387e-24
1.45177e-25
2.67932e-27
8.64605e-29
4.76894e-28
4.74847e-28
1.66248e-28
2.2049e-28
3.36278e-28
2.56494e-28
2.74334e-28
2.49619e-28
4.17e-28
3.17237e-28
3.0767e-28
2.99973e-28
4.62947e-28
3.51346e-28
3.87913e-28
3.61661e-28
4.68987e-28
4.05223e-28
5.45216e-28
4.70055e-28
5.513e-28
5.22658e-28
6.40216e-28
6.12181e-28
8.87831e-28
8.2011e-28
9.42759e-28
1.0506e-27
1.49799e-27
1.66513e-27
2.30187e-27
3.32839e-27
3.86665e-27
2.52e-28
1.5446e-28
5.34352e-27
4.87525e-27
5.92206e-27
6.67749e-27
1.10956e-26
1.80404e-26
2.67939e-26
4.33057e-26
7.25374e-26
1.31879e-25
2.16889e-25
5.26412e-25
8.26286e-25
2.46467e-25
1.6563e-22
7.88765e-22
1.28503e-22
3.1582e-22
6.61028e-22
3.58693e-24
2.99602e-23
1.65336e-24
2.20774e-25
1.93214e-27
1.75314e-28
6.0135e-28
5.04392e-28
1.6449e-28
2.37328e-28
3.58429e-28
2.71038e-28
2.89857e-28
2.67208e-28
4.42744e-28
3.32691e-28
3.24231e-28
3.21104e-28
4.92599e-28
3.70036e-28
4.1211e-28
3.886e-28
5.02922e-28
4.33904e-28
5.85899e-28
5.04755e-28
5.96614e-28
5.69856e-28
6.98385e-28
6.68864e-28
9.68794e-28
8.87425e-28
1.01617e-27
1.11731e-27
1.5343e-27
1.60241e-27
1.94637e-27
2.22142e-27
3.29887e-27
2.34611e-27
9.50217e-28
5.22033e-27
7.22875e-27
6.48521e-27
8.9084e-27
1.37705e-26
2.29078e-26
3.31044e-26
5.37648e-26
8.78443e-26
1.56719e-25
2.51342e-25
5.99994e-25
8.93222e-25
3.9641e-25
2.10897e-22
9.85785e-22
1.08384e-22
4.47331e-22
7.62841e-22
2.9533e-24
3.91123e-23
1.46144e-24
3.11359e-25
1.17029e-27
2.95396e-28
7.75288e-28
5.2731e-28
1.59614e-28
2.59701e-28
3.76177e-28
2.88842e-28
3.03298e-28
2.86922e-28
4.65481e-28
3.50579e-28
3.39887e-28
3.44097e-28
5.20195e-28
3.90722e-28
4.35401e-28
4.17159e-28
5.35523e-28
4.63328e-28
6.25559e-28
5.40939e-28
6.40579e-28
6.17711e-28
7.54981e-28
7.23334e-28
1.04558e-27
9.48982e-28
1.07741e-27
1.16562e-27
1.52207e-27
1.47661e-27
1.51843e-27
1.24758e-27
1.2136e-27
1.38919e-27
2.95105e-27
6.40349e-27
8.23942e-27
7.78515e-27
1.08094e-26
1.67265e-26
2.73042e-26
3.89589e-26
6.24529e-26
9.96475e-26
1.73326e-25
2.70253e-25
6.37705e-25
8.99257e-25
6.34612e-25
2.61074e-22
1.17718e-21
9.02072e-23
5.98942e-22
8.63027e-22
2.29561e-24
4.94147e-23
1.17667e-24
4.06443e-25
6.62743e-28
4.59152e-28
1.04544e-27
5.27497e-28
1.57521e-28
2.7897e-28
3.97669e-28
3.02972e-28
3.17823e-28
3.04033e-28
4.89767e-28
3.6644e-28
3.55152e-28
3.65426e-28
5.48082e-28
4.09371e-28
4.5762e-28
4.44181e-28
5.65354e-28
4.90933e-28
6.63517e-28
5.7514e-28
6.80368e-28
6.63703e-28
8.05135e-28
7.74323e-28
1.11815e-27
1.00689e-27
1.13695e-27
1.22843e-27
1.56123e-27
1.48852e-27
1.50108e-27
1.16538e-27
9.90529e-28
1.97042e-27
4.42926e-27
7.98779e-27
8.73292e-27
9.02419e-27
1.24953e-26
1.92842e-26
3.05783e-26
4.31778e-26
6.72194e-26
1.05173e-25
1.7604e-25
2.67208e-25
6.22654e-25
8.38689e-25
9.7914e-25
3.11481e-22
1.34175e-21
7.64178e-23
7.68373e-22
9.84613e-22
1.85485e-24
6.13684e-23
8.63326e-25
4.98186e-25
4.58271e-28
7.27166e-28
1.52202e-27
4.89823e-28
1.64649e-28
2.84863e-28
4.34625e-28
3.05241e-28
3.44413e-28
3.1079e-28
5.18279e-28
3.76644e-28
3.75754e-28
3.79477e-28
5.76974e-28
4.23281e-28
4.83473e-28
4.65558e-28
5.96684e-28
5.14499e-28
6.96085e-28
6.06747e-28
7.18277e-28
7.03511e-28
8.49059e-28
8.1715e-28
1.16611e-27
1.0558e-27
1.17451e-27
1.26519e-27
1.56032e-27
1.47366e-27
1.48386e-27
1.18687e-27
9.76452e-28
2.50894e-27
5.98973e-27
8.73542e-27
9.24035e-27
9.86828e-27
1.37257e-26
2.09667e-26
3.19611e-26
4.4875e-26
6.68661e-26
1.03059e-25
1.6389e-25
2.44679e-25
5.64591e-25
7.5795e-25
1.37317e-24
3.56045e-22
1.49113e-21
7.47783e-23
9.55287e-22
1.14153e-21
1.67907e-24
7.66719e-23
5.79727e-25
6.10208e-25
4.95611e-28
1.1122e-27
2.38892e-27
4.52866e-28
1.70432e-28
3.08511e-28
4.81671e-28
3.21816e-28
3.73429e-28
3.33883e-28
5.63473e-28
4.03052e-28
4.00494e-28
4.11726e-28
6.21195e-28
4.53056e-28
5.15583e-28
5.05875e-28
6.4081e-28
5.55625e-28
7.49389e-28
6.56344e-28
7.71098e-28
7.63793e-28
9.09118e-28
8.80808e-28
1.24691e-27
1.12486e-27
1.22777e-27
1.32267e-27
1.59643e-27
1.49227e-27
1.53454e-27
1.27166e-27
1.08176e-27
3.06462e-27
7.53936e-27
9.04638e-27
9.84489e-27
1.0544e-26
1.47678e-26
2.19264e-26
3.25861e-26
4.44758e-26
6.40804e-26
9.5805e-26
1.46509e-25
2.12932e-25
4.99039e-25
6.74455e-25
1.87513e-24
4.04735e-22
1.62278e-21
8.76795e-23
5.92274e-28
8.98992e-29
2.31496e-29
6.58571e-28
1.53835e-28
1.37301e-31
5.49553e-29
1.68492e-29
3.83781e-29
2.68176e-29
3.644e-29
2.83838e-29
4.06204e-29
3.4283e-29
3.87475e-29
3.04862e-29
4.54211e-29
4.4572e-29
4.52677e-29
4.08224e-29
5.15506e-29
5.12239e-29
5.32258e-29
5.05275e-29
5.28896e-29
5.12642e-29
5.92345e-29
5.89078e-29
5.98101e-29
5.88949e-29
5.62628e-29
5.47712e-29
6.37515e-29
6.45116e-29
6.06615e-29
5.65957e-29
5.36665e-29
5.08411e-29
5.03496e-29
4.37332e-29
3.68147e-29
2.87727e-29
3.25437e-29
3.03425e-29
2.36828e-29
2.14362e-29
9.63941e-30
5.78288e-30
1.551e-30
4.81729e-31
1.39121e-31
2.51446e-30
2.2866e-29
7.56523e-29
3.83679e-28
1.45381e-28
2.08247e-27
1.20863e-25
1.99953e-25
1.62367e-26
1.10581e-25
4.54433e-27
3.89778e-27
6.6456e-27
1.17527e-28
3.08469e-30
1.04114e-28
4.40089e-29
5.4509e-29
8.39057e-29
5.37188e-29
7.9157e-29
6.55507e-29
8.95219e-29
6.93367e-29
7.25211e-29
8.01507e-29
1.07071e-28
8.73668e-29
8.92489e-29
9.76474e-29
1.15814e-28
1.03447e-28
1.09964e-28
1.03304e-28
1.09471e-28
1.15103e-28
1.27088e-28
1.18237e-28
1.23591e-28
1.12642e-28
1.11558e-28
1.2352e-28
1.35692e-28
1.21261e-28
1.12841e-28
1.06562e-28
9.92277e-29
9.88654e-29
9.05288e-29
7.55251e-29
7.08917e-29
6.40878e-29
5.12148e-29
4.75984e-29
3.95484e-29
1.97798e-29
8.23959e-30
3.0235e-30
4.34376e-31
2.07223e-31
9.13965e-30
4.18746e-29
2.28188e-28
6.88948e-28
6.79366e-28
2.64171e-27
2.92124e-25
1.157e-24
1.07846e-26
3.13471e-25
3.31302e-26
2.32575e-26
7.31858e-27
4.40068e-28
2.64745e-30
1.34656e-28
7.07816e-29
7.65205e-29
1.10315e-28
8.40576e-29
1.00851e-28
1.01656e-28
1.15382e-28
1.03237e-28
9.90895e-29
1.1998e-28
1.4155e-28
1.28116e-28
1.23622e-28
1.4208e-28
1.57575e-28
1.48811e-28
1.52479e-28
1.47412e-28
1.54319e-28
1.64329e-28
1.76181e-28
1.68304e-28
1.72764e-28
1.58771e-28
1.60336e-28
1.74842e-28
1.88379e-28
1.71149e-28
1.59342e-28
1.50419e-28
1.42357e-28
1.42038e-28
1.31607e-28
1.16396e-28
1.05007e-28
8.51994e-29
7.3492e-29
6.87119e-29
5.51545e-29
2.73376e-29
1.26721e-29
4.02093e-30
9.79137e-31
4.48611e-31
9.03851e-30
6.96774e-29
2.66231e-28
1.01958e-27
5.92917e-28
8.85425e-27
4.89006e-25
1.21465e-24
9.73907e-26
1.27277e-24
3.48588e-25
8.63272e-26
3.29381e-26
4.85893e-28
4.35926e-30
1.36421e-28
7.87384e-29
7.92834e-29
1.0977e-28
8.82213e-29
9.98016e-29
1.05963e-28
1.15078e-28
1.07168e-28
9.8818e-29
1.23131e-28
1.42449e-28
1.31595e-28
1.236e-28
1.45487e-28
1.5842e-28
1.5221e-28
1.5292e-28
1.50673e-28
1.55528e-28
1.67011e-28
1.78477e-28
1.71373e-28
1.74049e-28
1.62303e-28
1.62056e-28
1.77556e-28
1.92104e-28
1.74487e-28
1.61902e-28
1.55369e-28
1.46481e-28
1.50762e-28
1.39181e-28
1.28449e-28
1.08759e-28
8.14242e-29
7.69107e-29
7.28127e-29
5.61977e-29
2.98917e-29
1.29766e-29
5.10102e-30
1.42273e-30
2.306e-31
9.65934e-30
5.85864e-29
2.46738e-28
8.6659e-28
5.08134e-28
1.13881e-26
7.34086e-25
1.76654e-24
5.59508e-25
2.6366e-24
1.73521e-24
1.45947e-25
1.14487e-25
1.13439e-27
1.05386e-29
1.5157e-28
9.23607e-29
8.10341e-29
1.17423e-28
8.70551e-29
1.06031e-28
1.06746e-28
1.21128e-28
1.08312e-28
1.02425e-28
1.25016e-28
1.48585e-28
1.33582e-28
1.26032e-28
1.49052e-28
1.62646e-28
1.55108e-28
1.55823e-28
1.53695e-28
1.58825e-28
1.71024e-28
1.83046e-28
1.74594e-28
1.78008e-28
1.6594e-28
1.65488e-28
1.8255e-28
1.99405e-28
1.78516e-28
1.67714e-28
1.61313e-28
1.54253e-28
1.60688e-28
1.48225e-28
1.38383e-28
1.07958e-28
8.01914e-29
8.36034e-29
7.74038e-29
6.07837e-29
3.26673e-29
1.48597e-29
6.87097e-30
2.65514e-30
1.1524e-31
9.47961e-30
4.70142e-29
2.22177e-28
6.8172e-28
3.80294e-28
1.66367e-26
1.19066e-24
2.38638e-24
2.3591e-24
3.83462e-24
5.31145e-24
1.63736e-25
2.87185e-25
3.0395e-27
2.77755e-29
1.83243e-28
1.10425e-28
8.89873e-29
1.28131e-28
8.79008e-29
1.14849e-28
1.10079e-28
1.30699e-28
1.11497e-28
1.09555e-28
1.3094e-28
1.59647e-28
1.38421e-28
1.33152e-28
1.57031e-28
1.72346e-28
1.62228e-28
1.63662e-28
1.61211e-28
1.67522e-28
1.8055e-28
1.93537e-28
1.83401e-28
1.87645e-28
1.74522e-28
1.75054e-28
1.94658e-28
2.13618e-28
1.88533e-28
1.79747e-28
1.72648e-28
1.68197e-28
1.74623e-28
1.61875e-28
1.51346e-28
1.1485e-28
8.58658e-29
9.34747e-29
8.7084e-29
7.06552e-29
3.75671e-29
1.9507e-29
1.02527e-29
5.65486e-30
2.19394e-31
9.69086e-30
3.55965e-29
1.92179e-28
4.82708e-28
2.38158e-28
2.47788e-26
1.91806e-24
3.01425e-24
6.77641e-24
4.5779e-24
1.23634e-23
1.38921e-25
5.87983e-25
7.63403e-27
6.11831e-29
2.29917e-28
1.3132e-28
1.02007e-28
1.38481e-28
9.14686e-29
1.23005e-28
1.15974e-28
1.40574e-28
1.16016e-28
1.18189e-28
1.39629e-28
1.72439e-28
1.4467e-28
1.42697e-28
1.67508e-28
1.84387e-28
1.71082e-28
1.73799e-28
1.7091e-28
1.7932e-28
1.93315e-28
2.06399e-28
1.94832e-28
1.99985e-28
1.85813e-28
1.88509e-28
2.10881e-28
2.30712e-28
2.01325e-28
1.94487e-28
1.8671e-28
1.85372e-28
1.91303e-28
1.79579e-28
1.69861e-28
1.28077e-28
9.67818e-29
1.05928e-28
1.03754e-28
8.5477e-29
4.5808e-29
2.82234e-29
1.70297e-29
1.27453e-29
1.27434e-30
1.20054e-29
2.77711e-29
1.57849e-28
3.09262e-28
1.44733e-28
3.34462e-26
2.95459e-24
3.92663e-24
1.5108e-23
4.68605e-24
2.3727e-23
9.08846e-26
1.03464e-24
1.71852e-26
1.10681e-28
2.91257e-28
1.52749e-28
1.17849e-28
1.49315e-28
9.66297e-29
1.30349e-28
1.23551e-28
1.50305e-28
1.21564e-28
1.27329e-28
1.49769e-28
1.85841e-28
1.51486e-28
1.53137e-28
1.79061e-28
1.97655e-28
1.80547e-28
1.84975e-28
1.8179e-28
1.92641e-28
2.06847e-28
2.20767e-28
2.07606e-28
2.13395e-28
1.98564e-28
2.03641e-28
2.28687e-28
2.49182e-28
2.15202e-28
2.10268e-28
2.02408e-28
2.0466e-28
2.09975e-28
2.03277e-28
1.95562e-28
1.51454e-28
1.1404e-28
1.20843e-28
1.29328e-28
1.06984e-28
5.95828e-29
4.40166e-29
3.06954e-29
2.9257e-29
6.64788e-30
2.26872e-29
3.13795e-29
1.42291e-28
2.30773e-28
2.43932e-28
4.26064e-26
4.33592e-24
5.25679e-24
2.77388e-23
4.41381e-24
4.01582e-23
4.61729e-26
1.63978e-24
3.59597e-26
1.81188e-28
3.75642e-28
1.69764e-28
1.34763e-28
1.61807e-28
1.02543e-28
1.37585e-28
1.32772e-28
1.59993e-28
1.27913e-28
1.37134e-28
1.619e-28
1.99631e-28
1.58758e-28
1.64351e-28
1.92351e-28
2.11658e-28
1.90308e-28
1.97152e-28
1.93646e-28
2.07265e-28
2.22031e-28
2.3609e-28
2.20836e-28
2.28103e-28
2.12481e-28
2.20366e-28
2.48717e-28
2.68653e-28
2.29655e-28
2.27557e-28
2.2031e-28
2.27029e-28
2.33216e-28
2.35971e-28
2.30499e-28
1.8693e-28
1.36726e-28
1.40192e-28
1.68179e-28
1.38715e-28
8.28174e-29
7.235e-29
5.90506e-29
6.63181e-29
2.67313e-29
5.95871e-29
7.08971e-29
1.9756e-28
3.95017e-28
1.06239e-27
4.94574e-26
6.10391e-24
7.82376e-24
4.48471e-23
3.90351e-24
6.16725e-23
2.67443e-26
2.3737e-24
6.99387e-26
2.80956e-28
4.93883e-28
1.80083e-28
1.5259e-28
1.76321e-28
1.09101e-28
1.44992e-28
1.43426e-28
1.69791e-28
1.35619e-28
1.4729e-28
1.75493e-28
2.13711e-28
1.66874e-28
1.76112e-28
2.06882e-28
2.26261e-28
2.00992e-28
2.09957e-28
2.0696e-28
2.22939e-28
2.37839e-28
2.52662e-28
2.35258e-28
2.4372e-28
2.27977e-28
2.38607e-28
2.70045e-28
2.89788e-28
2.45837e-28
2.4703e-28
2.41794e-28
2.53699e-28
2.61347e-28
2.80527e-28
2.77746e-28
2.28726e-28
1.66938e-28
1.66106e-28
2.24763e-28
1.87077e-28
1.22457e-28
1.23069e-28
1.17146e-28
1.46294e-28
8.90341e-29
1.69958e-28
2.29506e-28
4.73612e-28
1.29442e-27
4.37765e-27
5.50972e-26
8.32489e-24
1.22151e-23
6.54167e-23
3.71458e-24
8.82724e-23
3.67976e-26
3.20682e-24
1.27493e-25
4.40935e-28
6.71077e-28
1.79727e-28
1.70783e-28
1.92887e-28
1.1633e-28
1.52337e-28
1.55852e-28
1.79479e-28
1.4434e-28
1.58055e-28
1.91112e-28
2.27754e-28
1.75677e-28
1.88551e-28
2.23311e-28
2.40959e-28
2.12379e-28
2.23486e-28
2.21572e-28
2.39651e-28
2.55444e-28
2.6985e-28
2.50441e-28
2.60857e-28
2.45059e-28
2.59014e-28
2.9408e-28
3.12738e-28
2.64091e-28
2.69864e-28
2.67765e-28
2.85558e-28
2.96005e-28
3.36838e-28
3.27219e-28
2.93133e-28
2.12405e-28
1.99113e-28
3.08941e-28
2.60352e-28
1.89295e-28
2.12618e-28
2.3202e-28
3.10787e-28
2.54489e-28
4.67167e-28
7.2175e-28
1.37494e-27
4.24326e-27
1.3714e-26
5.7251e-26
1.11932e-23
2.05716e-23
8.83822e-23
3.81118e-24
1.194e-22
1.26568e-25
4.09961e-24
2.19447e-25
7.57261e-28
8.98929e-28
1.68967e-28
1.8796e-28
2.13783e-28
1.23068e-28
1.60707e-28
1.68764e-28
1.90213e-28
1.53659e-28
1.69647e-28
2.07563e-28
2.42368e-28
1.8482e-28
2.01872e-28
2.40553e-28
2.56255e-28
2.24482e-28
2.37824e-28
2.37687e-28
2.57335e-28
2.73407e-28
2.88249e-28
2.67355e-28
2.79374e-28
2.64291e-28
2.81471e-28
3.20282e-28
3.3854e-28
2.85562e-28
2.96811e-28
2.99456e-28
3.2358e-28
3.37601e-28
4.12322e-28
3.91212e-28
3.59368e-28
2.85537e-28
2.43759e-28
4.28714e-28
3.72654e-28
3.00432e-28
3.6818e-28
4.47128e-28
6.30556e-28
6.41418e-28
1.16855e-27
1.98195e-27
3.73382e-27
1.17012e-26
3.44314e-26
5.94842e-26
1.5105e-23
3.38377e-23
1.11658e-22
5.25748e-24
1.54235e-22
3.45392e-25
5.00426e-24
3.52241e-25
1.45667e-27
1.22277e-27
1.43443e-28
2.05351e-28
2.38749e-28
1.29322e-28
1.69825e-28
1.82466e-28
2.01863e-28
1.62809e-28
1.82375e-28
2.25618e-28
2.57151e-28
1.93938e-28
2.16271e-28
2.59418e-28
2.71883e-28
2.36667e-28
2.53527e-28
2.54804e-28
2.75993e-28
2.93492e-28
3.07602e-28
2.85058e-28
3.00393e-28
2.85549e-28
3.06553e-28
3.50969e-28
3.67408e-28
3.10371e-28
3.29644e-28
3.38068e-28
3.69819e-28
3.91185e-28
5.15478e-28
4.65153e-28
4.50256e-28
3.91846e-28
3.02769e-28
5.98814e-28
5.43981e-28
4.80506e-28
6.34589e-28
8.34561e-28
1.22229e-27
1.4394e-27
2.64247e-27
4.71938e-27
8.8933e-27
2.70651e-26
7.20381e-26
5.98127e-26
2.04818e-23
5.71723e-23
1.33358e-22
8.65704e-24
1.95986e-22
7.33898e-25
5.96796e-24
5.33763e-25
3.05116e-27
1.62183e-27
1.08655e-28
2.22299e-28
2.688e-28
1.35027e-28
1.7957e-28
1.96736e-28
2.14199e-28
1.72777e-28
1.9587e-28
2.43834e-28
2.72515e-28
2.03523e-28
2.31718e-28
2.78491e-28
2.88317e-28
2.49602e-28
2.70286e-28
2.73445e-28
2.95779e-28
3.14155e-28
3.28806e-28
3.0476e-28
3.23499e-28
3.09906e-28
3.34617e-28
3.84559e-28
4.00878e-28
3.40292e-28
3.68782e-28
3.85091e-28
4.24437e-28
4.54652e-28
6.38107e-28
5.27926e-28
5.25468e-28
5.41419e-28
3.75303e-28
8.37632e-28
8.01246e-28
7.69415e-28
1.0726e-27
1.49576e-27
2.25184e-27
2.94157e-27
5.40585e-27
9.95906e-27
1.86643e-26
5.48187e-26
1.33232e-25
5.9954e-26
2.77648e-23
9.23143e-23
1.51361e-22
1.58128e-23
2.4035e-22
1.27262e-24
7.04667e-24
7.58527e-25
6.33125e-27
2.15225e-27
6.9671e-29
2.43057e-28
3.0104e-28
1.41428e-28
1.8843e-28
2.13282e-28
2.26007e-28
1.83642e-28
2.09887e-28
2.63764e-28
2.87489e-28
2.13683e-28
2.48074e-28
2.99166e-28
3.04822e-28
2.63184e-28
2.88497e-28
2.93317e-28
3.16853e-28
3.3715e-28
3.51366e-28
3.26061e-28
3.49803e-28
3.37059e-28
3.66524e-28
4.23243e-28
4.38677e-28
3.75042e-28
4.14812e-28
4.39337e-28
4.85075e-28
5.25633e-28
7.67925e-28
6.07042e-28
7.14318e-28
7.88459e-28
4.57999e-28
1.18772e-27
1.16447e-27
1.21367e-27
1.73542e-27
2.5715e-27
3.92799e-27
5.51015e-27
1.01357e-26
1.88732e-26
3.51671e-26
9.89372e-26
2.22291e-25
5.86952e-26
3.75421e-23
1.45743e-22
1.61292e-22
2.70885e-23
2.83252e-22
2.19158e-24
8.56653e-24
1.01397e-24
1.31063e-26
2.6575e-27
3.81637e-29
2.63755e-28
3.40026e-28
1.46157e-28
1.98518e-28
2.30133e-28
2.3882e-28
1.95222e-28
2.24678e-28
2.83526e-28
3.03227e-28
2.24282e-28
2.65607e-28
3.19827e-28
3.223e-28
2.77766e-28
3.08145e-28
3.14891e-28
3.39488e-28
3.60428e-28
3.76313e-28
3.50482e-28
3.79e-28
3.67997e-28
4.0249e-28
4.65859e-28
4.83017e-28
4.17448e-28
4.71207e-28
5.08473e-28
5.67623e-28
6.3399e-28
9.9494e-28
9.60051e-28
8.59691e-28
1.06761e-27
6.28548e-28
1.62998e-27
1.67891e-27
1.8409e-27
2.69302e-27