/*--------------------------------*- C++ -*----------------------------------*\
| =========                 |                                                 |
| \\      /  F ield         | OpenFOAM: The Open Source CFD Toolbox           |
|  \\    /   O peration     | Version:  2312                                  |
|   \\  /    A nd           | Website:  www.openfoam.com                      |
|    \\/     M anipulation  |                                                 |
\*---------------------------------------------------------------------------*/
FoamFile
{
    version     2.0;
    format      ascii;
    arch        "LSB;label=32;scalar=64";
    class       volScalarField;
    location    "520";
    object      pPrime2Mean;
}
// * * * * * * * * * * * * * * * * * * * * * * * * * * * * * * * * * * * * * //

dimensions      [0 4 -4 0 0 0 0];

internalField   nonuniform List<scalar> 
144000
(
4.82744e-18
5.93151e-18
5.50503e-18
4.44321e-18
3.18781e-18
2.28747e-18
1.71614e-18
1.27286e-18
9.46046e-19
7.77634e-19
7.25238e-19
6.55601e-19
5.58459e-19
4.47205e-19
3.73225e-19
3.13933e-19
2.87694e-19
2.46652e-19
2.29031e-19
2.03535e-19
1.8326e-19
1.51499e-19
1.53134e-19
1.15428e-19
1.21812e-19
9.57974e-20
9.67428e-20
7.84982e-20
7.7535e-20
6.09625e-20
6.40808e-20
4.68687e-20
5.34536e-20
3.87307e-20
4.10086e-20
4.06273e-20
2.21789e-20
4.53667e-20
1.57985e-20
2.93447e-20
3.73334e-20
4.2918e-21
5.74778e-20
1.40283e-20
4.19345e-20
6.33357e-20
2.49151e-20
8.67382e-20
6.77127e-20
7.23905e-20
1.3084e-19
1.14802e-19
1.67886e-19
2.42162e-19
3.02199e-19
4.48662e-19
7.2139e-19
1.28324e-18
2.99215e-18
3.25206e-18
5.06291e-18
6.06825e-18
5.65083e-18
4.55161e-18
3.23822e-18
2.31688e-18
1.73544e-18
1.28522e-18
9.52911e-19
7.81743e-19
7.28676e-19
6.58638e-19
5.60665e-19
4.48653e-19
3.74212e-19
3.14705e-19
2.8842e-19
2.47244e-19
2.29444e-19
2.04073e-19
1.83695e-19
1.51673e-19
1.53497e-19
1.15722e-19
1.21949e-19
9.6108e-20
9.6884e-20
7.87326e-20
7.77035e-20
6.11079e-20
6.4296e-20
4.69714e-20
5.36617e-20
3.89309e-20
4.10649e-20
4.11482e-20
2.20281e-20
4.59786e-20
1.60766e-20
2.93395e-20
3.84762e-20
3.97358e-21
5.86227e-20
1.48172e-20
4.21375e-20
6.55882e-20
2.53826e-20
8.88307e-20
7.05119e-20
7.42999e-20
1.35431e-19
1.19652e-19
1.73975e-19
2.52326e-19
3.15158e-19
4.67846e-19
7.53362e-19
1.33075e-18
3.12749e-18
3.33301e-18
5.22832e-18
6.17628e-18
5.70241e-18
4.58302e-18
3.24843e-18
2.32551e-18
1.7448e-18
1.29282e-18
9.57539e-19
7.84665e-19
7.31769e-19
6.61579e-19
5.62881e-19
4.49992e-19
3.75176e-19
3.15432e-19
2.89326e-19
2.4786e-19
2.29929e-19
2.04713e-19
1.84265e-19
1.51778e-19
1.54096e-19
1.15955e-19
1.2228e-19
9.64243e-20
9.7174e-20
7.90004e-20
7.8027e-20
6.12631e-20
6.47105e-20
4.70755e-20
5.4069e-20
3.92156e-20
4.12285e-20
4.19728e-20
2.18362e-20
4.70325e-20
1.64881e-20
2.9514e-20
4.02514e-20
3.61147e-21
6.05621e-20
1.60271e-20
4.27901e-20
6.90289e-20
2.63898e-20
9.22632e-20
7.49022e-20
7.75668e-20
1.42541e-19
1.27131e-19
1.83137e-19
2.6675e-19
3.32722e-19
4.91185e-19
7.88305e-19
1.38067e-18
3.25588e-18
3.41461e-18
5.18495e-18
6.10409e-18
5.58909e-18
4.46923e-18
3.18832e-18
2.29276e-18
1.72939e-18
1.28571e-18
9.53344e-19
7.82074e-19
7.31011e-19
6.61718e-19
5.63042e-19
4.49946e-19
3.75135e-19
3.15427e-19
2.89716e-19
2.48042e-19
2.30008e-19
2.05102e-19
1.84653e-19
1.51671e-19
1.54574e-19
1.16097e-19
1.22529e-19
9.67189e-20
9.74449e-20
7.92697e-20
7.83455e-20
6.1425e-20
6.51623e-20
4.71777e-20
5.45411e-20
3.95396e-20
4.14088e-20
4.29526e-20
2.16063e-20
4.8299e-20
1.69938e-20
2.97411e-20
4.23648e-20
3.24241e-21
6.28263e-20
1.75448e-20
4.35548e-20
7.30588e-20
2.76712e-20
9.6174e-20
8.00581e-20
8.12889e-20
1.50418e-19
1.35495e-19
1.92636e-19
2.81542e-19
3.49377e-19
5.10522e-19
8.1264e-19
1.3914e-18
3.32306e-18
3.39221e-18
4.94937e-18
5.92872e-18
5.33601e-18
4.21706e-18
3.06315e-18
2.21759e-18
1.68629e-18
1.26063e-18
9.37493e-19
7.7131e-19
7.23769e-19
6.56704e-19
5.59494e-19
4.47403e-19
3.73293e-19
3.14063e-19
2.88987e-19
2.47329e-19
2.29288e-19
2.04827e-19
1.84535e-19
1.51181e-19
1.54648e-19
1.16008e-19
1.22558e-19
9.68511e-20
9.75889e-20
7.94455e-20
7.85646e-20
6.15266e-20
6.55597e-20
4.72378e-20
5.49816e-20
3.98424e-20
4.15399e-20
4.39416e-20
2.13485e-20
4.95474e-20
1.75354e-20
2.99355e-20
4.4492e-20
2.91402e-21
6.49765e-20
1.91765e-20
4.42162e-20
7.70083e-20
2.90129e-20
9.97405e-20
8.51123e-20
8.47225e-20
1.5753e-19
1.43218e-19
2.00438e-19
2.93512e-19
3.61839e-19
5.21675e-19
8.24867e-19
1.36336e-18
3.35326e-18
3.30874e-18
4.66128e-18
5.84784e-18
5.02688e-18
3.89069e-18
2.89968e-18
2.11542e-18
1.62115e-18
1.21991e-18
9.10986e-19
7.52514e-19
7.09615e-19
6.45946e-19
5.51643e-19
4.41855e-19
3.6929e-19
3.11036e-19
2.86849e-19
2.4548e-19
2.2756e-19
2.03639e-19
1.83689e-19
1.5018e-19
1.54146e-19
1.1555e-19
1.22274e-19
9.67166e-20
9.7532e-20
7.94605e-20
7.86149e-20
6.15194e-20
6.58275e-20
4.72133e-20
5.53122e-20
4.00737e-20
4.15701e-20
4.48266e-20
2.10637e-20
5.06514e-20
1.80482e-20
3.00664e-20
4.64012e-20
2.64867e-21
6.6773e-20
2.07234e-20
4.46997e-20
8.03669e-20
3.02569e-20
1.02589e-19
8.94059e-20
8.75784e-20
1.63043e-19
1.4952e-19
2.06028e-19
3.01971e-19
3.69661e-19
5.26166e-19
8.27705e-19
1.31072e-18
3.4015e-18
3.25822e-18
4.38303e-18
5.97323e-18
4.71023e-18
3.53778e-18
2.71107e-18
1.9939e-18
1.53873e-18
1.16659e-18
8.75646e-19
7.26947e-19
6.89335e-19
6.29839e-19
5.39665e-19
4.33397e-19
3.63173e-19
3.0639e-19
2.83298e-19
2.42472e-19
2.24826e-19
2.01486e-19
1.82063e-19
1.48623e-19
1.53e-19
1.14639e-19
1.21616e-19
9.62729e-20
9.72018e-20
7.92845e-20
7.84514e-20
6.13756e-20
6.59181e-20
4.70869e-20
5.54822e-20
4.02071e-20
4.14738e-20
4.55433e-20
2.07538e-20
5.1526e-20
1.8486e-20
3.01411e-20
4.79836e-20
2.44328e-21
6.81643e-20
2.20519e-20
4.50336e-20
8.29963e-20
3.12869e-20
1.04721e-19
9.26922e-20
8.98467e-20
1.6696e-19
1.54189e-19
2.09615e-19
3.07091e-19
3.73205e-19
5.25775e-19
8.22672e-19
1.24314e-18
3.48648e-18
3.30463e-18
4.13501e-18
6.32467e-18
4.40598e-18
3.18967e-18
2.50256e-18
1.85732e-18
1.44261e-18
1.10311e-18
8.33321e-19
6.96004e-19
6.64065e-19
6.09344e-19
5.2422e-19
4.22398e-19
3.55187e-19
3.0029e-19
2.78474e-19
2.38441e-19
2.21216e-19
1.9847e-19
1.79731e-19
1.46543e-19
1.51246e-19
1.13284e-19
1.20562e-19
9.5529e-20
9.65766e-20
7.89196e-20
7.80649e-20
6.10954e-20
6.58179e-20
4.68637e-20
5.54729e-20
4.02455e-20
4.12453e-20
4.60785e-20
2.04257e-20
5.21766e-20
1.88477e-20
3.0161e-20
4.92763e-20
2.27375e-21
6.92044e-20
2.31551e-20
4.52533e-20
8.49999e-20
3.20572e-20
1.06372e-19
9.50493e-20
9.16036e-20
1.69654e-19
1.57402e-19
2.11549e-19
3.09524e-19
3.72881e-19
5.21871e-19
8.10085e-19
1.16753e-18
3.6026e-18
3.4527e-18
3.92196e-18
6.8269e-18
4.12372e-18
2.86934e-18
2.28055e-18
1.7105e-18
1.33681e-18
1.03242e-18
7.86234e-19
6.61269e-19
6.35245e-19
5.85589e-19
5.06155e-19
4.0943e-19
3.45693e-19
2.9299e-19
2.72589e-19
2.33569e-19
2.16906e-19
1.94769e-19
1.76838e-19
1.44032e-19
1.48991e-19
1.11557e-19
1.19119e-19
9.45246e-20
9.56599e-20
7.83845e-20
7.74678e-20
6.07009e-20
6.5541e-20
4.65643e-20
5.52929e-20
4.02124e-20
4.08895e-20
4.64626e-20
2.0088e-20
5.26228e-20
1.91763e-20
3.01066e-20
5.03876e-20
2.10151e-21
6.99965e-20
2.41134e-20
4.53078e-20
8.66209e-20
3.25056e-20
1.07629e-19
9.66767e-20
9.27464e-20
1.71358e-19
1.59143e-19
2.11744e-19
3.09515e-19
3.68655e-19
5.14243e-19
7.89089e-19
1.08881e-18
3.7244e-18
3.64713e-18
3.73757e-18
7.34666e-18
3.87067e-18
2.58481e-18
2.05475e-18
1.55866e-18
1.226e-18
9.57717e-19
7.36543e-19
6.24405e-19
6.04196e-19
5.59701e-19
4.86372e-19
3.95127e-19
3.35144e-19
2.84819e-19
2.65898e-19
2.28044e-19
2.12067e-19
1.90563e-19
1.73571e-19
1.41206e-19
1.46371e-19
1.09574e-19
1.17321e-19
9.333e-20
9.44768e-20
7.77039e-20
7.66817e-20
6.02215e-20
6.51099e-20
4.62129e-20
5.49572e-20
4.01402e-20
4.04074e-20
4.67241e-20
1.97486e-20
5.28583e-20
1.95372e-20
2.99107e-20
5.14299e-20
1.8901e-21
7.0516e-20
2.50398e-20
4.50304e-20
8.79827e-20
3.25514e-20
1.08325e-19
9.76598e-20
9.29188e-20
1.71871e-19
1.59237e-19
2.09656e-19
3.06614e-19
3.59625e-19
5.01427e-19
7.56175e-19
1.00728e-18
3.81507e-18
3.78838e-18
3.56165e-18
7.70688e-18
3.64895e-18
2.32925e-18
1.83562e-18
1.40746e-18
1.11486e-18
8.82064e-19
6.86386e-19
5.86951e-19
5.72189e-19
5.3276e-19
4.65685e-19
3.80097e-19
3.24e-19
2.76128e-19
2.58669e-19
2.22088e-19
2.06837e-19
1.86003e-19
1.70098e-19
1.38183e-19
1.43508e-19
1.07468e-19
1.15232e-19
9.20012e-20
9.30699e-20
7.68932e-20
7.57365e-20
5.96832e-20
6.4542e-20
4.58317e-20
5.44767e-20
4.00506e-20
3.97989e-20
4.68807e-20
1.94141e-20
5.28472e-20
1.99856e-20
2.94902e-20
5.24446e-20
1.61796e-21
7.06466e-20
2.59962e-20
4.4238e-20
8.90037e-20
3.21103e-20
1.08123e-19
9.79033e-20
9.17554e-20
1.70822e-19
1.5731e-19
2.04565e-19
3.00183e-19
3.45211e-19
4.82067e-19
7.10694e-19
9.22276e-19
3.82881e-18
3.79114e-18
3.37244e-18
7.78934e-18
3.45358e-18
2.09276e-18
1.6313e-18
1.26168e-18
1.00733e-18
8.07975e-19
6.37412e-19
5.50166e-19
5.4028e-19
5.05639e-19
4.44765e-19
3.64851e-19
3.12638e-19
2.67216e-19
2.51152e-19
2.15888e-19
2.01356e-19
1.81215e-19
1.66528e-19
1.35071e-19
1.40493e-19
1.05358e-19
1.12925e-19
9.05969e-20
9.14893e-20
7.59674e-20
7.46559e-20
5.91026e-20
6.38456e-20
4.5438e-20
5.38666e-20
3.99543e-20
3.90605e-20
4.6926e-20
1.90942e-20
5.25349e-20
2.05321e-20
2.87821e-20
5.34027e-20
1.2878e-21
7.02703e-20
2.69709e-20
4.27843e-20
8.95466e-20
3.1152e-20
1.06788e-19
9.73192e-20
8.90953e-20
1.67968e-19
1.53258e-19
1.96384e-19
2.90111e-19
3.25663e-19
4.55995e-19
6.54682e-19
8.34584e-19
3.73886e-18
3.61318e-18
3.14905e-18
7.5435e-18
3.27085e-18
1.86542e-18
1.44644e-18
1.12483e-18
9.06506e-19
7.37288e-19
5.90759e-19
5.14967e-19
5.09294e-19
4.79041e-19
4.24165e-19
3.49756e-19
3.01353e-19
2.58336e-19
2.4357e-19
2.09623e-19
1.95768e-19
1.7631e-19
1.62933e-19
1.31956e-19
1.37395e-19
1.03327e-19
1.10492e-19
8.9166e-20
8.97999e-20
7.49463e-20
7.34669e-20
5.84871e-20
6.30257e-20
4.50457e-20
5.31345e-20
3.98497e-20
3.82083e-20
4.68406e-20
1.87991e-20
5.18889e-20
2.11566e-20
2.78031e-20
5.43097e-20
9.24097e-22
6.93581e-20
2.79233e-20
4.07031e-20
8.95147e-20
2.97307e-20
1.04273e-19
9.59117e-20
8.49926e-20
1.63387e-19
1.47326e-19
1.85479e-19
2.76928e-19
3.02174e-19
4.24571e-19
5.9212e-19
7.45913e-19
3.53834e-18
3.26413e-18
2.88231e-18
6.99491e-18
3.08616e-18
1.64271e-18
1.28253e-18
9.99111e-19
8.1414e-19
6.71231e-19
5.47107e-19
4.81957e-19
4.798e-19
4.5349e-19
4.04262e-19
3.35128e-19
2.9037e-19
2.49688e-19
2.36094e-19
2.03457e-19
1.90204e-19
1.71385e-19
1.59355e-19
1.28906e-19
1.3426e-19
1.01424e-19
1.08004e-19
8.77479e-20
8.80579e-20
7.38571e-20
7.21982e-20
5.78458e-20
6.20922e-20
4.46652e-20
5.22956e-20
3.97321e-20
3.72716e-20
4.66165e-20
1.85398e-20
5.09273e-20
2.1826e-20
2.66e-20
5.52376e-20
5.66527e-22
6.80389e-20
2.88319e-20
3.8111e-20
8.89033e-20
2.79778e-20
1.00724e-19
9.38465e-20
7.9766e-20
1.57423e-19
1.40027e-19
1.72647e-19
2.61576e-19
2.76458e-19
3.89945e-19
5.28212e-19
6.58962e-19
3.24505e-18
2.79826e-18
2.57364e-18
6.22486e-18
2.8867e-18
1.42635e-18
1.13849e-18
8.85679e-19
7.30981e-19
6.10515e-19
5.06776e-19
4.51432e-19
4.52166e-19
4.29305e-19
3.85302e-19
3.21159e-19
2.79811e-19
2.41392e-19
2.28851e-19
1.97493e-19
1.84765e-19
1.66532e-19
1.55827e-19
1.25969e-19
1.31128e-19
9.96632e-20
1.0552e-19
8.63705e-20
8.63083e-20
7.27326e-20
7.08817e-20
5.7192e-20
6.10641e-20
4.43051e-20
5.1374e-20
3.95992e-20
3.62911e-20
4.62623e-20
1.8331e-20
4.96977e-20
2.25226e-20
2.52141e-20
5.64192e-20
2.66431e-22
6.66484e-20
2.97108e-20
3.51636e-20
8.77965e-20
2.60638e-20
9.63544e-20
9.13543e-20
7.3814e-20
1.50519e-19
1.31969e-19
1.58774e-19
2.45111e-19
2.50276e-19
3.54362e-19
4.67164e-19
5.76206e-19
2.88863e-18
2.28575e-18
2.23674e-18
5.34113e-18
2.66568e-18
1.2224e-18
1.01192e-18
7.84849e-19
6.57072e-19
5.55418e-19
4.69796e-19
4.23459e-19
4.2653e-19
4.06659e-19
3.67432e-19
3.07936e-19
2.69745e-19
2.33522e-19
2.21918e-19
1.91796e-19
1.79522e-19
1.61826e-19
1.52373e-19
1.23181e-19
1.28031e-19
9.80448e-20
1.0308e-19
8.50511e-20
8.45885e-20
7.16079e-20
6.95471e-20
5.65403e-20
5.99683e-20
4.39692e-20
5.04009e-20
3.9451e-20
3.53088e-20
4.57975e-20
1.81869e-20
4.82675e-20
2.32293e-20
2.36908e-20
5.82309e-20
7.29391e-23
6.57527e-20
3.05899e-20
3.20228e-20
8.63157e-20
2.41507e-20
9.14441e-20
8.86683e-20
6.75212e-20
1.43112e-19
1.23704e-19
1.44652e-19
2.28441e-19
2.25065e-19
3.19677e-19
4.11702e-19
4.99295e-19
2.50657e-18
1.79615e-18
1.89198e-18
4.44244e-18
2.42117e-18
1.03739e-18
8.9989e-19
6.96265e-19
5.91922e-19
5.05873e-19
4.36018e-19
3.9794e-19
4.02902e-19
3.85614e-19
3.50696e-19
2.95494e-19
2.60203e-19
2.26113e-19
2.15335e-19
1.86402e-19
1.74517e-19
1.57323e-19
1.49011e-19
1.20562e-19
1.24992e-19
9.65577e-20
1.00709e-19
8.37991e-20
8.29254e-20
7.05098e-20
6.82206e-20
5.59055e-20
5.88347e-20
4.36602e-20
4.94054e-20
3.92935e-20
3.4352e-20
4.52569e-20
1.80935e-20
4.67401e-20
2.3859e-20
2.22022e-20
5.91467e-20
9.38297e-28
6.43381e-20
3.13207e-20
2.88518e-20
8.45675e-20
2.2366e-20
8.62315e-20
8.59738e-20
6.12024e-20
1.3556e-19
1.15652e-19
1.30874e-19
2.1228e-19
2.01709e-19
2.8705e-19
3.63108e-19
4.29255e-19
2.13147e-18
1.37473e-18
1.56505e-18
3.60672e-18
2.15861e-18
8.76489e-19
7.99878e-19
6.19164e-19
5.34775e-19
4.61623e-19
4.05218e-19
3.74692e-19
3.8121e-19
3.66153e-19
3.3509e-19
2.8383e-19
2.51187e-19
2.19167e-19
2.09115e-19
1.81321e-19
1.6977e-19
1.5306e-19
1.45753e-19
1.18121e-19
1.22044e-19
9.51893e-20
9.84307e-20
8.26175e-20
8.13341e-20
6.94578e-20
6.69231e-20
5.52995e-20
5.76911e-20
4.33793e-20
4.84126e-20
3.91352e-20
3.34374e-20
4.4678e-20
1.80313e-20
4.52057e-20
2.43339e-20
2.08886e-20
5.70416e-20
6.61385e-23
6.05528e-20
3.17801e-20
2.57764e-20
8.26511e-20
2.07981e-20
8.0901e-20
8.3396e-20
5.50881e-20
1.28105e-19
1.08093e-19
1.1783e-19
1.97038e-19
1.80734e-19
2.57088e-19
3.21415e-19
3.66844e-19
1.78969e-18
1.04631e-18
1.27931e-18
2.88391e-18
1.88813e-18
7.42273e-19
7.10035e-19
5.52505e-19
4.84806e-19
4.22326e-19
3.77148e-19
3.53495e-19
3.61328e-19
3.48209e-19
3.20576e-19
2.72925e-19
2.42676e-19
2.12669e-19
2.03255e-19
1.76547e-19
1.65283e-19
1.49054e-19
1.42608e-19
1.1586e-19
1.192e-19
9.39265e-20
9.62509e-20
8.15055e-20
7.98229e-20
6.84645e-20
6.56708e-20
5.47299e-20
5.65622e-20
4.31252e-20
4.7445e-20
3.89801e-20
3.25839e-20
4.40796e-20
1.80168e-20
4.36844e-20
2.47295e-20
1.96788e-20
5.43039e-20
2.66983e-22
5.64081e-20
3.21812e-20
2.28543e-20
8.06417e-20
1.9497e-20
7.55911e-20
8.10073e-20
4.93304e-20
1.20911e-19
1.01179e-19
1.05742e-19
1.82914e-19
1.62287e-19
2.29948e-19
2.86054e-19
3.12463e-19
1.4973e-18
8.15854e-19
1.05285e-18
2.29478e-18
1.62239e-18
6.33844e-19
6.29242e-19
4.95135e-19
4.41185e-19
3.87572e-19
3.51564e-19
3.34115e-19
3.431e-19
3.31687e-19
3.07088e-19
2.62728e-19
2.34641e-19
2.06596e-19
1.97744e-19
1.72066e-19
1.61048e-19
1.4531e-19
1.39578e-19
1.13771e-19
1.16474e-19
9.27573e-20
9.41733e-20
8.04611e-20
7.8395e-20
6.75358e-20
6.44749e-20
5.42009e-20
5.54659e-20
4.28964e-20
4.65191e-20
3.88315e-20
3.18025e-20
4.34773e-20
1.80627e-20
4.2189e-20
2.51231e-20
1.85151e-20
5.23835e-20
6.54812e-22
5.31363e-20
3.26618e-20
2.01273e-20
7.85855e-20
1.84905e-20
7.03974e-20
7.88417e-20
4.40198e-20
1.14042e-19
9.49741e-20
9.46898e-20
1.69952e-19
1.46271e-19
2.05454e-19
2.56117e-19
2.66186e-19
1.26085e-18
6.72844e-19
8.94704e-19
1.83558e-18
1.37272e-18
5.47706e-19
5.56874e-19
4.45815e-19
4.03154e-19
3.56915e-19
3.2824e-19
3.16326e-19
3.26361e-19
3.16479e-19
2.94554e-19
2.53184e-19
2.27044e-19
2.00917e-19
1.92565e-19
1.67857e-19
1.57049e-19
1.41823e-19
1.36666e-19
1.11842e-19
1.13872e-19
9.16711e-20
9.21981e-20
7.94812e-20
7.70508e-20
6.66745e-20
6.33423e-20
5.37138e-20
5.44137e-20
4.26919e-20
4.5645e-20
3.8694e-20
3.10933e-20
4.28883e-20
1.81573e-20
4.07538e-20
2.55102e-20
1.744e-20
5.09615e-20
1.17709e-21
5.03229e-20
3.31985e-20
1.76428e-20
7.65143e-20
1.77751e-20
6.53851e-20
7.68995e-20
3.92002e-20
1.07541e-19
8.94833e-20
8.46739e-20
1.58109e-19
1.32436e-19
1.83376e-19
2.30642e-19
2.27802e-19
1.07792e-18
5.97805e-19
8.06959e-19
1.48859e-18
1.14846e-18
4.78682e-19
4.92547e-19
4.03404e-19
3.70027e-19
3.29927e-19
3.06976e-19
2.99929e-19
3.10949e-19
3.02476e-19
2.82899e-19
2.44236e-19
2.19851e-19
1.95603e-19
1.87696e-19
1.63899e-19
1.53271e-19
1.38579e-19
1.3387e-19
1.10062e-19
1.11398e-19
9.06584e-20
9.03233e-20
7.85613e-20
7.57883e-20
6.58796e-20
6.22774e-20
5.32679e-20
5.34125e-20
4.251e-20
4.48292e-20
3.85691e-20
3.04569e-20
4.23206e-20
1.82949e-20
3.93943e-20
2.58808e-20
1.64917e-20
4.97881e-20
1.77975e-21
4.77587e-20
3.37647e-20
1.54181e-20
7.44516e-20
1.73342e-20
6.05954e-20
7.51645e-20
3.48866e-20
1.01415e-19
8.46631e-20
7.5643e-20
1.473e-19
1.20511e-19
1.63389e-19
2.08832e-19
1.96771e-19
9.41143e-19
5.68034e-19
7.85283e-19
1.22764e-18
9.56633e-19
4.21231e-19
4.35935e-19
3.66845e-19
3.41207e-19
3.062e-19
2.87604e-19
2.84754e-19
2.96718e-19
2.89571e-19
2.72053e-19
2.35831e-19
2.13027e-19
1.90624e-19
1.83117e-19
1.60173e-19
1.49696e-19
1.35563e-19
1.31188e-19
1.08415e-19
1.09053e-19
8.97104e-20
8.85456e-20
7.76966e-20
7.46046e-20
6.51486e-20
6.12822e-20
5.28614e-20
5.24667e-20
4.23486e-20
4.40754e-20
3.84563e-20
2.98937e-20
4.17773e-20
1.84749e-20
3.81109e-20
2.62392e-20
1.56761e-20
4.87372e-20
2.44437e-21
4.53763e-20
3.43619e-20
1.34496e-20
7.24109e-20
1.71451e-20
5.60545e-20
7.36104e-20
3.10734e-20
9.56457e-20
8.04576e-20
6.75212e-20
1.37427e-19
1.10233e-19
1.45235e-19
1.89971e-19
1.72342e-19
8.40329e-19
5.61646e-19
8.2095e-19
1.02606e-18
8.01265e-19
3.70561e-19
3.86659e-19
3.35279e-19
3.16191e-19
2.85369e-19
2.69978e-19
2.70659e-19
2.83535e-19
2.77662e-19
2.61948e-19
2.27917e-19
2.0654e-19
1.85948e-19
1.78805e-19
1.56658e-19
1.46308e-19
1.32759e-19
1.28614e-19
1.06887e-19
1.06834e-19
8.88192e-20
8.68609e-20
7.6882e-20
7.3496e-20
6.44784e-20
6.03578e-20
5.24919e-20
5.15773e-20
4.22054e-20
4.33849e-20
3.8355e-20
2.94026e-20
4.12606e-20
1.86945e-20
3.69051e-20
2.65907e-20
1.49856e-20
4.77399e-20
3.16486e-21
4.3149e-20
3.49847e-20
1.1731e-20
7.04008e-20
1.71794e-20
5.17819e-20
7.22065e-20
2.77441e-20
9.02146e-20
7.6803e-20
6.02352e-20
1.28391e-19
1.01372e-19
1.2868e-19
1.73529e-19
1.53839e-19
7.64741e-19
5.59341e-19
9.01985e-19
8.59103e-19
6.83112e-19
3.23201e-19
3.44107e-19
3.07995e-19
2.94555e-19
2.67117e-19
2.53969e-19
2.57529e-19
2.71281e-19
2.6666e-19
2.52522e-19
2.20445e-19
2.00357e-19
1.81548e-19
1.7474e-19
1.53336e-19
1.43092e-19
1.30148e-19
1.26145e-19
1.05468e-19
1.04737e-19
8.79792e-20
8.52631e-20
7.61135e-20
7.24584e-20
6.38662e-20
5.9504e-20
5.21574e-20
5.07437e-20
4.2079e-20
4.27578e-20
3.82648e-20
2.89815e-20
4.07728e-20
1.89489e-20
3.57806e-20
2.69357e-20
1.44127e-20
4.67838e-20
3.93493e-21
4.10659e-20
3.5622e-20
1.02544e-20
6.84358e-20
1.74075e-20
4.77935e-20
7.0932e-20
2.48758e-20
8.51144e-20
7.36404e-20
5.37251e-20
1.20122e-19
9.37555e-20
1.13553e-19
1.59097e-19
1.40637e-19
7.03762e-19
5.46186e-19
4.83601e-18
5.95228e-18
5.52654e-18
4.45593e-18
3.19571e-18
2.29175e-18
1.71952e-18
1.27578e-18
9.48328e-19
7.79116e-19
7.26065e-19
6.5603e-19
5.58623e-19
4.47222e-19
3.73139e-19
3.13835e-19
2.87593e-19
2.46623e-19
2.29037e-19
2.0355e-19
1.8329e-19
1.51529e-19
1.53187e-19
1.15443e-19
1.21856e-19
9.58024e-20
9.67824e-20
7.8508e-20
7.75826e-20
6.09532e-20
6.41168e-20
4.68491e-20
5.34675e-20
3.87115e-20
4.10146e-20
4.06164e-20
2.21897e-20
4.53627e-20
1.58173e-20
2.93425e-20
3.73693e-20
4.28361e-21
5.74883e-20
1.40052e-20
4.19733e-20
6.34064e-20
2.4902e-20
8.68371e-20
6.77209e-20
7.24937e-20
1.30885e-19
1.14912e-19
1.67795e-19
2.42223e-19
3.01908e-19
4.48341e-19
7.20696e-19
1.28138e-18
3.00635e-18
3.26146e-18
5.07116e-18
6.0902e-18
5.67248e-18
4.56508e-18
3.24609e-18
2.32116e-18
1.73884e-18
1.28813e-18
9.55195e-19
7.8322e-19
7.29494e-19
6.59059e-19
5.60823e-19
4.48662e-19
3.74119e-19
3.146e-19
2.88316e-19
2.47213e-19
2.29448e-19
2.04086e-19
1.83725e-19
1.51703e-19
1.5355e-19
1.15736e-19
1.21993e-19
9.61124e-20
9.69238e-20
7.87432e-20
7.77515e-20
6.10992e-20
6.4332e-20
4.69524e-20
5.3675e-20
3.89129e-20
4.107e-20
4.11385e-20
2.2038e-20
4.59753e-20
1.60947e-20
2.93376e-20
3.85141e-20
3.9653e-21
5.86353e-20
1.47931e-20
4.21774e-20
6.56625e-20
2.53702e-20
8.89317e-20
7.05229e-20
7.4403e-20
1.35479e-19
1.19762e-19
1.73874e-19
2.52373e-19
3.14849e-19
4.67503e-19
7.52514e-19
1.32884e-18
3.14189e-18
3.34239e-18
5.23915e-18
6.199e-18
5.72379e-18
4.59657e-18
3.25603e-18
2.32946e-18
1.74801e-18
1.2957e-18
9.59792e-19
7.86131e-19
7.32579e-19
6.61985e-19
5.63029e-19
4.49992e-19
3.75073e-19
3.15318e-19
2.89215e-19
2.47824e-19
2.29933e-19
2.04724e-19
1.84295e-19
1.51807e-19
1.54149e-19
1.15967e-19
1.22323e-19
9.64279e-20
9.72144e-20
7.90123e-20
7.80769e-20
6.12553e-20
6.47473e-20
4.70574e-20
5.40818e-20
3.91993e-20
4.12334e-20
4.19648e-20
2.18454e-20
4.70315e-20
1.65063e-20
2.95117e-20
4.02924e-20
3.60292e-21
6.05801e-20
1.59998e-20
4.28337e-20
6.91099e-20
2.63799e-20
9.23675e-20
7.49183e-20
7.76745e-20
1.42598e-19
1.2725e-19
1.83048e-19
2.66836e-19
3.32433e-19
4.90869e-19
7.8743e-19
1.37955e-18
3.26993e-18
3.42508e-18
5.19643e-18
6.1279e-18
5.60868e-18
4.48188e-18
3.19533e-18
2.29605e-18
1.73242e-18
1.28845e-18
9.5556e-19
7.83505e-19
7.31797e-19
6.62102e-19
5.6317e-19
4.49932e-19
3.75019e-19
3.15299e-19
2.89596e-19
2.48e-19
2.30009e-19
2.05109e-19
1.8468e-19
1.51699e-19
1.54627e-19
1.16108e-19
1.2257e-19
9.67216e-20
9.74843e-20
7.92836e-20
7.83961e-20
6.1419e-20
6.51994e-20
4.71612e-20
5.45527e-20
3.95253e-20
4.14117e-20
4.29472e-20
2.16141e-20
4.82979e-20
1.70122e-20
2.97386e-20
4.24155e-20
3.23416e-21
6.28503e-20
1.75091e-20
4.36054e-20
7.3148e-20
2.76647e-20
9.6288e-20
8.00841e-20
8.14051e-20
1.50498e-19
1.35641e-19
1.92573e-19
2.81675e-19
3.49179e-19
5.10359e-19
8.12003e-19
1.39153e-18
3.33843e-18
3.40358e-18
4.9577e-18
5.95044e-18
5.35252e-18
4.22789e-18
3.06911e-18
2.22073e-18
1.68892e-18
1.2632e-18
9.39605e-19
7.72698e-19
7.24513e-19
6.57069e-19
5.59595e-19
4.47365e-19
3.73164e-19
3.13917e-19
2.88852e-19
2.47277e-19
2.29283e-19
2.0483e-19
1.84557e-19
1.51209e-19
1.54699e-19
1.1602e-19
1.22597e-19
9.68531e-20
9.76253e-20
7.94623e-20
7.86156e-20
6.1524e-20
6.55957e-20
4.72242e-20
5.49904e-20
3.98314e-20
4.15409e-20
4.39389e-20
2.1353e-20
4.95492e-20
1.75535e-20
2.99317e-20
4.45501e-20
2.90708e-21
6.50085e-20
1.91248e-20
4.4276e-20
7.71084e-20
2.90123e-20
9.98634e-20
8.51495e-20
8.4856e-20
1.57641e-19
1.43397e-19
2.00434e-19
2.93727e-19
3.61762e-19
5.21736e-19
8.24616e-19
1.36358e-18
3.37016e-18
3.31976e-18
4.67076e-18
5.86484e-18
5.0405e-18
3.8996e-18
2.90441e-18
2.11807e-18
1.62348e-18
1.2223e-18
9.13075e-19
7.53892e-19
7.10326e-19
6.4627e-19
5.51718e-19
4.41799e-19
3.69145e-19
3.10874e-19
2.86698e-19
2.4542e-19
2.27548e-19
2.03637e-19
1.83705e-19
1.50207e-19
1.54196e-19
1.15562e-19
1.2231e-19
9.6719e-20
9.75632e-20
7.94809e-20
7.86654e-20
6.15214e-20
6.58619e-20
4.72034e-20
5.53159e-20
4.00672e-20
4.15663e-20
4.48288e-20
2.10649e-20
5.06555e-20
1.80651e-20
3.0061e-20
4.64705e-20
2.64444e-21
6.68147e-20
2.06464e-20
4.47697e-20
8.04776e-20
3.02636e-20
1.0272e-19
8.94556e-20
8.773e-20
1.63177e-19
1.49735e-19
2.06071e-19
3.02267e-19
3.69677e-19
5.26443e-19
8.27727e-19
1.31145e-18
3.41902e-18
3.26737e-18
4.39217e-18
5.98444e-18
4.72112e-18
3.54499e-18
2.71503e-18
1.99608e-18
1.54083e-18
1.1689e-18
8.77703e-19
7.28292e-19
6.90004e-19
6.30121e-19
5.39717e-19
4.33324e-19
3.63014e-19
3.06213e-19
2.8313e-19
2.424e-19
2.24806e-19
2.01478e-19
1.8207e-19
1.48649e-19
1.53046e-19
1.14653e-19
1.21647e-19
9.62761e-20
9.72258e-20
7.93089e-20
7.8499e-20
6.13836e-20
6.59484e-20
4.70823e-20
5.54798e-20
4.02065e-20
4.14634e-20
4.55522e-20
2.07492e-20
5.15321e-20
1.84997e-20
3.01308e-20
4.80639e-20
2.44328e-21
6.82163e-20
2.19389e-20
4.51146e-20
8.31171e-20
3.13014e-20
1.04856e-19
9.2754e-20
9.00137e-20
1.67116e-19
1.54437e-19
2.09693e-19
3.07464e-19
3.73275e-19
5.26234e-19
8.22862e-19
1.24412e-18
3.50373e-18
3.31142e-18
4.1435e-18
6.33056e-18
4.41428e-18
3.19548e-18
2.50588e-18
1.85906e-18
1.44449e-18
1.10537e-18
8.35357e-19
6.97318e-19
6.64721e-19
6.09597e-19
5.24252e-19
4.22311e-19
3.55016e-19
3.00102e-19
2.7829e-19
2.38359e-19
2.21188e-19
1.98458e-19
1.79729e-19
1.4657e-19
1.51289e-19
1.13301e-19
1.20586e-19
9.5534e-20
9.65919e-20
7.89487e-20
7.81076e-20
6.11108e-20
6.58417e-20
4.6866e-20
5.54614e-20
4.02523e-20
4.1226e-20
4.60939e-20
2.04118e-20
5.21875e-20
1.88543e-20
3.01443e-20
4.93619e-20
2.27927e-21
6.92865e-20
2.2992e-20
4.5343e-20
8.51245e-20
3.20785e-20
1.06511e-19
9.51207e-20
9.17836e-20
1.69825e-19
1.57678e-19
2.11653e-19
3.09951e-19
3.72981e-19
5.22463e-19
8.10289e-19
1.16858e-18
3.61884e-18
3.45718e-18
3.92978e-18
6.82886e-18
4.1297e-18
2.87394e-18
2.28329e-18
1.71186e-18
1.33848e-18
1.03461e-18
7.88224e-19
6.62556e-19
6.35877e-19
5.85817e-19
5.06171e-19
4.09331e-19
3.4551e-19
2.92794e-19
2.72391e-19
2.33478e-19
2.1687e-19
1.94753e-19
1.76825e-19
1.44059e-19
1.49028e-19
1.11578e-19
1.19135e-19
9.45322e-20
9.56651e-20
7.8419e-20
7.7504e-20
6.07247e-20
6.55574e-20
4.65749e-20
5.52704e-20
4.02289e-20
4.08583e-20
4.64848e-20
2.0061e-20
5.26414e-20
1.91664e-20
3.00809e-20
5.04687e-20
2.11248e-21
7.01052e-20
2.38829e-20
4.54019e-20
8.67566e-20
3.25331e-20
1.07768e-19
9.67561e-20
9.29339e-20
1.71536e-19
1.59438e-19
2.11864e-19
3.09976e-19
3.6875e-19
5.14913e-19
7.8933e-19
1.08987e-18
3.73919e-18
3.64998e-18
3.74474e-18
7.34655e-18
3.87458e-18
2.58853e-18
2.05696e-18
1.55968e-18
1.22747e-18
9.59813e-19
7.38486e-19
6.25667e-19
6.04809e-19
5.59913e-19
4.86374e-19
3.9502e-19
3.34956e-19
2.84617e-19
2.65689e-19
2.27945e-19
2.12024e-19
1.90545e-19
1.73549e-19
1.41233e-19
1.46401e-19
1.096e-19
1.1733e-19
9.33407e-20
9.44713e-20
7.77441e-20
7.67113e-20
6.02544e-20
6.51168e-20
4.62328e-20
5.49217e-20
4.01673e-20
4.03626e-20
4.67573e-20
1.9704e-20
5.28888e-20
1.95036e-20
2.98855e-20
5.14808e-20
1.90536e-21
7.06799e-20
2.47214e-20
4.51242e-20
8.81257e-20
3.25838e-20
1.0846e-19
9.7744e-20
9.31089e-20
1.72052e-19
1.59538e-19
2.0977e-19
3.07087e-19
3.5971e-19
5.0213e-19
7.5638e-19
1.00829e-18
3.82826e-18
3.79061e-18
3.56829e-18
7.70611e-18
3.6513e-18
2.3323e-18
1.83738e-18
1.40821e-18
1.11614e-18
8.84062e-19
6.88285e-19
5.88191e-19
5.72788e-19
5.32959e-19
4.65676e-19
3.79983e-19
3.23807e-19
2.75922e-19
2.5845e-19
2.21983e-19
2.06785e-19
1.85985e-19
1.70067e-19
1.38213e-19
1.43531e-19
1.075e-19
1.15233e-19
9.20157e-20
9.30538e-20
7.69389e-20
7.57571e-20
5.97263e-20
6.45385e-20
4.58622e-20
5.4428e-20
4.00897e-20
3.97363e-20
4.6929e-20
1.93478e-20
5.28909e-20
1.9909e-20
2.94575e-20
5.24223e-20
1.63508e-21
7.08579e-20
2.55704e-20
4.43247e-20
8.91527e-20
3.21459e-20
1.08252e-19
9.7989e-20
9.19413e-20
1.71e-19
1.57607e-19
2.04677e-19
3.00643e-19
3.45274e-19
4.82723e-19
7.10869e-19
9.23167e-19
3.84022e-18
3.7936e-18
3.37877e-18
7.78897e-18
3.45477e-18
2.09529e-18
1.63267e-18
1.26215e-18
1.00842e-18
8.09872e-19
6.39263e-19
5.51381e-19
5.40866e-19
5.0583e-19
4.44754e-19
3.64733e-19
3.12442e-19
2.67008e-19
2.50926e-19
2.15779e-19
2.01296e-19
1.81197e-19
1.66487e-19
1.35102e-19
1.40509e-19
1.05395e-19
1.12919e-19
9.06153e-20
9.14636e-20
7.60182e-20
7.46668e-20
5.9155e-20
6.38313e-20
4.54792e-20
5.38033e-20
4.00058e-20
3.89805e-20
4.69895e-20
1.90011e-20
5.25996e-20
2.03969e-20
2.87441e-20
5.32441e-20
1.3053e-21
7.05032e-20
2.64214e-20
4.28638e-20
8.9697e-20
3.11891e-20
1.06907e-19
9.74039e-20
8.92711e-20
1.68138e-19
1.53538e-19
1.96486e-19
2.90533e-19
3.25709e-19
4.56552e-19
6.54827e-19
8.35336e-19
3.74853e-18
3.61634e-18
3.15519e-18
7.54403e-18
3.27128e-18
1.86752e-18
1.44749e-18
1.12512e-18
9.07414e-19
7.39074e-19
5.92555e-19
5.16154e-19
5.09869e-19
4.79227e-19
4.24146e-19
3.4964e-19
3.01158e-19
2.58127e-19
2.43339e-19
2.09513e-19
1.957e-19
1.76292e-19
1.62884e-19
1.3199e-19
1.37404e-19
1.0337e-19
1.1048e-19
8.91879e-20
8.97642e-20
7.50017e-20
7.34684e-20
5.85482e-20
6.30012e-20
4.50972e-20
5.30566e-20
3.99137e-20
3.81097e-20
4.69195e-20
1.86772e-20
5.19797e-20
2.09518e-20
2.77446e-20
5.38669e-20
9.44839e-22
6.9541e-20
2.72414e-20
4.07672e-20
8.96608e-20
2.97688e-20
1.0438e-19
9.59929e-20
8.51527e-20
1.63544e-19
1.47581e-19
1.85572e-19
2.77292e-19
3.02206e-19
4.24988e-19
5.92246e-19
7.46518e-19
3.54635e-18
3.26792e-18
2.88826e-18
6.99638e-18
3.08624e-18
1.64439e-18
1.2833e-18
9.99254e-19
8.14878e-19
6.72899e-19
5.48843e-19
4.83111e-19
4.80353e-19
4.53669e-19
4.04237e-19
3.35016e-19
2.90172e-19
2.49477e-19
2.3586e-19
2.03345e-19
1.90129e-19
1.71368e-19
1.59299e-19
1.28941e-19
1.34264e-19
1.01471e-19
1.07986e-19
8.77728e-20
8.80134e-20
7.39163e-20
7.21905e-20
5.79146e-20
6.20583e-20
4.47265e-20
5.22054e-20
3.98075e-20
3.71571e-20
4.67097e-20
1.83918e-20
5.10427e-20
2.15453e-20
2.65114e-20
5.42382e-20
5.97483e-22
6.80132e-20
2.80089e-20
3.81526e-20
8.90435e-20
2.80163e-20
1.00817e-19
9.39225e-20
7.99077e-20
1.57567e-19
1.4025e-19
1.7273e-19
2.61868e-19
2.7648e-19
3.90197e-19
5.28317e-19
6.59411e-19
3.25151e-18
2.80246e-18
2.57936e-18
6.22693e-18
2.88672e-18
1.42761e-18
1.13903e-18
8.85713e-19
7.31566e-19
6.12061e-19
5.08445e-19
4.52553e-19
4.52705e-19
4.29476e-19
3.85273e-19
3.21046e-19
2.79613e-19
2.41182e-19
2.28615e-19
1.9738e-19
1.84684e-19
1.66515e-19
1.55765e-19
1.26006e-19
1.31126e-19
9.97146e-20
1.05496e-19
8.63979e-20
8.62563e-20
7.27945e-20
7.08663e-20
5.7267e-20
6.10223e-20
4.43746e-20
5.12739e-20
3.96835e-20
3.6164e-20
4.63661e-20
1.81587e-20
4.9841e-20
2.21492e-20
2.51228e-20
5.43429e-20
3.09015e-22
6.60071e-20
2.87259e-20
3.51895e-20
8.79272e-20
2.61004e-20
9.64336e-20
9.14239e-20
7.39361e-20
1.50649e-19
1.32157e-19
1.5885e-19
2.45327e-19
2.50298e-19
3.54444e-19
4.67251e-19
5.76503e-19
2.89364e-18
2.29016e-18
2.24214e-18
5.34344e-18
2.66583e-18
1.22323e-18
1.01225e-18
7.84812e-19
6.57528e-19
5.56839e-19
4.71392e-19
4.24545e-19
4.27053e-19
4.06822e-19
3.67396e-19
3.07821e-19
2.69548e-19
2.33314e-19
2.21681e-19
1.91684e-19
1.79436e-19
1.6181e-19
1.52306e-19
1.23218e-19
1.28024e-19
9.80991e-20
1.03052e-19
8.50804e-20
8.45304e-20
7.16713e-20
6.95251e-20
5.66201e-20
5.99203e-20
4.40453e-20
5.02935e-20
3.95428e-20
3.51707e-20
4.59129e-20
1.79868e-20
4.84481e-20
2.27432e-20
2.36642e-20
5.419e-20
1.17657e-22
6.36657e-20
2.9408e-20
3.20497e-20
8.64282e-20
2.41838e-20