/*--------------------------------*- C++ -*----------------------------------*\
| =========                 |                                                 |
| \\      /  F ield         | OpenFOAM: The Open Source CFD Toolbox           |
|  \\    /   O peration     | Version:  2312                                  |
|   \\  /    A nd           | Website:  www.openfoam.com                      |
|    \\/     M anipulation  |                                                 |
\*---------------------------------------------------------------------------*/
FoamFile
{
    version     2.0;
    format      ascii;
    arch        "LSB;label=32;scalar=64";
    class       volScalarField;
    location    "1000";
    object      nut;
}
// * * * * * * * * * * * * * * * * * * * * * * * * * * * * * * * * * * * * * //

dimensions      [0 2 -1 0 0 0 0];

internalField   nonuniform List<scalar> 
144000
(
4.74761e-30
7.4019e-31
1.24282e-30
1.23404e-28
1.12757e-29
2.34033e-31
9.3661e-30
3.35483e-30
5.3065e-30
5.96232e-30
4.69964e-30
6.49682e-30
5.29181e-30
8.02042e-30
4.62983e-30
6.59427e-30
5.50204e-30
1.05035e-29
5.60214e-30
9.0045e-30
6.50968e-30
1.14794e-29
6.87612e-30
1.10159e-29
6.3347e-30
1.08187e-29
7.3988e-30
1.22068e-29
7.67479e-30
1.19667e-29
6.54703e-30
1.03121e-29
7.74644e-30
1.27678e-29
7.58146e-30
1.11428e-29
6.05895e-30
9.62243e-30
5.85101e-30
9.27866e-30
4.51256e-30
7.18348e-30
2.5193e-30
3.96728e-30
1.92371e-30
3.83586e-30
5.57849e-31
8.58389e-31
1.07778e-32
7.83491e-32
4.30642e-31
5.71886e-31
8.18945e-30
1.20933e-29
9.23239e-29
2.90962e-29
1.27799e-28
1.09606e-26
2.52492e-26
3.20285e-27
8.10409e-27
1.05378e-27
3.17322e-28
1.26575e-27
1.17373e-30
4.5928e-30
1.24331e-29
1.4016e-29
4.51247e-30
2.38032e-29
4.18451e-30
2.31793e-29
5.41861e-30
2.66088e-29
5.47158e-30
2.0219e-29
6.3433e-30
3.1606e-29
7.63005e-30
2.46574e-29
8.58693e-30
3.24617e-29
9.43697e-30
3.03796e-29
8.57983e-30
2.91708e-29
1.01361e-29
3.32792e-29
1.07742e-29
3.20551e-29
9.25118e-30
2.68233e-29
1.07445e-29
3.39483e-29
1.09965e-29
2.86301e-29
8.52176e-30
2.42539e-29
8.16877e-30
2.35837e-29
6.36097e-30
1.76346e-29
3.52046e-30
9.21214e-30
2.24059e-30
9.84161e-30
6.43703e-31
1.95007e-30
1.16407e-33
2.07844e-31
1.0554e-30
1.32831e-30
1.67486e-29
3.30458e-29
1.70063e-28
1.28618e-28
1.72113e-28
2.23717e-26
1.52605e-25
1.99044e-27
3.17367e-26
2.05836e-27
2.72213e-27
1.12652e-27
1.69088e-29
3.62364e-30
1.52792e-29
2.5024e-29
4.65487e-30
3.80936e-29
4.62618e-30
3.66258e-29
6.07755e-30
4.26266e-29
5.71361e-30
3.49037e-29
6.87315e-30
5.08651e-29
8.05913e-30
4.2252e-29
9.12461e-30
5.34987e-29
9.91071e-30
5.11666e-29
8.81864e-30
5.02317e-29
1.0572e-29
5.59251e-29
1.12285e-29
5.4384e-29
9.33482e-30
4.76794e-29
1.10784e-29
5.72313e-29
1.12729e-29
4.93982e-29
8.4804e-30
4.29811e-29
8.11095e-30
4.10869e-29
6.05884e-30
3.18878e-29
2.90395e-30
1.87361e-29
1.7892e-30
1.86363e-29
3.17905e-31
5.01203e-30
8.67219e-33
1.07891e-30
3.51057e-30
4.27753e-31
3.78401e-29
2.68901e-29
3.12055e-28
7.91778e-29
6.94572e-28
4.0341e-26
1.57298e-25
9.92239e-27
1.52916e-25
2.50596e-26
1.14824e-26
3.99672e-27
1.14527e-29
6.76753e-30
1.09901e-29
3.69644e-29
2.79973e-30
4.91965e-29
2.7341e-30
4.67509e-29
3.82067e-30
5.39035e-29
3.59132e-30
4.45545e-29
4.30945e-30
6.35605e-29
5.27124e-30
5.2969e-29
6.05708e-30
6.61493e-29
6.69938e-30
6.32236e-29
5.8343e-30
6.24311e-29
7.0568e-30
6.94849e-29
7.63265e-30
6.72119e-29
6.20155e-30
5.9643e-29
7.39862e-30
7.12471e-29
7.6348e-30
6.15863e-29
5.54536e-30
5.41869e-29
5.2174e-30
5.2186e-29
3.80624e-30
4.08615e-29
1.63073e-30
2.52549e-29
9.36448e-31
2.53206e-29
9.17688e-32
7.8379e-30
7.04515e-32
2.38395e-30
4.80237e-30
2.33412e-31
4.21846e-29
1.91853e-29
3.10727e-28
5.43716e-29
9.41133e-28
5.82432e-26
2.34482e-25
4.37525e-26
3.62365e-25
1.42534e-25
2.18098e-26
1.28502e-26
4.36376e-29
1.06905e-29
1.10242e-29
5.38522e-29
1.86333e-30
6.37692e-29
1.37213e-30
6.0134e-29
2.19e-30
6.77841e-29
2.08726e-30
5.57733e-29
2.53712e-30
7.88158e-29
3.28954e-30
6.50449e-29
3.89289e-30
8.06292e-29
4.37432e-30
7.66042e-29
3.71255e-30
7.58441e-29
4.62884e-30
8.45237e-29
5.02682e-30
8.15638e-29
3.96465e-30
7.26419e-29
4.87776e-30
8.70669e-29
5.00392e-30
7.52868e-29
3.45964e-30
6.68877e-29
3.2494e-30
6.50696e-29
2.24377e-30
5.1734e-29
8.28054e-31
3.3291e-29
4.57574e-31
3.41709e-29
1.38943e-32
1.20356e-29
2.0749e-31
4.88039e-30
6.01857e-30
2.90764e-31
4.49119e-29
1.33744e-29
2.97108e-28
3.149e-29
1.38831e-27
9.37095e-26
3.32026e-25
1.8684e-25
5.9534e-25
4.80505e-25
2.75656e-26
3.17813e-26
2.00247e-28
1.75424e-29
1.45817e-29
7.46241e-29
1.82553e-30
8.08462e-29
6.28703e-31
7.57464e-29
1.22267e-30
8.43258e-29
1.18113e-30
6.93148e-29
1.49507e-30
9.73138e-29
2.0338e-30
7.98719e-29
2.51925e-30
9.83707e-29
2.87561e-30
9.25692e-29
2.3806e-30
9.19643e-29
3.10123e-30
1.02651e-28
3.3776e-30
9.85672e-29
2.55366e-30
8.82853e-29
3.33043e-30
1.0617e-28
3.3458e-30
9.1783e-29
2.18201e-30
8.25577e-29
2.06e-30
8.12266e-29
1.33013e-30
6.54964e-29
4.02162e-31
4.39804e-29
2.34776e-31
4.62233e-29
6.47533e-34
1.84237e-29
3.81557e-31
9.44168e-30
6.85386e-30
9.84038e-31
4.49307e-29
1.00766e-29
2.66733e-28
1.62511e-29
2.04394e-27
1.55406e-25
4.38799e-25
5.80981e-25
7.85287e-25
1.20771e-24
2.64418e-26
6.50036e-26
6.68715e-28
2.98345e-29
2.01e-29
9.95224e-29
2.42761e-30
9.91457e-29
2.60383e-31
9.23308e-29
6.62622e-31
1.02119e-28
6.43566e-31
8.47462e-29
8.77352e-31
1.17849e-28
1.22912e-30
9.69647e-29
1.61357e-30
1.1845e-28
1.84456e-30
1.10456e-28
1.4977e-30
1.10447e-28
2.08907e-30
1.22871e-28
2.24622e-30
1.17585e-28
1.62205e-30
1.06492e-28
2.3174e-30
1.27587e-28
2.23072e-30
1.10427e-28
1.37085e-30
1.00932e-28
1.32888e-30
9.99764e-29
7.79181e-31
8.20413e-29
1.86688e-31
5.78799e-29
1.37826e-31
6.18057e-29
7.85763e-34
2.78932e-29
5.02521e-31
1.7534e-29
6.84686e-30
3.65795e-30
4.08278e-29
9.98727e-30
2.15425e-28
1.35389e-29
2.76437e-27
2.50633e-25
5.68293e-25
1.41358e-24
8.92165e-25
2.47038e-24
2.03499e-26
1.15288e-25
1.72558e-27
4.80281e-29
2.72408e-29
1.28426e-28
3.63144e-30
1.18781e-28
8.99962e-32
1.09524e-28
3.36837e-31
1.20927e-28
3.35485e-31
1.01355e-28
4.96949e-31
1.39703e-28
7.19231e-31
1.15526e-28
9.97522e-31
1.40345e-28
1.13195e-30
1.29789e-28
9.09599e-31
1.30661e-28
1.36685e-30
1.44869e-28
1.46145e-30
1.38032e-28
1.00303e-30
1.26541e-28
1.59766e-30
1.50951e-28
1.46534e-30
1.30814e-28
8.52745e-31
1.21604e-28
8.49112e-31
1.21337e-28
4.54596e-31
1.01348e-28
8.42933e-32
7.52893e-29
9.8303e-32
8.19933e-29
3.79437e-33
4.20272e-29
5.13287e-31
3.1861e-29
5.7636e-30
1.16037e-29
3.26561e-29
1.6536e-29
1.52169e-28
4.19382e-29
3.50124e-27
3.85262e-25
7.3446e-25
2.81272e-24
9.12119e-25
4.45186e-24
1.21417e-26
1.86587e-25
3.87889e-27
7.50809e-29
3.64673e-29
1.58784e-28
5.40658e-30
1.40127e-28
2.33028e-32
1.27288e-28
1.60436e-31
1.4043e-28
1.7169e-31
1.19099e-28
2.77871e-31
1.62478e-28
4.12306e-31
1.35339e-28
6.05211e-31
1.63593e-28
6.56136e-31
1.50484e-28
5.28646e-31
1.5255e-28
8.83711e-31
1.68292e-28
9.15039e-31
1.60095e-28
5.99944e-31
1.48569e-28
1.11001e-30
1.76086e-28
9.39937e-31
1.53128e-28
5.27207e-31
1.44722e-28
5.58997e-31
1.45322e-28
2.65708e-31
1.24105e-28
4.03135e-32
9.71804e-29
9.72588e-32
1.08204e-28
5.32999e-33
6.31681e-29
3.94374e-31
5.6796e-29
3.91113e-30
3.17462e-29
2.28379e-29
4.06679e-29
9.84642e-29
1.78178e-28
4.05949e-27
5.67834e-25
1.00344e-24
4.93786e-24
8.50929e-25
7.23645e-24
5.67907e-27
2.77624e-25
7.84475e-27
1.17278e-28
4.73037e-29
1.88966e-28
7.79234e-30
1.63368e-28
5.08935e-33
1.45532e-28
7.13305e-32
1.60437e-28
9.6188e-32
1.37541e-28
1.51816e-31
1.85826e-28
2.4086e-31
1.55998e-28
3.56575e-31
1.87876e-28
3.62145e-31
1.72191e-28
2.96886e-31
1.75851e-28
5.51558e-31
1.93223e-28
5.57756e-31
1.83458e-28
3.49331e-31
1.72383e-28
7.6406e-31
2.03161e-28
5.95821e-31
1.77434e-28
3.3049e-31
1.70535e-28
3.76665e-31
1.72621e-28
1.65695e-31
1.50864e-28
2.42846e-32
1.24755e-28
1.26761e-31
1.42831e-28
3.48824e-33
9.49389e-29
2.44935e-31
9.9398e-29
2.0528e-30
7.75754e-29
1.5653e-29
1.1196e-28
7.6976e-29
6.4269e-28
4.55986e-27
8.09078e-25
1.41692e-24
7.78702e-24
7.56043e-25
1.09547e-23
2.78022e-27
3.87863e-25
1.47692e-26
1.86572e-28
5.99901e-29
2.16676e-28
1.0756e-29
1.88406e-28
4.77094e-33
1.64053e-28
3.15018e-32
1.80533e-28
6.88151e-32
1.56771e-28
8.49826e-32
2.0932e-28
1.52601e-31
1.77423e-28
2.09629e-31
2.126e-28
1.89819e-31
1.94788e-28
1.61227e-31
2.00476e-28
3.41846e-31
2.19054e-28
3.27228e-31
2.08276e-28
1.97487e-31
1.98208e-28
5.34345e-31
2.31884e-28
3.73026e-31
2.04082e-28
2.13652e-31
1.99472e-28
2.76389e-31
2.03418e-28
1.15112e-31
1.82884e-28
2.2601e-32
1.5997e-28
2.12214e-31
1.88517e-28
6.44344e-33
1.42447e-28
2.19161e-31
1.70623e-28
1.14634e-30
1.75029e-28
1.63213e-29
2.94581e-28
1.20997e-28
1.83418e-27
4.82533e-27
1.13143e-24
2.14264e-24
1.14211e-23
6.50803e-25
1.55721e-23
5.09535e-27
5.10367e-25
2.6055e-26
3.06184e-28
7.43773e-29
2.40668e-28
1.43965e-29
2.16115e-28
1.82573e-32
1.83453e-28
1.49618e-32
2.01345e-28
6.90339e-32
1.76701e-28
4.88158e-32
2.33136e-28
1.13425e-31
1.99491e-28
1.20573e-31
2.37815e-28
9.58428e-32
2.18103e-28
8.70367e-32
2.26115e-28
2.02817e-31
2.45897e-28
1.88791e-31
2.34192e-28
1.10424e-31
2.25646e-28
3.74068e-31
2.62504e-28
2.35227e-31
2.33232e-28
1.48339e-31
2.3189e-28
2.18869e-31
2.38707e-28
9.89311e-32
2.21188e-28
3.5435e-32
2.04844e-28
4.12461e-31
2.49291e-28
5.84088e-32
2.13025e-28
6.62457e-31
2.86633e-28
2.26311e-30
3.61596e-28
3.54722e-29
7.03112e-28
3.22881e-28
4.43412e-27
5.12207e-27
1.5694e-24
3.28313e-24
1.56388e-23
6.1064e-25
2.11521e-23
1.67566e-26
6.41005e-25
4.33815e-26
5.09221e-28
9.32182e-29
2.55195e-28
1.85547e-29
2.46923e-28
5.78357e-32
2.03624e-28
1.16579e-32
2.23032e-28
9.30749e-32
1.97601e-28
3.24622e-32
2.56956e-28
1.06317e-31
2.22274e-28
7.15311e-32
2.63132e-28
4.84226e-32
2.42302e-28
4.78021e-32
2.52555e-28
1.21297e-31
2.73236e-28
1.04884e-31
2.6156e-28
6.14161e-32
2.54724e-28
2.75523e-31
2.94668e-28
1.4976e-31
2.65454e-28
1.13225e-31
2.68146e-28
2.0231e-31
2.78998e-28
1.05166e-31
2.67758e-28
7.69391e-32
2.61842e-28
8.73214e-31
3.29959e-28
3.59457e-31
3.16707e-28
2.82835e-30
4.70581e-28
9.57702e-30
6.93414e-28
1.04345e-28
1.51704e-27
8.98605e-28
9.2165e-27
5.25168e-27
2.15639e-24
5.23328e-24
2.03811e-23
6.59071e-25
2.7715e-23
5.04096e-26
7.75721e-25
6.83002e-26
8.65369e-28
1.1694e-28
2.58871e-28
2.30433e-29
2.80854e-28
1.38658e-31
2.24377e-28
1.70114e-32
2.45339e-28
1.40977e-31
2.19061e-28
2.64981e-32
2.80906e-28
1.23703e-31
2.4563e-28
4.33366e-32
2.88697e-28
2.8786e-32
2.67002e-28
2.96006e-32
2.79629e-28
6.99841e-32
3.01407e-28
5.87356e-32
2.89807e-28
3.63155e-32
2.85252e-28
2.06945e-31
3.28878e-28
1.01151e-31
3.0066e-28
1.00195e-31
3.08653e-28
2.11737e-31
3.25471e-28
1.43436e-31
3.23421e-28
1.91767e-31
3.33474e-28
1.83583e-30
4.36737e-28
1.49129e-30
4.65393e-28
9.97635e-30
7.52821e-28
3.56204e-29
1.2598e-27
2.85567e-28
2.98481e-27
2.21302e-27
1.72952e-26
5.46379e-27
2.95094e-24
8.22223e-24
2.53872e-23
9.33546e-25
3.53249e-23
1.13243e-25
9.14049e-25
1.01933e-25
1.48066e-27
1.48038e-28
2.48832e-28
2.73074e-29
3.15641e-28
2.60133e-31
2.44138e-28
3.09554e-32
2.66932e-28
2.14425e-31
2.407e-28
2.89978e-32
3.04063e-28
1.64099e-31
2.69302e-28
3.02555e-32
3.13722e-28
2.47403e-32
2.9221e-28
2.27134e-32
3.07185e-28
4.20348e-32
3.29733e-28
3.39744e-32
3.19312e-28
2.3677e-32
3.17448e-28
1.66637e-31
3.64698e-28
7.39967e-32
3.39479e-28
1.03037e-31
3.53907e-28
2.58714e-31
3.78554e-28
2.28546e-31
3.9053e-28
4.68116e-31
4.24142e-28
3.83378e-30
5.75085e-28
4.64161e-30
6.74027e-28
2.80862e-29
1.16898e-27
1.01926e-28
2.1534e-27
6.76306e-28
5.41435e-27
4.71286e-27
2.94789e-26
5.63074e-27
4.03741e-24
1.30009e-23
3.04646e-23
1.49587e-24
4.39938e-23
2.21424e-25
1.06434e-24
1.45553e-25
2.59872e-27
1.79239e-28
2.30234e-28
3.12798e-29
3.54539e-28
4.48658e-31
2.64301e-28
5.61278e-32
2.88808e-28
3.13948e-31
2.62511e-28
3.85407e-32
3.27082e-28
2.27316e-31
2.9332e-28
2.48696e-32
3.38685e-28
3.0769e-32
3.17709e-28
2.28086e-32
3.3507e-28
2.54221e-32
3.58588e-28
2.26022e-32
3.49475e-28
1.8383e-32
3.50898e-28
1.39444e-31
4.02754e-28
6.18479e-32
3.81858e-28
1.24614e-31
4.04096e-28
3.43406e-31
4.39078e-28
4.08861e-31
4.69822e-28
1.08624e-30
5.36229e-28
7.63195e-30
7.51442e-28
1.19209e-29
9.56338e-28
6.62897e-29
1.75111e-27
2.39631e-28
3.44743e-27
1.40759e-27
9.07441e-27
8.88813e-27
4.64578e-26
6.31118e-27
5.57291e-24
1.96785e-23
3.51652e-23
2.66873e-24
5.31655e-23
3.69181e-25
1.23158e-24
1.96862e-25
4.4598e-27
2.17385e-28
1.98915e-28
3.43181e-29
3.9611e-28
7.13415e-31
2.84318e-28
9.40081e-32
3.10549e-28
4.51044e-31
2.84404e-28
5.55926e-32
3.49014e-28
3.17238e-31
3.17421e-28
2.59186e-32
3.62861e-28
4.66951e-32
3.4379e-28
2.77058e-32
3.62845e-28
1.81108e-32
3.87316e-28
1.76255e-32
3.80951e-28
1.66532e-32
3.85446e-28
1.31139e-31
4.42265e-28
5.79267e-32
4.28441e-28
1.64317e-31
4.59544e-28
4.97637e-31
5.07509e-28
7.30979e-31
5.64393e-28
2.29051e-30
6.72692e-28
1.43601e-29
9.72572e-28
2.60182e-29
1.33087e-27
1.35738e-28
2.54425e-27
4.84563e-28
5.29311e-27
2.58969e-27
1.4227e-26
1.50712e-26
6.81751e-26
7.34301e-27
7.62437e-24
2.93713e-23
3.8952e-23
4.63833e-24
6.29185e-23
5.59424e-25
1.45002e-24
2.52551e-25
7.46658e-27
2.55859e-28
1.60537e-28
3.56738e-29
4.39754e-28
1.0812e-30
3.04741e-28
1.48192e-31
3.32113e-28
6.17303e-31
3.06039e-28
8.24775e-32
3.70548e-28
4.30636e-31
3.41561e-28
3.14482e-32
3.86786e-28
7.19383e-32
3.69754e-28
3.66582e-32
3.90325e-28
1.50071e-32
4.16413e-28
1.68123e-32
4.12694e-28
1.74019e-32
4.20787e-28
1.29909e-31
4.83912e-28
6.28398e-32
4.78252e-28
2.34231e-31
5.20153e-28
7.4038e-31
5.84495e-28
1.31186e-30
6.7288e-28
4.50317e-30
8.34213e-28
2.52212e-29
1.24158e-27
5.07429e-29
1.80249e-27
2.4928e-28
3.5582e-27
8.75645e-28
7.71582e-27
4.30488e-27
2.08044e-26
2.35749e-26
9.48973e-26
9.31146e-27
1.03195e-23
4.20619e-23
4.15911e-23
8.42026e-24
7.38087e-23
7.40221e-25
1.72001e-24
3.08158e-25
1.20903e-26
2.91738e-28
1.19197e-28
3.4399e-29
4.78775e-28
1.49324e-30
3.22472e-28
2.03794e-31
3.50969e-28
7.99534e-31
3.26294e-28
1.16812e-31
3.8975e-28
5.62162e-31
3.64887e-28
4.13952e-32
4.08945e-28
1.05435e-31
3.95323e-28
4.90989e-32
4.17001e-28
1.52731e-32
4.44727e-28
1.8406e-32
4.44941e-28
1.95477e-32
4.56933e-28
1.41308e-31
5.26505e-28
7.63731e-32
5.31938e-28
3.48685e-31
5.85364e-28
1.12913e-30
6.69147e-28
2.2555e-30
7.96773e-28
8.10311e-30
1.02288e-27
4.15728e-29
1.55828e-27
8.90138e-29
2.37546e-27
4.142e-28
4.79027e-27
1.41814e-27
1.06682e-26
6.50636e-27
2.8514e-26
3.40773e-26
1.24749e-25
1.23935e-26
1.38023e-23
5.93967e-23
4.28884e-23
1.4044e-23
8.61692e-23
9.25312e-25
2.10953e-24
3.59617e-25
1.92735e-26
2.99671e-28
8.43592e-29
3.11284e-29
5.18729e-28
2.04818e-30
3.40382e-28
2.69216e-31
3.68671e-28
9.87267e-31
3.45562e-28
1.62629e-31
4.07846e-28
7.03922e-31
3.87628e-28
5.59239e-32
4.30049e-28
1.4269e-31
4.20035e-28
6.35618e-32
4.42795e-28
1.74199e-32
4.72444e-28
2.1428e-32
4.76521e-28
2.28042e-32
4.93307e-28
1.5813e-31
5.70414e-28
1.04087e-31
5.88175e-28
5.36315e-31
6.54242e-28
1.68903e-30
7.60062e-28
3.77269e-30
9.32352e-28
1.36774e-29
1.23418e-27
6.43119e-29
1.91512e-27
1.44083e-28
3.02797e-27
6.34999e-28
6.17346e-27
2.11249e-27
1.39349e-26
9.09149e-27
3.67868e-26
4.57634e-26
1.55105e-25
1.88262e-26
1.83421e-23
7.95423e-23
4.26826e-23
2.29094e-23
9.80503e-23
1.07169e-24
2.61421e-24
3.95229e-25
2.91214e-26
2.9825e-28
5.52383e-29
2.60651e-29
5.54749e-28
2.76298e-30
3.58249e-28
3.46266e-31
3.85373e-28
1.20937e-30
3.63865e-28
2.17061e-31
4.23835e-28
8.6332e-31
4.09334e-28
7.41608e-32
4.49379e-28
1.84685e-31
4.44182e-28
8.03117e-32
4.66913e-28
2.11444e-32
4.98617e-28
2.51907e-32
5.07806e-28
2.69216e-32
5.2883e-28
1.89874e-31
6.13943e-28
1.46585e-31
6.46885e-28
8.02612e-31
7.25741e-28
2.47952e-30
8.55902e-28
5.90983e-30
1.07975e-27
2.13593e-29
1.46408e-27
9.37952e-29
2.30226e-27
2.14281e-28
3.74253e-27
8.98415e-28
7.64497e-27
2.89221e-27
1.73042e-26
1.17798e-26
4.50343e-26
5.73239e-26
1.83022e-25
2.85492e-26
2.38464e-23
1.03912e-22
4.00688e-23
3.53463e-23
1.09848e-22
1.18297e-24
3.2944e-24
4.11332e-25
4.17673e-26
2.91273e-28
3.34275e-29
1.99105e-29
5.86594e-28
3.71911e-30
3.77521e-28
4.50668e-31
4.01821e-28
1.47101e-30
3.81003e-28
2.86222e-31
4.38702e-28
1.03297e-30
4.29736e-28
9.68331e-32
4.67472e-28
2.28645e-31
4.6687e-28
9.84879e-32
4.88792e-28
2.5942e-32
5.23289e-28
2.94965e-32
5.37387e-28
3.17443e-32
5.62188e-28
2.35703e-31
6.56646e-28
2.10869e-31
7.0557e-28
1.1657e-30
7.97059e-28
3.51628e-30
9.53605e-28
8.73257e-30
1.23153e-27
3.12755e-29
1.70025e-27
1.29062e-28
2.69827e-27
2.96319e-28
4.46282e-27
1.18146e-27
9.05527e-27
3.66873e-27
2.03169e-26
1.41742e-26
5.18678e-26
6.74649e-26
2.05984e-25
4.47147e-26
3.02453e-23
1.29848e-22
3.56746e-23
5.24247e-23
1.1984e-22
1.27604e-24
4.12354e-24
4.02799e-25
5.60082e-26
3.05969e-28
1.73187e-29
1.3453e-29
6.01962e-28
4.60503e-30
3.91528e-28
5.17481e-31
4.12457e-28
1.69939e-30
3.92964e-28
3.49279e-31
4.48498e-28
1.18529e-30
4.45644e-28
1.18701e-31
4.80881e-28
2.66316e-31
4.85622e-28
1.16956e-31
5.06618e-28
3.11641e-32
5.44107e-28
3.40904e-32
5.63702e-28
3.70672e-32
5.92301e-28
2.95653e-31
6.95914e-28
2.93314e-31
7.61898e-28
1.58865e-30
8.65631e-28
4.71397e-30
1.04899e-27
1.18971e-29
1.38285e-27
4.20129e-29
1.93389e-27
1.65277e-28
3.07981e-27
3.75392e-28
5.13329e-27
1.42604e-27
1.02507e-26
4.23501e-27
2.25072e-26
1.54674e-26
5.55923e-26
7.21756e-26
2.15707e-25
7.2342e-26
3.70499e-23
1.55999e-22
2.93202e-23
7.25923e-23
1.31545e-22
1.40558e-24
5.30813e-24
3.72482e-25
7.15912e-26
3.49121e-28
6.55385e-30
7.86484e-30
5.904e-28
4.88567e-30
3.93161e-28
4.62843e-31
4.11411e-28
1.68352e-30
3.93907e-28
3.90772e-31
4.50364e-28
1.22459e-30
4.52411e-28
1.36151e-31
4.8733e-28
2.69641e-31
4.97024e-28
1.27524e-31
5.18603e-28
3.69923e-32
5.60506e-28
3.7964e-32
5.84572e-28
4.31381e-32
6.17922e-28
3.41786e-31
7.33052e-28
3.97483e-31
8.13817e-28
2.03574e-30
9.31255e-28
5.74852e-30
1.14252e-27
1.49168e-29
1.52973e-27
5.16305e-29
2.15858e-27
1.91927e-28
3.44115e-27
4.32141e-28
5.70808e-27
1.56327e-27
1.11141e-26
4.42469e-27
2.35599e-26
1.52002e-26
5.58327e-26
7.03327e-26
2.1665e-25
1.17815e-25
4.36855e-23
1.78642e-22
2.29342e-23
1.02836e-22
1.44192e-22
1.58354e-24
6.90314e-24
3.3452e-25
9.30555e-26
4.25054e-28
1.64885e-30
4.69027e-30
5.80016e-28
5.25946e-30
4.01236e-28
3.83362e-31
4.1498e-28
1.63206e-30
4.01014e-28
3.79808e-31
4.58338e-28
1.21168e-30
4.66511e-28
1.39702e-31
4.99631e-28
2.43196e-31
5.13972e-28
1.21828e-31
5.35244e-28
4.00969e-32
5.81331e-28
3.95778e-32
6.10401e-28
5.47294e-32
6.49116e-28
5.1509e-31
7.75544e-28
6.16968e-31
8.70902e-28
2.91834e-30
1e-27
7.78369e-30
1.23651e-27
1.96987e-29
1.67469e-27
6.53423e-29
2.36926e-27
2.30278e-28
3.75066e-27
4.97341e-28
6.14136e-27
1.70562e-27
1.15819e-26
4.535e-27
2.36576e-26
1.46928e-26
5.40941e-26
6.84683e-26
2.18487e-25
1.70289e-25
5.14153e-23
2.07477e-22
1.61388e-23
7.92198e-30
6.24261e-31
9.79222e-31
1.20586e-28
1.05048e-29
3.0462e-31
8.58998e-30
3.75177e-30
5.05256e-30
6.07377e-30
4.74206e-30
6.34981e-30
5.42677e-30
7.69926e-30
4.90753e-30
6.18385e-30
5.79561e-30
9.89998e-30
5.89682e-30
8.47301e-30
6.78021e-30
1.09841e-29
7.08476e-30
1.05136e-29
6.64937e-30
1.02479e-29
7.61513e-30
1.19174e-29
7.67651e-30
1.18382e-29
6.5891e-30
1.0179e-29
7.7337e-30
1.26829e-29
7.56018e-30
1.10256e-29
6.14415e-30
9.45415e-30
5.88732e-30
9.26123e-30
4.49275e-30
7.21657e-30
2.55669e-30
3.98996e-30
1.92892e-30
3.804e-30
5.77027e-31
8.46359e-31
1.3132e-32
7.50249e-32
3.84096e-31
5.58552e-31
8.01927e-30
1.15689e-29
9.19338e-29
3.17803e-29
1.19079e-28
1.1197e-26
2.63581e-26
3.09106e-27
8.6983e-27
1.11536e-27
3.00112e-28
1.22544e-27
1.04666e-30
4.96097e-30
1.18039e-29
1.49153e-29
4.4107e-30
2.36286e-29
4.33891e-30
2.25706e-29
5.63435e-30
2.56576e-29
5.8394e-30
1.91805e-29
6.77492e-30
3.00639e-29
8.04245e-30
2.34488e-29
9.03454e-30
3.11195e-29
9.86736e-30
2.89186e-29
9.21093e-30
2.75201e-29
1.07561e-29
3.20271e-29
1.1112e-29
3.11675e-29
9.61102e-30
2.60577e-29
1.10479e-29
3.31731e-29
1.12858e-29
2.78966e-29
8.88517e-30
2.35399e-29
8.46772e-30
2.315e-29
6.53019e-30
1.73967e-29
3.6896e-30
9.1005e-30
2.32365e-30
9.63768e-30
6.8789e-31
1.90305e-30
2.0392e-33
1.93957e-31
9.61288e-31
1.32222e-30
1.64133e-29
3.2399e-29
1.68912e-28
1.38285e-28
1.58289e-28
2.28407e-26
1.57359e-25
1.90168e-27
3.20323e-26
2.08223e-27
2.65568e-27
1.06965e-27
1.68964e-29
3.7321e-30
1.50549e-29
2.46728e-29
4.82887e-30
3.6823e-29
5.01151e-30
3.50078e-29
6.50786e-30
4.06357e-29
6.25744e-30
3.28634e-29
7.53188e-30
4.80988e-29
8.63881e-30
4.01468e-29
9.72814e-30
5.12554e-29
1.05098e-29
4.85864e-29
9.6691e-30
4.7258e-29
1.14916e-29
5.34441e-29
1.18847e-29
5.23164e-29
9.99112e-30
4.58167e-29
1.17106e-29
5.52888e-29
1.19007e-29
4.75883e-29
9.10907e-30
4.13053e-29
8.65302e-30
3.99116e-29
6.40641e-30
3.10696e-29
3.1643e-30
1.8224e-29
1.93544e-30
1.8042e-29
3.64073e-31
4.83696e-30
5.16546e-33
1.00992e-30
3.27714e-30
4.39789e-31
3.72412e-29
2.64573e-29
3.10884e-28
8.51306e-29
6.61423e-28
4.11567e-26
1.61339e-25
9.69889e-27
1.53497e-25
2.49977e-26
1.13295e-26
3.86576e-27
1.1643e-29
6.58021e-30
1.12055e-29
3.53988e-29
3.12539e-30
4.65363e-29
3.1665e-30
4.39898e-29
4.28248e-30
5.08379e-29
4.10058e-30
4.17735e-29
4.94353e-30
5.97019e-29
5.84167e-30
5.02652e-29
6.62473e-30
6.33218e-29
7.24057e-30
6.00168e-29
6.59059e-30
5.87665e-29
7.92021e-30
6.61491e-29
8.31059e-30
6.42593e-29
6.88676e-30
5.69311e-29
8.10064e-30
6.82734e-29
8.33747e-30
5.87981e-29
6.21002e-30
5.16447e-29
5.81022e-30
5.01631e-29
4.19723e-30
3.93303e-29
1.89134e-30
2.42169e-29
1.09462e-30
2.40996e-29
1.25058e-31
7.40515e-30
4.87874e-32
2.17859e-30
4.42315e-30
2.56779e-31
4.10491e-29
1.9114e-29
3.06879e-28
5.84808e-29
9.07939e-28
5.91096e-26
2.38876e-25
4.34816e-26
3.62931e-25
1.4228e-25
2.16421e-26
1.25863e-26
4.3269e-29
9.96683e-30
1.14738e-29
5.1296e-29
2.21546e-30
5.94629e-29
1.74795e-30
5.5957e-29
2.61041e-30
6.33881e-29
2.52398e-30
5.21525e-29
3.0897e-30
7.3565e-29
3.82965e-30
6.1518e-29
4.42433e-30
7.69756e-29
4.85083e-30
7.28132e-29
4.34736e-30
7.15114e-29
5.39727e-30
8.0205e-29
5.65372e-30
7.77472e-29
4.58947e-30
6.90425e-29
5.54954e-30
8.29755e-29
5.67453e-30
7.15048e-29
4.06954e-30
6.33852e-29
3.81194e-30
6.20027e-29
2.6069e-30
4.93887e-29
1.04184e-30
3.16226e-29
5.87912e-31
3.21225e-29
2.85011e-32
1.12111e-29
1.48472e-31
4.41507e-30
5.43586e-30
3.09712e-31
4.31083e-29
1.35207e-29
2.91616e-28
3.40695e-29
1.35244e-27
9.46893e-26
3.37022e-25
1.86813e-25
5.95383e-25
4.79799e-25
2.74709e-26
3.13281e-26
1.96044e-28
1.61172e-29
1.51592e-29
7.03124e-29
2.18605e-30
7.48187e-29
9.13031e-31
6.98924e-29
1.58291e-30
7.83526e-29
1.54437e-30
6.46189e-29
1.96846e-30
9.02758e-29
2.53705e-30
7.51271e-29
3.02806e-30
9.34327e-29
3.31712e-30
8.80229e-29
2.91791e-30
8.68398e-29
3.77784e-30
9.71442e-29
3.94297e-30
9.38865e-29
3.09162e-30
8.37772e-29
3.94254e-30
1.00866e-28
3.95251e-30
8.69912e-29
2.71036e-30
7.80082e-29
2.56214e-30
7.69114e-29
1.6469e-30
6.22298e-29
5.63389e-31
4.15597e-29
3.35536e-31
4.31333e-29
3.86147e-33
1.70338e-29
2.72534e-31
8.53405e-30
6.03562e-30
9.68686e-31
4.24733e-29
1.04055e-29
2.60883e-28
1.73155e-29
2.01021e-27
1.5679e-25
4.43959e-25
5.81495e-25
7.84651e-25
1.20696e-24
2.64265e-26
6.43402e-26
6.5359e-28
2.74286e-29
2.07679e-29
9.3719e-29
2.78587e-30
9.17711e-29
4.47098e-31
8.49428e-29
9.43402e-31
9.46886e-29
9.19765e-31
7.89011e-29
1.26197e-30
1.08883e-28
1.66595e-30
9.06936e-29
2.08606e-30
1.11811e-28
2.25499e-30
1.04934e-28
1.94804e-30
1.04326e-28
2.6818e-30
1.15901e-28
2.75458e-30
1.11908e-28
2.07067e-30
1.00954e-28
2.86109e-30
1.20979e-28
2.76422e-30
1.04605e-28
1.80993e-30
9.52518e-29
1.76252e-30
9.42386e-29
1.04601e-30
7.77178e-29
3.01742e-31
5.45359e-29
2.17224e-31
5.74984e-29
4.28513e-34
2.57315e-29
3.51135e-31
1.59173e-29
5.85219e-30
3.47972e-30
3.80145e-29
1.04458e-29
2.10731e-28
1.31737e-29
2.73309e-27
2.52727e-25
5.73583e-25
1.4163e-24
8.9092e-25
2.46967e-24
2.04028e-26
1.14426e-25
1.6858e-27
4.42094e-29
2.80495e-29
1.21075e-28
3.98447e-30
1.10349e-28
1.97095e-31
1.00894e-28
5.36411e-31
1.1222e-28
5.25672e-31
9.44417e-29
7.92445e-31
1.28896e-28
1.0696e-30
1.07614e-28
1.41446e-30
1.31741e-28
1.49974e-30
1.23048e-28
1.28012e-30
1.23387e-28
1.8738e-30
1.36239e-28
1.91091e-30
1.31183e-28
1.36877e-30
1.19871e-28
2.07569e-30
1.42984e-28
1.92438e-30
1.2391e-28
1.20932e-30
1.14769e-28
1.21278e-30
1.14084e-28
6.74518e-31
9.58289e-29
1.65103e-31
7.0873e-29
1.67297e-31
7.63164e-29
5.5666e-34
3.88514e-29
3.48407e-31
2.91384e-29
4.77383e-30
1.09261e-29
3.00019e-29
1.69186e-29
1.49048e-28
3.86806e-29
3.47693e-27
3.88091e-25
7.39663e-25
2.81853e-24
9.10705e-25
4.45363e-24
1.21817e-26
1.85648e-25
3.79676e-27
6.93312e-29
3.76062e-29
1.4977e-28
5.73697e-30
1.30778e-28
7.63532e-32
1.17723e-28
2.9188e-31
1.30737e-28
2.9e-31
1.1128e-28
4.94914e-31
1.50097e-28
6.72552e-31
1.25813e-28
9.56711e-31
1.52931e-28
9.67207e-31
1.42345e-28
8.25101e-31
1.43955e-28
1.31178e-30
1.57831e-28
1.30257e-30
1.51837e-28
8.94012e-31
1.40592e-28
1.53188e-30
1.66676e-28
1.32848e-30
1.4504e-28
8.15343e-31
1.36665e-28
8.65961e-31
1.36474e-28
4.46081e-31
1.17213e-28
1.0046e-31
9.14999e-29
1.70373e-31
1.00964e-28
1.23036e-33
5.86323e-29
2.62772e-31
5.23786e-29
3.1258e-30
2.98482e-29
2.08556e-29
4.02108e-29
9.73234e-29
1.67496e-28
4.04126e-27
5.71308e-25
1.00889e-24
4.95076e-24
8.49344e-25
7.24208e-24
5.65695e-27
2.76704e-25
7.69438e-27
1.08857e-28
4.89319e-29
1.78185e-28
8.07222e-30
1.52967e-28
2.87048e-32
1.35174e-28
1.53855e-31
1.49961e-28
1.65286e-31
1.29008e-28
3.06095e-31
1.72234e-28
4.23625e-31
1.45025e-28
6.41276e-31
1.7523e-28
6.11985e-31
1.62558e-28
5.29314e-31
1.65843e-28
9.05303e-31
1.80837e-28
8.85391e-31
1.73593e-28
5.85041e-31
1.62966e-28
1.1363e-30
1.92216e-28
9.23879e-31
1.68016e-28
5.68049e-31
1.61172e-28
6.39788e-31
1.62079e-28
3.20293e-31
1.42397e-28
7.7146e-32
1.17616e-28
2.20723e-31
1.33738e-28
3.78223e-33
8.85406e-29
1.8108e-31
9.24212e-29
1.61346e-30
7.30501e-29
1.46024e-29
1.0873e-28
7.8114e-29
6.18666e-28
4.553e-27
8.13226e-25
1.42176e-24
7.80761e-24
7.55931e-25
1.09694e-23
2.66526e-27
3.87172e-25
1.45296e-26
1.74334e-28
6.24291e-29
2.041e-28
1.09413e-29
1.76857e-28
1.62276e-32
1.52857e-28
8.39618e-32
1.69435e-28
1.07352e-31
1.4759e-28
1.96422e-31
1.94836e-28
2.76435e-31
1.65179e-28
4.3781e-31
1.98142e-28
3.81271e-31
1.83645e-28
3.40326e-31
1.88998e-28
6.3345e-31
2.04758e-28
5.97188e-31
1.96675e-28
3.85789e-31
1.87224e-28
8.68355e-31
2.19322e-28
6.49946e-31
1.93172e-28
4.16453e-31
1.88665e-28
5.14841e-31
1.91081e-28
2.57066e-31
1.72619e-28
8.14556e-32
1.51091e-28
3.5607e-31
1.77237e-28
2.45413e-32
1.33536e-28
2.46449e-31
1.59891e-28
1.06365e-30
1.65201e-28
1.63951e-29
2.84907e-28
1.26409e-28
1.79004e-27
4.82066e-27
1.13627e-24
2.15096e-24
1.14559e-23
6.52524e-25
1.55993e-23
4.77029e-27
5.10037e-25
2.57109e-26
2.88213e-28
7.78593e-29
2.26451e-28
1.44126e-29
2.03199e-28
2.22421e-32
1.71367e-28
4.85244e-32
1.89754e-28
8.8056e-32
1.66968e-28
1.30876e-31
2.18094e-28
1.95219e-31
1.86237e-28
3.01248e-31
2.21826e-28
2.37661e-31
2.05501e-28
2.25333e-31
2.13208e-28
4.39393e-31
2.29796e-28
4.09761e-31
2.20787e-28
2.62853e-31
2.13008e-28
6.77571e-31
2.4826e-28
4.72822e-31
2.20653e-28
3.32246e-31
2.1948e-28
4.46734e-31
2.24423e-28
2.46411e-31
2.08809e-28
1.18885e-31
1.93787e-28
6.52876e-31
2.35439e-28
1.4968e-31
2.00753e-28
9.0831e-31
2.70586e-28
2.68559e-30
3.43429e-28
3.7793e-29
6.81267e-28
3.38979e-28
4.36871e-27
5.12188e-27
1.57588e-24
3.29641e-24
1.56891e-23
6.1555e-25
2.11993e-23
1.59006e-26
6.41121e-25
4.29465e-26
4.83257e-28
9.83224e-29
2.39745e-28
1.83405e-29
2.31698e-28
4.89514e-32
1.90353e-28
3.56711e-32
2.10638e-28
9.67959e-32
1.87234e-28
9.85087e-32
2.41507e-28
1.59692e-31
2.08184e-28
2.18634e-31
2.45872e-28
1.51501e-31
2.28307e-28
1.56401e-31
2.38275e-28
3.17261e-31
2.55507e-28
2.83637e-31
2.46362e-28
1.87344e-31
2.40394e-28
5.6203e-31
2.78709e-28
3.57824e-31
2.51063e-28
2.91823e-31
2.53961e-28
4.40824e-31
2.62636e-28
2.75764e-31
2.52961e-28
2.14316e-31
2.48277e-28
1.30022e-30
3.1286e-28
6.53087e-31
3.00031e-28
3.66048e-30
4.47346e-28
1.13714e-29
6.64811e-28
1.11867e-28
1.47574e-27
9.3807e-28
9.12155e-27
5.2524e-27
2.16442e-24
5.25865e-24
2.04561e-23
6.68276e-25
2.77942e-23
4.85055e-26
7.76303e-25
6.77929e-26
8.28289e-28
1.23938e-28
2.43034e-28
2.25769e-29
2.63209e-28
1.08264e-31
2.09779e-28
3.6908e-32
2.31943e-28
1.30724e-31
2.08e-28
8.43886e-32
2.65149e-28
1.58109e-31
2.30848e-28
1.6589e-31
2.70401e-28
1.06462e-31
2.51692e-28
1.20003e-31
2.64032e-28
2.339e-31
2.822e-28
2.06882e-31
2.72867e-28
1.46469e-31
2.69241e-28
4.81872e-31
3.11182e-28
2.93029e-31
2.8432e-28
2.89381e-31
2.92514e-28
4.79542e-31
3.06846e-28
3.66486e-31
3.05906e-28
4.3723e-31
3.17069e-28
2.59145e-30
4.15381e-28
2.23455e-30
4.42903e-28
1.20773e-29
7.20365e-28
4.0861e-29
1.22543e-27
3.02535e-28
2.9163e-27
2.29618e-27
1.7178e-26
5.45954e-27
2.96085e-24
8.26451e-24
2.54921e-23
9.53342e-25
3.54483e-23
1.09661e-25
9.15028e-25
1.01428e-25
1.4293e-27
1.57305e-28
2.33533e-28
2.66151e-29
2.96059e-28
2.05361e-31
2.28341e-28
5.10971e-32
2.5257e-28
1.9151e-31
2.28914e-28
8.77338e-32
2.88057e-28
1.85738e-31
2.53943e-28
1.40693e-31
2.94622e-28
8.87763e-32
2.75699e-28
1.04439e-31
2.90327e-28
1.86729e-31
3.09223e-28
1.61253e-31
3.00722e-28
1.26468e-31
2.99782e-28
4.42918e-31
3.45263e-28
2.61352e-31
3.21086e-28
3.18949e-31
3.3568e-28
5.85033e-31
3.57528e-28
5.42011e-31
3.6996e-28
9.0167e-31
4.04205e-28
5.1151e-30
5.48931e-28
6.21421e-30
6.44411e-28
3.24851e-29
1.12503e-27
1.13368e-28
2.10819e-27
7.09939e-28
5.31147e-27
4.86469e-27
2.93289e-26
5.60907e-27
4.05005e-24
1.30833e-23
3.06101e-23
1.5278e-24
4.41542e-23
2.16272e-25
1.06583e-24
1.45167e-25
2.53162e-27
1.90138e-28
2.16623e-28
3.02942e-29
3.32569e-28
3.61316e-31
2.4743e-28
7.86262e-32
2.73547e-28
2.81096e-31
2.5002e-28
1.03749e-31
3.10939e-28
2.41129e-31
2.77522e-28
1.30889e-31
3.19014e-28
9.06852e-32
3.00158e-28
1.04825e-31
3.17071e-28
1.57396e-31
3.36978e-28
1.40923e-31
3.29389e-28
1.23043e-31
3.31585e-28
4.24619e-31
3.81543e-28
2.59147e-31
3.61262e-28
3.89192e-31
3.83751e-28
7.57324e-31
4.15441e-28
8.71189e-31
4.45777e-28
1.82775e-30
5.12049e-28
9.69392e-30
7.19842e-28
1.48756e-29