/*--------------------------------*- C++ -*----------------------------------*\
| =========                 |                                                 |
| \\      /  F ield         | OpenFOAM: The Open Source CFD Toolbox           |
|  \\    /   O peration     | Version:  2312                                  |
|   \\  /    A nd           | Website:  www.openfoam.com                      |
|    \\/     M anipulation  |                                                 |
\*---------------------------------------------------------------------------*/
FoamFile
{
    version     2.0;
    format      ascii;
    arch        "LSB;label=32;scalar=64";
    class       volScalarField;
    location    "880";
    object      nut;
}
// * * * * * * * * * * * * * * * * * * * * * * * * * * * * * * * * * * * * * //

dimensions      [0 2 -1 0 0 0 0];

internalField   nonuniform List<scalar> 
144000
(
1.77607e-30
1.07599e-30
6.93763e-31
1.07707e-28
1.80181e-29
1.54895e-31
1.22731e-29
2.76647e-30
7.63373e-30
5.04611e-30
7.06161e-30
5.67251e-30
7.79107e-30
6.91858e-30
7.13044e-30
5.9245e-30
8.31426e-30
9.30287e-30
8.50685e-30
8.08394e-30
9.62427e-30
1.03264e-29
1.0175e-29
1.00213e-29
9.58244e-30
9.90017e-30
1.09034e-29
1.11698e-29
1.11707e-29
1.08832e-29
9.84691e-30
9.4368e-30
1.10689e-29
1.11981e-29
1.02137e-29
8.99623e-30
7.78113e-30
6.95054e-30
6.45885e-30
4.47847e-30
4.73169e-30
2.39117e-30
7.10082e-30
5.70612e-30
4.26387e-30
3.84433e-30
1.63515e-30
8.88953e-31
1.84965e-31
6.22634e-32
7.78937e-32
6.95459e-31
5.46327e-30
1.50179e-29
8.39774e-29
4.05573e-29
1.62796e-28
1.24452e-26
2.85644e-26
4.98231e-27
7.55863e-27
1.01072e-27
2.97284e-28
1.06381e-27
7.65173e-30
2.14073e-30
2.16559e-29
8.45366e-30
1.04117e-29
1.58483e-29
1.01306e-29
1.58551e-29
1.21982e-29
1.81378e-29
1.25144e-29
1.40206e-29
1.4122e-29
2.22993e-29
1.62263e-29
1.73976e-29
1.76948e-29
2.32957e-29
1.91327e-29
2.18886e-29
1.79183e-29
2.103e-29
2.01881e-29
2.411e-29
2.09195e-29
2.28359e-29
1.85704e-29
1.87615e-29
2.00513e-29
2.29148e-29
1.89395e-29
1.70778e-29
1.39344e-29
1.24038e-29
1.13514e-29
8.63355e-30
8.83669e-30
6.93629e-30
1.71159e-29
7.81616e-30
9.11505e-30
6.87711e-30
3.56941e-30
1.16001e-30
4.04411e-31
4.47675e-32
7.89962e-32
2.75898e-30
8.82468e-30
4.72795e-29
1.40219e-28
1.86236e-28
1.99646e-28
2.65051e-26
1.63237e-25
3.56927e-27
3.51648e-26
1.98971e-27
2.85949e-27
9.31186e-28
4.69134e-29
9.71888e-31
3.29714e-29
1.23433e-29
1.54472e-29
2.03111e-29
1.58593e-29
1.95319e-29
1.89201e-29
2.33689e-29
1.84837e-29
1.91877e-29
2.10663e-29
2.93487e-29
2.34343e-29
2.40649e-29
2.54121e-29
3.14605e-29
2.70202e-29
3.00871e-29
2.50229e-29
2.94567e-29
2.80592e-29
3.30786e-29
2.87919e-29
3.14532e-29
2.50681e-29
2.66371e-29
2.70167e-29
3.0954e-29
2.50455e-29
2.31694e-29
1.81271e-29
1.70508e-29
1.4882e-29
1.23167e-29
1.34855e-29
9.72921e-30
2.83451e-29
9.22619e-30
1.40575e-29
9.38535e-30
4.84218e-30
1.88314e-30
4.87782e-31
1.54799e-31
2.10274e-31
2.39504e-30
1.62759e-29
5.11797e-29
2.28215e-28
1.52148e-28
7.08561e-28
4.76876e-26
1.70441e-25
1.40111e-26
1.69922e-25
2.42511e-26
1.23546e-26
3.57857e-27
4.14324e-29
1.31979e-30
3.26337e-29
1.53508e-29
1.52627e-29
2.07022e-29
1.59608e-29
1.95274e-29
1.91386e-29
2.35045e-29
1.87064e-29
1.90885e-29
2.10138e-29
2.9554e-29
2.34345e-29
2.39093e-29
2.53537e-29
3.13252e-29
2.69744e-29
2.97673e-29
2.48234e-29
2.92246e-29
2.74732e-29
3.29795e-29
2.8198e-29
3.09574e-29
2.44436e-29
2.61711e-29
2.59039e-29
3.05316e-29
2.3971e-29
2.25286e-29
1.74265e-29
1.68579e-29
1.48377e-29
1.30512e-29
1.38646e-29
1.35602e-29
2.78626e-29
8.53981e-30
1.64632e-29
8.77266e-30
5.59055e-30
1.7905e-30
6.74034e-31
2.41616e-31
1.13418e-31
2.6097e-30
1.3736e-29
4.84301e-29
1.98521e-28
1.32483e-28
8.95679e-28
6.88558e-26
2.50588e-25
5.12632e-26
4.06307e-25
1.39479e-25
2.42975e-26
1.21792e-26
8.84866e-29
2.02139e-30
3.67209e-29
1.95204e-29
1.51372e-29
2.22265e-29
1.53625e-29
2.09177e-29
1.88155e-29
2.44607e-29
1.85138e-29
1.94737e-29
2.07612e-29
3.05413e-29
2.31801e-29
2.40072e-29
2.52574e-29
3.16646e-29
2.67902e-29
2.97094e-29
2.45402e-29
2.91767e-29
2.71115e-29
3.31757e-29
2.76159e-29
3.09044e-29
2.39107e-29
2.60016e-29
2.53784e-29
3.09528e-29
2.34083e-29
2.28793e-29
1.73998e-29
1.78539e-29
1.55636e-29
1.45645e-29
1.43769e-29
1.56198e-29
2.47452e-29
9.94413e-30
1.8632e-29
8.73578e-30
6.41283e-30
1.89046e-30
9.70037e-31
4.52267e-31
5.01737e-32
2.6926e-30
1.12343e-29
4.48693e-29
1.65446e-28
1.03843e-28
1.26373e-27
1.0953e-25
3.52046e-25
2.01298e-25
6.73311e-25
4.73634e-25
3.2021e-26
3.10568e-26
2.52447e-28
4.33982e-30
4.56927e-29
2.44422e-29
1.64267e-29
2.4175e-29
1.51593e-29
2.24667e-29
1.89489e-29
2.59852e-29
1.86646e-29
2.05542e-29
2.11574e-29
3.23853e-29
2.33558e-29
2.48781e-29
2.58512e-29
3.29981e-29
2.72966e-29
3.04407e-29
2.49937e-29
2.99844e-29
2.77167e-29
3.44151e-29
2.80675e-29
3.18166e-29
2.43113e-29
2.68914e-29
2.62727e-29
3.28447e-29
2.42142e-29
2.46125e-29
1.86157e-29
2.02329e-29
1.72171e-29
1.64761e-29
1.46366e-29
1.96163e-29
2.26545e-29
1.34119e-29
2.08046e-29
9.76698e-30
7.44882e-30
2.3523e-30
1.4848e-30
9.16667e-31
2.39611e-32
2.82681e-30
8.73916e-30
4.06742e-29
1.28998e-28
7.14751e-29
1.82308e-27
1.78697e-25
4.61657e-25
6.10384e-25
8.9499e-25
1.19442e-24
3.24802e-26
6.46446e-26
6.78937e-28
9.93255e-30
5.94632e-29
3.1456e-29
1.87499e-29
2.59689e-29
1.54364e-29
2.3719e-29
1.94886e-29
2.74074e-29
1.89952e-29
2.16806e-29
2.20911e-29
3.43853e-29
2.37483e-29
2.61297e-29
2.68492e-29
3.47117e-29
2.80446e-29
3.15096e-29
2.58192e-29
3.13233e-29
2.89641e-29
3.60982e-29
2.90485e-29
3.32833e-29
2.53299e-29
2.86332e-29
2.82156e-29
3.56023e-29
2.59193e-29
2.72372e-29
2.07403e-29
2.36295e-29
1.95691e-29
1.87844e-29
1.52637e-29
2.20457e-29
2.1104e-29
1.90695e-29
2.33674e-29
1.1894e-29
8.70402e-30
3.35966e-30
2.41496e-30
1.94107e-30
6.70723e-32
3.20921e-30
6.64704e-30
3.52802e-29
9.16779e-29
4.44033e-29
2.44316e-27
2.83041e-25
5.92423e-25
1.47093e-24
1.0227e-24
2.44571e-24
2.72295e-26
1.15944e-25
1.58011e-27
1.957e-29
7.80453e-29
4.05924e-29
2.17408e-29
2.77455e-29
1.60161e-29
2.46919e-29
2.0253e-29
2.86639e-29
1.94529e-29
2.26536e-29
2.33004e-29
3.63108e-29
2.42459e-29
2.74494e-29
2.80073e-29
3.6604e-29
2.88766e-29
3.27381e-29
2.68841e-29
3.29309e-29
3.04529e-29
3.81167e-29
3.04152e-29
3.50706e-29
2.68214e-29
3.08886e-29
3.07963e-29
3.90147e-29
2.82963e-29
3.05387e-29
2.3709e-29
2.80242e-29
2.27005e-29
2.15884e-29
1.6609e-29
2.63522e-29
2.00259e-29
2.62585e-29
2.6907e-29
1.53648e-29
1.03767e-29
5.3151e-30
4.1024e-30
4.18986e-30
4.2675e-31
4.51677e-30
5.97202e-30
3.12538e-29
6.3299e-29
3.84643e-29
3.08414e-27
4.276e-25
7.56524e-25
2.91325e-24
1.04848e-24
4.40012e-24
1.88513e-26
1.88978e-25
3.36086e-27
3.48612e-29
1.01786e-28
5.03681e-29
2.51269e-29
2.9675e-29
1.67941e-29
2.54938e-29
2.12767e-29
2.9761e-29
2.00547e-29
2.37289e-29
2.48821e-29
3.81402e-29
2.48719e-29
2.88277e-29
2.95061e-29
3.8579e-29
2.97779e-29
3.41535e-29
2.81762e-29
3.48296e-29
3.23823e-29
4.03817e-29
3.20211e-29
3.72646e-29
2.87328e-29
3.36885e-29
3.41347e-29
4.30137e-29
3.12557e-29
3.46641e-29
2.7745e-29
3.39185e-29
2.75063e-29
2.6697e-29
2.10774e-29
3.4196e-29
1.75414e-29
3.57574e-29
3.23608e-29
2.06611e-29
1.28987e-29
8.90718e-30
7.34928e-30
9.01413e-30
2.02325e-30
8.57521e-30
8.98938e-30
3.39878e-29
5.93493e-29
8.73126e-29
3.57956e-27
6.19349e-25
1.02128e-24
5.09352e-24
9.77694e-25
7.13193e-24
1.17107e-26
2.82777e-25
6.59195e-27
5.78034e-29
1.31697e-28
6.01265e-29
2.88407e-29
3.18393e-29
1.77414e-29
2.61853e-29
2.25437e-29
3.07321e-29
2.09185e-29
2.47801e-29
2.67476e-29
3.98546e-29
2.57121e-29
3.01992e-29
3.12694e-29
4.06047e-29
3.08952e-29
3.568e-29
2.9786e-29
3.69541e-29
3.45404e-29
4.29414e-29
3.39879e-29
3.97455e-29
3.10977e-29
3.69517e-29
3.80088e-29
4.7686e-29
3.49598e-29
3.97726e-29
3.32448e-29
4.20271e-29
3.50236e-29
3.64926e-29
3.4049e-29
3.60566e-29
1.48044e-29
4.64693e-29
4.08405e-29
2.86385e-29
1.70086e-29
1.53012e-29
1.36479e-29
1.89792e-29
7.35992e-30
2.00466e-29
2.25473e-29
5.65598e-29
1.10058e-28
3.2326e-28
4.0203e-27
8.67283e-25
1.42849e-24
8.00786e-24
8.60264e-25
1.07474e-23
8.13147e-27
3.96638e-25
1.22212e-26
9.32522e-29
1.70417e-28
6.8891e-29
3.26219e-29
3.43139e-29
1.88151e-29
2.67871e-29
2.4077e-29
3.15736e-29
2.19653e-29
2.58675e-29
2.90016e-29
4.14078e-29
2.67357e-29
3.15857e-29
3.34371e-29
4.25488e-29
3.21945e-29
3.73072e-29
3.1676e-29
3.92894e-29
3.71328e-29
4.55964e-29
3.62008e-29
4.25534e-29
3.38748e-29
4.07528e-29
4.26103e-29
5.29538e-29
3.9432e-29
4.60719e-29
4.05641e-29
5.29555e-29
4.61497e-29
5.23692e-29
4.90855e-29
4.93666e-29
1.57478e-29
5.23769e-29
5.68935e-29
3.95346e-29
2.40363e-29
2.6276e-29
2.59138e-29
3.88462e-29
2.20507e-29
4.96878e-29
6.57433e-29
1.32604e-28
3.07551e-28
1.05852e-27
4.27077e-27
1.1916e-24
2.14807e-24
1.17034e-23
7.22034e-25
1.51976e-23
1.18655e-26
5.2371e-25
2.14363e-26
1.48859e-28
2.1788e-28
7.63034e-29
3.63366e-29
3.74296e-29
1.98189e-29
2.75144e-29
2.56349e-29
3.25257e-29
2.31249e-29
2.70024e-29
3.14084e-29
4.2917e-29
2.78738e-29
3.29821e-29
3.58003e-29
4.44713e-29
3.36702e-29
3.89965e-29
3.387e-29
4.17476e-29
3.98477e-29
4.83955e-29
3.87857e-29
4.55692e-29
3.71162e-29
4.49786e-29
4.77625e-29
5.8936e-29
4.48548e-29
5.3742e-29
5.01914e-29
6.73173e-29
6.17884e-29
7.97394e-29
8.11267e-29
8.93409e-29
1.37177e-29
5.91731e-29
8.02194e-29
5.52721e-29
3.582e-29
4.46346e-29
4.87474e-29
7.62639e-29
5.77274e-29
1.19171e-28
1.80346e-28
3.38302e-28
8.61911e-28
2.88774e-27
4.50519e-27
1.62516e-24
3.27903e-24
1.59718e-23
6.38735e-25
2.05013e-23
2.68123e-26
6.58709e-25
3.57296e-26
2.42102e-28
2.81997e-28
8.04374e-29
3.99677e-29
4.11255e-29
2.07444e-29
2.83367e-29
2.72123e-29
3.35987e-29
2.42069e-29
2.82751e-29
3.4057e-29
4.43374e-29
2.9011e-29
3.44456e-29
3.84713e-29
4.62914e-29
3.51706e-29
4.08082e-29
3.62386e-29
4.42839e-29
4.29616e-29
5.12036e-29
4.153e-29
4.89125e-29
4.07484e-29
4.9664e-29
5.38641e-29
6.56103e-29
5.13096e-29
6.33464e-29
6.30641e-29
8.71093e-29
8.75894e-29
1.45879e-28
3.49729e-28
2.43399e-28
7.89403e-30
1.02761e-28
9.1413e-29
8.59636e-29
5.25791e-29
7.58664e-29
8.91856e-29
1.43313e-28
1.34135e-28
2.67123e-28
4.41194e-28
8.12081e-28
2.13327e-27
6.56727e-27
4.5891e-27
2.19718e-24
5.21573e-24
2.07292e-23
6.32119e-25
2.66651e-23
6.65581e-26
7.97408e-25
5.65306e-26
4.05512e-28
3.6383e-28
8.072e-29
4.35169e-29
4.54442e-29
2.16049e-29
2.92148e-29
2.87518e-29
3.47431e-29
2.53549e-29
2.9608e-29
3.6644e-29
4.57445e-29
3.01897e-29
3.59596e-29
4.11413e-29
4.80849e-29
3.67663e-29
4.26538e-29
3.88265e-29
4.6877e-29
4.61102e-29
5.41554e-29
4.4581e-29
5.24349e-29
4.4892e-29
5.47842e-29
6.05802e-29
7.32394e-29
5.92399e-29
7.55531e-29
8.14529e-29
1.19241e-28
1.4796e-28
3.82535e-28
7.71817e-28
9.81604e-30
7.71732e-30
1.03259e-28
1.06944e-28
1.35226e-28
7.78254e-29
1.27138e-28
1.58335e-28
2.58985e-28
2.83106e-28
5.50879e-28
9.65559e-28
1.76165e-27
4.65598e-27
1.31785e-26
4.61279e-27
2.96066e-24
8.18748e-24
2.57345e-23
8.18353e-25
3.37123e-23
1.3685e-25
9.37563e-25
8.48825e-26
6.98616e-28
4.69489e-28
7.62321e-29
4.69972e-29
5.00189e-29
2.25841e-29
2.9862e-29
3.05119e-29
3.57113e-29
2.65641e-29
3.09463e-29
3.93932e-29
4.69402e-29
3.13856e-29
3.74814e-29
4.40059e-29
4.96785e-29
3.83978e-29
4.45667e-29
4.15343e-29
4.95254e-29
4.95448e-29
5.70921e-29
4.77868e-29
5.62659e-29
4.93895e-29
6.03332e-29
6.79469e-29
8.10115e-29
6.72104e-29
8.67126e-29
9.58232e-29
1.35076e-28
1.74639e-28
4.96106e-28
1.74683e-29
8.52512e-28
1.36416e-27
8.39789e-30
2.4794e-28
1.61256e-28
1.3086e-28
2.0044e-28
2.74453e-28
4.47452e-28
5.46945e-28
1.05166e-27
1.90355e-27
3.46417e-27
9.02491e-27
2.36174e-26
4.51176e-27
3.99187e-24
1.29387e-23
3.07694e-23
1.25307e-24
4.17645e-23
2.54698e-25
1.08616e-24
1.22259e-25
1.257e-27
5.76456e-28
6.86646e-29
4.97088e-29
5.56046e-29
2.32873e-29
3.06299e-29
3.21407e-29
3.67791e-29
2.77829e-29
3.2315e-29
4.19396e-29
4.81428e-29
3.25462e-29
3.90516e-29
4.67314e-29
5.12493e-29
4.00853e-29
4.65296e-29
4.44089e-29
5.22356e-29
5.2843e-29
6.01685e-29
5.13472e-29
6.02871e-29
5.43557e-29
6.6292e-29
7.57744e-29
8.98453e-29
7.7058e-29
1.01994e-28
1.21067e-28
1.83793e-28
3.3014e-28
1.33303e-27
2.82148e-27
4.31709e-27
5.32419e-30
3.20958e-29
2.75786e-28
2.50008e-28
1.93506e-28
3.14035e-28
4.51844e-28
7.36853e-28
9.81133e-28
1.855e-27
3.43168e-27
6.18724e-27
1.58467e-26
3.85947e-26
4.50238e-27
5.443e-24
1.95975e-23
3.545e-23
2.19721e-24
5.01233e-23
4.14391e-25
1.24755e-24
1.66895e-25
2.25856e-27
6.98588e-28
5.83411e-29
5.23248e-29
6.14992e-29
2.38791e-29
3.13402e-29
3.3778e-29
3.7874e-29
2.88054e-29
3.37321e-29
4.45869e-29
4.91729e-29
3.35846e-29
4.06585e-29
4.96109e-29
5.26734e-29
4.1678e-29
4.86689e-29
4.72733e-29
5.49623e-29
5.64217e-29
6.32714e-29
5.49515e-29
6.47618e-29
5.95903e-29
7.27652e-29
8.48755e-29
1.00173e-28
8.98185e-29
1.25329e-28
1.67166e-28
2.98432e-28
7.58553e-28
4.29795e-27
4.65444e-26
7.31917e-29
1.14953e-26
1.42144e-28
2.11486e-28
4.24245e-28
2.60006e-28
4.82963e-28
7.05469e-28
1.16115e-27
1.62931e-27
3.05777e-27
5.68725e-27
1.01723e-26
2.54962e-26
5.8111e-26
4.5877e-27
7.37347e-24
2.92542e-23
3.9189e-23
3.75255e-24
5.85966e-23
6.28122e-25
1.45725e-24
2.15639e-25
3.9733e-27
8.201e-28
4.73418e-29
5.4413e-29
6.79542e-29
2.41864e-29
3.2163e-29
3.52238e-29
3.90485e-29
2.97939e-29
3.51853e-29
4.68826e-29
5.02698e-29
3.45737e-29
4.23579e-29
5.22199e-29
5.41616e-29
4.32898e-29
5.08823e-29
5.02186e-29
5.77414e-29
5.9857e-29
6.66063e-29
5.87297e-29
6.94001e-29
6.5131e-29
7.92851e-29
9.33974e-29
1.0902e-28
9.82424e-29
1.34272e-28
1.69314e-28
2.57369e-28
4.71397e-28
1.70012e-27
4.30228e-27
3.30025e-27
8.23214e-30
9.49654e-30
5.39041e-28
4.40487e-28
4.13488e-28
6.8003e-28
1.07307e-27
1.72687e-27
2.54532e-27
4.69519e-27
8.76535e-27
1.54714e-26
3.82323e-26
8.2397e-26
4.94985e-27
9.8841e-24
4.18037e-23
4.16549e-23
6.83368e-24
6.81887e-23
8.21657e-25
1.70886e-24
2.65053e-25
6.77502e-27
9.30025e-28
3.72916e-29
5.63515e-29
7.40368e-29
2.4558e-29
3.26251e-29
3.69903e-29
3.98582e-29
3.0843e-29
3.65224e-29
4.92863e-29
5.10653e-29
3.55652e-29
4.40428e-29
5.49121e-29
5.5437e-29
4.49079e-29
5.31942e-29
5.31427e-29
6.05508e-29
6.34764e-29
6.9975e-29
6.25319e-29
7.44046e-29
7.07859e-29
8.61599e-29
1.02289e-28
1.1776e-28
1.06705e-28
1.43248e-28
1.70012e-28
2.21362e-28
2.52047e-28
4.52477e-28
1.44669e-31
1.23199e-27
1.39272e-27
5.41706e-29
7.13849e-28
5.54562e-28
5.70563e-28
9.64426e-28
1.53168e-27
2.46161e-27
3.71178e-27
6.78742e-27
1.25579e-26
2.19944e-26
5.3357e-26
1.09904e-25
5.73136e-27
1.31128e-23
5.88361e-23
4.27283e-23
1.1542e-23
7.94491e-23
1.01161e-24
2.06927e-24
3.11947e-25
1.13788e-26
9.59565e-28
2.89528e-29
5.75392e-29
8.08393e-29
2.44123e-29
3.33587e-29
3.85535e-29
4.07226e-29
3.19314e-29
3.79138e-29
5.12695e-29
5.19408e-29
3.6549e-29
4.58486e-29
5.72328e-29
5.67658e-29
4.65913e-29
5.55848e-29
5.61283e-29
6.34735e-29
6.67778e-29
7.35361e-29
6.66497e-29
7.95918e-29
7.6788e-29
9.35132e-29
1.11358e-28
1.28179e-28
1.19435e-28
1.6345e-28
2.02507e-28
2.82437e-28
3.56802e-28
7.34013e-28
7.86077e-28
3.03375e-29
5.94197e-31
6.23654e-28
6.22352e-28
7.79849e-28
7.27611e-28
1.32845e-27
2.07998e-27
3.32978e-27
5.11094e-27
9.18916e-27
1.69018e-26
2.92548e-26
6.9925e-26
1.38903e-25
8.00485e-27
1.73223e-23
7.86583e-23
4.24681e-23
1.89808e-23
9.0159e-23
1.15234e-24
2.54119e-24
3.44953e-25
1.80466e-26
9.35073e-28
2.4069e-29
6.02075e-29
8.67292e-29
2.3926e-29
3.43538e-29
3.98195e-29
4.17607e-29
3.26723e-29
3.94469e-29
5.30031e-29
5.27613e-29
3.7306e-29
4.77628e-29
5.93564e-29
5.80634e-29
4.80572e-29
5.8212e-29
5.88499e-29
6.64008e-29
7.00534e-29
7.71058e-29
7.05409e-29
8.50385e-29
8.2416e-29
1.00546e-28
1.19583e-28
1.36407e-28
1.26981e-28
1.71819e-28
2.03935e-28
2.66418e-28
2.83365e-28
4.33518e-28
6.14844e-28
4.95098e-28
1.35896e-29
6.46125e-28
9.45369e-28
8.52747e-28
9.91695e-28
1.70471e-27
2.70827e-27
4.25172e-27
6.61904e-27
1.16681e-26
2.1283e-26
3.6236e-26
8.62371e-26
1.65136e-25
1.23307e-26
2.24123e-23
1.02481e-22
3.98794e-23
2.94847e-23
1.00913e-22
1.23916e-24
3.18338e-24
3.60542e-25
2.70809e-26
8.44238e-28
2.20195e-29
6.36038e-29
9.18867e-29
2.28913e-29
3.58979e-29
4.03803e-29
4.3181e-29
3.29792e-29
4.11712e-29
5.40643e-29
5.38287e-29
3.78081e-29
4.98169e-29
6.09515e-29
5.9533e-29
4.92359e-29
6.09541e-29
6.11933e-29
6.92706e-29
7.29244e-29
8.07692e-29
7.40254e-29
9.04292e-29
8.75994e-29
1.07085e-28
1.26898e-28
1.43815e-28
1.32441e-28
1.77016e-28
1.98682e-28
2.41066e-28
2.01172e-28
2.00579e-28
1.47819e-28
1.7867e-28
1.91639e-28
7.77584e-28
1.13951e-27
9.96754e-28
1.24367e-27
2.11059e-27
3.3352e-27
5.14685e-27
8.07012e-27
1.38775e-26
2.50121e-26
4.14736e-26
9.96873e-26
1.8281e-25
2.12835e-26
2.82814e-23
1.2775e-22
3.55511e-23
4.39957e-23
1.10193e-22
1.27692e-24
3.96954e-24
3.53628e-25
3.77663e-26
7.39933e-28
2.37903e-29
7.0248e-29
9.33475e-29
2.23641e-29
3.65102e-29
4.14786e-29
4.37039e-29
3.34124e-29
4.22611e-29
5.52318e-29
5.42999e-29
3.82399e-29
5.13865e-29
6.24837e-29
6.04428e-29
5.02303e-29
6.33023e-29
6.30227e-29
7.16954e-29
7.53832e-29
8.39574e-29
7.67662e-29
9.53771e-29
9.15937e-29
1.12872e-28
1.32976e-28
1.5014e-28
1.36937e-28
1.8358e-28
1.98542e-28
2.36597e-28
1.85418e-28
1.6672e-28
9.59069e-29
2.49095e-28
3.36669e-28
1.07735e-27
1.18193e-27
1.17022e-27
1.46395e-27
2.48806e-27
3.89031e-27
5.94655e-27
9.17094e-27
1.5594e-26
2.72191e-26
4.4515e-26
1.05981e-25
1.88791e-25
3.70624e-26
3.45045e-23
1.53058e-22
2.93176e-23
6.15207e-23
1.21291e-22
1.32624e-24
5.08031e-24
3.27313e-25
4.97811e-26
6.39137e-28
3.16427e-29
8.39206e-29
8.93341e-29
2.32766e-29
3.47672e-29
4.45509e-29
4.20775e-29
3.54366e-29
4.14667e-29
5.68991e-29
5.35699e-29
3.9445e-29
5.1538e-29
6.41586e-29
6.0365e-29
5.18292e-29
6.45423e-29
6.5002e-29
7.33263e-29
7.7008e-29
8.6611e-29
7.92065e-29
9.93506e-29
9.46946e-29
1.17472e-28
1.35602e-28
1.55113e-28
1.3848e-28
1.86215e-28
1.91508e-28
2.25229e-28
1.69167e-28
1.55864e-28
7.9548e-29
3.09904e-28
5.26427e-28
1.25996e-27
1.23242e-27
1.31105e-27
1.65225e-27
2.8245e-27
4.23513e-27
6.55809e-27
9.6449e-27
1.64762e-26
2.71761e-26
4.47906e-26
1.0365e-25
1.89178e-25
6.19359e-26
4.06141e-23
1.7489e-22
2.32341e-23
8.75724e-23
1.33732e-22
1.38563e-24
6.57651e-24
2.94381e-25
6.6246e-26
5.34731e-28
4.73523e-29
1.07592e-28
8.9356e-29
2.32834e-29
3.55295e-29
4.78639e-29
4.29252e-29
3.71415e-29
4.29813e-29
6.00784e-29
5.52772e-29
4.07684e-29
5.42454e-29
6.74129e-29
6.26372e-29
5.40517e-29
6.81073e-29
6.83205e-29
7.72569e-29
8.09527e-29
9.1645e-29
8.32854e-29
1.06007e-28
9.97094e-29
1.24935e-28
1.42524e-28
1.6279e-28
1.41985e-28
1.91291e-28
1.89199e-28
2.18914e-28
1.63642e-28
1.55741e-28
8.10199e-29
3.74248e-28
7.46169e-28
1.38705e-27
1.30242e-27
1.44971e-27
1.84706e-27
3.12342e-27
4.53542e-27
6.92006e-27
9.8696e-27
1.65141e-26
2.62518e-26
4.27596e-26
9.92847e-26
1.88246e-25
9.42397e-26
4.76979e-23
2.01086e-22
1.70302e-23
2.91038e-30
9.8209e-31
6.19501e-31
1.06625e-28
1.6681e-29
2.03011e-31
1.13269e-29
3.04615e-30
7.16999e-30
5.17746e-30
6.91559e-30
5.5994e-30
7.7485e-30
6.72988e-30
7.27249e-30
5.66388e-30
8.46429e-30
8.93032e-30
8.68921e-30
7.7783e-30
9.80608e-30
1.01097e-29
1.03506e-29
9.84999e-30
9.96114e-30
9.76201e-30
1.12828e-29
1.14443e-29
1.14724e-29
1.14778e-29
1.04113e-29
1.02332e-29
1.19741e-29
1.25935e-29
1.16305e-29
1.08321e-29
9.83634e-30
9.42178e-30
9.20419e-30
7.66515e-30
6.59631e-30
4.76751e-30
4.4986e-30
6.04311e-30
3.80697e-30
4.22024e-30
1.47481e-30
9.70468e-31
1.60939e-31
7.20466e-32
8.28432e-32
6.38599e-31
5.62588e-30
1.41895e-29
8.5134e-29
4.33204e-29
1.55403e-28
1.26684e-26
2.98065e-26
4.84801e-27
8.03693e-27
1.0577e-27
2.89516e-28
1.04445e-27
6.59558e-30
2.41318e-30
2.00196e-29
9.06983e-30
9.74045e-30
1.61154e-29
9.86006e-30
1.57693e-29
1.1986e-29
1.78908e-29
1.25532e-29
1.36719e-29
1.42369e-29
2.17985e-29
1.63185e-29
1.71188e-29
1.79007e-29
2.31574e-29
1.94482e-29
2.17994e-29
1.87351e-29
2.10391e-29
2.12429e-29
2.49258e-29
2.19943e-29
2.4403e-29
2.02343e-29
2.08636e-29
2.25684e-29
2.6598e-29
2.27345e-29
2.16726e-29
1.89696e-29
1.81785e-29
1.76186e-29
1.56357e-29
1.31313e-29
1.2375e-29
9.77954e-30
9.34046e-30
7.84754e-30
7.71506e-30
3.14451e-30
1.3209e-30
3.35226e-31
5.65831e-32
9.62465e-32
2.53754e-30
9.29004e-30
4.55041e-29
1.43133e-28
1.95045e-28
1.90027e-28
2.69329e-26
1.68597e-25
3.43155e-27
3.53378e-26
2.01271e-27
2.81924e-27
9.01762e-28
4.3531e-29
1.10799e-30
3.07788e-29
1.29327e-29
1.4682e-29
2.0388e-29
1.55742e-29
1.93482e-29
1.86321e-29
2.30324e-29
1.8522e-29
1.8771e-29
2.12621e-29
2.88391e-29
2.35067e-29
2.39674e-29
2.5624e-29
3.17135e-29
2.74438e-29
3.03759e-29
2.62717e-29
2.99144e-29
2.98195e-29
3.47232e-29
3.07791e-29
3.41926e-29
2.79719e-29
3.03128e-29
3.13468e-29
3.70846e-29
3.13353e-29
3.06974e-29
2.60967e-29
2.62949e-29
2.44805e-29
2.31403e-29
2.01505e-29
1.80766e-29
1.40934e-29
1.27838e-29
1.12777e-29
1.09928e-29
4.0547e-30
2.22524e-30
3.66929e-31
1.92156e-31
2.73062e-31
2.13392e-30
1.74707e-29
4.87963e-29
2.35366e-28
1.56649e-28
6.94507e-28
4.8394e-26
1.75272e-25
1.36776e-26
1.70168e-25
2.41991e-26
1.22655e-26
3.50581e-27
3.85035e-29
1.44062e-30
3.07261e-29
1.5834e-29
1.47203e-29
2.05833e-29
1.58068e-29
1.92993e-29
1.88816e-29
2.32142e-29
1.8745e-29
1.89129e-29
2.12852e-29
2.9231e-29
2.35569e-29
2.41873e-29
2.55745e-29
3.21275e-29
2.7385e-29
3.06579e-29
2.62105e-29
3.03697e-29
2.95395e-29
3.53886e-29
3.06279e-29
3.45253e-29
2.7955e-29
3.07644e-29
3.10266e-29
3.78724e-29
3.11611e-29
3.11527e-29
2.62807e-29
2.71001e-29
2.5379e-29
2.51177e-29
2.2118e-29
2.01789e-29
1.34761e-29
1.27582e-29
1.21902e-29
1.09533e-29
4.43092e-30
2.23843e-30
4.78484e-31
2.95823e-31
1.72395e-31
2.29709e-30
1.50507e-29
4.57179e-29
2.0557e-28
1.34347e-28
8.92028e-28
6.94784e-26
2.55933e-25
5.08468e-26
4.06301e-25
1.39276e-25
2.42109e-26
1.20242e-26
8.41053e-29
2.07121e-30
3.48853e-29
1.98466e-29
1.48048e-29
2.20092e-29
1.53457e-29
2.067e-29
1.86249e-29
2.42871e-29
1.85963e-29
1.95425e-29
2.11286e-29
3.04268e-29
2.34678e-29
2.46406e-29
2.56032e-29
3.29934e-29
2.72592e-29
3.12933e-29
2.60738e-29
3.10725e-29
2.94942e-29
3.63435e-29
3.04294e-29
3.53299e-29
2.7887e-29
3.14069e-29
3.10555e-29
3.92733e-29
3.10651e-29
3.22538e-29
2.66048e-29
2.86879e-29
2.66259e-29
2.76408e-29
2.39511e-29
2.16735e-29
1.28434e-29
1.35703e-29
1.30453e-29
1.15255e-29
4.83104e-30
2.48804e-30
6.58352e-31
5.48693e-31
9.34292e-32
2.32881e-30
1.25418e-29
4.18304e-29
1.72693e-28
1.03987e-28
1.27162e-27
1.10023e-25
3.58285e-25
2.01064e-25
6.72629e-25
4.73126e-25
3.1995e-26
3.0777e-26
2.4414e-28
4.27299e-30
4.34931e-29
2.45067e-29
1.62172e-29
2.39992e-29
1.52407e-29
2.22671e-29
1.88528e-29
2.59672e-29
1.88391e-29
2.07783e-29
2.16836e-29
3.24871e-29
2.39136e-29
2.58262e-29
2.64397e-29
3.47946e-29
2.79392e-29
3.27288e-29
2.6722e-29
3.26541e-29
3.0419e-29
3.83455e-29
3.12271e-29
3.71293e-29
2.86242e-29
3.30827e-29
3.23257e-29
4.20005e-29
3.20648e-29
3.45401e-29
2.78852e-29
3.14937e-29
2.8624e-29
3.1109e-29
2.6461e-29
2.46572e-29
1.34895e-29
1.51503e-29
1.44256e-29
1.31306e-29
5.472e-30
3.16001e-30
9.99094e-31
1.10375e-30
4.37786e-32
2.45376e-30
9.88729e-30
3.76366e-29
1.36316e-28
7.04944e-29
1.85023e-27
1.79217e-25
4.68671e-25
6.1052e-25
8.93554e-25
1.19427e-24
3.24962e-26
6.42257e-26
6.63646e-28
9.64878e-30
5.67579e-29
3.17604e-29
1.84714e-29
2.6101e-29
1.54936e-29
2.37427e-29
1.9413e-29
2.76953e-29
1.9231e-29
2.2231e-29
2.27012e-29
3.48003e-29
2.45654e-29
2.73904e-29
2.77111e-29
3.69225e-29
2.89293e-29
3.44569e-29
2.77297e-29
3.47132e-29
3.19375e-29
4.06617e-29
3.24836e-29
3.93338e-29
2.97903e-29
3.54437e-29
3.43523e-29
4.52378e-29
3.35771e-29
3.73092e-29
2.96229e-29
3.48704e-29
3.10274e-29
3.52939e-29
3.00712e-29
2.89858e-29
1.51085e-29
1.71759e-29
1.66372e-29
1.56976e-29
6.44798e-30
4.43509e-30
1.67801e-30
2.30285e-30
5.63479e-32
2.92768e-30
7.48178e-30
3.28566e-29
9.8424e-29
4.31378e-29
2.48937e-27
2.83783e-25
6.00661e-25
1.473e-24
1.02054e-24
2.44644e-24
2.72546e-26
1.15382e-25
1.55226e-27
1.88935e-29
7.48783e-29
4.13659e-29
2.13305e-29
2.83754e-29
1.59493e-29
2.51084e-29
2.01093e-29
2.94072e-29
1.96802e-29
2.36973e-29
2.38978e-29
3.71703e-29
2.52476e-29
2.90574e-29
2.91081e-29
3.92042e-29
3.00001e-29
3.62523e-29
2.89201e-29
3.69531e-29
3.35683e-29
4.31616e-29
3.39799e-29
4.16112e-29
3.11958e-29
3.80564e-29
3.66511e-29
4.86744e-29
3.52713e-29
4.01473e-29
3.1545e-29
3.84351e-29
3.35468e-29
4.05827e-29
3.51005e-29
3.55496e-29
1.7615e-29
1.93933e-29
1.99861e-29
1.94498e-29
7.96771e-30
6.72867e-30
3.01816e-30
4.86889e-30
3.06842e-31
4.48066e-30
6.36723e-30
2.99641e-29
6.82037e-29
3.74858e-29
3.15199e-27
4.28473e-25
7.66037e-25
2.91808e-24
1.04591e-24
4.40471e-24
1.88015e-26
1.88359e-25
3.31492e-27
3.36163e-29
9.81123e-29
5.14358e-29
2.46075e-29
3.0908e-29
1.65318e-29
2.643e-29
2.09645e-29
3.10912e-29
2.01664e-29
2.53064e-29
2.53362e-29
3.95763e-29
2.59311e-29
3.08288e-29
3.07329e-29
4.15602e-29
3.10657e-29
3.81427e-29
3.02327e-29
3.93669e-29
3.54769e-29
4.57257e-29
3.5535e-29
4.4019e-29
3.27817e-29
4.09026e-29
3.93096e-29
5.21461e-29
3.69823e-29
4.30322e-29
3.36532e-29
4.22694e-29
3.66005e-29
4.74903e-29
4.16396e-29
4.43536e-29
2.06797e-29
2.19413e-29
2.51451e-29
2.47675e-29
1.04584e-29
1.07285e-29
5.77461e-30
1.02184e-29
1.58386e-30
9.06895e-30
8.72494e-30
3.42231e-29
6.18217e-29
8.78078e-29
3.66174e-27
6.20128e-25
1.03299e-24
5.10494e-24
9.74632e-25
7.14264e-24
1.15367e-26
2.82132e-25
6.51898e-27
5.57725e-29
1.27367e-28
6.14253e-29
2.82389e-29
3.36859e-29
1.72641e-29
2.76823e-29
2.1998e-29
3.27115e-29
2.08352e-29
2.69312e-29
2.69265e-29
4.19787e-29
2.66954e-29
3.26389e-29
3.24773e-29
4.39745e-29
3.22298e-29
4.00556e-29
3.17395e-29
4.18975e-29
3.74264e-29
4.84348e-29
3.7258e-29
4.64453e-29
3.45871e-29
4.38951e-29
4.20773e-29
5.57162e-29
3.88455e-29
4.60143e-29
3.61368e-29
4.65875e-29
4.01965e-29
5.64996e-29
5.02629e-29
5.34541e-29
2.47957e-29
2.50019e-29
3.2579e-29
3.2475e-29
1.46619e-29
1.76044e-29
1.13986e-29
2.09684e-29
6.22824e-30
2.16013e-29
2.09074e-29
5.9174e-29
1.08788e-28
3.31063e-28
4.1174e-27
8.6779e-25
1.44226e-24
8.02628e-24
8.58128e-25
1.07706e-23
7.77042e-27
3.96099e-25
1.21194e-26
9.02596e-29
1.65527e-28
7.03099e-29
3.19985e-29
3.6696e-29
1.81498e-29
2.87937e-29
2.328e-29
3.4181e-29
2.16433e-29
2.85874e-29
2.88013e-29
4.42685e-29
2.75213e-29
3.44895e-29
3.44771e-29
4.63071e-29
3.34399e-29
4.20003e-29
3.33875e-29
4.4542e-29
3.96236e-29
5.11139e-29
3.90176e-29
4.89907e-29
3.65557e-29
4.71322e-29
4.51683e-29
5.93343e-29
4.08681e-29
4.93121e-29
3.91283e-29
5.15965e-29
4.46297e-29
6.7577e-29
5.90505e-29
6.75616e-29
3.11846e-29
2.85326e-29
4.3437e-29
4.36013e-29
2.16913e-29
2.92198e-29
2.26102e-29
4.19746e-29
1.96577e-29
5.32386e-29
6.12095e-29
1.39773e-28
2.98667e-28
1.08725e-27
4.36919e-27
1.19162e-24
2.16911e-24
1.17349e-23
7.20904e-25
1.52377e-23
1.11312e-26
5.23304e-25
2.13135e-26
1.44751e-28
2.12302e-28
7.77503e-29
3.57179e-29
4.03039e-29
1.8982e-29
2.99948e-29
2.45675e-29
3.57445e-29
2.25152e-29
3.02849e-29
3.07434e-29
4.65563e-29
2.83438e-29
3.6387e-29
3.65222e-29
4.8646e-29
3.4688e-29
4.39618e-29
3.52073e-29
4.72451e-29
4.17573e-29
5.38651e-29
4.09516e-29
5.15796e-29
3.87538e-29
5.05271e-29
4.84191e-29
6.31942e-29
4.32183e-29
5.305e-29
4.28198e-29
5.74376e-29
4.98172e-29
8.21916e-29
7.06632e-29
8.10949e-29
4.14488e-29
3.32111e-29
5.8247e-29
6.00499e-29
3.32693e-29
4.85469e-29
4.38336e-29
8.13008e-29
5.31684e-29
1.2618e-28
1.70631e-28
3.54073e-28
8.393e-28
2.96631e-27
4.60815e-27
1.62533e-24
3.30927e-24
1.60171e-23
6.39482e-25
2.05667e-23
2.52862e-26
6.58387e-25
3.56198e-26
2.36933e-28
2.75741e-28
8.17855e-29
3.93781e-29
4.44119e-29
1.97788e-29
3.12105e-29
2.58987e-29
3.73605e-29
2.33095e-29
3.20811e-29
3.28908e-29
4.87275e-29
2.90941e-29
3.83548e-29
3.87607e-29
5.08894e-29
3.58508e-29
4.60232e-29
3.709e-29
4.9976e-29
4.4131e-29
5.65798e-29
4.28507e-29
5.44093e-29
4.11213e-29
5.41741e-29
5.22033e-29
6.72748e-29
4.58623e-29
5.75037e-29
4.73125e-29
6.43422e-29
5.63616e-29
1.01534e-28
8.25181e-29
9.95161e-29
5.56739e-29
3.91539e-29
7.83881e-29
8.43052e-29
5.17074e-29
8.0379e-29
8.25449e-29
1.51499e-28
1.26112e-28
2.80041e-28
4.23183e-28
8.43266e-28
2.08992e-27
6.72998e-27
4.69127e-27
2.19684e-24
5.26401e-24
2.07966e-23
6.35272e-25
2.67695e-23
6.35508e-26
7.97053e-25
5.64772e-26
3.9972e-28
3.563e-28
8.19233e-29
4.28963e-29
4.91389e-29
2.05288e-29
3.24289e-29
2.72053e-29
3.89897e-29
2.41765e-29
3.38999e-29
3.4951e-29
5.08536e-29
2.9843e-29
4.03724e-29
4.09037e-29
5.31174e-29
3.70311e-29
4.80986e-29
3.91073e-29
5.27264e-29
4.64155e-29
5.94153e-29
4.49079e-29
5.73519e-29
4.38186e-29
5.80908e-29
5.61685e-29
7.18393e-29
4.90686e-29
6.27011e-29
5.28021e-29
7.23389e-29
6.39531e-29
1.246e-28
8.73693e-29
1.06877e-28
7.49217e-29
4.58045e-29
1.05742e-28
1.1933e-28
8.08662e-29
1.31153e-28
1.50209e-28
2.70804e-28
2.70518e-28
5.73001e-28
9.35794e-28
1.81838e-27
4.58597e-27
1.34863e-26
4.71269e-27
2.95924e-24
8.26076e-24
2.58298e-23
8.27983e-25
3.38695e-23
1.31555e-25
9.36943e-25
8.49723e-26
6.93651e-28
4.60018e-28
7.72121e-29
4.62878e-29
5.41163e-29
2.14021e-29
3.33542e-29
2.87445e-29
4.03733e-29
2.51123e-29
3.56872e-29
3.71855e-29
5.2704e-29
3.05946e-29
4.23963e-29
4.3189e-29
5.51399e-29
3.81895e-29
5.02413e-29
4.11822e-29
5.55072e-29
4.89098e-29
6.22235e-29
4.70166e-29
6.06035e-29
4.67578e-29
6.24185e-29
6.06693e-29
7.67823e-29
5.27635e-29
6.875e-29
5.90778e-29
8.09561e-29
7.1921e-29
1.45396e-28
9.30251e-29
1.58847e-28
1.09687e-28
5.15982e-29
1.46384e-28
1.66877e-28
1.26107e-28
2.10002e-28
2.61656e-28
4.65425e-28
5.2773e-28
1.08871e-27
1.85757e-27
3.56259e-27
8.92133e-27
2.4124e-26
4.60332e-27
3.98919e-24
1.30632e-23
3.0902e-23
1.2691e-24
4.19822e-23
2.47001e-25
1.08508e-24
1.2266e-25
1.25883e-27
5.63162e-28
6.9426e-29
4.88061e-29
6.02339e-29
2.1983e-29
3.44091e-29
3.01436e-29
4.18492e-29
2.60508e-29
3.74917e-29
3.92137e-29
5.45359e-29
3.12936e-29
4.44765e-29
4.52812e-29
5.71546e-29
3.93548e-29
5.24404e-29
4.33722e-29
5.83481e-29
5.12069e-29
6.51953e-29
4.94047e-29
6.40613e-29
5.00695e-29
6.71009e-29
6.54118e-29
8.24374e-29
5.72911e-29
7.60374e-29
6.71463e-29
9.27463e-29
8.53531e-29
1.85774e-28
1.64068e-28
1.52568e-28
1.50398e-28
6.94387e-29
1.95805e-28
2.34773e-28
1.93862e-28