/*--------------------------------*- C++ -*----------------------------------*\
| =========                 |                                                 |
| \\      /  F ield         | OpenFOAM: The Open Source CFD Toolbox           |
|  \\    /   O peration     | Version:  2312                                  |
|   \\  /    A nd           | Website:  www.openfoam.com                      |
|    \\/     M anipulation  |                                                 |
\*---------------------------------------------------------------------------*/
FoamFile
{
    version     2.0;
    format      ascii;
    arch        "LSB;label=32;scalar=64";
    class       volScalarField;
    location    "880";
    object      p;
}
// * * * * * * * * * * * * * * * * * * * * * * * * * * * * * * * * * * * * * //

dimensions      [0 2 -2 0 0 0 0];

internalField   nonuniform List<scalar> 
144000
(
1.19575e-10
1.08191e-10
-2.60266e-11
-1.42761e-10
-1.6123e-10
-1.46208e-10
-1.14406e-10
-9.79771e-11
-7.94576e-11
-7.60615e-11
-6.50329e-11
-6.54641e-11
-5.62314e-11
-5.78815e-11
-4.83868e-11
-4.97164e-11
-4.14828e-11
-4.41912e-11
-3.41686e-11
-3.54556e-11
-2.62567e-11
-2.93864e-11
-2.02536e-11
-2.32597e-11
-1.41682e-11
-1.70614e-11
-8.27392e-12
-1.20815e-11
-3.15088e-12
-6.61424e-12
2.64281e-12
-3.45112e-13
7.95914e-12
3.41574e-12
1.19003e-11
8.01437e-12
1.60501e-11
1.23953e-11
1.95584e-11
1.52467e-11
2.11451e-11
1.77526e-11
2.37352e-11
2.10148e-11
2.76473e-11
2.46735e-11
3.04194e-11
2.94146e-11
3.29367e-11
3.29545e-11
3.4416e-11
3.61819e-11
2.88556e-11
2.66362e-11
5.14887e-12
1.52181e-12
-4.34206e-11
-9.54637e-11
-2.33689e-10
-2.90661e-11
1.26716e-10
1.12076e-10
-2.72713e-11
-1.44394e-10
-1.62142e-10
-1.46522e-10
-1.14579e-10
-9.80575e-11
-7.95856e-11
-7.61366e-11
-6.51491e-11
-6.55149e-11
-5.633e-11
-5.79182e-11
-4.84624e-11
-4.97276e-11
-4.15532e-11
-4.42066e-11
-3.42303e-11
-3.54505e-11
-2.63153e-11
-2.93843e-11
-2.03061e-11
-2.32434e-11
-1.42156e-11
-1.70412e-11
-8.32291e-12
-1.20638e-11
-3.19591e-12
-6.58692e-12
2.60398e-12
-3.11743e-13
7.91714e-12
3.4408e-12
1.18635e-11
8.05237e-12
1.60206e-11
1.24336e-11
1.95344e-11
1.52721e-11
2.10877e-11
1.7675e-11
2.36471e-11
2.10647e-11
2.76482e-11
2.47377e-11
3.04359e-11
2.95017e-11
3.29784e-11
3.30477e-11
3.45068e-11
3.63056e-11
2.90231e-11
2.67681e-11
5.4586e-12
1.85974e-12
-4.23564e-11
-9.51143e-11
-2.38674e-10
-3.21872e-11
1.35418e-10
1.16341e-10
-2.86463e-11
-1.46406e-10
-1.63407e-10
-1.4711e-10
-1.14824e-10
-9.8216e-11
-7.97122e-11
-7.62748e-11
-6.52663e-11
-6.56326e-11
-5.64204e-11
-5.80123e-11
-4.85296e-11
-4.97851e-11
-4.15949e-11
-4.42714e-11
-3.42773e-11
-3.54931e-11
-2.63468e-11
-2.94296e-11
-2.03318e-11
-2.32663e-11
-1.4232e-11
-1.70618e-11
-8.33708e-12
-1.20879e-11
-3.20603e-12
-6.59592e-12
2.59966e-12
-3.16135e-13
7.91786e-12
3.42659e-12
1.18643e-11
8.05928e-12
1.60331e-11
1.24409e-11
1.95561e-11
1.5276e-11
2.10627e-11
1.75157e-11
2.35438e-11
2.10669e-11
2.77099e-11
2.47991e-11
3.05028e-11
2.95973e-11
3.30812e-11
3.31548e-11
3.46391e-11
3.64544e-11
2.9251e-11
2.69796e-11
5.84157e-12
2.27355e-12
-4.08677e-11
-9.33055e-11
-2.46453e-10
-3.58622e-11
1.45631e-10
1.20663e-10
-2.98092e-11
-1.48688e-10
-1.65274e-10
-1.48013e-10
-1.15165e-10
-9.83983e-11
-7.98434e-11
-7.64425e-11
-6.54065e-11
-6.57793e-11
-5.65287e-11
-5.81377e-11
-4.86143e-11
-4.98623e-11
-4.16324e-11
-4.43589e-11
-3.43378e-11
-3.55556e-11
-2.63757e-11
-2.9493e-11
-2.03593e-11
-2.33002e-11
-1.4243e-11
-1.70937e-11
-8.34218e-12
-1.21244e-11
-3.20952e-12
-6.61325e-12
2.60457e-12
-3.28955e-13
7.93729e-12
3.40142e-12
1.1876e-11
8.06054e-12
1.60667e-11
1.24412e-11
1.96083e-11
1.52845e-11
2.10595e-11
1.72952e-11
2.33802e-11
2.10214e-11
2.782e-11
2.48722e-11
3.06126e-11
2.97041e-11
3.32504e-11
3.32674e-11
3.48436e-11
3.66055e-11
2.96087e-11
2.71926e-11
6.41513e-12
2.67796e-12
-3.85474e-11
-9.04062e-11
-2.56575e-10
-3.98302e-11
1.55921e-10
1.24097e-10
-3.01967e-11
-1.50638e-10
-1.67614e-10
-1.49226e-10
-1.15591e-10
-9.85756e-11
-7.99747e-11
-7.66341e-11
-6.55826e-11
-6.59611e-11
-5.6669e-11
-5.82949e-11
-4.87303e-11
-4.99576e-11
-4.16773e-11
-4.44652e-11
-3.44239e-11
-3.56329e-11
-2.64111e-11
-2.95682e-11
-2.04e-11
-2.33399e-11
-1.42585e-11
-1.713e-11
-8.34685e-12
-1.21661e-11
-3.21717e-12
-6.63332e-12
2.60967e-12
-3.43059e-13
7.96805e-12
3.37218e-12
1.18897e-11
8.05996e-12
1.6116e-11
1.24374e-11
1.96909e-11
1.53024e-11
2.10853e-11
1.70361e-11
2.3121e-11
2.09121e-11
2.79757e-11
2.49578e-11
3.07612e-11
2.98131e-11
3.34885e-11
3.33679e-11
3.51289e-11
3.67286e-11
3.01191e-11
2.73535e-11
7.22505e-12
2.97531e-12
-3.52971e-11
-8.66474e-11
-2.68382e-10
-4.33855e-11
1.65201e-10
1.2509e-10
-2.95481e-11
-1.51548e-10
-1.70193e-10
-1.50723e-10
-1.16075e-10
-9.87242e-11
-8.00902e-11
-7.68447e-11
-6.57971e-11
-6.61817e-11
-5.6846e-11
-5.84885e-11
-4.88833e-11
-5.00751e-11
-4.17336e-11
-4.45922e-11
-3.45392e-11
-3.57283e-11
-2.64551e-11
-2.96558e-11
-2.04571e-11
-2.33879e-11
-1.42802e-11
-1.71719e-11
-8.35232e-12
-1.22132e-11
-3.23113e-12
-6.65803e-12
2.61384e-12
-3.59848e-13
8.00999e-12
3.33838e-12
1.19044e-11
8.05336e-12
1.61829e-11
1.24247e-11
1.98102e-11
1.53286e-11
2.11573e-11
1.67391e-11
2.27352e-11
2.07168e-11
2.81788e-11
2.50514e-11
3.09489e-11
2.99097e-11
3.37991e-11
3.34375e-11
3.55035e-11
3.6793e-11
3.07999e-11
2.74121e-11
8.30994e-12
3.06267e-12
-3.10587e-11
-8.22172e-11
-2.81444e-10
-4.52992e-11
1.7307e-10
1.21876e-10
-2.7986e-11
-1.50733e-10
-1.72729e-10
-1.52459e-10
-1.16591e-10
-9.88058e-11
-8.01717e-11
-7.7066e-11
-6.60475e-11
-6.64414e-11
-5.70617e-11
-5.87204e-11
-4.90767e-11
-5.02221e-11
-4.18047e-11
-4.47405e-11
-3.4686e-11
-3.58453e-11
-2.65099e-11
-2.97565e-11
-2.05326e-11
-2.34468e-11
-1.43094e-11
-1.7221e-11
-8.35965e-12
-1.22662e-11
-3.25262e-12
-6.68955e-12
2.61682e-12
-3.81496e-13
8.0628e-12
3.29949e-12
1.19206e-11
8.0361e-12
1.62697e-11
1.23975e-11
1.9973e-11
1.53601e-11
2.13028e-11
1.64003e-11
2.21811e-11
2.04124e-11
2.84323e-11
2.51479e-11
3.11772e-11
2.99788e-11
3.41865e-11
3.34576e-11
3.59792e-11
3.6766e-11
3.16715e-11
2.73149e-11
9.71531e-12
2.84228e-12
-2.5787e-11
-7.72902e-11
-2.95664e-10
-4.41489e-11
1.79708e-10
1.12742e-10
-2.5969e-11
-1.47573e-10
-1.74898e-10
-1.54381e-10
-1.17115e-10
-9.87946e-11
-8.02011e-11
-7.72879e-11
-6.63299e-11
-6.67379e-11
-5.7317e-11
-5.89905e-11
-4.93122e-11
-5.04004e-11
-4.18949e-11
-4.49095e-11
-3.48653e-11
-3.59864e-11
-2.65789e-11
-2.98701e-11
-2.06286e-11
-2.35187e-11
-1.43475e-11
-1.7278e-11
-8.37105e-12
-1.2325e-11
-3.28307e-12
-6.72912e-12
2.61796e-12
-4.09105e-13
8.12465e-12
3.25564e-12
1.19384e-11
8.00453e-12
1.63777e-11
1.23511e-11
2.0186e-11
1.53931e-11
2.15608e-11
1.59924e-11
2.14014e-11
1.99787e-11
2.87401e-11
2.52419e-11
3.14489e-11
3.00054e-11
3.46554e-11
3.34094e-11
3.65697e-11
3.6616e-11
3.2756e-11
2.70118e-11
1.14858e-11
2.23377e-12
-1.94763e-11
-7.19799e-11
-3.11205e-10
-3.86042e-11
1.85804e-10
9.61959e-11
-2.42253e-11
-1.41554e-10
-1.76354e-10
-1.56431e-10
-1.1763e-10
-9.8666e-11
-8.01612e-11
-7.75e-11
-6.664e-11
-6.70679e-11
-5.76116e-11
-5.92973e-11
-4.95902e-11
-5.06116e-11
-4.20081e-11
-4.5098e-11
-3.50775e-11
-3.61529e-11
-2.66652e-11
-2.99962e-11
-2.07465e-11
-2.36048e-11
-1.43964e-11
-1.73431e-11
-8.38884e-12
-1.23891e-11
-3.32378e-12
-6.77755e-12
2.61641e-12
-4.43346e-13
8.19316e-12
3.20717e-12
1.19578e-11
7.95578e-12
1.65076e-11
1.22814e-11
2.04562e-11
1.54223e-11
2.19872e-11
1.54765e-11
2.03209e-11
1.93992e-11
2.91079e-11
2.53278e-11
3.17677e-11
2.99757e-11
3.52106e-11
3.32757e-11
3.72883e-11
3.63152e-11
3.40722e-11
2.64626e-11
1.36535e-11
1.18814e-12
-1.2172e-11
-6.63218e-11
-3.28419e-10
-2.75796e-11
1.92328e-10
7.11007e-11
-2.36306e-11
-1.32286e-10
-1.76745e-10
-1.5855e-10
-1.18133e-10
-9.8402e-11
-8.00378e-11
-7.76935e-11
-6.69732e-11
-6.74275e-11
-5.79442e-11
-5.96385e-11
-4.99096e-11
-5.08564e-11
-4.2148e-11
-4.53043e-11
-3.53217e-11
-3.63452e-11
-2.67722e-11
-3.01339e-11
-2.08869e-11
-2.3706e-11
-1.44576e-11
-1.74162e-11
-8.41537e-12
-1.24583e-11
-3.37541e-12
-6.83533e-12
2.61139e-12
-4.84521e-13
8.26556e-12
3.15437e-12
1.19793e-11
7.88775e-12
1.66591e-11
1.21842e-11
2.07909e-11
1.54443e-11
2.26578e-11
1.47925e-11
1.88432e-11
1.86641e-11
2.95423e-11
2.54e-11
3.21381e-11
2.98775e-11
3.58556e-11
3.3042e-11
3.81455e-11
3.58404e-11
3.56311e-11
2.56421e-11
1.62302e-11
-3.10042e-13
-3.9882e-12
-6.02535e-11
-3.47689e-10
-1.03799e-11
2.0049e-10
3.67683e-11
-2.51897e-11
-1.19549e-10
-1.75719e-10
-1.60667e-10
-1.18629e-10
-9.79938e-11
-7.98204e-11
-7.78609e-11
-6.7326e-11
-6.78138e-11
-5.83141e-11
-6.00119e-11
-5.02694e-11
-5.11348e-11
-4.23175e-11
-4.5527e-11
-3.55968e-11
-3.65633e-11
-2.69024e-11
-3.02828e-11
-2.105e-11
-2.38228e-11
-1.45324e-11
-1.74973e-11
-8.45253e-12
-1.25321e-11
-3.43831e-12
-6.90279e-12
2.60205e-12
-5.32665e-13
8.3393e-12
3.0976e-12
1.2003e-11
7.79923e-12
1.68308e-11
1.20568e-11
2.11954e-11
1.5457e-11
2.36802e-11
1.38078e-11
1.68449e-11
1.77682e-11
3.00482e-11
2.54518e-11
3.25633e-11
2.97019e-11
3.65914e-11
3.26982e-11
3.91467e-11
3.51802e-11
3.74323e-11
2.45444e-11
1.92026e-11
-2.23506e-12
4.91774e-12
-5.36532e-11
-3.69406e-10
1.32754e-11
2.11502e-10
-7.02104e-12
-2.99237e-11
-1.03307e-10
-1.72943e-10
-1.62694e-10
-1.19131e-10
-9.74421e-11
-7.95026e-11
-7.79966e-11
-6.76958e-11
-6.82244e-11
-5.87205e-11
-6.04157e-11
-5.06685e-11
-5.14463e-11
-4.25193e-11
-4.57652e-11
-3.59012e-11
-3.68068e-11
-2.70583e-11
-3.04426e-11
-2.12354e-11
-2.39557e-11
-1.46223e-11
-1.75859e-11
-8.50199e-12
-1.26103e-11
-3.5125e-12
-6.97995e-12
2.58749e-12
-5.87411e-13
8.4118e-12
3.03733e-12
1.20288e-11
7.69042e-12
1.70198e-11
1.18984e-11
2.16739e-11
1.54534e-11
2.52404e-11
1.24158e-11
1.4155e-11
1.67112e-11
3.06248e-11
2.54746e-11
3.30442e-11
2.94435e-11
3.74153e-11
3.22402e-11
4.02901e-11
3.43349e-11
3.94618e-11
2.31852e-11
2.25333e-11
-4.5244e-12
1.43412e-11
-4.63813e-11
-3.93823e-10
4.3281e-11
2.26586e-10
-6.00352e-11
-3.88597e-11
-8.37315e-11
-1.68111e-10
-1.64515e-10
-1.1965e-10
-9.6757e-11
-7.90819e-11
-7.80955e-11
-6.80802e-11
-6.86571e-11
-5.9163e-11
-6.08484e-11
-5.1106e-11
-5.17904e-11
-4.27559e-11
-4.60182e-11
-3.62333e-11
-3.7075e-11
-2.72421e-11
-3.06131e-11
-2.14428e-11
-2.41045e-11
-1.47284e-11
-1.76818e-11
-8.56489e-12
-1.26927e-11
-3.59804e-12
-7.06658e-12
2.56664e-12
-6.48215e-13
8.48066e-12
2.97438e-12
1.20557e-11
7.56312e-12
1.72211e-11
1.171e-11
2.22251e-11
1.54269e-11
2.7546e-11
1.04179e-11
1.05992e-11
1.55287e-11
3.12766e-11
2.54637e-11
3.35799e-11
2.91018e-11
3.8319e-11
3.1669e-11
4.15647e-11
3.33172e-11
4.16907e-11
2.16015e-11
2.61599e-11
-7.08229e-12
2.40738e-11
-3.83378e-11
-4.21097e-10
7.92197e-11
2.46676e-10
-1.2153e-10
-5.28442e-11
-6.11974e-11
-1.6099e-10
-1.65996e-10
-1.20201e-10
-9.59608e-11
-7.85604e-11
-7.81533e-11
-6.84763e-11
-6.91101e-11
-5.96407e-11
-6.13082e-11
-5.15804e-11
-5.21661e-11
-4.30291e-11
-4.62855e-11
-3.65915e-11
-3.73669e-11
-2.74557e-11
-3.07945e-11
-2.16714e-11
-2.4269e-11
-1.4852e-11
-1.77847e-11
-8.64239e-12
-1.27792e-11
-3.69471e-12
-7.16202e-12
2.53841e-12
-7.14288e-13
8.54311e-12
2.90995e-12
1.20821e-11
7.42143e-12
1.7427e-11
1.14984e-11
2.28301e-11
1.54073e-11
3.07294e-11
7.59729e-12
6.01406e-12
1.43145e-11
3.20238e-11
2.54269e-11
3.41707e-11
2.86834e-11
3.92907e-11
3.09994e-11
4.29503e-11
3.21531e-11
4.40754e-11
1.98506e-11
2.99993e-11
-9.79361e-12
3.38826e-11
-2.94377e-11
-4.51131e-10
1.20298e-10
2.72453e-10
-1.90201e-10
-7.2522e-11
-3.63044e-11
-1.51429e-10
-1.66979e-10
-1.20794e-10
-9.50876e-11
-7.79464e-11
-7.81664e-11
-6.88815e-11
-6.95816e-11
-6.0153e-11
-6.17937e-11
-5.20904e-11
-5.25721e-11
-4.33404e-11
-4.65671e-11
-3.69741e-11
-3.76814e-11
-2.77004e-11
-3.09871e-11
-2.19204e-11
-2.44487e-11
-1.4994e-11
-1.78944e-11
-8.73523e-12
-1.28695e-11
-3.80234e-12
-7.26543e-12
2.50136e-12
-7.84612e-13
8.59648e-12
2.8458e-12
1.21052e-11
7.27131e-12
1.76268e-11
1.12792e-11
2.34371e-11
1.56304e-11
3.5464e-11
2.33265e-12
-2.75275e-13
1.30292e-11
3.28398e-11
2.5368e-11
3.48127e-11
2.82005e-11
4.03131e-11
3.02491e-11
4.44169e-11
3.08809e-11
4.65583e-11
1.80067e-11
3.39494e-11
-1.25248e-11
4.35498e-11
-1.96288e-11
-4.83644e-10
1.65347e-10
3.04147e-10
-2.64295e-10
-9.82334e-11
-9.8233e-12
-1.39379e-10
-1.67291e-10
-1.21433e-10
-9.41831e-11
-7.72549e-11
-7.81329e-11
-6.92935e-11
-7.00706e-11
-6.06995e-11
-6.2304e-11
-5.2635e-11
-5.30075e-11
-4.36907e-11
-4.68632e-11
-3.73797e-11
-3.80174e-11
-2.79774e-11
-3.11917e-11
-2.21892e-11
-2.46432e-11
-1.51555e-11
-1.80107e-11
-8.84415e-12
-1.29634e-11
-3.92084e-12
-7.37573e-12
2.45398e-12
-8.57927e-13
8.63823e-12
2.78353e-12
1.21226e-11
7.11743e-12
1.78138e-11
1.10618e-11
2.40076e-11
1.53525e-11
4.33387e-11
-1.0162e-12
-8.92357e-12
1.13758e-11
3.35517e-11
2.52584e-11
3.54854e-11
2.76637e-11
4.13613e-11
2.9444e-11
4.5926e-11
2.9551e-11
4.90702e-11
1.61591e-11
3.78981e-11
-1.51364e-11
5.28663e-11
-8.92697e-12
-5.18076e-10
2.12935e-10
3.4175e-10
-3.41868e-10
-1.30123e-10
1.73159e-11
-1.24874e-10
-1.66726e-10
-1.221e-10
-9.32976e-11
-7.65065e-11
-7.80516e-11
-6.97093e-11
-7.05759e-11
-6.12799e-11
-6.2838e-11
-5.32133e-11
-5.34708e-11
-4.40804e-11
-4.7174e-11
-3.78071e-11
-3.83735e-11
-2.82874e-11
-3.14088e-11
-2.24774e-11
-2.48517e-11
-1.53376e-11
-1.81334e-11
-8.96947e-12
-1.30607e-11
-4.05049e-12
-7.49171e-12
2.3945e-12
-9.32739e-13
8.66573e-12
2.72587e-12
1.21291e-11
6.97048e-12
1.79666e-11
1.09001e-11
2.44187e-11
1.50235e-11
4.866e-11
-1.07269e-14
-1.4447e-11
9.88261e-12
3.41275e-11
2.51161e-11
3.61834e-11
2.70914e-11
4.24069e-11
2.86166e-11
4.74314e-11
2.82222e-11
5.15329e-11
1.44058e-11
4.17277e-11
-1.74912e-11
6.16914e-11
2.53296e-12
-5.53785e-10
2.6165e-10
3.84973e-10
-4.21162e-10
-1.68109e-10
4.40453e-11
-1.0807e-10
-1.65081e-10
-1.22765e-10
-9.2489e-11
-7.57293e-11
-7.79228e-11
-7.01256e-11
-7.10962e-11
-6.18934e-11
-6.33946e-11
-5.38235e-11
-5.39606e-11
-4.45095e-11
-4.74999e-11
-3.8255e-11
-3.87484e-11
-2.86309e-11
-3.16391e-11
-2.27845e-11
-2.50733e-11
-1.5541e-11
-1.82625e-11
-9.11168e-12
-1.31609e-11
-4.19153e-12
-7.61179e-12
2.32122e-12
-1.00734e-12
8.67559e-12
2.67648e-12
1.21176e-11
6.84626e-12
1.80542e-11
1.08782e-11
2.45064e-11
1.54725e-11
4.4231e-11
1.63348e-13
-9.21421e-12
9.87468e-12
3.46184e-11
2.49917e-11
3.69105e-11
2.6523e-11
4.34191e-11
2.78061e-11
4.88825e-11
2.69604e-11
5.38632e-11
1.28499e-11
4.53203e-11
-1.94591e-11
6.98896e-11
1.45798e-11
-5.89941e-10
3.10223e-10
4.33391e-10
-4.98421e-10
-2.119e-10
6.91591e-11
-8.92628e-11
-1.6217e-10
-1.23391e-10
-9.1818e-11
-7.49585e-11
-7.77494e-11
-7.05388e-11
-7.16301e-11
-6.25395e-11
-6.39728e-11
-5.44644e-11
-5.44751e-11
-4.49775e-11
-4.78409e-11
-3.87221e-11
-3.91404e-11
-2.90077e-11
-3.18833e-11
-2.311e-11
-2.53069e-11
-1.57665e-11
-1.83979e-11
-9.27107e-12
-1.32636e-11
-4.34428e-12
-7.73439e-12
2.23246e-12
-1.08037e-12
8.66572e-12
2.63649e-12
1.20871e-11
6.74364e-12
1.80864e-11
1.09486e-11
2.43803e-11
1.58507e-11
3.68889e-11
4.31706e-12
3.81782e-13
1.03988e-11
3.49e-11
2.48387e-11
3.7628e-11
2.59746e-11
4.43601e-11
2.7052e-11
5.02243e-11
2.58339e-11
5.59754e-11
1.15954e-11
4.85565e-11
-2.0908e-11
7.7338e-11
2.70599e-11
-6.25652e-10
3.56165e-10
4.86059e-10
-5.71388e-10
-2.60805e-10
9.14669e-11
-6.88443e-11
-1.57821e-10
-1.23926e-10
-9.13528e-11
-7.42347e-11
-7.75373e-11
-7.09466e-11
-7.21772e-11
-6.32185e-11
-6.45724e-11
-5.5135e-11
-5.50131e-11
-4.54835e-11
-4.81975e-11
-3.92077e-11
-3.95482e-11
-2.94176e-11
-3.21419e-11
-2.34538e-11
-2.55518e-11
-1.60144e-11
-1.85394e-11
-9.44799e-12
-1.33682e-11
-4.5092e-12
-7.85783e-12
2.12665e-12
-1.15037e-12
8.63438e-12
2.6063e-12
1.20367e-11
6.66011e-12
1.80756e-11
1.10508e-11
2.41754e-11
1.58425e-11
3.21149e-11
1.04752e-11
7.32328e-12
1.05602e-11
3.49963e-11
2.4657e-11
3.83016e-11
2.54759e-11
4.5195e-11
2.63969e-11
5.14026e-11
2.49114e-11
5.77865e-11
1.07445e-11
5.13242e-11
-2.17088e-11
8.39096e-11
3.98117e-11
-6.59816e-10
3.97721e-10
5.41897e-10
-6.37278e-10
-3.13959e-10
1.09791e-10
-4.72736e-11
-1.51875e-10
-1.24294e-10
-9.11541e-11
-7.36014e-11
-7.72949e-11
-7.13464e-11
-7.27367e-11
-6.39306e-11
-6.51938e-11
-5.58352e-11
-5.55735e-11
-4.60265e-11
-4.85699e-11
-3.97117e-11
-3.99706e-11
-2.98601e-11
-3.24155e-11
-2.38163e-11
-2.58069e-11
-1.62855e-11
-1.86868e-11
-9.64242e-12
-1.3474e-11
-4.68717e-12
-7.98058e-12
2.00211e-12
-1.21561e-12
8.58009e-12
2.5896e-12
1.19617e-11
6.60255e-12
1.8011e-11
1.12028e-11
2.38686e-11
1.58774e-11
2.90153e-11
1.328e-11
1.28344e-11
1.11566e-11
3.50811e-11
2.45095e-11
3.89215e-11
2.50639e-11
4.58925e-11
2.58812e-11
5.2365e-11
2.42559e-11
5.92183e-11
1.03889e-11
5.35197e-11
-2.17396e-11
8.953e-11
5.26533e-11
-6.91386e-10
4.33042e-10
5.99675e-10
-6.93266e-10
-3.70352e-10
1.23031e-10
-2.50793e-11
-1.44231e-10
-1.24413e-10
-9.12652e-11
-7.31072e-11
-7.70351e-11
-7.17364e-11
-7.33076e-11
-6.46756e-11
-6.58369e-11
-5.65642e-11
-5.61552e-11
-4.66048e-11
-4.89583e-11
-4.02336e-11
-4.04067e-11
-3.03342e-11
-3.27047e-11
-2.41978e-11
-2.60715e-11
-1.65798e-11
-1.884e-11
-9.85437e-12
-1.35803e-11
-4.87881e-12
-8.10116e-12
1.8578e-12
-1.27519e-12
8.5021e-12
2.58643e-12
1.18616e-11
6.56931e-12
1.78972e-11
1.13927e-11
2.35047e-11
1.59959e-11
2.68592e-11
1.52681e-11
1.7467e-11
1.2059e-11
3.51386e-11
2.43816e-11
3.94489e-11
2.47594e-11
4.64227e-11
2.55412e-11
5.30664e-11
2.39254e-11
6.0206e-11
1.05965e-11
5.50541e-11
-2.08997e-11
9.40999e-11
6.55077e-11
-7.19235e-10
4.60094e-10
6.58217e-10
-7.36488e-10
-4.28923e-10
1.30209e-10
-2.81674e-12
-1.3487e-10
-1.24211e-10
-9.17278e-11
-7.28034e-11
-7.67753e-11
-7.21164e-11
-7.38895e-11
-6.54537e-11
-6.65018e-11
-5.73211e-11
-5.67583e-11
-4.72169e-11
-4.93623e-11
-4.07729e-11
-4.08563e-11
-3.08393e-11
-3.30095e-11
-2.45982e-11
-2.6345e-11
-1.68974e-11
-1.89993e-11
-1.00838e-11
-1.36863e-11
-5.0843e-12
-8.21835e-12
1.69324e-12
-1.32899e-12
8.40008e-12
2.59665e-12
1.17378e-11
6.55558e-12
1.77451e-11
1.15812e-11
2.31539e-11
1.60979e-11
2.54459e-11
1.65114e-11
2.11942e-11
1.31055e-11
3.51516e-11
2.42807e-11
3.98593e-11
2.4579e-11
4.67631e-11
2.54154e-11
5.3473e-11
2.39662e-11
6.07065e-11
1.14551e-11
5.58654e-11
-1.90726e-11
9.73659e-11
7.85155e-11
-7.42265e-10
4.7657e-10
7.16381e-10
-7.64037e-10
-4.88612e-10
1.30509e-10
1.89897e-11
-1.23849e-10
-1.23653e-10
-9.25844e-11
-7.27452e-11
-7.65388e-11
-7.24904e-11
-7.44857e-11
-6.62675e-11
-6.71911e-11
-5.81067e-11
-5.73852e-11
-4.78628e-11
-4.97823e-11
-4.13296e-11
-4.13205e-11
-3.13755e-11
-3.33305e-11
-2.50183e-11
-2.66279e-11
-1.72382e-11
-1.91655e-11
-1.0331e-11
-1.37914e-11
-5.30368e-12
-8.33136e-12
1.50847e-12
-1.37736e-12
8.27375e-12
2.62071e-12
1.15911e-11
6.55826e-12
1.75607e-11
1.17632e-11
2.28353e-11
1.61627e-11
2.45816e-11
1.72653e-11
2.41406e-11
1.4253e-11
3.51351e-11
2.42364e-11
4.01404e-11
2.45541e-11
4.68974e-11
2.55249e-11
5.35657e-11
2.44041e-11
6.06995e-11
1.29844e-11
5.59267e-11
-1.61363e-11
9.89227e-11
9.21059e-11
-7.59306e-10
4.79747e-10
7.72942e-10
-7.72942e-10
-5.48425e-10
1.23213e-10
3.98995e-11
-1.11243e-10
-1.22712e-10
-9.38715e-11
-7.29904e-11
-7.63505e-11
-7.28634e-11
-7.50996e-11
-6.7122e-11
-6.79076e-11
-5.89234e-11
-5.80387e-11
-4.85437e-11
-5.02177e-11
-4.19044e-11
-4.17999e-11
-3.19437e-11
-3.36671e-11
-2.54597e-11
-2.69205e-11
-1.76035e-11
-1.93388e-11
-1.05969e-11
-1.38941e-11
-5.53803e-12
-8.43928e-12
1.30257e-12
-1.42038e-12
8.12264e-12
2.65991e-12
1.1422e-11
6.5739e-12
1.73481e-11
1.19347e-11
2.25455e-11
1.61987e-11
2.41038e-11
1.77239e-11
2.64422e-11
1.54691e-11
3.50939e-11
2.42686e-11
4.02773e-11
2.46893e-11
4.68109e-11
2.5883e-11
5.33325e-11
2.52496e-11
6.01749e-11
1.51973e-11
5.52095e-11
-1.1853e-11
9.81648e-11
1.0694e-10
-7.68933e-10
4.66597e-10
1.18874e-10
1.06683e-10
-2.76285e-11
-1.44308e-10
-1.62701e-10
-1.47417e-10
-1.15407e-10
-9.87844e-11
-8.01438e-11
-7.66499e-11
-6.55256e-11
-6.58608e-11
-5.6568e-11
-5.81542e-11
-4.86187e-11
-4.99032e-11
-4.16034e-11
-4.42382e-11
-3.41894e-11
-3.54526e-11
-2.6236e-11
-2.93484e-11
-2.02229e-11
-2.32319e-11
-1.41469e-11
-1.70644e-11
-8.26684e-12
-1.20926e-11
-3.16928e-12
-6.66676e-12
2.61334e-12
-4.22346e-13
7.92894e-12
3.31283e-12
1.19031e-11
7.92876e-12
1.61539e-11
1.23357e-11
1.9829e-11
1.52689e-11
2.1758e-11
1.8161e-11
2.41543e-11
2.14999e-11
2.80011e-11
2.49937e-11
3.07839e-11
2.98448e-11
3.34394e-11
3.35263e-11
3.5062e-11
3.68807e-11
2.96924e-11
2.7532e-11
6.13545e-12
2.5002e-12
-4.27785e-11
-9.5576e-11
-2.35278e-10
-3.02712e-11
1.26009e-10
1.10566e-10
-2.88873e-11
-1.4594e-10
-1.6361e-10
-1.47728e-10
-1.15578e-10
-9.8864e-11
-8.02734e-11
-7.67278e-11
-6.56443e-11
-6.5915e-11
-5.66694e-11
-5.81944e-11
-4.86977e-11
-4.99188e-11
-4.16755e-11
-4.42559e-11
-3.42523e-11
-3.54499e-11
-2.62945e-11
-2.93469e-11
-2.02756e-11
-2.32167e-11
-1.41946e-11
-1.70453e-11
-8.31432e-12
-1.20737e-11
-3.21312e-12
-6.63871e-12
2.57509e-12
-3.88584e-13
7.88735e-12
3.33952e-12
1.18654e-11
7.96913e-12
1.61221e-11
1.23791e-11
1.98019e-11
1.53074e-11
2.17178e-11
1.81434e-11
2.41068e-11
2.15579e-11
2.80026e-11
2.50584e-11
3.08011e-11
2.99321e-11
3.3482e-11
3.36203e-11
3.51536e-11
3.70054e-11
2.98615e-11
2.76658e-11
6.44713e-12
2.83942e-12
-4.17127e-11
-9.52272e-11
-2.40263e-10
-3.33983e-11
1.34701e-10
1.14833e-10
-3.02781e-11
-1.47945e-10
-1.64871e-10
-1.48312e-10
-1.15822e-10
-9.90238e-11
-8.04031e-11
-7.68704e-11
-6.57652e-11
-6.60367e-11
-5.67635e-11
-5.8293e-11
-4.87688e-11
-4.99818e-11
-4.17199e-11
-4.43235e-11
-3.43005e-11
-3.5495e-11
-2.63255e-11
-2.93921e-11
-2.03012e-11
-2.32411e-11
-1.42109e-11
-1.70672e-11
-8.3262e-12
-1.20958e-11
-3.22092e-12
-6.64702e-12
2.57225e-12
-3.92919e-13
7.88942e-12
3.32671e-12
1.18662e-11
7.97755e-12
1.61334e-11
1.23905e-11
1.98223e-11
1.53218e-11
2.17182e-11
1.80658e-11
2.40738e-11
2.15875e-11
2.80666e-11
2.51193e-11
3.08687e-11
3.00275e-11
3.35854e-11
3.37278e-11
3.52866e-11
3.7154e-11
3.00906e-11
2.78789e-11
6.82831e-12
3.25277e-12
-4.02253e-11
-9.34067e-11
-2.48032e-10
-3.70937e-11
1.44893e-10
1.19157e-10
-3.14651e-11
-1.50219e-10
-1.66726e-10
-1.49209e-10
-1.16162e-10
-9.92064e-11
-8.05379e-11
-7.70432e-11
-6.59103e-11
-6.61882e-11
-5.68763e-11
-5.84236e-11
-4.88583e-11
-5.00656e-11
-4.17617e-11
-4.44143e-11
-3.43626e-11
-3.55605e-11
-2.63543e-11
-2.94551e-11
-2.03282e-11
-2.32765e-11
-1.4222e-11
-1.71006e-11
-8.32915e-12
-1.21296e-11
-3.22138e-12
-6.66312e-12
2.57884e-12
-4.05206e-13
7.91006e-12
3.30382e-12
1.18776e-11
7.98133e-12
1.61646e-11
1.23969e-11
1.98711e-11
1.53373e-11
2.17453e-11
1.79451e-11
2.4024e-11
2.15995e-11
2.81825e-11
2.51908e-11
3.09795e-11
3.01341e-11
3.37549e-11
3.38406e-11
3.54918e-11
3.73052e-11
3.04485e-11
2.80943e-11
7.39728e-12
3.65549e-12
-3.79055e-11
-9.04888e-11
-2.58127e-10
-4.10877e-11
1.55152e-10
1.22591e-10
-3.18843e-11
-1.52163e-10
-1.69052e-10
-1.50413e-10
-1.16583e-10
-9.93821e-11
-8.06718e-11
-7.72399e-11
-6.60918e-11
-6.63751e-11
-5.70214e-11
-5.85865e-11
-4.89795e-11
-5.01682e-11
-4.18123e-11
-4.4525e-11
-3.44508e-11
-3.56413e-11
-2.63903e-11
-2.95295e-11
-2.03681e-11
-2.33176e-11
-1.42378e-11
-1.71386e-11
-8.33231e-12
-1.21677e-11
-3.22554e-12
-6.68097e-12
2.5854e-12
-4.17611e-13
7.94104e-12
3.27876e-12
1.18892e-11
7.98623e-12
1.62076e-11
1.24042e-11
1.99431e-11
1.53598e-11
2.17993e-11
1.7786e-11
2.39355e-11
2.1591e-11
2.83486e-11
2.52735e-11
3.11299e-11
3.0243e-11
3.39927e-11
3.39409e-11
3.57772e-11
3.74283e-11
3.09575e-11
2.82577e-11
8.20029e-12
3.94966e-12
-3.46542e-11
-8.67083e-11
-2.69891e-10
-4.46673e-11
1.64398e-10
1.23585e-10
-3.12729e-11
-1.53072e-10
-1.71614e-10
-1.51897e-10
-1.1706e-10
-9.95293e-11
-8.07881e-11
-7.7455e-11
-6.63114e-11
-6.66006e-11
-5.7203e-11
-5.87857e-11
-4.91378e-11
-5.0294e-11
-4.18756e-11
-4.46569e-11
-3.45687e-11
-3.57404e-11
-2.64356e-11
-2.96163e-11
-2.04241e-11
-2.33667e-11
-1.42602e-11
-1.71821e-11
-8.33733e-12
-1.22106e-11
-3.23591e-12
-6.70223e-12
2.59041e-12
-4.31064e-13
7.98152e-12
3.25179e-12
1.18988e-11
7.98988e-12
1.62617e-11
1.24105e-11
2.00397e-11
1.53892e-11
2.18877e-11
1.75851e-11
2.37949e-11
2.15533e-11
2.85674e-11
2.53625e-11
3.13201e-11
3.03401e-11
3.43024e-11
3.40095e-11
3.6151e-11
3.74918e-11
3.1635e-11
2.83183e-11
9.27673e-12
4.03196e-12
-3.04134e-11
-8.22551e-11
-2.82899e-10
-4.65976e-11
1.7224e-10
1.20372e-10
-2.97532e-11
-1.52263e-10
-1.74134e-10
-1.53619e-10
-1.17565e-10
-9.96048e-11
-8.08684e-11
-7.76793e-11
-6.65663e-11
-6.68644e-11
-5.74228e-11
-5.90226e-11
-4.93361e-11
-5.04482e-11
-4.19547e-11
-4.48108e-11
-3.47185e-11
-3.58613e-11
-2.64927e-11
-2.9716e-11
-2.04984e-11
-2.34263e-11
-1.42903e-11
-1.72326e-11
-8.34551e-12
-1.22589e-11
-3.25413e-12
-6.72879e-12
2.59319e-12
-4.4727e-13
8.03049e-12
3.22314e-12
1.19057e-11
7.98942e-12
1.6327e-11
1.24137e-11
2.01622e-11
1.5425e-11
2.20195e-11
1.73381e-11
2.35914e-11
2.14784e-11
2.88412e-11
2.54525e-11
3.15524e-11
3.04106e-11
3.46884e-11
3.40278e-11
3.66248e-11
3.74631e-11
3.25014e-11
2.82221e-11
1.06731e-11
3.8048e-12
-2.51369e-11
-7.73069e-11
-2.97063e-10
-4.54493e-11
1.78861e-10
1.11237e-10
-2.7782e-11
-1.49116e-10
-1.76289e-10
-1.55526e-10
-1.18077e-10
-9.95861e-11
-8.08944e-11
-7.79025e-11
-6.68524e-11
-6.71641e-11
-5.76813e-11
-5.9297e-11
-4.95759e-11
-5.0633e-11
-4.20534e-11
-4.49858e-11
-3.49014e-11
-3.60063e-11
-2.65648e-11
-2.98288e-11
-2.05931e-11
-2.34981e-11
-1.43299e-11
-1.72905e-11
-8.35924e-12
-1.23125e-11
-3.28207e-12
-6.7617e-12
2.59271e-12
-4.66943e-13
8.08553e-12
3.19358e-12
1.19088e-11
7.98277e-12
1.64026e-11
1.24126e-11
2.03106e-11
1.54674e-11
2.22043e-11
1.70377e-11
2.33171e-11
2.13608e-11
2.91713e-11
2.55378e-11
3.18301e-11
3.04401e-11
3.51556e-11
3.39773e-11
3.72122e-11
3.73103e-11
3.35789e-11
2.79188e-11
1.24352e-11
3.18811e-12
-1.88191e-11
-7.19793e-11
-3.12549e-10
-3.98871e-11
1.84955e-10
9.46897e-11
-2.60848e-11
-1.43116e-10
-1.77736e-10
-1.57562e-10
-1.18578e-10
-9.94485e-11
-8.08491e-11
-7.81141e-11
-6.71649e-11
-6.74962e-11
-5.7978e-11
-5.9607e-11
-4.98574e-11
-5.08497e-11
-4.21753e-11
-4.51805e-11
-3.51176e-11
-3.61766e-11
-2.66552e-11
-2.99543e-11
-2.07099e-11
-2.35834e-11
-1.43806e-11
-1.73559e-11
-8.38086e-12
-1.23713e-11
-3.32141e-12
-6.80165e-12
2.58783e-12
-4.90482e-13
8.14381e-12
3.16395e-12
1.19073e-11
7.96822e-12
1.64874e-11
1.24063e-11
2.04843e-11
1.55168e-11
2.24528e-11
1.66745e-11
2.29646e-11
2.11967e-11
2.95585e-11
2.56121e-11
3.21573e-11
3.0415e-11
3.57093e-11
3.38407e-11
3.79268e-11
3.70053e-11
3.48866e-11
2.73675e-11
1.45957e-11
2.13352e-12
-1.15054e-11
-6.63088e-11
-3.29718e-10
-2.88254e-11
1.91497e-10
6.95938e-11
-2.55337e-11
-1.33869e-10
-1.78123e-10
-1.59668e-10
-1.19067e-10
-9.91745e-11
-8.07185e-11
-7.83051e-11
-6.74993e-11
-6.78568e-11
-5.83117e-11
-5.99501e-11
-5.01794e-11
-5.10986e-11
-4.23234e-11
-4.5393e-11
-3.53662e-11
-3.63726e-11
-2.6767e-11
-3.00917e-11
-2.08496e-11
-2.36831e-11
-1.44441e-11
-1.74285e-11
-8.41265e-12
-1.24348e-11
-3.37313e-12
-6.84911e-12
2.57763e-12
-5.18119e-13
8.20235e-12
3.13475e-12
1.19012e-11
7.94432e-12
1.65801e-11
1.23944e-11
2.06814e-11
1.55735e-11
2.2777e-11
1.62392e-11
2.2529e-11
2.09846e-11
3.00028e-11
2.56683e-11
3.25384e-11
3.03233e-11
3.6353e-11
3.36035e-11
3.87793e-11
3.65253e-11
3.64357e-11
2.65427e-11
1.71667e-11
6.25918e-13
-3.3104e-12
-6.02305e-11
-3.48955e-10
-1.15735e-11
1.99702e-10
3.52659e-11
-2.71316e-11
-1.21157e-10
-1.77098e-10
-1.61776e-10
-1.19549e-10
-9.87557e-11
-8.04927e-11
-7.84684e-11
-6.7852e-11
-6.82427e-11
-5.86813e-11
-6.03241e-11
-5.05408e-11
-5.13798e-11
-4.25005e-11
-4.56217e-11
-3.5646e-11
-3.65941e-11
-2.69028e-11
-3.02406e-11
-2.10125e-11
-2.37976e-11
-1.45217e-11
-1.75083e-11
-8.45631e-12
-1.25026e-11
-3.43775e-12
-6.90455e-12
2.5612e-12
-5.50015e-13
8.25872e-12
3.10622e-12
1.18907e-11
7.90982e-12
1.66791e-11
1.23763e-11
2.08999e-11
1.56369e-11
2.31881e-11
1.57224e-11
2.20083e-11
2.07254e-11
3.05022e-11
2.56996e-11
3.29768e-11
3.0156e-11
3.7088e-11
3.32558e-11
3.97751e-11
3.58583e-11
3.82262e-11
2.54383e-11
2.0135e-11
-1.30831e-12
5.60912e-12
-5.36213e-11
-3.70659e-10
1.21423e-11
2.1078e-10
-8.51141e-12
-3.18962e-11
-1.04939e-10
-1.74329e-10
-1.63799e-10
-1.20038e-10
-9.81934e-11
-8.01657e-11
-7.85986e-11
-6.82206e-11
-6.86519e-11
-5.90866e-11
-6.07274e-11
-5.09408e-11
-5.16929e-11
-4.27092e-11
-4.58655e-11
-3.59554e-11
-3.68408e-11
-2.70649e-11
-3.04007e-11
-2.11985e-11
-2.39274e-11
-1.46148e-11
-1.75947e-11
-8.51334e-12
-1.25746e-11
-3.51532e-12
-6.96823e-12
2.53779e-12
-5.86103e-13
8.31081e-12
3.07823e-12
1.18764e-11
7.86372e-12
1.67827e-11
1.23518e-11
2.11365e-11
1.57052e-11
2.37003e-11
1.51261e-11
2.14032e-11
2.04207e-11
3.10522e-11
2.56996e-11
3.3474e-11
2.99074e-11
3.79122e-11
3.27934e-11
4.09125e-11
3.5005e-11
4.02443e-11
2.407e-11
2.34627e-11
-3.60628e-12
1.50475e-11
-4.63399e-11
-3.95081e-10
4.22101e-11
2.2595e-10
-6.15067e-11
-4.08539e-11
-8.53842e-11
-1.69508e-10
-1.65619e-10
-1.20547e-10
-9.7498e-11
-7.97355e-11
-7.8691e-11
-6.86027e-11
-6.90825e-11
-5.9527e-11
-6.11584e-11
-5.13784e-11
-5.20374e-11
-4.29516e-11
-4.61234e-11
-3.62927e-11
-3.71118e-11
-2.72553e-11
-3.05719e-11
-2.14072e-11
-2.40727e-11
-1.47245e-11
-1.76877e-11
-8.58459e-12
-1.26508e-11
-3.60574e-12
-7.04032e-12
2.50669e-12
-6.26364e-13
8.35701e-12
3.05047e-12
1.1859e-11
7.80548e-12
1.68889e-11
1.23206e-11
2.1387e-11
1.57755e-11
2.43209e-11
1.44618e-11
2.0726e-11
2.00744e-11
3.16456e-11
2.56644e-11
3.4029e-11
2.95769e-11
3.88164e-11
3.22184e-11
4.21807e-11
3.39778e-11
4.24613e-11
2.24749e-11
2.7087e-11
-6.17176e-12
2.47963e-11
-3.82873e-11
-4.22379e-10
7.82127e-11
2.46142e-10
-1.22977e-10
-5.48481e-11
-6.28644e-11
-1.62399e-10
-1.67103e-10
-1.2109e-10
-9.66924e-11
-7.92048e-11
-7.87417e-11
-6.8996e-11
-6.95327e-11
-6.0002e-11
-6.16157e-11
-5.18522e-11
-5.24124e-11
-4.32296e-11
-4.6395e-11
-3.6656e-11
-3.74062e-11
-2.74756e-11
-3.07543e-11
-2.16378e-11
-2.42335e-11
-1.48521e-11
-1.7787e-11
-8.67091e-12
-1.2731e-11
-3.70849e-12
-7.12066e-12
2.46731e-12
-6.7079e-13
8.39566e-12
3.0225e-12
1.18393e-11
7.73527e-12
1.69954e-11
1.22829e-11
2.16446e-11
1.58419e-11
2.50416e-11
1.3767e-11
2.00133e-11
1.96915e-11
3.22708e-11
2.5593e-11
3.4638e-11
2.9169e-11
3.97884e-11
3.15432e-11
4.35597e-11
3.28029e-11
4.48338e-11
2.07105e-11
3.09242e-11
-8.88984e-12
3.46218e-11
-2.93763e-11
-4.52453e-10
1.19353e-10