/*--------------------------------*- C++ -*----------------------------------*\
| =========                 |                                                 |
| \\      /  F ield         | OpenFOAM: The Open Source CFD Toolbox           |
|  \\    /   O peration     | Version:  2312                                  |
|   \\  /    A nd           | Website:  www.openfoam.com                      |
|    \\/     M anipulation  |                                                 |
\*---------------------------------------------------------------------------*/
FoamFile
{
    version     2.0;
    format      ascii;
    arch        "LSB;label=32;scalar=64";
    class       volScalarField;
    location    "600";
    object      nut;
}
// * * * * * * * * * * * * * * * * * * * * * * * * * * * * * * * * * * * * * //

dimensions      [0 2 -1 0 0 0 0];

internalField   nonuniform List<scalar> 
330000
(
1.32051e-23
1.82712e-24
1.20171e-25
4.13973e-27
1.31664e-28
1.21842e-28
1.00136e-27
7.8001e-28
1.19945e-27
8.63559e-28
1.13128e-27
1.23775e-27
1.50394e-27
1.57615e-27
1.77174e-27
2.16872e-27
2.19536e-27
2.18469e-27
2.50028e-27
2.82491e-27
3.08733e-27
3.16416e-27
3.61348e-27
3.88122e-27
4.34212e-27
4.65624e-27
5.14182e-27
5.17703e-27
5.95927e-27
6.16397e-27
7.03044e-27
7.32461e-27
8.17205e-27
8.14224e-27
9.25615e-27
9.67862e-27
1.0691e-26
1.09115e-26
1.21174e-26
1.16465e-26
1.33653e-26
1.30111e-26
1.46815e-26
1.42561e-26
1.55483e-26
1.35944e-26
1.49672e-26
1.32803e-26
1.36313e-26
1.06584e-26
1.00268e-26
6.82469e-27
4.07644e-27
1.21827e-27
4.31995e-29
2.15413e-28
7.82937e-27
1.99364e-25
2.00678e-24
1.14302e-23
1.44595e-23
4.9785e-24
4.54005e-25
5.13122e-27
1.77957e-29
4.42276e-28
1.38604e-27
1.90717e-27
2.14834e-27
1.87629e-27
2.05762e-27
2.64973e-27
2.92237e-27
3.25156e-27
3.43074e-27
4.47903e-27
4.31612e-27
4.46778e-27
4.84937e-27
5.75257e-27
6.03704e-27
6.41957e-27
7.03953e-27
7.85984e-27
8.47922e-27
9.36178e-27
1.00799e-26
1.03727e-26
1.15854e-26
1.2349e-26
1.37081e-26
1.45169e-26
1.60041e-26
1.60074e-26
1.79758e-26
1.89975e-26
2.05363e-26
2.14416e-26
2.33646e-26
2.27256e-26
2.53641e-26
2.53172e-26
2.76304e-26
2.74631e-26
2.926e-26
2.5708e-26
2.75118e-26
2.47193e-26
2.47352e-26
1.88797e-26
1.73853e-26
1.12543e-26
6.72984e-27
1.26105e-27
6.28309e-30
1.58903e-27
2.29613e-26
4.39304e-25
5.5916e-24
1.77627e-23
2.55062e-23
7.62697e-24
5.04007e-25
1.03594e-26
4.26729e-29
7.04533e-28
1.97625e-27
2.61156e-27
3.1017e-27
2.5437e-27
3.05075e-27
3.57356e-27
4.36662e-27
4.32419e-27
5.11046e-27
5.97302e-27
6.23819e-27
6.17976e-27
7.02308e-27
7.88962e-27
8.63607e-27
8.92944e-27
1.00485e-26
1.09381e-26
1.20988e-26
1.30424e-26
1.432e-26
1.45374e-26
1.63805e-26
1.73961e-26
1.94738e-26
2.0314e-26
2.26359e-26
2.2519e-26
2.54418e-26
2.66483e-26
2.89379e-26
3.03518e-26
3.29249e-26
3.22077e-26
3.5578e-26
3.60715e-26
3.89695e-26
3.88912e-26
4.10857e-26
3.67304e-26
3.87668e-26
3.53812e-26
3.49512e-26
2.71241e-26
2.47307e-26
1.61835e-26
9.51003e-27
1.89873e-27
6.03179e-30
1.67551e-27
3.50652e-26
6.44631e-25
7.26007e-24
2.48662e-23
2.98372e-23
7.71471e-24
5.71363e-25
9.58197e-27
6.21609e-29
6.32138e-28
2.15626e-27
2.40796e-27
3.29812e-27
2.35954e-27
3.30705e-27
3.36154e-27
4.64355e-27
4.07331e-27
5.42156e-27
5.64402e-27
6.50733e-27
5.9995e-27
7.25114e-27
7.68233e-27
8.84599e-27
8.80899e-27
1.02846e-26
1.0793e-26
1.23216e-26
1.29152e-26
1.4542e-26
1.44649e-26
1.66196e-26
1.73685e-26
1.97129e-26
2.02214e-26
2.2868e-26
2.25218e-26
2.57911e-26
2.65351e-26
2.92189e-26
3.04873e-26
3.31938e-26
3.24225e-26
3.58617e-26
3.64278e-26
3.92142e-26
3.92546e-26
4.13001e-26
3.73606e-26
3.92384e-26
3.60131e-26
3.53925e-26
2.78035e-26
2.53722e-26
1.67206e-26
1.00097e-26
1.98811e-27
1.33398e-29
1.46736e-27
3.25774e-26
6.32774e-25
8.91893e-24
2.92283e-23
3.67034e-23
9.02914e-24
7.5677e-25
9.38709e-27
7.25314e-29
6.30869e-28
2.12142e-27
2.38567e-27
3.31384e-27
2.2748e-27
3.38464e-27
3.21418e-27
4.73027e-27
3.85217e-27
5.54101e-27
5.32812e-27
6.66025e-27
5.75218e-27
7.30055e-27
7.3941e-27
8.89935e-27
8.5463e-27
1.02856e-26
1.04963e-26
1.22925e-26
1.25771e-26
1.44884e-26
1.41258e-26
1.652e-26
1.70148e-26
1.95171e-26
1.97694e-26
2.26714e-26
2.20573e-26
2.55309e-26
2.59233e-26
2.89553e-26
2.99326e-26
3.27973e-26
3.18583e-26
3.53765e-26
3.5893e-26
3.85539e-26
3.8658e-26
4.0665e-26
3.69271e-26
3.86017e-26
3.56118e-26
3.4789e-26
2.7508e-26
2.50082e-26
1.65725e-26
9.89534e-27
1.92558e-27
1.63164e-29
1.3947e-27
3.24375e-26
6.64424e-25
1.16084e-23
3.11015e-23
4.91493e-23
1.1011e-23
1.15785e-24
9.37737e-27
1.0202e-28
6.48124e-28
2.08158e-27
2.44856e-27
3.348e-27
2.2911e-27
3.48664e-27
3.19016e-27
4.85556e-27
3.79012e-27
5.73799e-27
5.20649e-27
6.96288e-27
5.65221e-27
7.51492e-27
7.31381e-27
9.17294e-27
8.50068e-27
1.05419e-26
1.04661e-26
1.25596e-26
1.25576e-26
1.4795e-26
1.41299e-26
1.68478e-26
1.7059e-26
1.97938e-26
1.98087e-26
2.30288e-26
2.21361e-26
2.59002e-26
2.59643e-26
2.94436e-26
3.00491e-26
3.32304e-26
3.20089e-26
3.58334e-26
3.61295e-26
3.88667e-26
3.89188e-26
4.10587e-26
3.72842e-26
3.89304e-26
3.59251e-26
3.49797e-26
2.77711e-26
2.51699e-26
1.67024e-26
9.91722e-27
1.89928e-27
1.95531e-29
1.43044e-27
3.37107e-26
7.55258e-25
1.62391e-23
3.31398e-23
6.91015e-23
1.31499e-23
1.84344e-24
9.68553e-27
1.91222e-28
6.48511e-28
2.06289e-27
2.53164e-27
3.4075e-27
2.34545e-27
3.59644e-27
3.21973e-27
4.99881e-27
3.79737e-27
5.96255e-27
5.18782e-27
7.32726e-27
5.61065e-27
7.81184e-27
7.31966e-27
9.55209e-27
8.53009e-27
1.09166e-26
1.05352e-26
1.29715e-26
1.26631e-26
1.52673e-26
1.42695e-26
1.73731e-26
1.72403e-26
2.02943e-26
2.00552e-26
2.36463e-26
2.24288e-26
2.65476e-26
2.62884e-26
3.02877e-26
3.04385e-26
3.40571e-26
3.24658e-26
3.67407e-26
3.66601e-26
3.96773e-26
3.95809e-26
4.19822e-26
3.79877e-26
3.97219e-26
3.65895e-26
3.56101e-26
2.83117e-26
2.56325e-26
1.70391e-26
1.00803e-26
1.942e-27
2.51447e-29
1.52129e-27
3.63408e-26
9.03618e-25
2.28877e-23
3.51573e-23
9.75203e-23
1.5127e-23
2.86983e-24
1.07517e-26
4.01736e-28
6.34579e-28
2.05156e-27
2.60929e-27
3.46069e-27
2.4141e-27
3.68634e-27
3.26399e-27
5.11056e-27
3.83888e-27
6.15973e-27
5.20845e-27
7.66674e-27
5.57293e-27
8.11815e-27
7.3352e-27
9.93838e-27
8.55767e-27
1.13143e-26
1.06011e-26
1.33982e-26
1.27691e-26
1.57616e-26
1.43996e-26
1.79312e-26
1.74051e-26
2.08317e-26
2.02994e-26
2.42887e-26
2.2724e-26
2.7249e-26
2.66362e-26
3.11684e-26
3.0806e-26
3.49539e-26
3.28985e-26
3.77463e-26
3.71533e-26
4.05957e-26
4.02167e-26
4.29966e-26
3.86514e-26
4.06463e-26
3.71975e-26
3.63267e-26
2.88566e-26
2.61757e-26
1.73773e-26
1.03019e-26
2.01496e-27
3.32493e-29
1.7205e-27
4.10043e-26
1.12459e-24
3.13716e-23
3.66903e-23
1.34578e-22
1.67211e-23
4.27326e-24
1.30137e-26
8.22783e-28
6.11208e-28
2.05242e-27
2.66709e-27
3.51884e-27
2.48718e-27
3.76028e-27
3.32298e-27
5.21093e-27
3.90241e-27
6.33646e-27
5.26849e-27
7.97534e-27
5.55342e-27
8.42656e-27
7.3639e-27
1.03246e-26
8.58585e-27
1.17205e-26
1.06643e-26
1.38427e-26
1.28747e-26
1.6265e-26
1.45303e-26
1.85056e-26
1.75474e-26
2.14025e-26
2.05419e-26
2.49566e-26
2.30143e-26
2.79758e-26
2.69924e-26
3.20748e-26
3.11596e-26
3.58915e-26
3.3327e-26
3.88045e-26
3.75951e-26
4.16067e-26
4.08378e-26
4.40824e-26
3.92792e-26
4.16144e-26
3.77719e-26
3.71186e-26
2.9367e-26
2.67649e-26
1.7728e-26
1.05849e-26
2.11532e-27
4.7718e-29
2.13489e-27
4.88231e-26
1.4355e-24
4.14718e-23
3.77629e-23
1.80017e-22
1.79303e-23
6.04793e-24
1.68194e-26
1.5361e-27
6.0048e-28
2.06385e-27
2.70397e-27
3.58016e-27
2.56052e-27
3.82597e-27
3.3913e-27
5.29654e-27
3.99042e-27
6.49547e-27
5.35666e-27
8.2449e-27
5.55598e-27
8.73239e-27
7.40695e-27
1.07036e-26
8.62538e-27
1.21392e-26
1.07325e-26
1.42962e-26
1.29848e-26
1.67823e-26
1.46618e-26
1.90981e-26
1.76894e-26
2.20086e-26
2.07801e-26
2.56463e-26
2.33129e-26
2.87509e-26
2.73605e-26
3.29907e-26
3.15115e-26
3.68758e-26
3.3746e-26
3.99183e-26
3.80207e-26
4.26953e-26
4.14191e-26
4.52159e-26
3.98681e-26
4.26685e-26
3.82846e-26
3.79617e-26
2.98511e-26
2.74082e-26
1.80573e-26
1.09162e-26
2.22686e-27
7.58381e-29
2.90607e-27
6.10459e-26
1.84864e-24
5.25784e-23
3.83708e-23
2.32562e-22
1.87094e-23
8.19181e-24
2.23791e-26
2.59896e-27
6.08823e-28
2.09649e-27
2.71614e-27
3.65824e-27
2.62803e-27
3.89252e-27
3.47083e-27
5.39043e-27
4.09375e-27
6.64959e-27
5.47659e-27
8.49095e-27
5.59164e-27
9.03752e-27
7.47385e-27
1.10842e-26
8.68454e-27
1.25687e-26
1.08173e-26
1.4776e-26
1.31116e-26
1.73199e-26
1.48164e-26
1.97169e-26
1.7844e-26
2.26648e-26
2.10375e-26
2.63882e-26
2.36344e-26
2.95747e-26
2.77557e-26
3.39543e-26
3.18984e-26
3.79208e-26
3.42044e-26
4.10981e-26
3.84573e-26
4.38916e-26
4.20161e-26
4.6445e-26
4.04588e-26
4.37828e-26
3.88017e-26
3.89013e-26
3.03106e-26
2.8113e-26
1.84008e-26
1.13038e-26
2.36157e-27
1.35695e-28
4.22835e-27
7.84622e-26
2.3538e-24
6.42715e-23
3.88622e-23
2.9106e-22
1.91667e-23
1.06617e-23
3.00215e-26
4.00129e-27
6.48601e-28
2.14344e-27
2.71352e-27
3.74486e-27
2.68769e-27
3.96512e-27
3.55317e-27
5.48443e-27
4.21152e-27
6.80025e-27
5.61308e-27
8.70881e-27
5.6538e-27
9.33355e-27
7.56027e-27
1.14555e-26
8.76532e-27
1.3005e-26
1.09182e-26
1.52647e-26
1.32525e-26
1.78717e-26
1.49824e-26
2.03527e-26
1.80178e-26
2.33563e-26
2.13009e-26
2.71611e-26
2.39741e-26
3.04461e-26
2.81653e-26
3.49376e-26
3.23088e-26
3.90059e-26
3.46718e-26
4.23206e-26
3.89116e-26
4.51516e-26
4.25908e-26
4.7715e-26
4.10287e-26
4.49659e-26
3.92777e-26
3.98812e-26
3.07494e-26
2.88697e-26
1.87312e-26
1.17319e-26
2.51917e-27
2.53771e-28
6.30713e-27
1.0177e-25
2.94554e-24
7.58767e-23
3.92888e-23
3.53691e-22
1.93144e-23
1.3437e-23
4.00004e-26
5.70849e-27
7.16981e-28
2.20998e-27
2.69863e-27
3.84873e-27
2.73802e-27
4.04809e-27
3.63886e-27
5.5946e-27
4.33481e-27
6.95466e-27
5.76669e-27
8.91519e-27
5.74433e-27
9.62255e-27
7.67036e-27
1.18244e-26
8.86973e-27
1.34436e-26
1.10405e-26
1.57716e-26
1.34128e-26
1.84372e-26
1.51736e-26
2.1009e-26
1.8213e-26
2.40844e-26
2.15841e-26
2.79801e-26
2.43355e-26
3.13545e-26
2.85945e-26
3.59648e-26
3.27541e-26
4.01296e-26
3.51764e-26
4.35866e-26
3.93853e-26
4.64788e-26
4.31735e-26
4.90506e-26
4.15964e-26
4.618e-26
3.97499e-26
4.09261e-26
3.11577e-26
2.96691e-26
1.90686e-26
1.2207e-26
2.72303e-27
4.72538e-28
9.3581e-27
1.31083e-25
3.60402e-24
8.70422e-23
3.99596e-23
4.19262e-22
1.92836e-23
1.64676e-23
5.25602e-26
7.63715e-27
8.17321e-28
2.28486e-27
2.67965e-27
3.9656e-27
2.77914e-27
4.14597e-27
3.72105e-27
5.71328e-27
4.46268e-27
7.11514e-27
5.92505e-27
9.11131e-27
5.85477e-27
9.90273e-27
7.79949e-27
1.21843e-26
8.99753e-27
1.38839e-26
1.11828e-26
1.628e-26
1.3591e-26
1.90145e-26
1.53808e-26
2.16783e-26
1.84324e-26
2.48347e-26
2.18793e-26
2.88253e-26
2.47152e-26
3.22999e-26
2.90343e-26
3.7008e-26
3.3222e-26
4.12802e-26
3.56934e-26
4.48764e-26
3.98781e-26
4.78309e-26
4.37388e-26
5.04058e-26
4.21467e-26
4.74337e-26
4.01834e-26
4.19797e-26
3.1543e-26
3.04972e-26
1.93926e-26
1.27313e-26
2.98602e-27
8.3914e-28
1.35634e-26
1.66588e-25
4.3151e-24
9.72188e-23
4.08442e-23
4.85623e-22
1.90777e-23
1.97343e-23
6.81346e-26
9.73753e-27
9.4308e-28
2.37206e-27
2.66039e-27
4.1013e-27
2.81371e-27
4.25866e-27
3.80308e-27
5.85337e-27
4.58858e-27
7.28665e-27
6.09143e-27
9.31204e-27
5.98394e-27
1.01802e-26
7.95008e-27
1.25447e-26
9.14778e-27
1.43239e-26
1.13493e-26
1.68017e-26
1.37907e-26
1.96017e-26
1.56162e-26
2.23649e-26
1.86764e-26
2.56098e-26
2.21994e-26
2.97091e-26
2.51147e-26
3.32721e-26
2.94937e-26
3.8092e-26
3.37176e-26
4.24555e-26
3.62453e-26
4.61938e-26
4.03884e-26
4.92171e-26
4.4314e-26
5.18032e-26
4.26887e-26
4.86914e-26
4.06135e-26
4.30721e-26
3.18951e-26
3.13515e-26
1.97285e-26
1.33194e-26
3.33552e-27
1.41404e-27
1.90942e-26
2.08024e-25
5.05303e-24
1.06246e-22
4.22474e-23
5.51697e-22
1.88167e-23
2.31637e-23
8.72791e-26
1.19488e-26
1.09522e-27
2.45942e-27
2.65055e-27
4.24556e-27
2.84506e-27
4.38701e-27
3.88141e-27
6.00454e-27
4.71486e-27
7.47227e-27
6.25802e-27
9.51443e-27
6.12353e-27
1.04565e-26
8.11669e-27
1.29004e-26
9.31871e-27
1.47654e-26
1.15372e-26
1.73238e-26
1.40119e-26
2.01976e-26
1.58689e-26
2.30596e-26
1.8947e-26
2.64012e-26
2.25375e-26
3.06104e-26
2.5531e-26
3.42708e-26
2.99679e-26
3.91911e-26
3.42332e-26
4.36462e-26
3.68055e-26
4.75162e-26
4.09184e-26
5.0611e-26
4.48821e-26
5.31949e-26
4.32089e-26
4.99624e-26
4.10108e-26
4.41487e-26
3.22305e-26
3.2231e-26
2.00774e-26
1.39817e-26
3.78747e-27
2.2528e-27
2.61189e-26
2.55477e-25
5.80327e-24
1.13736e-22
4.40681e-23
6.15347e-22
1.84959e-23
2.67105e-23
1.10757e-25
1.42678e-26
1.26515e-27
2.55239e-27
2.64907e-27
4.40263e-27
2.87629e-27
4.52817e-27
3.95996e-27
6.17699e-27
4.8376e-27
7.67284e-27
6.42758e-27
9.72944e-27
6.273e-27
1.07382e-26
8.29908e-27
1.32614e-26
9.50806e-27
1.52082e-26
1.17473e-26
1.78577e-26
1.42546e-26
2.07993e-26
1.61486e-26
2.37677e-26
1.92415e-26
2.72092e-26
2.29013e-26
3.15385e-26
2.59659e-26
3.52858e-26
3.04613e-26
4.0322e-26
3.47682e-26
4.48471e-26
3.7392e-26
4.88496e-26
4.14604e-26
5.20154e-26
4.5458e-26
5.45979e-26
4.37178e-26
5.12121e-26
4.14003e-26
4.52408e-26
3.25422e-26
3.31311e-26
2.04595e-26
1.47341e-26
4.369e-27
3.42825e-27
3.481e-26
3.09199e-25
6.53838e-24
1.19584e-22
4.66232e-23
6.75931e-22
1.82219e-23
3.02743e-23
1.3922e-25
1.66646e-26
1.45237e-27
2.64202e-27
2.65609e-27
4.56988e-27
2.90756e-27
4.68443e-27
4.03559e-27
6.36188e-27
4.95966e-27
7.88974e-27
6.59337e-27
9.95617e-27
6.42738e-27
1.10283e-26
8.49159e-27
1.36256e-26
9.71382e-27
1.56569e-26
1.19752e-26
1.83912e-26
1.45177e-26
2.14111e-26
1.64462e-26
2.44823e-26
1.95595e-26
2.80261e-26
2.32843e-26
3.24771e-26
2.64193e-26
3.63195e-26
3.09665e-26
4.14554e-26
3.53177e-26
4.60575e-26
3.79845e-26
5.01768e-26
4.20119e-26
5.34039e-26
4.60258e-26
5.59796e-26
4.421e-26
5.24548e-26
4.17575e-26
4.63023e-26
3.28471e-26
3.40482e-26
2.08703e-26
1.55969e-26
5.10023e-27
5.00773e-27
4.54376e-26
3.69593e-25
7.24082e-24
1.23507e-22
4.98248e-23
7.31051e-22
1.79959e-23
3.3799e-23
1.73441e-25
1.91275e-26
1.65023e-27
2.73547e-27
2.67082e-27
4.7498e-27
2.94151e-27
4.8511e-27
4.1139e-27
6.56675e-27
5.07844e-27
8.1218e-27
6.76025e-27
1.02005e-26
6.58654e-27
1.13309e-26
8.69451e-27
1.40018e-26
9.93236e-27
1.61117e-26
1.22213e-26
1.89378e-26
1.4798e-26
2.20283e-26
1.67686e-26
2.52085e-26
1.98983e-26
2.88536e-26
2.36913e-26
3.3434e-26
2.68887e-26
3.73616e-26
3.14889e-26
4.26093e-26
3.58778e-26
4.72673e-26
3.85958e-26
5.15045e-26
4.25664e-26
5.4784e-26
4.65945e-26
5.73534e-26
4.46843e-26
5.36594e-26
4.21072e-26
4.73681e-26
3.31334e-26
3.49873e-26
2.13289e-26
1.65836e-26
6.01044e-27
7.08936e-27
5.82613e-26
4.37472e-25
7.88396e-24
1.25583e-22
5.40177e-23
7.8042e-22
1.79495e-23
3.71706e-23
2.1415e-25
2.1622e-26
1.85926e-27
2.82523e-27
2.69714e-27
4.93423e-27
2.97877e-27
5.02975e-27
4.19351e-27
6.78093e-27
5.19833e-27
8.37256e-27
6.92598e-27
1.04563e-26
6.74702e-27
1.16476e-26
8.90397e-27
1.43862e-26
1.01618e-26
1.65774e-26
1.24819e-26
1.94893e-26
1.50963e-26
2.26557e-26
1.71049e-26
2.59382e-26
2.02584e-26
2.96909e-26
2.41163e-26
3.43938e-26
2.73723e-26
3.84146e-26
3.20251e-26
4.37603e-26
3.64494e-26
4.84769e-26
3.92049e-26
5.28112e-26
4.31284e-26
5.61467e-26
4.71565e-26
5.86845e-26
4.51335e-26
5.48428e-26
4.24334e-26
4.83914e-26
3.34222e-26
3.59577e-26
2.18485e-26
1.77085e-26
7.12822e-27
9.76314e-27
7.37278e-26
5.13458e-25
8.456e-24
1.25754e-22
5.89921e-23
8.22028e-22
1.80582e-23
4.03189e-23
2.62218e-25
2.41544e-26
2.06667e-27
2.91906e-27
2.73202e-27
5.12638e-27
3.02111e-27
5.21576e-27
4.27813e-27
7.01212e-27
5.31781e-27
8.63733e-27
7.09378e-27
1.07286e-26
6.91066e-27
1.198e-26
9.12011e-27
1.47867e-26
1.03999e-26
1.70533e-26
1.27558e-26
2.00576e-26
1.54081e-26
2.32883e-26
1.74608e-26
2.66787e-26
2.06355e-26
3.05367e-26
2.45607e-26
3.53654e-26
2.78686e-26
3.94682e-26
3.25752e-26
4.4923e-26
3.70262e-26
4.96742e-26
3.9824e-26
5.41069e-26
4.36878e-26
5.74899e-26
4.77123e-26
5.99878e-26
4.55618e-26
5.59741e-26
4.27503e-26
4.94099e-26
3.37035e-26
3.69556e-26
2.24384e-26
1.8986e-26
8.48917e-27
1.31677e-26
9.21982e-26
5.99443e-25
8.93259e-24
1.24124e-22
6.51672e-23
8.56646e-22
1.84033e-23
4.31334e-23
3.18433e-25
2.67181e-26
2.26631e-27
3.01164e-27
2.77144e-27
5.32923e-27
3.06549e-27
5.41477e-27
4.36378e-27
7.25357e-27
5.43996e-27
8.91789e-27
7.25922e-27
1.10169e-26
7.07667e-27
1.23293e-26
9.33971e-27
1.52012e-26
1.06462e-26
1.75446e-26
1.30387e-26
2.06322e-26
1.57335e-26
2.39359e-26
1.78278e-26
2.74252e-26
2.10281e-26
3.13886e-26
2.50189e-26
3.63392e-26
2.83789e-26
4.05275e-26
3.31306e-26
4.60716e-26
3.76103e-26
5.08675e-26
4.0439e-26
5.53767e-26
4.42433e-26
5.87972e-26
4.82525e-26
6.1246e-26
4.59712e-26
5.70728e-26
4.30403e-26
5.03854e-26
3.39963e-26
3.79786e-26
2.30962e-26
2.04432e-26
1.01317e-26
1.74319e-26
1.1439e-25
6.95966e-25
9.303e-24
1.20721e-22
7.24364e-23
8.82185e-22
1.89724e-23
4.55601e-23
3.83555e-25
2.92598e-26
2.44836e-27
3.10679e-27
2.81697e-27
5.54177e-27
3.1143e-27
5.62008e-27
4.45541e-27
7.50956e-27
5.56296e-27
9.20868e-27
7.42716e-27
1.13212e-26
7.2455e-27
1.26937e-26
9.56445e-27
1.56334e-26
1.08976e-26
1.80485e-26
1.33309e-26
2.12243e-26
1.60659e-26
2.45897e-26
1.82097e-26
2.81828e-26
2.14317e-26
3.2245e-26
2.54902e-26
3.73204e-26
2.88954e-26
4.15827e-26
3.36929e-26
4.72218e-26
3.81893e-26
5.20388e-26
4.10549e-26
5.66285e-26
4.47849e-26
6.00688e-26
4.87724e-26
6.24663e-26
4.63483e-26
5.81121e-26
4.33153e-26
5.13525e-26
3.4279e-26
3.90328e-26
2.38275e-26
2.20949e-26
1.20937e-26
2.27437e-26
1.40791e-25
8.06018e-25
9.55334e-24
1.15822e-22
8.1179e-23
8.9981e-22
1.99264e-23
4.75074e-23
4.5868e-25
3.17399e-26
2.61154e-27
3.19868e-27
2.87167e-27
5.75866e-27
3.1665e-27
5.83701e-27
4.55114e-27
7.77229e-27
5.68987e-27
9.51713e-27
7.59795e-27
1.16356e-26
7.41616e-27
1.30753e-26
9.79361e-27
1.60787e-26
1.11547e-26
1.85699e-26
1.36307e-26
2.18269e-26
1.64089e-26
2.52592e-26
1.85977e-26
2.89447e-26
2.18477e-26
3.31118e-26
2.5972e-26
3.82989e-26
2.94177e-26
4.26399e-26
3.42609e-26
4.83558e-26
3.87713e-26
5.31982e-26
4.16583e-26
5.78411e-26
4.53203e-26
6.13086e-26
4.92763e-26
6.36225e-26
4.66929e-26
5.91139e-26
4.35709e-26
5.22657e-26
3.45749e-26
4.01297e-26
2.46556e-26
2.39556e-26
1.44286e-26
2.92637e-26
1.72407e-25
9.30856e-25
9.68566e-24
1.09669e-22
9.09855e-23
9.08063e-22
2.1188e-23
4.89206e-23
5.44442e-25
3.4161e-26
2.73917e-27
3.29212e-27
2.93516e-27
5.9801e-27
3.22482e-27
6.05884e-27
4.65385e-27
8.04775e-27
5.81962e-27
9.83476e-27
7.77347e-27
1.19625e-26
7.59058e-27
1.34711e-26
1.0028e-26
1.65411e-26
1.14162e-26
1.91041e-26
1.39377e-26
2.24491e-26
1.67563e-26
2.59346e-26
1.89958e-26
2.9718e-26
2.22709e-26
3.39835e-26
2.64613e-26
3.92817e-26
2.99411e-26
4.36883e-26
3.48308e-26
4.94873e-26
3.9343e-26
5.43274e-26
4.22545e-26
5.90262e-26
4.58366e-26
6.25062e-26
4.97529e-26
6.47263e-26
4.7001e-26
6.00477e-26
4.38079e-26
5.31645e-26
3.4866e-26
4.12638e-26
2.55773e-26
2.60447e-26
1.71794e-26
3.72438e-26
2.09861e-25
1.075e-24
9.69314e-24
1.02466e-22
1.0238e-22
9.09521e-22
2.28071e-23
4.97443e-23
6.41775e-25
3.65795e-26
2.82266e-27
3.38634e-27
3.00022e-27
6.21593e-27
3.28454e-27
6.2957e-27
4.75811e-27
8.3338e-27
5.9539e-27
1.01666e-26
7.94891e-27
1.23054e-26
7.76965e-27
1.38834e-26
1.02659e-26
1.70194e-26
1.1684e-26
1.96561e-26
1.4249e-26
2.30805e-26
1.71124e-26
2.66289e-26
1.93983e-26
3.04986e-26
2.2701e-26
3.48615e-26
2.69559e-26
4.02642e-26
3.04697e-26
4.47352e-26
3.53951e-26
5.05951e-26
3.99131e-26
5.54429e-26
4.28357e-26
6.01709e-26
4.63349e-26
6.36527e-26
5.02014e-26
6.57712e-26
4.72831e-26
6.09335e-26
4.40156e-26
5.40151e-26
3.51751e-26
4.24287e-26
2.65932e-26
2.83981e-26
2.04085e-26
4.69052e-26
2.54609e-25
1.2385e-24
9.58216e-24
9.44253e-23
1.15239e-22
9.02518e-22
2.47337e-23
4.99588e-23
7.50974e-25
3.88842e-26
2.85624e-27
3.4792e-27
3.07285e-27
6.45848e-27
3.34983e-27
6.53639e-27
4.86919e-27
8.62998e-27
6.09121e-27
1.05032e-26
8.12844e-27
1.26601e-26
7.95234e-27
1.43065e-26
1.0509e-26
1.75127e-26
1.1955e-26
2.02193e-26
1.45656e-26
2.37278e-26
1.74685e-26
2.73272e-26
1.98068e-26
3.1289e-26
2.31328e-26
3.57387e-26
2.74509e-26
4.12465e-26
3.09915e-26
4.57692e-26
3.59517e-26
5.16905e-26
4.04597e-26
5.65185e-26
4.33973e-26
6.12807e-26
4.67996e-26
6.47387e-26
5.06034e-26
6.67561e-26
4.75122e-26
6.17462e-26
4.4191e-26
5.48478e-26
3.54676e-26
4.36319e-26
2.7693e-26
3.10337e-26
2.41493e-26
5.85533e-26
3.07359e-25
1.42736e-24
9.35646e-24
8.58536e-23
1.29909e-22
8.89475e-22
2.71939e-23
4.95522e-23
8.74116e-25
4.10179e-26
2.84486e-27
3.56812e-27
3.15502e-27
6.7049e-27
3.41911e-27
6.79008e-27
4.98561e-27
8.93261e-27
6.23334e-27
1.08578e-26
8.3141e-27
1.30223e-26
8.13864e-27
1.47462e-26
1.07584e-26
1.80173e-26
1.22315e-26
2.07995e-26
1.4888e-26
2.43851e-26
1.78322e-26
2.80424e-26
2.02169e-26
3.20823e-26
2.35695e-26
3.66259e-26
2.79489e-26
4.22213e-26
3.15095e-26
4.67992e-26
3.6503e-26
5.27594e-26
4.09989e-26
5.75731e-26
4.3935e-26
6.23353e-26
4.72421e-26
6.57792e-26
5.09785e-26
6.76577e-26
4.76985e-26
6.25085e-26
4.43438e-26
5.56156e-26
3.57731e-26
4.48841e-26
2.89148e-26
3.39565e-26
2.84844e-26
7.24231e-26
3.69813e-25
1.64318e-24
9.03008e-24
7.7105e-23
1.4566e-22
8.69406e-22
3.00066e-23
4.85085e-23
1.01049e-24
4.29811e-26
2.77737e-27
3.65509e-27
3.24917e-27
6.95077e-27
3.49682e-27
7.04593e-27
5.11038e-27
9.24408e-27
6.38005e-27
1.12176e-26
8.50623e-27
1.33924e-26
8.32962e-27
1.51963e-26
1.10138e-26
1.85351e-26
1.25118e-26
2.13889e-26
1.52155e-26
2.50582e-26
1.81959e-26
2.8759e-26
2.06307e-26
3.28835e-26
2.40059e-26
3.75115e-26
2.84435e-26
4.31914e-26
3.20164e-26
4.7811e-26
3.70421e-26
5.38123e-26
4.15097e-26
5.85803e-26
4.44452e-26
6.33448e-26
4.76462e-26
6.67546e-26
5.13018e-26
6.84837e-26
4.78284e-26
6.31893e-26
4.44605e-26
5.6358e-26
3.60638e-26
4.61777e-26
3.02379e-26
3.71898e-26
3.34447e-26
8.88881e-26
4.42683e-25
1.89276e-24
8.61343e-24
6.83311e-23
1.63114e-22
8.46237e-22
3.31653e-23
4.68743e-23
1.16069e-24
4.4904e-26
2.65105e-27
3.74721e-27
3.34296e-27
7.21543e-27
3.57608e-27
7.3198e-27
5.23676e-27
9.56827e-27
6.53193e-27
1.15916e-26
8.69855e-27
1.37802e-26
8.52709e-27
1.56615e-26
1.12739e-26
1.90676e-26
1.27991e-26
2.19937e-26
1.55466e-26
2.57384e-26
1.85673e-26
2.94929e-26
2.10459e-26
3.36889e-26
2.4444e-26
3.83998e-26
2.89361e-26
4.41565e-26
3.25204e-26
4.88125e-26
3.75637e-26
5.48323e-26
4.20085e-26
5.95624e-26
4.4928e-26
6.42984e-26
4.80177e-26
6.76616e-26
5.15826e-26
6.92366e-26
4.79231e-26
6.38053e-26
4.45409e-26
5.70452e-26
3.63704e-26
4.74982e-26
3.16658e-26
4.07735e-26
3.91147e-26
1.08241e-25
5.28114e-25
2.17345e-24
8.12686e-24
5.97462e-23
1.822e-22
8.18568e-22
3.65419e-23
4.46743e-23
1.32359e-24
4.65946e-26
2.47138e-27
3.83742e-27
3.44618e-27
7.48359e-27
3.6629e-27
7.59428e-27
5.37098e-27
9.89783e-27
6.68848e-27
1.19653e-26
8.89599e-27
1.4177e-26
8.72857e-27
1.61328e-26
1.15395e-26
1.96108e-26
1.30892e-26
2.26048e-26
1.58817e-26
2.64285e-26
1.89352e-26
3.02243e-26
2.1461e-26
3.4498e-26
2.48767e-26
3.92774e-26
2.94183e-26
4.51102e-26
3.30051e-26
4.9789e-26
3.80629e-26
5.58239e-26
4.24655e-26
6.04873e-26
4.53678e-26
6.51991e-26
4.83335e-26
6.84831e-26
5.17892e-26
6.99093e-26
4.79424e-26
6.4335e-26
4.45666e-26
5.77028e-26
3.6643e-26
4.88542e-26
3.31686e-26
4.47186e-26
4.54938e-26
1.30837e-25
6.2656e-25
2.49284e-24
7.5818e-24
5.15506e-23
2.03126e-22
7.89339e-22
4.04431e-23
4.20026e-23
1.50264e-24
4.79551e-26
2.25462e-27
3.92574e-27
3.56017e-27
7.75445e-27
3.75488e-27
7.88324e-27
5.51202e-27
1.02345e-26
6.8503e-27
1.2359e-26
9.10203e-27
1.45784e-26
8.93433e-27
1.66215e-26
1.18131e-26
2.01623e-26
1.3385e-26
2.32302e-26
1.6222e-26
2.71243e-26
1.93104e-26
3.09686e-26
2.18761e-26
3.53037e-26
2.53092e-26
4.01595e-26
2.98981e-26
4.60465e-26
3.34779e-26
5.07513e-26
3.85454e-26
5.6775e-26
4.29044e-26
6.13756e-26
4.5772e-26
6.60245e-26
4.86106e-26
6.92415e-26
5.19581e-26
7.04755e-26
4.79084e-26
6.4798e-26
4.4563e-26
5.8279e-26
3.69202e-26
5.02516e-26
3.47989e-26
4.9004e-26
5.26801e-26
1.56897e-25
7.39757e-25
2.85084e-24
6.99388e-24
4.40404e-23
2.24778e-22
7.57818e-22
4.45166e-23
3.88819e-23
1.69389e-24
4.89795e-26
2.00061e-27
4.01291e-27
3.68983e-27
8.0188e-27
3.85827e-27
8.17087e-27
5.66325e-27
1.05754e-26
7.01842e-27
1.27541e-26
9.31619e-27
1.49841e-26
9.14522e-27
1.71169e-26
1.20931e-26
2.07224e-26
1.36843e-26
2.38597e-26
1.65663e-26
2.78299e-26
1.96827e-26
3.17066e-26
2.22897e-26
3.61092e-26
2.57353e-26
4.1029e-26
3.03647e-26
4.69644e-26
3.39284e-26
5.16812e-26
3.90017e-26
5.76924e-26
4.32977e-26
6.21977e-26
4.61268e-26
6.67847e-26
4.88283e-26
6.99111e-26
5.20508e-26
7.09423e-26
4.77987e-26
6.51649e-26
4.4503e-26
5.8813e-26
3.71631e-26
5.16791e-26
3.65144e-26
5.36446e-26
6.06536e-26
1.86769e-25
8.67675e-25
3.2532e-24
6.3813e-24
3.72382e-23
2.47875e-22
7.27619e-22
4.86724e-23
3.54587e-23
1.89677e-24
4.98631e-26
1.71687e-27
4.1137e-27
3.81739e-27
8.30717e-27
3.96332e-27
8.48032e-27
5.81574e-27
1.09325e-26
7.1916e-27
1.31642e-26
9.52842e-27
1.54105e-26
9.36326e-27
1.76268e-26
1.2377e-26
2.12964e-26
1.39905e-26
2.45014e-26
1.69131e-26
2.85384e-26
2.00617e-26
3.24563e-26
2.27027e-26
3.69113e-26
2.61593e-26
4.18916e-26
3.08224e-26
4.7867e-26
3.43683e-26
5.25863e-26
3.94291e-26
5.85631e-26
4.36672e-26
6.29758e-26
4.64425e-26
6.74679e-26
4.90012e-26
7.04882e-26
5.2086e-26
7.13183e-26
4.76449e-26
6.5445e-26
4.43979e-26
5.92777e-26
3.74113e-26
5.31075e-26
3.83151e-26
5.8678e-26
6.94907e-26
2.20658e-25
1.01209e-24
3.6902e-24
5.77032e-24
3.12332e-23
2.72515e-22
6.97572e-22
5.27059e-23
3.17838e-23
2.10736e-24
5.03622e-26
1.41881e-27
4.21961e-27
3.95544e-27
8.59724e-27
4.07808e-27
8.78706e-27
5.97723e-27
1.12898e-26
7.37131e-27
1.35687e-26
9.7472e-27
1.58451e-26
9.5857e-27
1.81383e-26
1.26663e-26
2.1878e-26
1.42981e-26
2.51441e-26
1.7262e-26
2.92504e-26
2.0434e-26
3.31974e-26
2.31092e-26
3.77088e-26
2.65708e-26
4.27309e-26
3.12593e-26
4.87444e-26
3.47776e-26
5.34496e-26
3.982e-26
5.93856e-26
4.39786e-26
6.36812e-26
4.66913e-26
6.80799e-26
4.90955e-26
7.09566e-26
5.20215e-26
7.15983e-26
4.7396e-26
6.56256e-26
4.4214e-26
5.96959e-26
3.75995e-26
5.45472e-26
4.01517e-26
6.40859e-26
7.91114e-26
2.58667e-25
1.17206e-24
4.16695e-24
5.16788e-24
2.60793e-23
2.98626e-22
6.7113e-22
5.69892e-23
2.80217e-23
2.33122e-24
5.031e-26
1.12938e-27
4.32999e-27
4.10579e-27
8.88848e-27
4.19879e-27
9.11056e-27
6.14657e-27
1.16564e-26
7.55586e-27
1.3997e-26
9.97578e-27
1.62798e-26
9.81126e-27
1.86696e-26
1.29641e-26
2.24635e-26
1.46104e-26
2.57988e-26
1.76141e-26
2.99629e-26
2.08122e-26
3.39428e-26
2.3513e-26
3.84929e-26
2.69763e-26
4.3565e-26
3.16874e-26
4.95889e-26
3.51656e-26
5.42841e-26
4.01818e-26
6.01493e-26
4.42613e-26
6.43233e-26
4.68937e-26
6.85901e-26
4.91369e-26
7.13393e-26
5.19101e-26
7.1741e-26
4.70846e-26
6.57164e-26
4.39927e-26
6.00051e-26
3.7775e-26
5.59971e-26
4.20833e-26
6.97997e-26
8.9566e-26
3.00797e-25
1.34749e-24
4.67835e-24
4.5834e-24
2.19314e-23
3.24775e-22
6.47783e-22
6.10204e-23
2.42079e-23
2.55934e-24
4.97427e-26
8.55644e-28
4.44782e-27
4.276e-27
9.16776e-27
4.33426e-27
9.42931e-27
6.32824e-27
1.20224e-26
7.74849e-27
1.44232e-26
1.02148e-26
1.67161e-26
1.00421e-26
1.9205e-26
1.32677e-26
2.30545e-26
1.4924e-26
2.64528e-26
1.79675e-26
3.06795e-26
2.11836e-26
3.46759e-26
2.39083e-26
3.92681e-26
2.73674e-26
4.43742e-26
3.20919e-26
5.03998e-26
3.55196e-26
5.50684e-26
4.05035e-26
6.08586e-26
4.44831e-26
6.48824e-26
4.70249e-26
6.90153e-26
4.90984e-26
7.16115e-26
5.17025e-26
7.17648e-26
4.6681e-26
6.56968e-26
4.3694e-26
6.02485e-26
3.78883e-26
5.74404e-26
4.40483e-26
7.58048e-26
1.00735e-25
3.46974e-25
1.53624e-24
5.22274e-24
4.0339e-24
1.8705e-23
3.51713e-22
6.30546e-22
6.45959e-23
2.05212e-23
2.78869e-24
4.88957e-26
6.08057e-28
4.59292e-27
4.44337e-27
9.4756e-27
4.4715e-27
9.77469e-27
6.50983e-27
1.24093e-26
7.94444e-27
1.48657e-26
1.04464e-26
1.71775e-26
1.02789e-26
1.97545e-26
1.35716e-26
2.36589e-26
1.52426e-26
2.71157e-26
1.83199e-26
3.13943e-26
2.15571e-26
3.54124e-26
2.42985e-26
4.00296e-26
2.77508e-26
4.51629e-26
3.24777e-26
5.11808e-26
3.58531e-26
5.58096e-26
4.07833e-26
6.15033e-26
4.46661e-26
6.53718e-26
4.71059e-26
6.93378e-26
4.90051e-26
7.17605e-26
5.1423e-26
7.16751e-26
4.62257e-26
6.55628e-26
4.33402e-26
6.03975e-26
3.79865e-26
5.8826e-26
4.60308e-26
8.2126e-26
1.12611e-25
3.97012e-25
1.73742e-24
5.77448e-24
3.54346e-24
1.63659e-23
3.80026e-22
6.18824e-22
6.75222e-23
1.70024e-23
3.01221e-24
4.75636e-26
3.99548e-28
4.76237e-27
4.62121e-27
9.78714e-27
4.62034e-27
1.01162e-26
6.70112e-27
1.27933e-26
8.1481e-27
1.52989e-26
1.06848e-26
1.76489e-26
1.05204e-26
2.03027e-26
1.38792e-26
2.42701e-26
1.55593e-26
2.77759e-26
1.86705e-26
3.21081e-26
2.19187e-26
3.61375e-26
2.4673e-26
4.07792e-26
2.81122e-26
4.59163e-26
3.28309e-26
5.19239e-26
3.61443e-26
5.64905e-26
4.10127e-26
6.20791e-26
4.47772e-26
6.57769e-26
4.70984e-26
6.95721e-26
4.88144e-26
7.17818e-26
5.10255e-26
7.14786e-26
4.56633e-26
6.53148e-26
4.28881e-26
6.04762e-26
3.79955e-26
6.01674e-26
4.79706e-26
8.86855e-26
1.25008e-25
4.50252e-25
1.94759e-24
6.33295e-24
3.10724e-24
1.49126e-23
4.09229e-22
6.1382e-22
7.02778e-23
1.3794e-23
3.23768e-24
4.55038e-26
2.42765e-28
4.94874e-27
4.81361e-27
1.0096e-26
4.77616e-27
1.04769e-26
6.90067e-27
1.31898e-26
8.35452e-27
1.57624e-26
1.09311e-26
1.81141e-26
1.07618e-26
2.08737e-26
1.4193e-26
2.4879e-26
1.58771e-26
2.84456e-26
1.90186e-26
3.28174e-26
2.22802e-26
3.68543e-26
2.50385e-26
4.1503e-26
2.8458e-26
4.66531e-26
3.31636e-26
5.26134e-26
3.64011e-26
5.7125e-26
4.11971e-26
6.25758e-26
4.48459e-26
6.60817e-26
4.7034e-26
6.96743e-26
4.85575e-26
7.16934e-26
5.05708e-26
7.11073e-26
4.50325e-26
6.49496e-26
4.2388e-26
6.04089e-26
3.79627e-26
6.14634e-26
4.99103e-26
9.53563e-26
1.378e-25
5.0632e-25
2.16267e-24
6.88974e-24
2.73058e-24
1.44432e-23
4.37244e-22
6.1631e-22
7.23244e-23
1.09064e-23
3.45127e-24
4.28882e-26
1.35883e-28
5.16403e-27
5.02949e-27
1.03908e-26
4.94946e-27
1.08324e-26
7.11391e-27
1.3584e-26
8.56971e-27
1.6223e-26
1.11875e-26
1.85816e-26
1.1007e-26
2.14498e-26
1.45093e-26
2.54937e-26
1.61915e-26
2.91119e-26
1.93626e-26
3.3527e-26
2.26275e-26
3.75566e-26
2.53846e-26
4.22102e-26
2.87795e-26
4.73526e-26
3.34603e-26
5.32562e-26
3.6611e-26
5.76896e-26
4.13283e-26
6.29947e-26
4.48403e-26
6.62902e-26
4.68802e-26
6.96712e-26
4.82082e-26
7.1474e-26
5.00073e-26
7.0605e-26
4.43023e-26
6.44576e-26