/*--------------------------------*- C++ -*----------------------------------*\
| =========                 |                                                 |
| \\      /  F ield         | OpenFOAM: The Open Source CFD Toolbox           |
|  \\    /   O peration     | Version:  2312                                  |
|   \\  /    A nd           | Website:  www.openfoam.com                      |
|    \\/     M anipulation  |                                                 |
\*---------------------------------------------------------------------------*/
FoamFile
{
    version     2.0;
    format      ascii;
    arch        "LSB;label=32;scalar=64";
    class       volScalarField;
    location    "600";
    object      p;
}
// * * * * * * * * * * * * * * * * * * * * * * * * * * * * * * * * * * * * * //

dimensions      [0 2 -2 0 0 0 0];

internalField   nonuniform List<scalar> 
330000
(
-3.56053e-09
-5.09416e-10
-2.09208e-09
-1.50225e-09
-1.08282e-09
-8.54249e-10
-4.34543e-10
-4.30265e-10
-6.09058e-11
-1.51947e-10
9.61814e-11
-8.09929e-11
1.721e-10
-3.43055e-11
2.21896e-10
1.26301e-12
3.02813e-10
7.44652e-11
3.54016e-10
9.05346e-11
3.92222e-10
1.05936e-10
4.01812e-10
8.87414e-11
4.12179e-10
9.27957e-11
4.43483e-10
1.04647e-10
4.54479e-10
8.69484e-11
4.60834e-10
8.42234e-11
4.90242e-10
9.26501e-11
4.94015e-10
6.77221e-11
5.03322e-10
7.65044e-11
5.40706e-10
9.73189e-11
5.59654e-10
9.20897e-11
5.77703e-10
1.18127e-10
6.40293e-10
1.79117e-10
6.64937e-10
1.93716e-10
6.76264e-10
2.33602e-10
6.66269e-10
2.81086e-10
6.59596e-10
3.97318e-10
4.97568e-10
4.69115e-10
1.30274e-10
5.11719e-10
-9.28755e-10
2.68468e-09
-3.53341e-09
-5.11636e-10
-2.09797e-09
-1.50465e-09
-1.08403e-09
-8.54203e-10
-4.35091e-10
-4.30217e-10
-6.13416e-11
-1.5191e-10
9.58118e-11
-8.09054e-11
1.71731e-10
-3.41977e-11
2.21551e-10
1.40651e-12
3.02476e-10
7.4645e-11
3.53641e-10
9.07342e-11
3.91844e-10
1.0616e-10
4.01442e-10
8.90261e-11
4.11791e-10
9.30972e-11
4.43059e-10
1.04962e-10
4.54061e-10
8.73379e-11
4.60381e-10
8.46235e-11
4.89755e-10
9.30704e-11
4.93523e-10
6.82177e-11
5.02799e-10
7.70216e-11
5.40123e-10
9.78457e-11
5.59065e-10
9.27162e-11
5.77054e-10
1.18753e-10
6.39587e-10
1.79771e-10
6.64202e-10
1.94469e-10
6.75487e-10
2.34422e-10
6.65486e-10
2.81954e-10
6.58921e-10
3.98351e-10
4.97116e-10
4.7056e-10
1.30672e-10
5.10349e-10
-9.3718e-10
2.67855e-09
-3.50468e-09
-5.15083e-10
-2.10634e-09
-1.50791e-09
-1.08532e-09
-8.54021e-10
-4.35373e-10
-4.30269e-10
-6.15961e-11
-1.52089e-10
9.56616e-11
-8.1027e-11
1.71581e-10
-3.43333e-11
2.21463e-10
1.28663e-12
3.0238e-10
7.45432e-11
3.5352e-10
9.06306e-11
3.91725e-10
1.06058e-10
4.0138e-10
8.90015e-11
4.11727e-10
9.30548e-11
4.42951e-10
1.04903e-10
4.54004e-10
8.73778e-11
4.60311e-10
8.46363e-11
4.8964e-10
9.30687e-11
4.93455e-10
6.83147e-11
5.02711e-10
7.7101e-11
5.39957e-10
9.79029e-11
5.5894e-10
9.29149e-11
5.76878e-10
1.18907e-10
6.39311e-10
1.79936e-10
6.63922e-10
1.94794e-10
6.75135e-10
2.34856e-10
6.65122e-10
2.82513e-10
6.58594e-10
3.99284e-10
4.96966e-10
4.72398e-10
1.3142e-10
5.0928e-10
-9.53758e-10
2.68143e-09
-3.4744e-09
-5.22968e-10
-2.11603e-09
-1.51255e-09
-1.08655e-09
-8.53464e-10
-4.35383e-10
-4.30131e-10
-6.17484e-11
-1.52242e-10
9.56354e-11
-8.11367e-11
1.71518e-10
-3.44934e-11
2.2148e-10
1.13212e-12
3.02347e-10
7.43838e-11
3.53469e-10
9.04568e-11
3.91658e-10
1.05866e-10
4.0141e-10
8.89189e-11
4.11757e-10
9.29305e-11
4.42911e-10
1.04738e-10
4.54053e-10
8.73501e-11
4.60352e-10
8.45544e-11
4.89609e-10
9.2945e-11
4.93515e-10
6.83282e-11
5.02749e-10
7.70658e-11
5.39886e-10
9.78119e-11
5.58953e-10
9.3017e-11
5.76846e-10
1.18921e-10
6.39131e-10
1.79925e-10
6.63784e-10
1.94988e-10
6.74924e-10
2.3515e-10
6.64962e-10
2.82923e-10
6.58527e-10
4.00095e-10
4.97334e-10
4.74258e-10
1.33488e-10
5.06779e-10
-9.756e-10
2.69257e-09
-3.44326e-09
-5.3412e-10
-2.1263e-09
-1.51865e-09
-1.08776e-09
-8.52538e-10
-4.35192e-10
-4.29799e-10
-6.18703e-11
-1.52329e-10
9.56554e-11
-8.11806e-11
1.7147e-10
-3.46093e-11
2.21522e-10
1.01738e-12
3.02297e-10
7.42467e-11
3.53401e-10
9.02979e-11
3.91555e-10
1.05678e-10
4.01432e-10
8.88743e-11
4.11779e-10
9.28291e-11
4.42831e-10
1.04575e-10
4.5409e-10
8.73686e-11
4.60381e-10
8.44983e-11
4.89539e-10
9.28289e-11
4.93568e-10
6.83905e-11
5.02775e-10
7.70572e-11
5.39766e-10
9.77168e-11
5.58952e-10
9.317e-11
5.76801e-10
1.18944e-10
6.38893e-10
1.79895e-10
6.63628e-10
1.95196e-10
6.74707e-10
2.35444e-10
6.64863e-10
2.83301e-10
6.58614e-10
4.00838e-10
4.98201e-10
4.7604e-10
1.3709e-10
5.02401e-10
-1.00032e-09
2.70899e-09
-3.41343e-09
-5.46585e-10
-2.13643e-09
-1.52615e-09
-1.08896e-09
-8.51298e-10
-4.34835e-10
-4.29317e-10
-6.19852e-11
-1.52371e-10
9.56987e-11
-8.11749e-11
1.71422e-10
-3.46881e-11
2.21575e-10
9.36035e-13
3.02221e-10
7.41309e-11
3.5331e-10
9.01525e-11
3.91408e-10
1.05496e-10
4.01438e-10
8.88673e-11
4.11784e-10
9.27531e-11
4.42705e-10
1.04417e-10
4.54106e-10
8.74353e-11
4.60392e-10
8.44717e-11
4.89423e-10
9.27283e-11
4.93603e-10
6.85059e-11
5.02779e-10
7.70831e-11
5.39589e-10
9.76281e-11
5.58923e-10
9.33813e-11
5.76732e-10
1.18989e-10
6.38587e-10
1.79861e-10
6.63435e-10
1.95433e-10
6.74464e-10
2.35759e-10
6.64802e-10
2.83667e-10
6.58824e-10
4.01529e-10
4.99538e-10
4.777e-10
1.42324e-10
4.9603e-10
-1.0262e-09
2.72887e-09
-3.38775e-09
-5.58739e-10
-2.14556e-09
-1.5349e-09
-1.09011e-09
-8.49783e-10
-4.34325e-10
-4.28725e-10
-6.21036e-11
-1.52393e-10
9.57546e-11
-8.11407e-11
1.71374e-10
-3.47444e-11
2.21638e-10
8.72544e-13
3.02123e-10
7.40263e-11
3.532e-10
9.00086e-11
3.91226e-10
1.0531e-10
4.0143e-10
8.88859e-11
4.11781e-10
9.26919e-11
4.42543e-10
1.04257e-10
4.54107e-10
8.75377e-11
4.60392e-10
8.44626e-11
4.89272e-10
9.26348e-11
4.93626e-10
6.86613e-11
5.02772e-10
7.71325e-11
5.39366e-10
9.75376e-11
5.58873e-10
9.36383e-11
5.76647e-10
1.19044e-10
6.38225e-10
1.79821e-10
6.63209e-10
1.9569e-10
6.74201e-10
2.36092e-10
6.64774e-10
2.84019e-10
6.5914e-10
4.02166e-10
5.01328e-10
4.79159e-10
1.49318e-10
4.87463e-10
-1.05148e-09
2.75102e-09
-3.36903e-09
-5.69412e-10
-2.15271e-09
-1.54469e-09
-1.09116e-09
-8.48016e-10
-4.33668e-10
-4.28057e-10
-6.22378e-11
-1.5241e-10
9.58104e-11
-8.10922e-11
1.71319e-10
-3.47881e-11
2.21703e-10
8.18429e-13
3.02e-10
7.39287e-11
3.53071e-10
8.98616e-11
3.91008e-10
1.0512e-10
4.01409e-10
8.89251e-11
4.11769e-10
9.26424e-11
4.42347e-10
1.04093e-10
4.54093e-10
8.76715e-11
4.60381e-10
8.44685e-11
4.89089e-10
9.25491e-11
4.93637e-10
6.88533e-11
5.02752e-10
7.72045e-11
5.39101e-10
9.74484e-11
5.588e-10
9.39389e-11
5.76545e-10
1.19111e-10
6.37804e-10
1.79782e-10
6.62944e-10
1.95972e-10
6.7391e-10
2.3645e-10
6.64766e-10
2.84366e-10
6.59545e-10
4.02744e-10
5.0357e-10
4.80316e-10
1.58244e-10
4.76429e-10
-1.07441e-09
2.77462e-09
-3.35985e-09
-5.7781e-10
-2.15696e-09
-1.5553e-09
-1.09204e-09
-8.46002e-10
-4.32867e-10
-4.27336e-10
-6.23992e-11
-1.52435e-10
9.58533e-11
-8.10407e-11
1.71248e-10
-3.48253e-11
2.21762e-10
7.67948e-13
3.01846e-10
7.38361e-11
3.52919e-10
8.97094e-11
3.90752e-10
1.04925e-10
4.01369e-10
8.89835e-11
4.11743e-10
9.26049e-11
4.42114e-10
1.03929e-10
4.54057e-10
8.78359e-11
4.60356e-10
8.44905e-11
4.88872e-10
9.24756e-11
4.93629e-10
6.90828e-11
5.02715e-10
7.73028e-11
5.3879e-10
9.73677e-11
5.58697e-10
9.42862e-11
5.76417e-10
1.19198e-10
6.37319e-10
1.79755e-10
6.6263e-10
1.96288e-10
6.73579e-10
2.36843e-10
6.6476e-10
2.84716e-10
6.6002e-10
4.03256e-10
5.06268e-10
4.81049e-10
1.69295e-10
4.62533e-10
-1.09342e-09
2.79914e-09
-3.36253e-09
-5.8344e-10
-2.15742e-09
-1.56647e-09
-1.09265e-09
-8.43736e-10
-4.3192e-10
-4.2658e-10
-6.25964e-11
-1.52479e-10
9.5872e-11
-8.09956e-11
1.71153e-10
-3.48622e-11
2.21806e-10
7.1663e-13
3.01654e-10
7.37461e-11
3.52741e-10
8.95506e-11
3.90456e-10
1.04727e-10
4.01306e-10
8.90596e-11
4.11698e-10
9.258e-11
4.41843e-10
1.03768e-10
4.53996e-10
8.80309e-11
4.60311e-10
8.45307e-11
4.88616e-10
9.24191e-11
4.93597e-10
6.93519e-11
5.02653e-10
7.74322e-11
5.3843e-10
9.73038e-11
5.58556e-10
9.46845e-11
5.76256e-10
1.19312e-10
6.3676e-10
1.79755e-10
6.62253e-10
1.96646e-10
6.73193e-10
2.37284e-10
6.64737e-10
2.85079e-10
6.60548e-10
4.03686e-10
5.0944e-10
4.81221e-10
1.82682e-10
4.4545e-10
-1.1072e-09
2.82431e-09
-3.37901e-09
-5.86093e-10
-2.1533e-09
-1.57794e-09
-1.09294e-09
-8.41201e-10
-4.30818e-10
-4.258e-10
-6.28345e-11
-1.5255e-10
9.58574e-11
-8.09651e-11
1.71028e-10
-3.49034e-11
2.21827e-10
6.60273e-13
3.01419e-10
7.36562e-11
3.52533e-10
8.93837e-11
3.90116e-10
1.04525e-10
4.01214e-10
8.91522e-11
4.11632e-10
9.25683e-11
4.41532e-10
1.03611e-10
4.53905e-10
8.82561e-11
4.60242e-10
8.45908e-11
4.88319e-10
9.23841e-11
4.93535e-10
6.96625e-11
5.02561e-10
7.75969e-11
5.38014e-10
9.72643e-11
5.58366e-10
9.5138e-11
5.76051e-10
1.19461e-10
6.3612e-10
1.79792e-10
6.618e-10
1.97058e-10
6.72739e-10
2.37782e-10
6.64681e-10
2.8546e-10
6.61118e-10
4.04012e-10
5.13115e-10
4.80687e-10
1.98613e-10
4.24846e-10
-1.11472e-09
2.85016e-09
-3.41089e-09
-5.85779e-10
-2.14393e-09
-1.58945e-09
-1.09282e-09
-8.38377e-10
-4.29554e-10
-4.25002e-10
-6.31165e-11
-1.52654e-10
9.58023e-11
-8.0955e-11
1.70866e-10
-3.49531e-11
2.2182e-10
5.96039e-13
3.01137e-10
7.35643e-11
3.52291e-10
8.92077e-11
3.8973e-10
1.04322e-10
4.0109e-10
8.92603e-11
4.11538e-10
9.25704e-11
4.41177e-10
1.03463e-10
4.53776e-10
8.85117e-11
4.60144e-10
8.46733e-11
4.87975e-10
9.2375e-11
4.93435e-10
7.00169e-11
5.02432e-10
7.78019e-11
5.3754e-10
9.72573e-11
5.58121e-10
9.56511e-11
5.75793e-10
1.19655e-10
6.35388e-10
1.79878e-10
6.61259e-10
1.97531e-10
6.72203e-10
2.38345e-10
6.64578e-10
2.8586e-10
6.61726e-10
4.04205e-10
5.1733e-10
4.79295e-10
2.17285e-10
4.00439e-10
-1.11522e-09
2.87685e-09
-3.45938e-09
-5.82694e-10
-2.12872e-09
-1.60076e-09
-1.09224e-09
-8.35239e-10
-4.28115e-10
-4.24187e-10
-6.34422e-11
-1.52795e-10
9.57013e-11
-8.09694e-11
1.70664e-10
-3.50137e-11
2.21778e-10
5.21877e-13
3.00802e-10
7.34682e-11
3.52011e-10
8.90222e-11
3.89294e-10
1.04117e-10
4.00928e-10
8.93832e-11
4.11413e-10
9.25874e-11
4.40776e-10
1.03325e-10
4.53607e-10
8.8798e-11
4.60012e-10
8.47806e-11
4.87583e-10
9.23964e-11
4.93291e-10
7.0418e-11
5.0226e-10
7.80523e-11
5.37001e-10
9.72903e-11
5.5781e-10
9.62289e-11
5.75472e-10
1.19901e-10
6.34556e-10
1.80024e-10
6.60618e-10
1.98073e-10
6.71573e-10
2.3898e-10
6.64416e-10
2.86279e-10
6.62372e-10
4.04229e-10
5.22126e-10
4.769e-10
2.38869e-10
3.72003e-10
-1.1082e-09
2.90468e-09
-3.52534e-09
-5.77166e-10
-2.10719e-09
-1.61164e-09
-1.09116e-09
-8.31766e-10
-4.26493e-10
-4.23354e-10
-6.38103e-11
-1.52972e-10
9.55508e-11
-8.10108e-11
1.70417e-10
-3.50868e-11
2.21696e-10
4.36874e-13
3.00412e-10
7.33668e-11
3.5169e-10
8.8827e-11
3.88807e-10
1.03912e-10
4.00724e-10
8.95206e-11
4.11253e-10
9.26208e-11
4.40327e-10
1.03201e-10
4.53391e-10
8.91157e-11
4.5984e-10
8.49159e-11
4.87136e-10
9.24526e-11
4.93097e-10
7.08689e-11
5.02037e-10
7.83533e-11
5.36392e-10
9.73711e-11
5.57426e-10
9.68761e-11
5.75078e-10
1.20209e-10
6.33614e-10
1.80239e-10
6.59865e-10
1.98692e-10
6.70839e-10
2.39691e-10
6.64185e-10
2.86709e-10
6.63061e-10
4.04045e-10
5.2755e-10
4.73361e-10
2.63503e-10
3.39396e-10
-1.09338e-09
2.93403e-09
-3.60928e-09
-5.69644e-10
-2.07895e-09
-1.62187e-09
-1.08954e-09
-8.27938e-10
-4.24679e-10
-4.225e-10
-6.42187e-11
-1.53185e-10
9.53481e-11
-8.10803e-11
1.70123e-10
-3.51726e-11
2.21569e-10
3.40574e-13
2.99962e-10
7.32589e-11
3.51323e-10
8.86226e-11
3.88264e-10
1.03707e-10
4.00474e-10
8.96726e-11
4.11052e-10
9.26721e-11
4.39827e-10
1.03093e-10
4.53123e-10
8.94658e-11
4.59623e-10
8.50819e-11
4.8663e-10
9.25483e-11
4.92846e-10
7.13726e-11
5.01756e-10
7.87101e-11
5.35708e-10
9.7507e-11
5.56958e-10
9.75976e-11
5.74603e-10
1.20586e-10
6.32554e-10
1.80532e-10
6.5899e-10
1.99392e-10
6.69991e-10
2.4048e-10
6.6388e-10
2.87144e-10
6.63801e-10
4.03613e-10
5.33642e-10
4.68559e-10
2.91287e-10
3.02539e-10
-1.07071e-09
2.9653e-09
-3.71138e-09
-5.60657e-10
-2.04369e-09
-1.63123e-09
-1.08737e-09
-8.2374e-10
-4.22671e-10
-4.2162e-10
-6.46659e-11
-1.53435e-10
9.50911e-11
-8.1178e-11
1.69779e-10
-3.5271e-11
2.21395e-10
2.33432e-13
2.9945e-10
7.31443e-11
3.50909e-10
8.84098e-11
3.87665e-10
1.03505e-10
4.00174e-10
8.98395e-11
4.10806e-10
9.27431e-11
4.39272e-10
1.03004e-10
4.52798e-10
8.98494e-11
4.59356e-10
8.52821e-11
4.86061e-10
9.26879e-11
4.92531e-10
7.19327e-11
5.01411e-10
7.9128e-11
5.34943e-10
9.77053e-11
5.564e-10
9.83981e-11
5.74036e-10
1.2104e-10
6.31367e-10
1.8091e-10
6.57985e-10
2.00178e-10
6.69024e-10
2.41347e-10
6.63498e-10
2.87572e-10
6.64603e-10
4.02894e-10
5.40441e-10
4.62389e-10
3.22278e-10
2.61441e-10
-1.04031e-09
2.99889e-09
-3.83153e-09
-5.50814e-10
-2.0012e-09
-1.63954e-09
-1.08464e-09
-8.19162e-10
-4.20466e-10
-4.20713e-10
-6.51498e-11
-1.53719e-10
9.47784e-11
-8.13033e-11
1.69384e-10
-3.53811e-11
2.21169e-10
1.16401e-13
2.98874e-10
7.30228e-11
3.50443e-10
8.81898e-11
3.87006e-10
1.03307e-10
3.99819e-10
9.0022e-11
4.10512e-10
9.28357e-11
4.38659e-10
1.02938e-10
4.52413e-10
9.0268e-11
4.59034e-10
8.55198e-11
4.85424e-10
9.28756e-11
4.92148e-10
7.25524e-11
5.00994e-10
7.9612e-11
5.34092e-10
9.79724e-11
5.55744e-10
9.92819e-11
5.73369e-10
1.21577e-10
6.30048e-10
1.8138e-10
6.56841e-10
2.01051e-10
6.6793e-10
2.4229e-10
6.63035e-10
2.87982e-10
6.65477e-10
4.0185e-10
5.47975e-10
4.54769e-10
3.56485e-10
2.16175e-10
-1.00245e-09
3.03523e-09
-3.96939e-09
-5.40762e-10
-1.95133e-09
-1.6466e-09
-1.08137e-09
-8.14198e-10
-4.18065e-10
-4.19774e-10
-6.56694e-11
-1.54035e-10
9.44087e-11
-8.1455e-11
1.68936e-10
-3.55015e-11
2.2089e-10
-9.02948e-15
2.98232e-10
7.28948e-11
3.49923e-10
8.79642e-11
3.86285e-10
1.03114e-10
3.99407e-10
9.0221e-11
4.10165e-10
9.29519e-11
4.37986e-10
1.02898e-10
4.51961e-10
9.07231e-11
4.58651e-10
8.57983e-11
4.84715e-10
9.31155e-11
4.91689e-10
7.32352e-11
5.00501e-10
8.0167e-11
5.33149e-10
9.83148e-11
5.54983e-10
1.00253e-10
5.72594e-10
1.22204e-10
6.28589e-10
1.81947e-10
6.55553e-10
2.02015e-10
6.66705e-10
2.43307e-10
6.62491e-10
2.88364e-10
6.66433e-10
4.00452e-10
5.56266e-10
4.45641e-10
3.93872e-10
1.66895e-10
-9.57524e-10
3.07465e-09
-4.12426e-09
-5.31179e-10
-1.89406e-09
-1.65222e-09
-1.07755e-09
-8.08848e-10
-4.15472e-10
-4.18801e-10
-6.62243e-11
-1.54383e-10
9.39806e-11
-8.16318e-11
1.68434e-10
-3.56306e-11
2.20554e-10
-1.41381e-13
2.97521e-10
7.27608e-11
3.49347e-10
8.77345e-11
3.855e-10
1.02929e-10
3.98935e-10
9.04375e-11
4.09761e-10
9.30939e-11
4.3725e-10
1.02886e-10
4.5144e-10
9.12164e-11
4.58202e-10
8.6121e-11
4.8393e-10
9.34117e-11
4.91149e-10
7.39841e-11
4.99924e-10
8.07973e-11
5.3211e-10
9.8738e-11
5.54109e-10
1.01315e-10
5.71705e-10
1.22926e-10
6.26986e-10
1.82614e-10
6.54116e-10
2.03069e-10
6.65347e-10
2.44395e-10
6.61866e-10
2.88705e-10
6.67478e-10
3.98672e-10
5.65323e-10
4.3497e-10
4.34362e-10
1.1382e-10
-9.06073e-10
3.11749e-09
-4.29529e-09
-5.22751e-10
-1.82941e-09
-1.65624e-09
-1.07322e-09
-8.03118e-10
-4.12694e-10
-4.17792e-10
-6.6815e-11
-1.54761e-10
9.34928e-11
-8.18325e-11
1.67876e-10
-3.5767e-11
2.20161e-10
-2.78935e-13
2.96742e-10
7.26215e-11
3.48712e-10
8.75027e-11
3.84649e-10
1.02753e-10
3.98398e-10
9.06726e-11
4.09298e-10
9.32639e-11
4.36448e-10
1.02906e-10
4.50844e-10
9.17494e-11
4.57684e-10
8.64911e-11
4.83064e-10
9.37677e-11
4.90524e-10
7.48022e-11
4.99258e-10
8.15072e-11
5.30971e-10
9.92472e-11
5.53119e-10
1.0247e-10
5.70694e-10
1.23747e-10
6.25234e-10
1.83384e-10
6.52525e-10
2.04214e-10
6.63853e-10
2.4555e-10
6.61161e-10
2.88997e-10
6.68618e-10
3.9649e-10
5.75146e-10
4.22747e-10
4.77829e-10
5.72461e-11
-8.48706e-10
3.16395e-09
-4.48138e-09
-5.16192e-10
-1.75751e-09
-1.65848e-09
-1.06838e-09
-7.97013e-10
-4.09737e-10
-4.16746e-10
-6.74418e-11
-1.55168e-10
9.29438e-11
-8.20554e-11
1.6726e-10
-3.59088e-11
2.19707e-10
-4.19817e-13
2.95891e-10
7.24777e-11
3.48016e-10
8.72707e-11
3.83731e-10
1.02589e-10
3.97795e-10
9.09277e-11
4.0877e-10
9.34639e-11
4.35578e-10
1.0296e-10
4.50172e-10
9.2324e-11
4.57092e-10
8.69118e-11
4.82113e-10
9.41869e-11
4.89809e-10
7.56924e-11
4.98498e-10
8.23004e-11
5.29726e-10
9.98471e-11
5.52006e-10
1.03722e-10
5.69557e-10
1.24672e-10
6.23329e-10
1.84261e-10
6.50777e-10
2.0545e-10
6.6222e-10
2.46767e-10
6.60375e-10
2.89231e-10
6.69857e-10
3.93892e-10
5.85723e-10
4.08986e-10
5.24103e-10
-2.48832e-12
-7.86109e-10
3.21422e-09
-4.68127e-09
-5.12191e-10
-1.67857e-09
-1.65879e-09
-1.06306e-09
-7.90548e-10
-4.06609e-10
-4.1566e-10
-6.8105e-11
-1.55604e-10
9.23325e-11
-8.22991e-11
1.66587e-10
-3.60547e-11
2.19192e-10
-5.62075e-13
2.9497e-10
7.23302e-11
3.47257e-10
8.70405e-11
3.82743e-10
1.02437e-10
3.97123e-10
9.1204e-11
4.08177e-10
9.3696e-11
4.34638e-10
1.03052e-10
4.49419e-10
9.29417e-11
4.56421e-10
8.73861e-11
4.81075e-10
9.46724e-11
4.89e-10
7.66572e-11
4.9764e-10
8.31801e-11
5.28374e-10
1.00542e-10
5.50767e-10
1.05073e-10
5.68288e-10
1.25703e-10
6.21268e-10
1.85246e-10
6.4887e-10
2.06775e-10
6.60448e-10
2.48044e-10
6.59507e-10
2.89401e-10
6.71194e-10
3.90871e-10
5.97028e-10
3.93726e-10
5.72971e-10
-6.4975e-11
-7.19008e-10
3.26839e-09
-4.89348e-09
-5.11405e-10
-1.59288e-09
-1.65702e-09
-1.0573e-09
-7.83739e-10
-4.03321e-10
-4.14532e-10
-6.88056e-11
-1.56066e-10
9.16574e-11
-8.25622e-11
1.65854e-10
-3.62028e-11
2.18614e-10
-7.04078e-13
2.93975e-10
7.21799e-11
3.46434e-10
8.68142e-11
3.81686e-10
1.02301e-10
3.9638e-10
9.15029e-11
4.07513e-10
9.39621e-11
4.33626e-10
1.03183e-10
4.48583e-10
9.36043e-11
4.55669e-10
8.79167e-11
4.79947e-10
9.52273e-11
4.88092e-10
7.76992e-11
4.96679e-10
8.41495e-11
5.2691e-10
1.01335e-10
5.49398e-10
1.06525e-10
5.66883e-10
1.26845e-10
6.19049e-10
1.8634e-10
6.46802e-10
2.08189e-10
6.58536e-10
2.49377e-10
6.58558e-10
2.89502e-10
6.72627e-10
3.87427e-10
6.09027e-10
3.77032e-10
6.24182e-10
-1.29753e-10
-6.4821e-10
3.32644e-09
-5.1164e-09
-5.14443e-10
-1.50079e-09
-1.65304e-09
-1.05112e-09
-7.76609e-10
-3.99883e-10
-4.13362e-10
-6.95444e-11
-1.56555e-10
9.09173e-11
-8.28432e-11
1.6506e-10
-3.63518e-11
2.17972e-10
-8.44264e-13
2.92908e-10
7.20276e-11
3.45544e-10
8.65934e-11
3.80557e-10
1.02182e-10
3.95564e-10
9.18256e-11
4.06778e-10
9.42641e-11
4.32539e-10
1.03357e-10
4.47661e-10
9.43132e-11
4.54832e-10
8.85064e-11
4.78725e-10
9.58539e-11
4.87084e-10
7.88202e-11
4.95612e-10
8.52111e-11
5.25333e-10
1.0223e-10
5.47895e-10
1.08079e-10
5.65338e-10
1.28098e-10
6.1667e-10
1.87543e-10
6.44572e-10
2.09691e-10
6.56481e-10
2.50762e-10
6.57525e-10
2.8953e-10
6.74148e-10
3.83567e-10
6.2167e-10
3.58989e-10
6.77446e-10
-1.96307e-10
-5.74532e-10
3.38823e-09
-5.34828e-09
-5.21912e-10
-1.40275e-09
-1.64673e-09
-1.04454e-09
-7.69181e-10
-3.96305e-10
-4.12147e-10
-7.03214e-11
-1.57069e-10
9.01115e-11
-8.31405e-11
1.64205e-10
-3.65001e-11
2.17264e-10
-9.80931e-13
2.91767e-10
7.1874e-11
3.44587e-10
8.63802e-11
3.79355e-10
1.02081e-10
3.94674e-10
9.21734e-11
4.05969e-10
9.46035e-11
4.31376e-10
1.03576e-10
4.46651e-10
9.50698e-11
4.53907e-10
8.91574e-11
4.77408e-10
9.65546e-11
4.85972e-10
8.00224e-11
4.94436e-10
8.6367e-11
5.23639e-10
1.03229e-10
5.46257e-10
1.09736e-10
5.63649e-10
1.29466e-10
6.14129e-10
1.88856e-10
6.42179e-10
2.1128e-10
6.54284e-10
2.52198e-10
6.56407e-10
2.89485e-10
6.75748e-10
3.79303e-10
6.34898e-10
3.39709e-10
7.32437e-10
-2.641e-10
-4.98797e-10
3.45358e-09
-5.5873e-09
-5.34361e-10
-1.29924e-09
-1.63795e-09
-1.03759e-09
-7.61482e-10
-3.92599e-10
-4.10885e-10
-7.1136e-11
-1.57606e-10
8.92396e-11
-8.34522e-11
1.63287e-10
-3.66464e-11
2.1649e-10
-1.11238e-12
2.90551e-10
7.17198e-11
3.43561e-10
8.61763e-11
3.78079e-10
1.01999e-10
3.93707e-10
9.25474e-11
4.05083e-10
9.49819e-11
4.30136e-10
1.03841e-10
4.45552e-10
9.58755e-11
4.52891e-10
8.98721e-11
4.75993e-10
9.73313e-11
4.84754e-10
8.13075e-11
4.93147e-10
8.76191e-11
5.21826e-10
1.04334e-10
5.4448e-10
1.11497e-10
5.61815e-10
1.3095e-10
6.11426e-10
1.90279e-10
6.39621e-10
2.12954e-10
6.51943e-10
2.53681e-10
6.55201e-10
2.89369e-10
6.77414e-10
3.74658e-10
6.48639e-10
3.19322e-10
7.8879e-10
-3.32554e-10
-4.21809e-10
3.52219e-09
-5.83148e-09
-5.52258e-10
-1.19086e-09
-1.62663e-09
-1.0303e-09
-7.53546e-10
-3.88776e-10
-4.09573e-10
-7.1988e-11
-1.58165e-10
8.83011e-11
-8.37767e-11
1.62307e-10
-3.67889e-11
2.15649e-10
-1.23727e-12
2.89261e-10
7.15656e-11
3.42465e-10
8.59834e-11
3.76729e-10
1.01939e-10
3.92663e-10
9.29488e-11
4.0412e-10
9.54006e-11
4.28817e-10
1.04155e-10
4.44362e-10
9.67315e-11
4.51783e-10
9.06522e-11
4.74478e-10
9.81859e-11
4.83427e-10
8.26769e-11
4.91743e-10
8.89691e-11
5.19894e-10
1.05549e-10
5.42564e-10
1.13364e-10
5.59832e-10
1.3255e-10
6.08559e-10
1.91812e-10
6.36899e-10
2.14714e-10
6.49457e-10
2.55211e-10
6.53902e-10
2.89184e-10
6.79129e-10
3.69659e-10
6.62811e-10
2.9798e-10
8.46118e-10
-4.01056e-10
-3.44408e-10
3.59365e-09
-6.07882e-09
-5.75993e-10
-1.07823e-09
-1.61265e-09
-1.02268e-09
-7.45408e-10
-3.8485e-10
-4.08209e-10
-7.2877e-11
-1.58744e-10
8.72963e-11
-8.41121e-11
1.61264e-10
-3.69264e-11
2.14742e-10
-1.35439e-12
2.87896e-10
7.14123e-11
3.41297e-10
8.58029e-11
3.75304e-10
1.01902e-10
3.9154e-10
9.33785e-11
4.03076e-10
9.58609e-11
4.27419e-10
1.04519e-10
4.43079e-10
9.76389e-11
4.5058e-10
9.14997e-11
4.72862e-10
9.91199e-11
4.81991e-10
8.4132e-11
4.90223e-10
9.0418e-11
5.1784e-10
1.06874e-10
5.40507e-10
1.15336e-10
5.57699e-10
1.34268e-10
6.05529e-10
1.93454e-10
6.34013e-10
2.16556e-10
6.46826e-10
2.56785e-10
6.52507e-10
2.88934e-10
6.80871e-10
3.64339e-10
6.77319e-10
2.75854e-10
9.0401e-10
-4.68963e-10
-2.67401e-10
3.66742e-09
-6.32724e-09
-6.05952e-10
-9.62024e-10
-1.59595e-09
-1.01476e-09
-7.37103e-10
-3.80831e-10
-4.0679e-10
-7.3801e-11
-1.59341e-10
8.62257e-11
-8.44563e-11
1.60159e-10
-3.70571e-11
2.13767e-10
-1.4622e-12
2.86457e-10
7.12602e-11
3.40058e-10
8.56364e-11
3.73803e-10
1.01888e-10
3.90337e-10
9.38375e-11
4.01951e-10
9.63636e-11
4.2594e-10
1.04936e-10
4.41702e-10
9.85986e-11
4.49281e-10
9.24159e-11
4.71144e-10
1.00135e-10
4.80443e-10
8.56737e-11
4.88584e-10
9.19668e-11
5.15664e-10
1.08311e-10
5.38308e-10
1.17414e-10
5.55415e-10
1.36103e-10
6.02334e-10
1.95204e-10
6.30963e-10
2.18481e-10
6.44048e-10
2.58403e-10
6.51011e-10
2.88628e-10
6.82617e-10
3.58739e-10
6.92062e-10
2.5313e-10
9.62027e-10
-5.35642e-10
-1.91551e-10
3.74295e-09
-6.57469e-09
-6.42445e-10
-8.42965e-10
-1.57644e-09
-1.00654e-09
-7.28668e-10
-3.7673e-10
-4.05311e-10
-7.47572e-11
-1.59952e-10
8.50906e-11
-8.48068e-11
1.58991e-10
-3.71795e-11
2.12726e-10
-1.55915e-12
2.84943e-10
7.11099e-11
3.38747e-10
8.54854e-11
3.72226e-10
1.01899e-10
3.89055e-10
9.43268e-11
4.00744e-10
9.69097e-11
4.24379e-10
1.05405e-10
4.40232e-10
9.96116e-11
4.47884e-10
9.34022e-11
4.69322e-10
1.01231e-10
4.78783e-10
8.73031e-11
4.86826e-10
9.3616e-11
5.13365e-10
1.09861e-10
5.35967e-10
1.19598e-10
5.52978e-10
1.38057e-10
5.98977e-10
1.97061e-10
6.27749e-10
2.20488e-10
6.41123e-10
2.60065e-10
6.49407e-10
2.88274e-10
6.84342e-10
3.52904e-10
7.06928e-10
2.30009e-10
1.01971e-09
-6.00448e-10
-1.1757e-10
3.8196e-09
-6.81902e-09
-6.85686e-10
-7.21831e-10
-1.55408e-09
-9.98027e-10
-7.20145e-10
-3.7256e-10
-4.03768e-10
-7.57437e-11
-1.60575e-10
8.3892e-11
-8.51616e-11
1.57762e-10
-3.72919e-11
2.11619e-10
-1.64407e-12
2.83355e-10
7.0962e-11
3.37362e-10
8.53513e-11
3.70573e-10
1.01936e-10
3.87691e-10
9.48471e-11
3.99454e-10
9.74999e-11
4.22736e-10
1.0593e-10
4.38666e-10
1.00679e-10
4.46388e-10
9.44597e-11
4.67397e-10
1.0241e-10
4.7701e-10
8.90209e-11
4.84947e-10
9.53661e-11
5.10942e-10
1.11525e-10
5.33483e-10
1.21888e-10
5.50388e-10
1.40129e-10
5.95457e-10
1.99023e-10
6.24371e-10
2.22574e-10
6.38049e-10
2.61771e-10
6.47688e-10
2.87883e-10
6.86013e-10
3.46886e-10
7.21796e-10
2.06705e-10
1.0766e-09
-6.62719e-10
-4.61703e-11
3.89661e-09
-7.05813e-09
-7.35795e-10
-5.99417e-10
-1.52883e-09
-9.89234e-10
-7.11576e-10
-3.68333e-10
-4.02159e-10
-7.67576e-11
-1.61207e-10
8.26318e-11
-8.55182e-11
1.56473e-10
-3.73926e-11
2.10447e-10
-1.71586e-12
2.81694e-10
7.08171e-11
3.35905e-10
8.52351e-11
3.68843e-10
1.02e-10
3.86247e-10
9.53992e-11
3.9808e-10
9.81346e-11
4.21011e-10
1.0651e-10
4.37005e-10
1.018e-10
4.44792e-10
9.55893e-11
4.65367e-10
1.03671e-10
4.75123e-10
9.08275e-11
4.82947e-10
9.72169e-11
5.08396e-10
1.13303e-10
5.30856e-10
1.24283e-10
5.47645e-10
1.42318e-10
5.91775e-10
2.0109e-10
6.20832e-10
2.2474e-10
6.34825e-10
2.63521e-10
6.45847e-10
2.87466e-10
6.87599e-10
3.40739e-10
7.36541e-10
1.83441e-10
1.13222e-09
-7.21794e-10
2.19857e-11
3.97313e-09
-7.28994e-09
-7.92901e-10
-4.7655e-10
-1.50064e-09
-9.8015e-10
-7.03001e-10
-3.64058e-10
-4.00477e-10
-7.77949e-11
-1.61844e-10
8.13122e-11
-8.58741e-11
1.55124e-10
-3.74798e-11
2.0921e-10
-1.77295e-12
2.79959e-10
7.06756e-11
3.34374e-10
8.51384e-11
3.67036e-10
1.02091e-10
3.84721e-10
9.59838e-11
3.96621e-10
9.88145e-11
4.19203e-10
1.07146e-10
4.35248e-10
1.02977e-10
4.43095e-10
9.67917e-11
4.63232e-10
1.05017e-10
4.73123e-10
9.27233e-11
4.80825e-10
9.91684e-11
5.05726e-10
1.15195e-10
5.28088e-10
1.26782e-10
5.4475e-10
1.44623e-10
5.87932e-10
2.03259e-10
6.17131e-10
2.26984e-10
6.3145e-10
2.65316e-10
6.43876e-10
2.87037e-10
6.89064e-10
3.34523e-10
7.51031e-10
1.60447e-10
1.18609e-09
-7.77044e-10
8.63087e-11
4.04836e-09
-7.51248e-09
-8.57073e-10
-3.54064e-10
-1.46949e-09
-9.7076e-10
-6.94458e-10
-3.59745e-10
-3.98717e-10
-7.88503e-11
-1.62483e-10
7.99363e-11
-8.62261e-11
1.53718e-10
-3.75518e-11
2.07911e-10
-1.81367e-12
2.78152e-10
7.05378e-11
3.3277e-10
8.50623e-11
3.65152e-10
1.0221e-10
3.83114e-10
9.66016e-11
3.95078e-10
9.95398e-11
4.17312e-10
1.0784e-10
4.33396e-10
1.04209e-10
4.41298e-10
9.80676e-11
4.60993e-10
1.06445e-10
4.71009e-10
9.47084e-11
4.78582e-10
1.0122e-10
5.02932e-10
1.17201e-10
5.25178e-10
1.29386e-10
5.41702e-10
1.47044e-10
5.83931e-10
2.05529e-10
6.13269e-10
2.29306e-10
6.27922e-10
2.67159e-10
6.41765e-10
2.86611e-10
6.90371e-10
3.283e-10
7.6513e-10
1.37956e-10
1.23772e-09
-8.2786e-10
1.4628e-10
4.12141e-09
-7.72376e-09
-9.2828e-10
-2.32818e-10
-1.43536e-09
-9.6105e-10
-6.8599e-10
-3.55404e-10
-3.96872e-10
-7.99193e-11
-1.63118e-10
7.85067e-11
-8.65717e-11
1.52257e-10
-3.76066e-11
2.06551e-10
-1.83688e-12
2.76274e-10
7.04043e-11
3.31092e-10
8.50079e-11
3.63193e-10
1.02358e-10
3.81425e-10
9.72531e-11
3.93449e-10
1.00311e-10
4.15338e-10
1.08591e-10
4.31448e-10
1.05498e-10
4.394e-10
9.94174e-11
4.58649e-10
1.07958e-10
4.68781e-10
9.6783e-11
4.76218e-10
1.03371e-10
5.00016e-10
1.19321e-10
5.22128e-10
1.32093e-10
5.38503e-10
1.49579e-10
5.79771e-10
2.07897e-10
6.09248e-10
2.31704e-10
6.24239e-10
2.6905e-10
6.39505e-10
2.86206e-10
6.91481e-10
3.22136e-10
7.78701e-10
1.16206e-10
1.28665e-09
-8.73629e-10
2.01391e-10
4.19135e-09
-7.92175e-09
-1.00641e-09
-1.13668e-10
-1.39827e-09
-9.51001e-10
-6.77636e-10
-3.51045e-10
-3.94937e-10
-8.0997e-11
-1.63747e-10
7.7027e-11
-8.69082e-11
1.50742e-10
-3.76424e-11
2.05132e-10
-1.84137e-12
2.74325e-10
7.02755e-11
3.29342e-10
8.49764e-11
3.61157e-10
1.02535e-10
3.79656e-10
9.79389e-11
3.91736e-10
1.01127e-10
4.13281e-10
1.09402e-10
4.29406e-10
1.06843e-10
4.37401e-10
1.00841e-10
4.562e-10
1.09554e-10
4.66441e-10
9.89468e-11
4.73732e-10
1.0562e-10
4.96978e-10
1.21554e-10
5.18938e-10
1.34901e-10
5.35155e-10
1.52226e-10
5.75455e-10
2.10361e-10
6.05069e-10
2.34178e-10
6.20401e-10
2.70992e-10
6.37085e-10
2.85837e-10
6.92351e-10
3.16096e-10
7.91604e-10
9.54315e-11
1.33241e-09
-9.13765e-10
2.51184e-10
4.2572e-09
-8.1047e-09
-1.0914e-09
2.53711e-12
-1.3582e-09
-9.40582e-10
-6.69434e-10
-3.46674e-10
-3.92904e-10
-8.20769e-11
-1.64363e-10
7.55011e-11
-8.72323e-11
1.49177e-10
-3.76572e-11
2.03657e-10
-1.82525e-12
2.72306e-10
7.01515e-11
3.2752e-10
8.4969e-11
3.59045e-10
1.02743e-10
3.77805e-10
9.86594e-11
3.89938e-10
1.0199e-10
4.11142e-10
1.10271e-10
4.27268e-10
1.08244e-10
4.35301e-10
1.02339e-10
4.53647e-10
1.11233e-10
4.63987e-10
1.01199e-10
4.71127e-10
1.07967e-10
4.9382e-10
1.23899e-10
5.1561e-10
1.37809e-10
5.31659e-10
1.54984e-10
5.70984e-10
2.12918e-10
6.00733e-10
2.36726e-10
6.16404e-10
2.72987e-10
6.34496e-10
2.85523e-10
6.92941e-10
3.10248e-10
8.03701e-10
7.58634e-11
1.37454e-09
-9.47732e-10
2.95284e-10
4.31805e-09
-8.27092e-09
-1.18311e-09
1.1497e-10
-1.31516e-09
-9.29751e-10
-6.61414e-10
-3.42297e-10
-3.90765e-10
-8.3151e-11
-1.64963e-10
7.39341e-11
-8.75404e-11
1.47563e-10
-3.7649e-11
2.02127e-10
-1.78638e-12
2.70218e-10
7.00324e-11
3.25626e-10
8.49869e-11
3.56858e-10
1.0298e-10
3.75874e-10
9.94152e-11
3.88056e-10
1.02898e-10
4.0892e-10
1.11199e-10
4.25036e-10
1.09701e-10
4.33102e-10
1.03911e-10
4.5099e-10
1.12994e-10
4.61423e-10
1.03541e-10
4.68404e-10
1.10411e-10
4.90541e-10
1.26356e-10
5.12146e-10
1.40816e-10
5.28017e-10
1.5785e-10
5.66361e-10
2.15566e-10
5.96242e-10
2.39349e-10
6.12247e-10
2.75037e-10
6.31725e-10
2.85282e-10
6.93207e-10
3.04657e-10
8.14856e-10
5.77244e-11
1.41262e-09
-9.75034e-10
3.33387e-10
4.37298e-09
-8.41875e-09
-1.28134e-09
2.22812e-10
-1.26918e-09
-9.18471e-10
-6.53612e-10
-3.3792e-10
-3.88511e-10
-8.42123e-11
-1.6554e-10
7.23302e-11
-8.78295e-11
1.45905e-10
-3.76157e-11
2.00546e-10
-1.72328e-12
2.68064e-10
6.99186e-11
3.23661e-10
8.50312e-11
3.54596e-10
1.03249e-10
3.73864e-10
1.00207e-10
3.86091e-10
1.03852e-10
4.06618e-10
1.12186e-10
4.22712e-10
1.11214e-10
4.30804e-10
1.05558e-10
4.48231e-10
1.14838e-10
4.58747e-10
1.0597e-10
4.65562e-10
1.12949e-10
4.87145e-10
1.28922e-10
5.08547e-10
1.43919e-10
5.24232e-10
1.60824e-10
5.61588e-10
2.18302e-10
5.91596e-10
2.42046e-10
6.07929e-10
2.77147e-10
6.28763e-10
2.85133e-10
6.93108e-10
2.9939e-10
8.24937e-10
4.12283e-11
1.44623e-09
-9.95187e-10
3.65199e-10
4.42104e-09
-8.54665e-09
-1.3858e-09
3.25273e-10
-1.2203e-09
-9.06701e-10
-6.46056e-10
-3.33548e-10
-3.86135e-10
-8.52537e-11
-1.66089e-10
7.06948e-11
-8.80964e-11
1.44206e-10
-3.75553e-11
1.98916e-10
-1.63431e-12
2.65843e-10
6.98101e-11
3.21627e-10
8.51028e-11
3.52259e-10
1.03547e-10
3.71775e-10
1.01034e-10
3.84042e-10
1.04852e-10
4.04234e-10
1.13233e-10
4.20294e-10
1.12784e-10
4.28408e-10
1.07278e-10
4.45369e-10
1.16762e-10
4.55963e-10
1.08486e-10
4.62604e-10
1.1558e-10
4.83631e-10
1.31597e-10
5.04815e-10
1.47117e-10
5.20306e-10
1.63903e-10
5.56665e-10
2.21123e-10
5.86798e-10
2.44815e-10
6.03445e-10
2.79317e-10
6.25597e-10
2.85095e-10
6.926e-10
2.94508e-10
8.33815e-10
2.6577e-11
1.47496e-09
-1.00773e-09
3.90464e-10
4.46127e-09
-8.65325e-09
-1.49629e-09