/*--------------------------------*- C++ -*----------------------------------*\
| =========                 |                                                 |
| \\      /  F ield         | OpenFOAM: The Open Source CFD Toolbox           |
|  \\    /   O peration     | Version:  2312                                  |
|   \\  /    A nd           | Website:  www.openfoam.com                      |
|    \\/     M anipulation  |                                                 |
\*---------------------------------------------------------------------------*/
FoamFile
{
    version     2.0;
    format      ascii;
    arch        "LSB;label=32;scalar=64";
    class       volScalarField;
    location    "600";
    object      pMean;
}
// * * * * * * * * * * * * * * * * * * * * * * * * * * * * * * * * * * * * * //

dimensions      [0 2 -2 0 0 0 0];

internalField   nonuniform List<scalar> 
330000
(
-9.47569e-09
-2.32612e-09
-5.74226e-09
-4.42689e-09
-2.97016e-09
-2.17781e-09
-1.11046e-09
-9.04839e-10
-1.17671e-10
-1.84072e-10
3.48655e-10
8.0353e-11
6.01459e-10
2.4407e-10
7.59235e-10
3.41846e-10
9.33168e-10
4.75764e-10
1.04817e-09
5.10673e-10
1.13663e-09
5.37396e-10
1.17721e-09
5.07423e-10
1.21687e-09
5.05707e-10
1.28819e-09
5.13032e-10
1.33138e-09
4.74637e-10
1.37132e-09
4.59099e-10
1.44979e-09
4.6078e-10
1.49589e-09
4.12523e-10
1.55533e-09
4.12139e-10
1.65954e-09
4.2682e-10
1.74191e-09
4.02907e-10
1.82967e-09
4.20814e-10
1.9871e-09
4.89035e-10
2.10441e-09
5.01128e-10
2.22525e-09
5.67086e-10
2.34548e-09
6.80504e-10
2.49829e-09
9.54061e-10
2.46126e-09
1.3567e-09
2.12909e-09
2.13507e-09
-2.86438e-09
1.05803e-08
-9.39434e-09
-2.32079e-09
-5.75448e-09
-4.43306e-09
-2.97278e-09
-2.17836e-09
-1.11197e-09
-9.05527e-10
-1.18958e-10
-1.84704e-10
3.47613e-10
7.99217e-11
6.00518e-10
2.43763e-10
7.58409e-10
3.41678e-10
9.324e-10
4.75718e-10
1.04738e-09
5.10707e-10
1.13585e-09
5.37519e-10
1.17646e-09
5.07684e-10
1.21611e-09
5.06038e-10
1.28736e-09
5.13428e-10
1.33055e-09
4.75194e-10
1.37043e-09
4.59714e-10
1.44881e-09
4.61478e-10
1.49487e-09
4.13394e-10
1.55422e-09
4.13111e-10
1.65828e-09
4.27893e-10
1.74058e-09
4.04228e-10
1.82817e-09
4.22243e-10
1.98541e-09
4.90663e-10
2.10253e-09
5.03094e-10
2.22311e-09
5.69427e-10
2.34305e-09
6.83335e-10
2.49555e-09
9.57879e-10
2.45784e-09
1.36246e-09
2.12698e-09
2.14358e-09
-2.89541e-09
1.0548e-08
-9.31059e-09
-2.32105e-09
-5.77006e-09
-4.44028e-09
-2.97511e-09
-2.17846e-09
-1.113e-09
-9.06443e-10
-1.20003e-10
-1.85867e-10
3.46907e-10
7.89908e-11
5.99933e-10
2.42894e-10
7.58036e-10
3.40913e-10
9.32088e-10
4.75033e-10
1.04709e-09
5.10048e-10
1.13562e-09
5.36893e-10
1.17638e-09
5.07202e-10
1.21605e-09
5.05537e-10
1.28728e-09
5.12918e-10
1.33059e-09
4.74843e-10
1.37046e-09
4.59319e-10
1.44879e-09
4.61068e-10
1.49494e-09
4.13133e-10
1.55427e-09
4.12827e-10
1.65824e-09
4.27607e-10
1.7406e-09
4.04182e-10
1.82811e-09
4.22155e-10
1.98519e-09
4.90671e-10
2.10223e-09
5.03445e-10
2.2226e-09
5.70137e-10
2.34227e-09
6.84597e-10
2.49433e-09
9.60467e-10
2.45558e-09
1.36761e-09
2.12574e-09
2.15537e-09
-2.95123e-09
1.05428e-08
-9.22759e-09
-2.33724e-09
-5.78406e-09
-4.44838e-09
-2.97662e-09
-2.1773e-09
-1.11336e-09
-9.06936e-10
-1.20865e-10
-1.86952e-10
3.46404e-10
7.80852e-11
5.99485e-10
2.4197e-10
7.57839e-10
3.40075e-10
9.31884e-10
4.74232e-10
1.04692e-09
5.09247e-10
1.1355e-09
5.36093e-10
1.17646e-09
5.06587e-10
1.21618e-09
5.04861e-10
1.28735e-09
5.12184e-10
1.33084e-09
4.7432e-10
1.37072e-09
4.58698e-10
1.44898e-09
4.60382e-10
1.49529e-09
4.12647e-10
1.55462e-09
4.12258e-10
1.65846e-09
4.26972e-10
1.74096e-09
4.03846e-10
1.8284e-09
4.21689e-10
1.98528e-09
4.90238e-10
2.10231e-09
5.03394e-10
2.22245e-09
5.70409e-10
2.34191e-09
6.85395e-10
2.49353e-09
9.6262e-10
2.45384e-09
1.37196e-09
2.12718e-09
2.16249e-09
-3.01848e-09
1.05628e-08
-9.15244e-09
-2.366e-09
-5.79227e-09
-4.45654e-09
-2.97707e-09
-2.17473e-09
-1.11316e-09
-9.06997e-10
-1.21709e-10
-1.87958e-10
3.4592e-10
7.72597e-11
5.99e-10
2.41086e-10
7.5763e-10
3.39283e-10
9.31601e-10
4.73456e-10
1.04668e-09
5.08466e-10
1.13526e-09
5.35302e-10
1.17649e-09
5.06041e-10
1.21626e-09
5.04233e-10
1.28732e-09
5.11472e-10
1.33103e-09
4.73892e-10
1.37093e-09
4.58146e-10
1.44905e-09
4.59744e-10
1.49558e-09
4.12278e-10
1.55489e-09
4.11777e-10
1.65854e-09
4.26393e-10
1.74121e-09
4.03658e-10
1.82858e-09
4.21318e-10
1.98516e-09
4.89878e-10
2.1022e-09
5.0349e-10
2.22206e-09
5.70846e-10
2.34131e-09
6.86387e-10
2.4924e-09
9.65025e-10
2.45185e-09
1.37604e-09
2.13125e-09
2.16209e-09
-3.08558e-09
1.05988e-08
-9.0941e-09
-2.40203e-09
-5.79144e-09
-4.46394e-09
-2.97612e-09
-2.17068e-09
-1.11236e-09
-9.0669e-10
-1.22582e-10
-1.8895e-10
3.45384e-10
7.64463e-11
5.98421e-10
2.40193e-10
7.57356e-10
3.38496e-10
9.31199e-10
4.72678e-10
1.04633e-09
5.07678e-10
1.1349e-09
5.34503e-10
1.17643e-09
5.05549e-10
1.21625e-09
5.03648e-10
1.28716e-09
5.10779e-10
1.33113e-09
4.73557e-10
1.37104e-09
4.57665e-10
1.44899e-09
4.59167e-10
1.49576e-09
4.12037e-10
1.55504e-09
4.11405e-10
1.65844e-09
4.25895e-10
1.74131e-09
4.03645e-10
1.82859e-09
4.21085e-10
1.98478e-09
4.89652e-10
2.10181e-09
5.03807e-10
2.22133e-09
5.71564e-10
2.34029e-09
6.87743e-10
2.49067e-09
9.67947e-10
2.4492e-09
1.38007e-09
2.13781e-09
2.15268e-09
-3.14548e-09
1.06454e-08
-9.06087e-09
-2.44089e-09
-5.77871e-09
-4.46992e-09
-2.97348e-09
-2.16501e-09
-1.11085e-09
-9.06025e-10
-1.23462e-10
-1.89951e-10
3.4478e-10
7.55986e-11
5.97733e-10
2.39249e-10
7.56999e-10
3.37666e-10
9.30665e-10
4.71858e-10
1.04586e-09
5.06846e-10
1.13439e-09
5.33667e-10
1.17628e-09
5.05074e-10
1.21616e-09
5.03073e-10
1.28687e-09
5.10078e-10
1.33115e-09
4.73285e-10
1.37107e-09
4.57228e-10
1.44881e-09
4.58629e-10
1.49585e-09
4.11894e-10
1.55509e-09
4.11119e-10
1.65817e-09
4.2546e-10
1.74126e-09
4.03786e-10
1.82844e-09
4.20974e-10
1.98413e-09
4.89564e-10
2.10113e-09
5.04355e-10
2.22021e-09
5.72603e-10
2.33876e-09
6.89546e-10
2.48817e-09
9.7151e-10
2.44568e-09
1.38402e-09
2.14693e-09
2.13303e-09
-3.19272e-09
1.06989e-08
-9.05942e-09
-2.47923e-09
-5.75151e-09
-4.47394e-09
-2.96892e-09
-2.15764e-09
-1.10854e-09
-9.0498e-10
-1.24308e-10
-1.9095e-10
3.44112e-10
7.4704e-11
5.9693e-10
2.38236e-10
7.5654e-10
3.36773e-10
9.29985e-10
4.70983e-10
1.04527e-09
5.05953e-10
1.13375e-09
5.3278e-10
1.17602e-09
5.04602e-10
1.21597e-09
5.02498e-10
1.28646e-09
5.09363e-10
1.33106e-09
4.73064e-10
1.37101e-09
4.56828e-10
1.4485e-09
4.58131e-10
1.49583e-09
4.11846e-10
1.55503e-09
4.10922e-10
1.65772e-09
4.25101e-10
1.74104e-09
4.04089e-10
1.82809e-09
4.21009e-10
1.98318e-09
4.89655e-10
2.10008e-09
5.05184e-10
2.21861e-09
5.7404e-10
2.3366e-09
6.91904e-10
2.48472e-09
9.75819e-10
2.44114e-09
1.38777e-09
2.1588e-09
2.10227e-09
-3.2229e-09
1.07561e-08
-9.09484e-09
-2.51445e-09
-5.70769e-09
-4.47562e-09
-2.96231e-09
-2.14851e-09
-1.10534e-09
-9.03533e-10
-1.25078e-10
-1.91922e-10
3.43396e-10
7.37682e-11
5.96019e-10
2.37156e-10
7.55974e-10
3.3581e-10
9.29148e-10
4.70046e-10
1.04455e-09
5.04993e-10
1.13295e-09
5.31839e-10
1.17565e-09
5.04125e-10
1.21569e-09
5.01922e-10
1.28591e-09
5.08637e-10
1.33086e-09
4.72894e-10
1.37084e-09
4.56471e-10
1.44804e-09
4.57685e-10
1.49568e-09
4.11903e-10
1.55482e-09
4.10833e-10
1.65707e-09
4.24844e-10
1.7406e-09
4.04581e-10
1.8275e-09
4.2123e-10
1.98186e-09
4.89986e-10
2.0986e-09
5.06365e-10
2.21644e-09
5.75972e-10
2.33366e-09
6.94931e-10
2.48016e-09
9.80948e-10
2.43553e-09
1.39109e-09
2.1737e-09
2.05975e-09
-3.23275e-09
1.08142e-08
-9.17089e-09
-2.5448e-09
-5.64553e-09
-4.47457e-09
-2.9536e-09
-2.13761e-09
-1.10122e-09
-9.01682e-10
-1.25739e-10
-1.92846e-10
3.42654e-10
7.28039e-11
5.9501e-10
2.36016e-10
7.55302e-10
3.3478e-10
9.28153e-10
4.69049e-10
1.04369e-09
5.03964e-10
1.13199e-09
5.30845e-10
1.17515e-09
5.03642e-10
1.21528e-09
5.01344e-10
1.2852e-09
5.07906e-10
1.33053e-09
4.72777e-10
1.37055e-09
4.56163e-10
1.44742e-09
4.57305e-10
1.49538e-09
4.12077e-10
1.55445e-09
4.10871e-10
1.65619e-09
4.2472e-10
1.73991e-09
4.05294e-10
1.82662e-09
4.21685e-10
1.98012e-09
4.90621e-10
2.0966e-09
5.07973e-10
2.21359e-09
5.7849e-10
2.32982e-09
6.98726e-10
2.47437e-09
9.86924e-10
2.42888e-09
1.3937e-09
2.19196e-09
2.00508e-09
-3.21997e-09
1.08712e-08
-9.28996e-09
-2.56931e-09
-5.56369e-09
-4.47047e-09
-2.94278e-09
-2.12497e-09
-1.09618e-09
-8.99436e-10
-1.26271e-10
-1.93707e-10
3.41901e-10
7.18249e-11
5.93921e-10
2.34832e-10
7.54532e-10
3.33692e-10
9.27005e-10
4.67999e-10
1.0427e-09
5.02873e-10
1.13087e-09
5.29806e-10
1.17452e-09
5.03155e-10
1.21475e-09
5.00771e-10
1.28434e-09
5.07178e-10
1.33005e-09
4.72718e-10
1.37012e-09
4.55914e-10
1.44662e-09
4.57008e-10
1.4949e-09
4.12384e-10
1.55388e-09
4.11061e-10
1.65504e-09
4.24762e-10
1.73893e-09
4.06261e-10
1.8254e-09
4.22422e-10
1.9779e-09
4.91624e-10
2.09401e-09
5.10079e-10
2.20997e-09
5.81678e-10
2.32499e-09
7.0336e-10
2.46728e-09
9.93722e-10
2.4213e-09
1.39528e-09
2.21393e-09
1.93812e-09
-3.18333e-09
1.09259e-08
-9.45317e-09
-2.58773e-09
-5.46136e-09
-4.46302e-09
-2.9299e-09
-2.11065e-09
-1.09022e-09
-8.96819e-10
-1.26667e-10
-1.94499e-10
3.4115e-10
7.08422e-11
5.92766e-10
2.33618e-10
7.53673e-10
3.32559e-10
9.25711e-10
4.66906e-10
1.04159e-09
5.01729e-10
1.12959e-09
5.2873e-10
1.17374e-09
5.02668e-10
1.21409e-09
5.0021e-10
1.28332e-09
5.06464e-10
1.32942e-09
4.72726e-10
1.36954e-09
4.5574e-10
1.44562e-09
4.56811e-10
1.49423e-09
4.12841e-10
1.55309e-09
4.11428e-10
1.65359e-09
4.25004e-10
1.73761e-09
4.07518e-10
1.82379e-09
4.2349e-10
1.97513e-09
4.93055e-10
2.09076e-09
5.12748e-10
2.20551e-09
5.85602e-10
2.31908e-09
7.08872e-10
2.45887e-09
1.00126e-09
2.41294e-09
1.39547e-09
2.23991e-09
1.85897e-09
-3.12245e-09
1.09775e-08
-9.66031e-09
-2.6004e-09
-5.33817e-09
-4.45197e-09
-2.91505e-09
-2.09472e-09
-1.08339e-09
-8.93866e-10
-1.26932e-10
-1.95227e-10
3.40403e-10
6.98613e-11
5.91554e-10
2.32385e-10
7.52732e-10
3.31394e-10
9.2428e-10
4.6578e-10
1.04035e-09
5.00543e-10
1.12816e-09
5.27629e-10
1.17283e-09
5.02192e-10
1.21329e-09
4.99673e-10
1.28213e-09
5.05779e-10
1.32862e-09
4.72811e-10
1.36879e-09
4.55654e-10
1.44442e-09
4.56735e-10
1.49333e-09
4.1347e-10
1.55204e-09
4.12e-10
1.65182e-09
4.25482e-10
1.73591e-09
4.09099e-10
1.82174e-09
4.24935e-10
1.97177e-09
4.94969e-10
2.08679e-09
5.16032e-10
2.20014e-09
5.90307e-10
2.31205e-09
7.15271e-10
2.44916e-09
1.00944e-09
2.40401e-09
1.39397e-09
2.27011e-09
1.76802e-09
-3.03778e-09
1.1026e-08
-9.91003e-09
-2.60806e-09
-5.19412e-09
-4.4371e-09
-2.89837e-09
-2.07727e-09
-1.07573e-09
-8.9062e-10
-1.27085e-10
-1.95903e-10
3.39654e-10
6.88819e-11
5.90288e-10
2.31143e-10
7.51713e-10
3.30208e-10
9.22719e-10
4.64633e-10
1.039e-09
4.99329e-10
1.12658e-09
5.26519e-10
1.17177e-09
5.01737e-10
1.21235e-09
4.99175e-10
1.28077e-09
5.0514e-10
1.32764e-09
4.72988e-10
1.36786e-09
4.55677e-10
1.44299e-09
4.56803e-10
1.49219e-09
4.14292e-10
1.55072e-09
4.12805e-10
1.64971e-09
4.26229e-10
1.73381e-09
4.11038e-10
1.81921e-09
4.26801e-10
1.96778e-09
4.97411e-10
2.08204e-09
5.19971e-10
2.19382e-09
5.95819e-10
2.30389e-09
7.22535e-10
2.4382e-09
1.01811e-09
2.39472e-09
1.3905e-09
2.30458e-09
1.66593e-09
-2.93045e-09
1.10713e-08
-1.01998e-08
-2.6117e-09
-5.02962e-09
-4.41827e-09
-2.88003e-09
-2.05844e-09
-1.06732e-09
-8.87131e-10
-1.2715e-10
-1.96548e-10
3.3889e-10
6.7898e-11
5.88966e-10
2.29895e-10
7.50616e-10
3.29009e-10
9.21033e-10
4.63474e-10
1.03753e-09
4.981e-10
1.12486e-09
5.25412e-10
1.17058e-09
5.01316e-10
1.21127e-09
4.98729e-10
1.27924e-09
5.04564e-10
1.32647e-09
4.73271e-10
1.36674e-09
4.55827e-10
1.44133e-09
4.57037e-10
1.49079e-09
4.15329e-10
1.54911e-09
4.13869e-10
1.64722e-09
4.27279e-10
1.73126e-09
4.13365e-10
1.81618e-09
4.29123e-10
1.96311e-09
5.00416e-10
2.0765e-09
5.24589e-10
2.18654e-09
6.02144e-10
2.2946e-09
7.30623e-10
2.42607e-09
1.02714e-09
2.38527e-09
1.38488e-09
2.34325e-09
1.55367e-09
-2.80226e-09
1.11136e-08
-1.05262e-08
-2.61249e-09
-4.84537e-09
-4.3953e-09
-2.86021e-09
-2.03834e-09
-1.05822e-09
-8.8345e-10
-1.2716e-10
-1.97186e-10
3.38091e-10
6.68998e-11
5.87578e-10
2.28641e-10
7.49436e-10
3.27803e-10
9.19221e-10
4.6231e-10
1.03596e-09
4.96867e-10
1.123e-09
5.24321e-10
1.16924e-09
5.00941e-10
1.21005e-09
4.98351e-10
1.27753e-09
5.04068e-10
1.32511e-09
4.73675e-10
1.36543e-09
4.56124e-10
1.43942e-09
4.57459e-10
1.48911e-09
4.16604e-10
1.54718e-09
4.15218e-10
1.64434e-09
4.28659e-10
1.72824e-09
4.16104e-10
1.8126e-09
4.31929e-10
1.95775e-09
5.04009e-10
2.07015e-09
5.299e-10
2.1783e-09
6.09272e-10
2.28421e-09
7.39481e-10
2.41287e-09
1.0364e-09
2.37582e-09
1.37698e-09
2.3859e-09
1.43248e-09
-2.65538e-09
1.11529e-08
-1.08851e-08
-2.6118e-09
-4.64239e-09
-4.36806e-09
-2.83909e-09
-2.01712e-09
-1.04853e-09
-8.79629e-10
-1.2715e-10
-1.97842e-10
3.37235e-10
6.58747e-11
5.86113e-10
2.27379e-10
7.48165e-10
3.26592e-10
9.17281e-10
4.61145e-10
1.03427e-09
4.95639e-10
1.12099e-09
5.23258e-10
1.16776e-09
5.00623e-10
1.20868e-09
4.98055e-10
1.27565e-09
5.03669e-10
1.32355e-09
4.74216e-10
1.3639e-09
4.56586e-10
1.43725e-09
4.58088e-10
1.48715e-09
4.18134e-10
1.54491e-09
4.16874e-10
1.64106e-09
4.30394e-10
1.72475e-09
4.19276e-10
1.80847e-09
4.35241e-10
1.95168e-09
5.08205e-10
2.06296e-09
5.35906e-10
2.16909e-09
6.17184e-10
2.27275e-09
7.4905e-10
2.39869e-09
1.04575e-09
2.36652e-09
1.36678e-09
2.43214e-09
1.30373e-09
-2.49236e-09
1.11893e-08
-1.12718e-08
-2.61101e-09
-4.422e-09
-4.33644e-09
-2.81685e-09
-1.99492e-09
-1.03831e-09
-8.75716e-10
-1.27155e-10
-1.98543e-10
3.36297e-10
6.4809e-11
5.84556e-10
2.26102e-10
7.46791e-10
3.25376e-10
9.1521e-10
4.59982e-10
1.03246e-09
4.94423e-10
1.11885e-09
5.22233e-10
1.16613e-09
5.00371e-10
1.20715e-09
4.97852e-10
1.27359e-09
5.03381e-10
1.32179e-09
4.74906e-10
1.36215e-09
4.57229e-10
1.43481e-09
4.58943e-10
1.48488e-09
4.19936e-10
1.5423e-09
4.18855e-10
1.63737e-09
4.32504e-10
1.72076e-09
4.22895e-10
1.80378e-09
4.39073e-10
1.94491e-09
5.1301e-10
2.05496e-09
5.42599e-10
2.15894e-09
6.25853e-10
2.26027e-09
7.59268e-10
2.3836e-09
1.05512e-09
2.35745e-09
1.35433e-09
2.48148e-09
1.16898e-09
-2.3159e-09
1.12227e-08
-1.16809e-08
-2.61147e-09
-4.18579e-09
-4.30038e-09
-2.79366e-09
-1.97188e-09
-1.02765e-09
-8.71753e-10
-1.27209e-10
-1.99314e-10
3.35254e-10
6.36889e-11
5.82891e-10
2.24806e-10
7.45304e-10
3.24155e-10
9.12999e-10
4.5882e-10
1.03053e-09
4.93225e-10
1.11655e-09
5.21252e-10
1.16434e-09
5.00193e-10
1.20546e-09
4.97754e-10
1.27134e-09
5.03218e-10
1.31981e-09
4.75756e-10
1.36018e-09
4.58068e-10
1.43211e-09
4.60037e-10
1.48231e-09
4.22025e-10
1.53934e-09
4.21175e-10
1.63325e-09
4.35002e-10
1.71627e-09
4.26969e-10
1.79851e-09
4.43435e-10
1.93743e-09
5.18426e-10
2.04615e-09
5.49969e-10
2.14787e-09
6.35247e-10
2.24682e-09
7.70078e-10
2.36771e-09
1.06441e-09
2.34867e-09
1.33975e-09
2.53332e-09
1.02992e-09
-2.1289e-09
1.12529e-08
-1.21068e-08
-2.6144e-09
-3.93554e-09
-4.25982e-09
-2.76971e-09
-1.94814e-09
-1.01662e-09
-8.67779e-10
-1.27344e-10
-2.00176e-10
3.34082e-10
6.2502e-11
5.81103e-10
2.23483e-10
7.43691e-10
3.22926e-10
9.10642e-10
4.5766e-10
1.02846e-09
4.92049e-10
1.1141e-09
5.20323e-10
1.1624e-09
5.00095e-10
1.20361e-09
4.97769e-10
1.26891e-09
5.0319e-10
1.31761e-09
4.76775e-10
1.35798e-09
4.59114e-10
1.42912e-09
4.61382e-10
1.47942e-09
4.24409e-10
1.53602e-09
4.23845e-10
1.62871e-09
4.37901e-10
1.71127e-09
4.31505e-10
1.79266e-09
4.4833e-10
1.92925e-09
5.24448e-10
2.03654e-09
5.57999e-10
2.13592e-09
6.45334e-10
2.23245e-09
7.81424e-10
2.35107e-09
1.07357e-09
2.3402e-09
1.32322e-09
2.58696e-09
8.88342e-10
-1.93428e-09
1.12794e-08
-1.25436e-08
-2.62106e-09
-3.67323e-09
-4.21475e-09
-2.74512e-09
-1.92385e-09
-1.00529e-09
-8.63823e-10
-1.27584e-10
-2.01149e-10
3.32761e-10
6.12376e-11
5.79177e-10
2.22129e-10
7.41939e-10
3.21687e-10
9.08133e-10
4.565e-10
1.02626e-09
4.90897e-10
1.11149e-09
5.19448e-10
1.16029e-09
5.00082e-10
1.20158e-09
4.97903e-10
1.26629e-09
5.03306e-10
1.31519e-09
4.7797e-10
1.35554e-09
4.60376e-10
1.42586e-09
4.62987e-10
1.47621e-09
4.27098e-10
1.53234e-09
4.26873e-10
1.62374e-09
4.41206e-10
1.70577e-09
4.36503e-10
1.78625e-09
4.53757e-10
1.92038e-09
5.31068e-10
2.02616e-09
5.6667e-10
2.1231e-09
6.56079e-10
2.21719e-09
7.93256e-10
2.33375e-09
1.08257e-09
2.33202e-09
1.305e-09
2.64165e-09
7.46019e-10
-1.73487e-09
1.13017e-08
-1.29857e-08
-2.63255e-09
-3.40094e-09
-4.16517e-09
-2.72003e-09
-1.89914e-09
-9.93724e-10
-8.59908e-10
-1.27953e-10
-2.02247e-10
3.31273e-10
5.98874e-11
5.771e-10
2.20737e-10
7.40039e-10
3.20436e-10
9.05464e-10
4.55338e-10
1.02391e-09
4.89773e-10
1.10872e-09
5.18631e-10
1.15801e-09
5.00157e-10
1.19938e-09
4.98161e-10
1.26347e-09
5.03572e-10
1.31255e-09
4.79345e-10
1.35285e-09
4.61861e-10
1.42231e-09
4.64859e-10
1.47268e-09
4.30095e-10
1.52829e-09
4.30262e-10
1.61836e-09
4.44924e-10
1.69977e-09
4.41963e-10
1.77926e-09
4.59716e-10
1.91084e-09
5.38275e-10
2.01502e-09
5.75963e-10
2.10947e-09
6.67449e-10
2.20111e-09
8.05529e-10
2.3158e-09
1.09137e-09
2.3241e-09
1.28535e-09
2.69654e-09
6.0473e-10
-1.53339e-09
1.13192e-08
-1.34271e-08
-2.64974e-09
-3.12093e-09
-4.11114e-09
-2.69458e-09
-1.87416e-09
-9.81984e-10
-8.56053e-10
-1.28468e-10
-2.03481e-10
3.29604e-10
5.8445e-11
5.74862e-10
2.19304e-10
7.3798e-10
3.19172e-10
9.02629e-10
4.54172e-10
1.0214e-09
4.88676e-10
1.10579e-09
5.17874e-10
1.15555e-09
5.00321e-10
1.197e-09
4.98547e-10
1.26045e-09
5.03994e-10
1.30967e-09
4.80906e-10
1.34992e-09
4.63573e-10
1.41848e-09
4.67001e-10
1.46883e-09
4.33404e-10
1.52388e-09
4.34016e-10
1.61255e-09
4.49054e-10
1.69328e-09
4.4788e-10
1.77172e-09
4.66199e-10
1.90064e-09
5.46055e-10
2.00315e-09
5.85855e-10
2.09504e-09
6.79409e-10
2.18424e-09
8.18201e-10
2.29728e-09
1.09997e-09
2.31635e-09
1.26461e-09
2.75081e-09
4.66263e-10
-1.33242e-09
1.13309e-08
-1.38622e-08
-2.67329e-09
-2.83542e-09
-4.05276e-09
-2.66886e-09
-1.84905e-09
-9.7013e-10
-8.5227e-10
-1.29143e-10
-2.04858e-10
3.27743e-10
5.69066e-11
5.72454e-10
2.17829e-10
7.35755e-10
3.17892e-10
8.99624e-10
4.53002e-10
1.01874e-09
4.87609e-10
1.10268e-09
5.17179e-10
1.15291e-09
5.00577e-10
1.19442e-09
4.99062e-10
1.25724e-09
5.04574e-10
1.30656e-09
4.82652e-10
1.34675e-09
4.65517e-10
1.41437e-09
4.69416e-10
1.46466e-09
4.37025e-10
1.5191e-09
4.38134e-10
1.60633e-09
4.53597e-10
1.6863e-09
4.5425e-10
1.76363e-09
4.73199e-10
1.8898e-09
5.54394e-10
1.99057e-09
5.96323e-10
2.07985e-09
6.91925e-10
2.16663e-09
8.31233e-10
2.27821e-09
1.10839e-09
2.30868e-09
1.24313e-09
2.80357e-09
3.32356e-10
-1.13436e-09
1.13359e-08
-1.42855e-08
-2.70381e-09
-2.54672e-09
-3.99012e-09
-2.64296e-09
-1.82393e-09
-9.58213e-10
-8.48567e-10
-1.29988e-10
-2.06382e-10
3.25679e-10
5.52707e-11
5.69869e-10
2.16309e-10
7.33359e-10
3.16596e-10
8.96444e-10
4.51826e-10
1.01591e-09
4.86573e-10
1.0994e-09
5.16546e-10
1.15009e-09
5.00925e-10
1.19166e-09
4.99708e-10
1.25382e-09
5.05315e-10
1.30322e-09
4.84584e-10
1.34332e-09
4.67693e-10
1.40997e-09
4.72104e-10
1.46016e-09
4.40958e-10
1.51396e-09
4.42613e-10
1.59971e-09
4.58549e-10
1.67884e-09
4.61064e-10
1.75499e-09
4.80706e-10
1.87833e-09
5.63274e-10
1.97731e-09
6.07342e-10
2.06395e-09
7.04962e-10
2.14832e-09
8.44591e-10
2.25864e-09
1.11663e-09
2.30098e-09
1.22128e-09
2.85397e-09
2.04611e-10
-9.41328e-10
1.13331e-08
-1.46919e-08
-2.74171e-09
-2.25708e-09
-3.92334e-09
-2.61693e-09
-1.79895e-09
-9.46284e-10
-8.44946e-10
-1.31008e-10
-2.08054e-10
3.23409e-10
5.35379e-11
5.67103e-10
2.14746e-10
7.30785e-10
3.15287e-10
8.93088e-10
4.50644e-10
1.01291e-09
4.85568e-10
1.09594e-09
5.15978e-10
1.14709e-09
5.01366e-10
1.18871e-09
5.00485e-10
1.25021e-09
5.06219e-10
1.29965e-09
4.86704e-10
1.33964e-09
4.70101e-10
1.40529e-09
4.75064e-10
1.45535e-09
4.452e-10
1.50846e-09
4.47451e-10
1.59268e-09
4.63907e-10
1.67091e-09
4.68315e-10
1.74582e-09
4.88709e-10
1.86626e-09
5.72678e-10
1.96339e-09
6.18888e-10
2.04735e-09
7.18486e-10
2.12935e-09
8.58245e-10
2.23858e-09
1.12474e-09
2.29312e-09
1.19945e-09
2.90114e-09
8.45015e-11
-7.55135e-10
1.13215e-08
-1.50768e-08
-2.78716e-09
-1.9687e-09
-3.85259e-09
-2.59084e-09
-1.77422e-09
-9.34391e-10
-8.41406e-10
-1.32206e-10
-2.09872e-10
3.20928e-10
5.17104e-11
5.64153e-10
2.1314e-10
7.28033e-10
3.13963e-10
8.89554e-10
4.49455e-10
1.00973e-09
4.84596e-10
1.0923e-09
5.15473e-10
1.14389e-09
5.01899e-10
1.18556e-09
5.01393e-10
1.24639e-09
5.07286e-10
1.29584e-09
4.89009e-10
1.33571e-09
4.72742e-10
1.40033e-09
4.78295e-10
1.45022e-09
4.4975e-10
1.50261e-09
4.52643e-10
1.58526e-09
4.69665e-10
1.66252e-09
4.75991e-10
1.73614e-09
4.97195e-10
1.85361e-09
5.82584e-10
1.94884e-09
6.30934e-10
2.0301e-09
7.32464e-10
2.10976e-09
8.72167e-10
2.21805e-09
1.13275e-09
2.28494e-09
1.17801e-09
2.94426e-09
-2.65812e-11
-5.77376e-10
1.12998e-08
-1.54359e-08
-2.8401e-09
-1.68371e-09
-3.77807e-09
-2.56472e-09
-1.74986e-09
-9.22578e-10
-8.37945e-10
-1.33584e-10
-2.11832e-10
3.18234e-10
4.97915e-11
5.61019e-10
2.11495e-10
7.251e-10
3.12627e-10
8.8584e-10
4.4826e-10
1.00638e-09
4.83659e-10
1.08848e-09
5.15034e-10
1.14051e-09
5.02524e-10
1.18221e-09
5.02433e-10
1.24236e-09
5.08517e-10
1.29179e-09
4.91498e-10
1.33152e-09
4.75614e-10
1.39509e-09
4.81795e-10
1.44477e-09
4.54601e-10
1.4964e-09
4.58183e-10
1.57745e-09
4.75817e-10
1.65368e-09
4.84083e-10
1.72595e-09
5.0615e-10
1.84039e-09
5.92972e-10
1.93368e-09
6.43452e-10
2.01223e-09
7.46861e-10
2.08959e-09
8.86329e-10
2.19706e-09
1.14071e-09
2.27631e-09
1.15736e-09
2.98256e-09
-1.27389e-10
-4.09398e-10
1.12667e-08
-1.57653e-08
-2.90047e-09
-1.40413e-09
-3.69995e-09
-2.53858e-09
-1.726e-09
-9.10885e-10
-8.34555e-10
-1.35139e-10
-2.13929e-10
3.1533e-10
4.77868e-11
5.57701e-10
2.09814e-10
7.21987e-10
3.11282e-10
8.81949e-10
4.4706e-10
1.00285e-09
4.82758e-10
1.08448e-09
5.1466e-10
1.13693e-09
5.03242e-10
1.17866e-09
5.03602e-10
1.23814e-09
5.09912e-10
1.28752e-09
4.94169e-10
1.32709e-09
4.78715e-10
1.38958e-09
4.85558e-10
1.43902e-09
4.59751e-10
1.48985e-09
4.64063e-10
1.56926e-09
4.82353e-10
1.64441e-09
4.92577e-10
1.71528e-09
5.15557e-10
1.82664e-09
6.03821e-10
1.91795e-09
6.56415e-10
1.99377e-09
7.61644e-10
2.06886e-09
9.00709e-10
2.17561e-09
1.14867e-09
2.26706e-09
1.13787e-09
3.01533e-09
-2.16874e-10
-2.52194e-10
1.12212e-08
-1.60618e-08
-2.96807e-09
-1.13181e-09
-3.6184e-09
-2.51242e-09
-1.70272e-09
-8.99348e-10
-8.31226e-10
-1.36865e-10
-2.16152e-10
3.12218e-10
4.57026e-11
5.54201e-10
2.08101e-10
7.18695e-10
3.09931e-10
8.77881e-10
4.45856e-10
9.99148e-10
4.81895e-10
1.0803e-09
5.14353e-10
1.13316e-09
5.04052e-10
1.17492e-09
5.049e-10
1.23371e-09
5.11469e-10
1.28301e-09
4.9702e-10
1.32241e-09
4.82041e-10
1.38379e-09
4.89583e-10
1.43296e-09
4.65192e-10
1.48297e-09
4.70276e-10
1.56071e-09
4.89266e-10
1.63471e-09
5.01461e-10
1.70413e-09
5.25401e-10
1.81237e-09
6.15106e-10
1.90167e-09
6.69794e-10
1.97476e-09
7.76779e-10
2.04763e-09
9.15288e-10
2.15372e-09
1.15669e-09
2.25703e-09
1.1199e-09
3.04189e-09
-2.94169e-10
-1.06468e-10
1.11622e-08
-1.63227e-08
-3.0425e-09
-8.68477e-10
-3.53364e-09
-2.48622e-09
-1.68013e-09
-8.88003e-10
-8.27947e-10
-1.38757e-10
-2.18495e-10
3.08902e-10
4.35459e-11
5.50523e-10
2.06361e-10
7.15226e-10
3.08577e-10
8.73638e-10
4.44651e-10
9.95266e-10
4.81072e-10
1.07594e-09
5.14114e-10
1.1292e-09
5.04954e-10
1.17097e-09
5.06326e-10
1.22908e-09
5.13187e-10
1.27827e-09
5.00048e-10
1.31747e-09
4.85591e-10
1.37774e-09
4.93863e-10
1.4266e-09
4.70919e-10
1.47575e-09
4.76814e-10
1.5518e-09
4.96545e-10
1.62459e-09
5.1072e-10
1.69252e-09
5.35663e-10
1.7976e-09
6.26805e-10
1.88487e-09
6.83562e-10
1.95524e-09
7.92234e-10
2.02591e-09
9.30047e-10
2.13137e-09
1.16483e-09
2.24606e-09
1.10377e-09
3.06169e-09
-3.58542e-10
2.7301e-11
1.10886e-08
-1.65457e-08
-3.12322e-09
-6.15692e-10
-3.4459e-09
-2.45997e-09
-1.65831e-09
-8.7688e-10
-8.24704e-10
-1.40806e-10
-2.20945e-10
3.05387e-10
4.13243e-11
5.46669e-10
2.046e-10
7.11584e-10
3.07223e-10
8.69222e-10
4.43445e-10
9.91207e-10
4.80292e-10
1.0714e-09
5.13943e-10
1.12506e-09
5.05948e-10
1.16683e-09
5.07878e-10
1.22426e-09
5.15067e-10
1.27331e-09
5.03251e-10
1.31229e-09
4.89359e-10
1.37143e-09
4.98393e-10
1.41995e-09
4.76925e-10
1.4682e-09
4.83667e-10
1.54254e-09
5.0418e-10
1.61409e-09
5.2034e-10
1.68047e-09
5.46324e-10
1.78237e-09
6.38892e-10
1.86759e-09
6.97688e-10
1.93524e-09
8.07977e-10
2.00374e-09
9.44967e-10
2.10857e-09
1.17315e-09
2.23401e-09
1.0898e-09
3.07423e-09
-4.09441e-10
1.48821e-10
1.09993e-08
-1.6729e-08
-3.20973e-09
-3.74826e-10
-3.35537e-09
-2.43362e-09
-1.63735e-09
-8.66005e-10
-8.21483e-10
-1.43003e-10
-2.23492e-10
3.0168e-10
3.90466e-11
5.42647e-10
2.02823e-10
7.07773e-10
3.05874e-10
8.64636e-10
4.42242e-10
9.86974e-10
4.79556e-10
1.06669e-09
5.1384e-10
1.12072e-09
5.07033e-10
1.1625e-09
5.09555e-10
1.21923e-09
5.17105e-10
1.26812e-09
5.06625e-10
1.30687e-09
4.93343e-10
1.36485e-09
5.03169e-10
1.41301e-09
4.83203e-10
1.46034e-09
4.90825e-10
1.53294e-09
5.12159e-10
1.60319e-09
5.30306e-10
1.668e-09
5.57365e-10
1.76669e-09
6.51343e-10
1.84984e-09
7.12145e-10
1.91478e-09
8.23975e-10
1.98116e-09
9.60034e-10
2.08529e-09
1.1817e-09
2.22073e-09
1.07825e-09
3.07909e-09
-4.46496e-10
2.58115e-10
1.08937e-08
-1.68717e-08
-3.3015e-09
-1.47068e-10
-3.26223e-09
-2.40711e-09
-1.61728e-09
-8.554e-10
-8.18265e-10
-1.45335e-10
-2.26122e-10
2.9779e-10
3.67221e-11
5.38462e-10
2.01038e-10
7.03798e-10
3.04536e-10
8.59886e-10
4.41044e-10
9.82568e-10
4.78867e-10
1.0618e-09
5.13808e-10
1.11621e-09
5.08211e-10
1.15797e-09
5.11355e-10
1.21402e-09
5.19301e-10
1.26271e-09
5.10167e-10
1.30122e-09
4.97536e-10
1.35803e-09
5.08184e-10
1.40579e-09
4.89745e-10
1.45218e-09
4.98277e-10
1.52302e-09
5.2047e-10
1.59194e-09
5.40601e-10
1.65512e-09
5.68766e-10
1.75058e-09
6.64132e-10
1.83166e-09
7.26902e-10
1.89391e-09
8.40199e-10
1.95817e-09
9.75235e-10
2.06154e-09
1.19055e-09
2.20607e-09
1.06937e-09
3.07595e-09
-4.69533e-10
3.55424e-10
1.0771e-08
-1.69728e-08
-3.39787e-09
6.65916e-11
-3.16669e-09
-2.38038e-09
-1.59818e-09
-8.45084e-10
-8.15032e-10
-1.47789e-10
-2.28822e-10
2.93724e-10
3.43598e-11
5.34119e-10
1.9925e-10
6.99664e-10
3.03211e-10
8.54973e-10
4.39852e-10
9.77991e-10
4.78228e-10
1.05674e-09
5.13846e-10
1.11151e-09
5.09479e-10
1.15325e-09
5.13277e-10
1.20861e-09
5.21652e-10
1.25709e-09
5.13873e-10
1.29532e-09
5.01936e-10
1.35095e-09
5.1343e-10
1.3983e-09
4.96543e-10
1.44371e-09
5.06012e-10
1.51278e-09
5.291e-10
1.58032e-09
5.51209e-10
1.64186e-09
5.80507e-10
1.73408e-09
6.77234e-10
1.81307e-09
7.41931e-10
1.87265e-09
8.56619e-10
1.93482e-09
9.90558e-10
2.03731e-09
1.19974e-09
2.18993e-09
1.06334e-09
3.06459e-09
-4.78506e-10
4.4114e-10
1.06308e-08
-1.70322e-08
-3.49813e-09
2.65339e-10
-3.06895e-09
-2.35338e-09
-1.58008e-09
-8.35075e-10
-8.11767e-10
-1.50355e-10
-2.31578e-10
2.89494e-10
3.1969e-11
5.29626e-10
1.97466e-10
6.95378e-10
3.01904e-10
8.49902e-10
4.38671e-10
9.73248e-10
4.7764e-10
1.05151e-09
5.13956e-10
1.10663e-09
5.10838e-10
1.14834e-09
5.15318e-10
1.20301e-09
5.24157e-10
1.25125e-09
5.17741e-10
1.2892e-09
5.06536e-10
1.34364e-09
5.18903e-10
1.39054e-09
5.03588e-10
1.43496e-09
5.14019e-10
1.50224e-09
5.38037e-10
1.56838e-09
5.62114e-10
1.62823e-09
5.92566e-10
1.71721e-09
6.90623e-10
1.79412e-09
7.57204e-10
1.85104e-09
8.73206e-10
1.91113e-09
1.00599e-09
2.01258e-09
1.20932e-09
2.17218e-09
1.06033e-09
3.04486e-09
-4.73534e-10
5.15752e-10
1.04725e-08
-1.70502e-08
-3.60164e-09
4.48565e-10
-2.96918e-09
-2.32603e-09
-1.56301e-09
-8.25381e-10
-8.0845e-10
-1.53016e-10
-2.34376e-10
2.85108e-10
2.95596e-11
5.24991e-10
1.95693e-10
6.90946e-10
3.00621e-10
8.44677e-10
4.37502e-10
9.6834e-10
4.77107e-10
1.04612e-09
5.14138e-10
1.10157e-09
5.12288e-10
1.14325e-09
5.17477e-10
1.19724e-09
5.26813e-10
1.24521e-09
5.21764e-10
1.28286e-09
5.11331e-10
1.3361e-09
5.24594e-10
1.38253e-09
5.10871e-10
1.42593e-09
5.22285e-10
1.49142e-09
5.47267e-10
1.55611e-09
5.73297e-10
1.61426e-09
6.04922e-10
1.69999e-09
7.04274e-10
1.77481e-09
7.72693e-10
1.8291e-09
8.8993e-10
1.88712e-09
1.02152e-09
1.98733e-09
1.21933e-09
2.15274e-09
1.06045e-09
3.01671e-09
-4.54873e-10
5.79973e-10
1.02959e-08
-1.70273e-08
-3.7078e-09
6.15833e-10
-2.86752e-09
-2.29824e-09
-1.54699e-09
-8.16009e-10
-8.05059e-10
-1.55755e-10
-2.372e-10
2.8058e-10
2.71421e-11
5.20221e-10
1.93938e-10
6.86375e-10
2.99368e-10
8.39304e-10
4.36348e-10
9.63273e-10
4.7663e-10
1.04057e-09
5.14393e-10
1.09634e-09
5.13828e-10
1.13798e-09
5.1975e-10
1.19128e-09
5.29617e-10
1.23896e-09
5.25941e-10
1.2763e-09
5.16316e-10
1.32833e-09
5.30496e-10
1.37426e-09
5.18383e-10
1.41663e-09
5.308e-10
1.48032e-09
5.56775e-10
1.54353e-09
5.84742e-10
1.59997e-09
6.17554e-10
1.68244e-09
7.1816e-10
1.75519e-09
7.88371e-10
1.80686e-09
9.06766e-10
1.86281e-09
1.03713e-09
1.96158e-09
1.22981e-09
2.13152e-09
1.06378e-09
2.98016e-09
-4.22934e-10
6.34642e-10
1.01011e-08
-1.69647e-08
-3.81596e-09
7.66914e-10
-2.76413e-09
-2.26994e-09
-1.53202e-09
-8.0696e-10
-8.01572e-10
-1.58556e-10
-2.40036e-10
2.75919e-10
2.47259e-11
5.15326e-10
1.92206e-10
6.81672e-10
2.98147e-10
8.33786e-10
4.3521e-10
9.58049e-10
4.76212e-10
1.03485e-09
5.1472e-10
1.09095e-09
5.15457e-10
1.13253e-09
5.22137e-10
1.18515e-09
5.32567e-10
1.23252e-09
5.30265e-10
1.26953e-09
5.21484e-10
1.32034e-09
5.36601e-10
1.36577e-09
5.26116e-10
1.40708e-09
5.3955e-10
1.46896e-09
5.66547e-10
1.53067e-09
5.96431e-10
1.58536e-09
6.30441e-10
1.66459e-09
7.32257e-10
1.73528e-09
8.0421e-10
1.78436e-09
9.23686e-10
1.83823e-09
1.05282e-09
1.93529e-09
1.24078e-09
2.10847e-09
1.07035e-09
2.93534e-09
-3.78229e-10
6.80671e-10
9.88813e-09
-1.68637e-08
-3.92549e-09
9.01729e-10
-2.65915e-09
-2.24106e-09
-1.5181e-09
-7.98236e-10
-7.9797e-10
-1.61404e-10
-2.42869e-10
2.7114e-10
2.23208e-11
5.10313e-10
1.90506e-10
6.76847e-10
2.96966e-10
8.28128e-10
4.34091e-10
9.52674e-10
4.75855e-10
1.02899e-09
5.1512e-10
1.08539e-09
5.17176e-10
1.12691e-09
5.24634e-10
1.17885e-09
5.35659e-10
1.22589e-09
5.34733e-10
1.26256e-09
5.26831e-10
1.31214e-09
5.42901e-10
1.35704e-09
5.34059e-10
1.39729e-09
5.48522e-10
1.45735e-09
5.7657e-10
1.51754e-09
6.08346e-10
1.57048e-09
6.43562e-10
1.64646e-09
7.46541e-10
1.7151e-09
8.20185e-10
1.76161e-09
9.40665e-10
1.8134e-09
1.06857e-09
1.90848e-09
1.25227e-09
2.08354e-09
1.08014e-09
2.88244e-09
-3.21394e-10
7.18977e-10
9.65725e-09
-1.6726e-08
-4.03581e-09
1.02039e-09
-2.55271e-09
-2.21152e-09
-1.50523e-09
-7.89831e-10
-7.94232e-10