/*--------------------------------*- C++ -*----------------------------------*\
| =========                 |                                                 |
| \\      /  F ield         | OpenFOAM: The Open Source CFD Toolbox           |
|  \\    /   O peration     | Version:  2312                                  |
|   \\  /    A nd           | Website:  www.openfoam.com                      |
|    \\/     M anipulation  |                                                 |
\*---------------------------------------------------------------------------*/
FoamFile
{
    version     2.0;
    format      ascii;
    arch        "LSB;label=32;scalar=64";
    class       volScalarField;
    location    "600";
    object      pPrime2Mean;
}
// * * * * * * * * * * * * * * * * * * * * * * * * * * * * * * * * * * * * * //

dimensions      [0 4 -4 0 0 0 0];

internalField   nonuniform List<scalar> 
330000
(
1.686e-16
6.61074e-17
4.0358e-17
3.48849e-17
3.67944e-17
3.51012e-17
3.35315e-17
3.00546e-17
2.87852e-17
2.6482e-17
2.57595e-17
2.40488e-17
2.38933e-17
2.23594e-17
2.2247e-17
2.0695e-17
2.08521e-17
1.96753e-17
1.94036e-17
1.87634e-17
1.82706e-17
1.76498e-17
1.75796e-17
1.62703e-17
1.71101e-17
1.52052e-17
1.65465e-17
1.45716e-17
1.57762e-17
1.41473e-17
1.49968e-17
1.37994e-17
1.43215e-17
1.34852e-17
1.371e-17
1.32523e-17
1.32382e-17
1.29975e-17
1.29374e-17
1.26868e-17
1.27876e-17
1.25292e-17
1.27561e-17
1.24939e-17
1.28365e-17
1.23942e-17
1.32458e-17
1.27176e-17
1.3902e-17
1.37121e-17
1.49088e-17
1.48599e-17
1.88564e-17
1.25539e-17
2.99517e-17
1.08718e-17
4.32024e-17
3.26044e-17
1.12903e-17
1.32512e-16
1.67201e-16
6.58107e-17
4.03071e-17
3.48699e-17
3.67874e-17
3.51093e-17
3.35355e-17
3.00603e-17
2.87847e-17
2.64823e-17
2.5757e-17
2.40478e-17
2.3891e-17
2.23589e-17
2.22453e-17
2.06951e-17
2.08511e-17
1.96757e-17
1.94031e-17
1.87636e-17
1.82706e-17
1.76503e-17
1.75793e-17
1.62716e-17
1.71089e-17
1.5207e-17
1.65449e-17
1.45733e-17
1.57749e-17
1.41482e-17
1.49961e-17
1.37994e-17
1.43211e-17
1.34845e-17
1.371e-17
1.32508e-17
1.32385e-17
1.29952e-17
1.29378e-17
1.2684e-17
1.27879e-17
1.25258e-17
1.2756e-17
1.24903e-17
1.2836e-17
1.23903e-17
1.32452e-17
1.27137e-17
1.39006e-17
1.37086e-17
1.4909e-17
1.48525e-17
1.8866e-17
1.25396e-17
2.99631e-17
1.08811e-17
4.3139e-17
3.27786e-17
1.14004e-17
1.31773e-16
1.65813e-16
6.56074e-17
4.0198e-17
3.48296e-17
3.67873e-17
3.51295e-17
3.35482e-17
3.00713e-17
2.87876e-17
2.64842e-17
2.57575e-17
2.40482e-17
2.38914e-17
2.23595e-17
2.22463e-17
2.06957e-17
2.08519e-17
1.96771e-17
1.94037e-17
1.87654e-17
1.82718e-17
1.76519e-17
1.75811e-17
1.62729e-17
1.71106e-17
1.52084e-17
1.65464e-17
1.45747e-17
1.57766e-17
1.41493e-17
1.49981e-17
1.38002e-17
1.43233e-17
1.3485e-17
1.37124e-17
1.32509e-17
1.32413e-17
1.2995e-17
1.29413e-17
1.26835e-17
1.27917e-17
1.25253e-17
1.27602e-17
1.24904e-17
1.28413e-17
1.23904e-17
1.3252e-17
1.27151e-17
1.39078e-17
1.37135e-17
1.49197e-17
1.48554e-17
1.88956e-17
1.25294e-17
3.00147e-17
1.08932e-17
4.30788e-17
3.30304e-17
1.16206e-17
1.3138e-16
1.64292e-16
6.55256e-17
3.998e-17
3.47264e-17
3.67756e-17
3.51495e-17
3.35607e-17
3.00835e-17
2.87907e-17
2.64873e-17
2.576e-17
2.40504e-17
2.38934e-17
2.23611e-17
2.22484e-17
2.06968e-17
2.08535e-17
1.96792e-17
1.94049e-17
1.8768e-17
1.82734e-17
1.76538e-17
1.7584e-17
1.62741e-17
1.71137e-17
1.52096e-17
1.6549e-17
1.45762e-17
1.57793e-17
1.41508e-17
1.50008e-17
1.38015e-17
1.43261e-17
1.34862e-17
1.37155e-17
1.32519e-17
1.32448e-17
1.29957e-17
1.29454e-17
1.26841e-17
1.27964e-17
1.25259e-17
1.27651e-17
1.2492e-17
1.28475e-17
1.23921e-17
1.32599e-17
1.2718e-17
1.39161e-17
1.37208e-17
1.49301e-17
1.48614e-17
1.89243e-17
1.25216e-17
3.00535e-17
1.09083e-17
4.2948e-17
3.32803e-17
1.1912e-17
1.31243e-16
1.62526e-16
6.55069e-17
3.95938e-17
3.45095e-17
3.67163e-17
3.51444e-17
3.35568e-17
3.00878e-17
2.87884e-17
2.64879e-17
2.5761e-17
2.40515e-17
2.38944e-17
2.23618e-17
2.22497e-17
2.0697e-17
2.08539e-17
1.96809e-17
1.94052e-17
1.87705e-17
1.82747e-17
1.76556e-17
1.7587e-17
1.62751e-17
1.7117e-17
1.52107e-17
1.65516e-17
1.45778e-17
1.57819e-17
1.41524e-17
1.50036e-17
1.38028e-17
1.43289e-17
1.34875e-17
1.37184e-17
1.3253e-17
1.32481e-17
1.29964e-17
1.29494e-17
1.26848e-17
1.28007e-17
1.25264e-17
1.27695e-17
1.24937e-17
1.28531e-17
1.23937e-17
1.32672e-17
1.27204e-17
1.39233e-17
1.37268e-17
1.4938e-17
1.48648e-17
1.89451e-17
1.25119e-17
3.00543e-17
1.09319e-17
4.26886e-17
3.34712e-17
1.22329e-17
1.31197e-16
1.60552e-16
6.54461e-17
3.90156e-17
3.41492e-17
3.65802e-17
3.50925e-17
3.35217e-17
3.00745e-17
2.87745e-17
2.64815e-17
2.5757e-17
2.40487e-17
2.38916e-17
2.23594e-17
2.2248e-17
2.06947e-17
2.08518e-17
1.96809e-17
1.94037e-17
1.87718e-17
1.82747e-17
1.76564e-17
1.75895e-17
1.62754e-17
1.712e-17
1.52114e-17
1.65539e-17
1.45791e-17
1.57844e-17
1.41537e-17
1.50063e-17
1.3804e-17
1.43315e-17
1.34886e-17
1.37212e-17
1.32538e-17
1.32513e-17
1.29969e-17
1.29533e-17
1.26852e-17
1.28048e-17
1.25267e-17
1.27733e-17
1.24953e-17
1.28579e-17
1.23949e-17
1.32734e-17
1.27213e-17
1.39292e-17
1.37293e-17
1.49435e-17
1.48616e-17
1.89567e-17
1.24974e-17
3.00027e-17
1.09688e-17
4.22664e-17
3.3566e-17
1.2542e-17
1.31066e-16
1.58525e-16
6.51941e-17
3.82475e-17
3.36402e-17
3.63515e-17
3.49791e-17
3.34437e-17
3.0035e-17
2.8743e-17
2.64638e-17
2.57444e-17
2.40388e-17
2.38826e-17
2.23517e-17
2.22415e-17
2.06883e-17
2.08455e-17
1.9678e-17
1.93992e-17
1.8771e-17
1.82727e-17
1.76556e-17
1.75907e-17
1.62744e-17
1.71221e-17
1.5211e-17
1.65556e-17
1.45796e-17
1.57865e-17
1.41544e-17
1.50087e-17
1.38046e-17
1.43339e-17
1.34892e-17
1.37239e-17
1.32542e-17
1.32543e-17
1.29969e-17
1.2957e-17
1.26852e-17
1.28085e-17
1.25265e-17
1.27764e-17
1.24965e-17
1.28616e-17
1.23952e-17
1.32783e-17
1.27199e-17
1.39337e-17
1.37266e-17
1.49466e-17
1.48486e-17
1.89574e-17
1.2476e-17
2.98875e-17
1.10232e-17
4.16597e-17
3.35478e-17
1.28002e-17
1.30628e-16
1.5665e-16
6.462e-17
3.73019e-17
3.29961e-17
3.60266e-17
3.47973e-17
3.33156e-17
2.99627e-17
2.86889e-17
2.64308e-17
2.57199e-17
2.40195e-17
2.38651e-17
2.23371e-17
2.22285e-17
2.06766e-17
2.08338e-17
1.96711e-17
1.93907e-17
1.87671e-17
1.82678e-17
1.76524e-17
1.75899e-17
1.62717e-17
1.71229e-17
1.52093e-17
1.65563e-17
1.45789e-17
1.5788e-17
1.41541e-17
1.50107e-17
1.38042e-17
1.4336e-17
1.3489e-17
1.37262e-17
1.32539e-17
1.32571e-17
1.29962e-17
1.29603e-17
1.26845e-17
1.28117e-17
1.25256e-17
1.27785e-17
1.24971e-17
1.28639e-17
1.23942e-17
1.32815e-17
1.27156e-17
1.39362e-17
1.37174e-17
1.49465e-17
1.48236e-17
1.89445e-17
1.24471e-17
2.97011e-17
1.10979e-17
4.086e-17
3.34203e-17
1.29756e-17
1.29677e-16
1.55142e-16
6.36333e-17
3.61947e-17
3.22427e-17
3.56116e-17
3.45477e-17
3.3135e-17
2.98539e-17
2.86087e-17
2.63795e-17
2.5681e-17
2.39886e-17
2.38373e-17
2.2314e-17
2.22076e-17
2.06584e-17
2.08157e-17
1.96592e-17
1.93773e-17
1.87592e-17
1.82593e-17
1.76462e-17
1.75865e-17
1.62667e-17
1.71218e-17
1.52057e-17
1.65556e-17
1.45765e-17
1.57886e-17
1.41522e-17
1.50121e-17
1.38026e-17
1.43375e-17
1.34878e-17
1.37281e-17
1.32526e-17
1.32595e-17
1.29946e-17
1.29631e-17
1.2683e-17
1.28141e-17
1.25238e-17
1.27793e-17
1.24968e-17
1.28645e-17
1.23916e-17
1.32826e-17
1.27076e-17
1.39359e-17
1.37008e-17
1.4942e-17
1.47861e-17
1.89155e-17
1.2412e-17
2.9441e-17
1.1195e-17
3.98744e-17
3.32068e-17
1.30481e-17
1.28053e-16
1.54199e-16
6.2207e-17
3.49441e-17
3.14078e-17
3.51183e-17
3.42365e-17
3.29038e-17
2.97081e-17
2.85009e-17
2.63083e-17
2.56263e-17
2.39449e-17
2.37982e-17
2.22816e-17
2.2178e-17
2.06332e-17
2.07903e-17
1.96417e-17
1.93584e-17
1.87467e-17
1.82465e-17
1.76364e-17
1.758e-17
1.6259e-17
1.71183e-17
1.51998e-17
1.65533e-17
1.45721e-17
1.57881e-17
1.41485e-17
1.50127e-17
1.37993e-17
1.43384e-17
1.34851e-17
1.37294e-17
1.325e-17
1.32613e-17
1.29917e-17
1.29653e-17
1.26803e-17
1.28156e-17
1.25209e-17
1.27787e-17
1.24953e-17
1.2863e-17
1.2387e-17
1.32811e-17
1.26959e-17
1.39321e-17
1.36773e-17
1.49316e-17
1.47372e-17
1.88686e-17
1.23737e-17
2.91099e-17
1.13151e-17
3.87242e-17
3.29421e-17
1.30083e-17
1.25693e-16
1.53978e-16
6.03745e-17
3.35731e-17
3.052e-17
3.45616e-17
3.38731e-17
3.26273e-17
2.95268e-17
2.83657e-17
2.62167e-17
2.55551e-17
2.38879e-17
2.3747e-17
2.22393e-17
2.21392e-17
2.06006e-17
2.07574e-17
1.96184e-17
1.93337e-17
1.87293e-17
1.8229e-17
1.76228e-17
1.75699e-17
1.62482e-17
1.71122e-17
1.51912e-17
1.65491e-17
1.45652e-17
1.57864e-17
1.41427e-17
1.50123e-17
1.37943e-17
1.43383e-17
1.3481e-17
1.373e-17
1.3246e-17
1.32624e-17
1.29875e-17
1.29667e-17
1.26764e-17
1.28159e-17
1.25168e-17
1.27762e-17
1.24925e-17
1.28593e-17
1.23804e-17
1.32767e-17
1.26807e-17
1.3924e-17
1.36476e-17
1.49145e-17
1.46791e-17
1.88025e-17
1.23356e-17
2.87149e-17
1.14579e-17
3.74406e-17
3.26644e-17
1.28564e-17
1.22632e-16
1.54592e-16
5.82063e-17
3.21077e-17
2.9602e-17
3.39555e-17
3.3468e-17
3.23125e-17
2.93137e-17
2.82047e-17
2.61054e-17
2.54676e-17
2.38176e-17
2.36837e-17
2.21872e-17
2.2091e-17
2.05605e-17
2.07167e-17
1.95889e-17
1.9303e-17
1.87066e-17
1.82068e-17
1.76049e-17
1.75559e-17
1.62342e-17
1.71032e-17
1.51798e-17
1.65428e-17
1.45558e-17
1.57831e-17
1.41345e-17
1.50108e-17
1.37873e-17
1.43372e-17
1.34752e-17
1.37296e-17
1.32405e-17
1.32625e-17
1.29819e-17
1.2967e-17
1.26713e-17
1.28148e-17
1.25115e-17
1.27718e-17
1.24885e-17
1.2853e-17
1.23717e-17
1.32691e-17
1.26625e-17
1.3911e-17
1.36131e-17
1.48897e-17
1.46146e-17
1.87173e-17
1.2301e-17
2.8266e-17
1.16223e-17
3.60592e-17
3.24085e-17
1.25992e-17
1.18973e-16
1.56104e-16
5.57877e-17
3.05765e-17
2.86726e-17
3.33128e-17
3.30308e-17
3.19666e-17
2.9073e-17
2.80203e-17
2.59757e-17
2.53644e-17
2.37345e-17
2.36087e-17
2.21255e-17
2.20336e-17
2.05131e-17
2.06685e-17
1.95535e-17
1.92664e-17
1.86786e-17
1.81797e-17
1.75827e-17
1.7538e-17
1.62167e-17
1.70911e-17
1.51654e-17
1.65342e-17
1.45435e-17
1.57782e-17
1.4124e-17
1.50079e-17
1.37782e-17
1.43348e-17
1.34676e-17
1.3728e-17
1.32335e-17
1.32615e-17
1.29748e-17
1.29661e-17
1.26649e-17
1.28121e-17
1.25051e-17
1.27654e-17
1.24831e-17
1.28443e-17
1.23613e-17
1.32581e-17
1.26421e-17
1.38928e-17
1.35752e-17
1.4857e-17
1.45465e-17
1.86138e-17
1.22722e-17
2.77745e-17
1.18067e-17
3.46139e-17
3.22007e-17
1.22499e-17
1.14856e-16
1.5853e-16
5.32021e-17
2.90091e-17
2.77462e-17
3.26441e-17
3.25699e-17
3.15963e-17
2.88091e-17
2.78153e-17
2.5829e-17
2.52468e-17
2.36396e-17
2.35226e-17
2.20547e-17
2.19673e-17
2.04588e-17
2.06129e-17
1.95123e-17
1.92241e-17
1.86455e-17
1.81478e-17
1.75562e-17
1.75162e-17
1.61957e-17
1.70759e-17
1.51479e-17
1.65232e-17
1.45285e-17
1.57714e-17
1.4111e-17
1.50034e-17
1.37671e-17
1.4331e-17
1.34584e-17
1.3725e-17
1.3225e-17
1.32592e-17
1.29664e-17
1.29638e-17
1.26572e-17
1.28078e-17
1.24976e-17
1.27568e-17
1.24765e-17
1.2833e-17
1.23494e-17
1.32437e-17
1.26199e-17
1.38695e-17
1.35349e-17
1.48164e-17
1.44772e-17
1.84934e-17
1.22507e-17
2.72512e-17
1.20094e-17
3.31349e-17
3.20585e-17
1.18257e-17
1.10433e-16
1.61837e-16
5.05246e-17
2.74358e-17
2.68334e-17
3.19578e-17
3.20922e-17
3.12074e-17
2.85262e-17
2.75925e-17
2.56672e-17
2.51158e-17
2.35337e-17
2.34261e-17
2.19754e-17
2.18927e-17
2.03978e-17
2.05504e-17
1.94656e-17
1.91763e-17
1.86073e-17
1.81114e-17
1.75255e-17
1.74906e-17
1.61711e-17
1.70576e-17
1.51274e-17
1.65098e-17
1.45107e-17
1.57626e-17
1.40957e-17
1.49971e-17
1.3754e-17
1.43255e-17
1.34475e-17
1.37206e-17
1.3215e-17
1.32554e-17
1.29566e-17
1.29599e-17
1.26485e-17
1.28016e-17
1.24891e-17
1.27461e-17
1.24688e-17
1.28192e-17
1.23363e-17
1.3226e-17
1.25965e-17
1.38413e-17
1.34934e-17
1.47682e-17
1.44085e-17
1.83578e-17
1.22374e-17
2.67055e-17
1.22286e-17
3.16469e-17
3.19909e-17
1.13481e-17
1.05846e-16
1.65956e-16
4.78168e-17
2.58852e-17
2.59413e-17
3.12606e-17
3.16028e-17
3.08047e-17
2.82278e-17
2.73545e-17
2.54918e-17
2.49727e-17
2.34177e-17
2.33202e-17
2.18881e-17
2.18103e-17
2.03307e-17
2.04815e-17
1.94136e-17
1.91236e-17
1.85643e-17
1.80709e-17
1.74905e-17
1.74614e-17
1.61432e-17
1.70363e-17
1.51039e-17
1.64938e-17
1.44904e-17
1.57517e-17
1.40781e-17
1.49891e-17
1.3739e-17
1.43183e-17
1.34351e-17
1.37145e-17
1.32038e-17
1.32502e-17
1.29457e-17
1.29544e-17
1.26388e-17
1.27936e-17
1.24797e-17
1.27333e-17
1.24601e-17
1.2803e-17
1.23221e-17
1.3205e-17
1.25722e-17
1.38083e-17
1.34513e-17
1.47127e-17
1.43415e-17
1.82089e-17
1.2232e-17
2.61455e-17
1.24624e-17
3.01702e-17
3.20001e-17
1.08399e-17
1.01217e-16
1.7078e-16
4.51289e-17
2.43841e-17
2.50747e-17
3.05577e-17
3.11055e-17
3.03921e-17
2.7917e-17
2.71036e-17
2.53045e-17
2.48185e-17
2.32925e-17
2.32055e-17
2.17936e-17
2.17207e-17
2.02578e-17
2.04066e-17
1.93566e-17
1.90662e-17
1.85167e-17
1.80264e-17
1.74516e-17
1.74288e-17
1.61119e-17
1.7012e-17
1.50776e-17
1.64752e-17
1.44676e-17
1.57385e-17
1.40586e-17
1.4979e-17
1.37224e-17
1.43092e-17
1.34213e-17
1.37068e-17
1.31912e-17
1.32432e-17
1.29336e-17
1.29473e-17
1.26281e-17
1.27837e-17
1.24694e-17
1.27185e-17
1.24504e-17
1.27844e-17
1.23071e-17
1.31809e-17
1.25473e-17
1.3771e-17
1.3409e-17
1.46507e-17
1.42771e-17
1.80487e-17
1.22342e-17
2.55778e-17
1.27091e-17
2.872e-17
3.20832e-17
1.03244e-17
9.66498e-17
1.76176e-16
4.24989e-17
2.29567e-17
2.42364e-17
2.98531e-17
3.06032e-17
2.99724e-17
2.75963e-17
2.68418e-17
2.51066e-17
2.46544e-17
2.31589e-17
2.30829e-17
2.16925e-17
2.16245e-17
2.01795e-17
2.03263e-17
1.92949e-17
1.90045e-17
1.84648e-17
1.79784e-17
1.74087e-17
1.73931e-17
1.60775e-17
1.69849e-17
1.50488e-17
1.64541e-17
1.44427e-17
1.57229e-17
1.40373e-17
1.49668e-17
1.37043e-17
1.42982e-17
1.34063e-17
1.36972e-17
1.31776e-17
1.32346e-17
1.29205e-17
1.29385e-17
1.26166e-17
1.2772e-17
1.24583e-17
1.27017e-17
1.24398e-17
1.27637e-17
1.22912e-17
1.31541e-17
1.25217e-17
1.37298e-17
1.33666e-17
1.45825e-17
1.42154e-17
1.78789e-17
1.22431e-17
2.50073e-17
1.29666e-17
2.73081e-17
3.22331e-17
9.82273e-18
9.22221e-17
1.81983e-16
3.99565e-17
2.16243e-17
2.34281e-17
2.91501e-17
3.0098e-17
2.95479e-17
2.72679e-17
2.6571e-17
2.48993e-17
2.44814e-17
2.30176e-17
2.29532e-17
2.15853e-17
2.15225e-17
2.00964e-17
2.0241e-17
1.92288e-17
1.89389e-17
1.84087e-17
1.79273e-17
1.73621e-17
1.73546e-17
1.604e-17
1.69551e-17
1.50176e-17
1.64304e-17
1.4416e-17
1.5705e-17
1.40144e-17
1.49524e-17
1.36849e-17
1.42852e-17
1.33901e-17
1.36858e-17
1.31629e-17
1.32243e-17
1.29064e-17
1.2928e-17
1.26042e-17
1.27586e-17
1.24463e-17
1.26831e-17
1.24282e-17
1.27408e-17
1.22744e-17
1.31246e-17
1.24955e-17
1.36851e-17
1.33244e-17
1.45089e-17
1.41565e-17
1.77011e-17
1.22578e-17
2.44379e-17
1.32331e-17
2.59432e-17
3.24391e-17
9.35374e-18
8.79925e-17
1.88021e-16
3.75233e-17
2.04041e-17
2.26506e-17
2.8451e-17
2.95913e-17
2.91205e-17
2.69335e-17
2.62927e-17
2.4684e-17
2.43003e-17
2.28693e-17
2.28168e-17
2.14725e-17
2.1415e-17
2.00087e-17
2.01511e-17
1.91586e-17
1.88698e-17
1.83488e-17
1.78732e-17
1.73121e-17
1.73136e-17
1.59997e-17
1.69228e-17
1.49843e-17
1.6404e-17
1.43876e-17
1.56845e-17
1.39902e-17
1.49358e-17
1.36643e-17
1.42701e-17
1.33729e-17
1.36726e-17
1.31473e-17
1.32123e-17
1.28914e-17
1.29158e-17
1.25909e-17
1.27434e-17
1.24335e-17
1.26627e-17
1.24156e-17
1.27161e-17
1.22568e-17
1.30928e-17
1.24686e-17
1.36371e-17
1.32823e-17
1.44303e-17
1.41002e-17
1.7517e-17
1.22773e-17
2.38727e-17
1.35063e-17
2.4632e-17
3.26877e-17
8.9321e-18
8.39982e-17
1.94095e-16
3.52152e-17
1.93081e-17
2.1904e-17
2.77581e-17
2.90843e-17
2.86915e-17
2.65946e-17
2.60083e-17
2.44615e-17
2.41121e-17
2.27147e-17
2.26746e-17
2.13546e-17
2.13027e-17
1.99168e-17
2.00571e-17
1.90845e-17
1.87975e-17
1.82851e-17
1.78167e-17
1.72586e-17
1.72701e-17
1.59567e-17
1.68879e-17
1.49491e-17
1.6375e-17
1.43579e-17
1.56615e-17
1.39649e-17
1.4917e-17
1.36427e-17
1.42531e-17
1.33548e-17
1.36576e-17
1.31308e-17
1.31986e-17
1.28756e-17
1.2902e-17
1.25768e-17
1.27266e-17
1.24197e-17
1.26407e-17
1.24019e-17
1.26894e-17
1.22382e-17
1.30587e-17
1.2441e-17
1.35861e-17
1.32403e-17
1.43472e-17
1.4046e-17
1.73276e-17
1.23005e-17
2.33139e-17
1.37841e-17
2.33788e-17
3.29638e-17
8.56865e-18
8.02607e-17
2.00012e-16
3.30429e-17
1.83436e-17
2.1188e-17
2.70731e-17
2.85777e-17
2.8262e-17
2.62525e-17
2.57192e-17
2.4233e-17
2.39176e-17
2.25543e-17
2.2527e-17
2.12321e-17
2.1186e-17
1.98211e-17
1.99595e-17
1.90068e-17
1.87224e-17
1.8218e-17
1.77579e-17
1.7202e-17
1.72246e-17
1.59113e-17
1.68507e-17
1.49124e-17
1.63434e-17
1.43271e-17
1.5636e-17
1.39388e-17
1.48959e-17
1.36203e-17
1.4234e-17
1.33359e-17
1.36407e-17
1.31134e-17
1.31833e-17
1.28588e-17
1.28867e-17
1.25618e-17
1.27083e-17
1.2405e-17
1.26171e-17
1.23871e-17
1.26611e-17
1.22187e-17
1.30225e-17
1.24127e-17
1.35322e-17
1.31982e-17
1.426e-17
1.39935e-17
1.71344e-17
1.23266e-17
2.27632e-17
1.40641e-17
2.21864e-17
3.32512e-17
8.26984e-18
7.67868e-17
2.05569e-16
3.10132e-17
1.75134e-17
2.05024e-17
2.63976e-17
2.80723e-17
2.7833e-17
2.59082e-17
2.54263e-17
2.39995e-17
2.37177e-17
2.23887e-17
2.23747e-17
2.11054e-17
2.10655e-17
1.97221e-17
1.98587e-17
1.89259e-17
1.86446e-17
1.81477e-17
1.76971e-17
1.71424e-17
1.71772e-17
1.58637e-17
1.68112e-17
1.48743e-17
1.63093e-17
1.42954e-17
1.56079e-17
1.39118e-17
1.48725e-17
1.35971e-17
1.4213e-17
1.33162e-17
1.36221e-17
1.30952e-17
1.31664e-17
1.28412e-17
1.28698e-17
1.25459e-17
1.26885e-17
1.23893e-17
1.2592e-17
1.23712e-17
1.26311e-17
1.2198e-17
1.29843e-17
1.23834e-17
1.34757e-17
1.31561e-17
1.41693e-17
1.39423e-17
1.69382e-17
1.23546e-17
2.22219e-17
1.43436e-17
2.10563e-17
3.35325e-17
8.03875e-18
7.357e-17
2.10578e-16
2.91298e-17
1.68151e-17
1.9847e-17
2.57329e-17
2.75685e-17
2.74052e-17
2.55628e-17
2.51308e-17
2.37618e-17
2.3513e-17
2.22186e-17
2.22182e-17
2.09749e-17
2.09417e-17
1.96199e-17
1.97551e-17
1.88419e-17
1.85646e-17
1.80744e-17
1.76347e-17
1.70801e-17
1.71281e-17
1.58141e-17
1.67696e-17
1.4835e-17
1.62725e-17
1.42631e-17
1.55773e-17
1.38844e-17
1.4847e-17
1.35733e-17
1.419e-17
1.32958e-17
1.36019e-17
1.30763e-17
1.31479e-17
1.28227e-17
1.28515e-17
1.2529e-17
1.26673e-17
1.23725e-17
1.25656e-17
1.2354e-17
1.25996e-17
1.21763e-17
1.29443e-17
1.23533e-17
1.34165e-17
1.31138e-17
1.40753e-17
1.3892e-17
1.67401e-17
1.23838e-17
2.16911e-17
1.46203e-17
1.99889e-17
3.37902e-17
7.87539e-18
7.05933e-17
2.14866e-16
2.73942e-17
1.62422e-17
1.92213e-17
2.50804e-17
2.70669e-17
2.69792e-17
2.52171e-17
2.48337e-17
2.35208e-17
2.33046e-17
2.20446e-17
2.20581e-17
2.0841e-17
2.08148e-17
1.9515e-17
1.96489e-17
1.87552e-17
1.84827e-17
1.79984e-17
1.75709e-17
1.70152e-17
1.70775e-17
1.57628e-17
1.67258e-17
1.47949e-17
1.62333e-17
1.42303e-17
1.55442e-17
1.38565e-17
1.48193e-17
1.3549e-17
1.41652e-17
1.32748e-17
1.358e-17
1.30566e-17
1.31281e-17
1.28033e-17
1.28319e-17
1.25112e-17
1.26447e-17
1.23546e-17
1.25378e-17
1.23355e-17
1.25667e-17
1.21534e-17
1.29025e-17
1.23224e-17
1.3355e-17
1.30713e-17
1.39787e-17
1.3842e-17
1.6541e-17
1.24134e-17
2.11716e-17
1.48915e-17
1.89837e-17
3.40083e-17
7.77773e-18
6.78325e-17
2.18283e-16
2.5806e-17
1.57843e-17
1.86249e-17
2.44413e-17
2.65681e-17
2.65557e-17
2.48719e-17
2.45358e-17
2.32775e-17
2.3093e-17
2.18672e-17
2.18947e-17
2.07042e-17
2.06855e-17
1.94078e-17
1.95407e-17
1.86661e-17
1.83991e-17
1.79198e-17
1.75058e-17
1.6948e-17
1.70254e-17
1.57099e-17
1.668e-17
1.4754e-17
1.61917e-17
1.41971e-17
1.55088e-17
1.38283e-17
1.47895e-17
1.35242e-17
1.41387e-17
1.32532e-17
1.35565e-17
1.30361e-17
1.31068e-17
1.27831e-17
1.2811e-17
1.24924e-17
1.26209e-17
1.23357e-17
1.25087e-17
1.23157e-17
1.25325e-17
1.21293e-17
1.28589e-17
1.22907e-17
1.32911e-17
1.30285e-17
1.38797e-17
1.3792e-17
1.63417e-17
1.24429e-17
2.0664e-17
1.51545e-17
1.80397e-17
3.41724e-17
7.74217e-18
6.5259e-17
2.20708e-16
2.43628e-17
1.54288e-17
1.80574e-17
2.3817e-17
2.60727e-17
2.61353e-17
2.4528e-17
2.42379e-17
2.30326e-17
2.28792e-17
2.16871e-17
2.17287e-17
2.05648e-17
2.0554e-17
1.92985e-17
1.94308e-17
1.85749e-17
1.8314e-17
1.78389e-17
1.74398e-17
1.68787e-17
1.69722e-17
1.56558e-17
1.66323e-17
1.47127e-17
1.61477e-17
1.41638e-17
1.54711e-17
1.37998e-17
1.47577e-17
1.34991e-17
1.41104e-17
1.3231e-17
1.35317e-17
1.30149e-17
1.30842e-17
1.27621e-17
1.27889e-17
1.24727e-17
1.2596e-17
1.23157e-17
1.24785e-17
1.22947e-17
1.2497e-17
1.2104e-17
1.28137e-17
1.22583e-17
1.3225e-17
1.29855e-17
1.3779e-17
1.37418e-17
1.61428e-17
1.24718e-17
2.0169e-17
1.5407e-17
1.71554e-17
3.42695e-17
7.76436e-18
6.28395e-17
2.22047e-16
2.30612e-17
1.5161e-17
1.75187e-17
2.32084e-17
2.55812e-17
2.57184e-17
2.41861e-17
2.39408e-17
2.27869e-17
2.26637e-17
2.15048e-17
2.15606e-17
2.04232e-17
2.04207e-17
1.91875e-17
1.93194e-17
1.84818e-17
1.82279e-17
1.77559e-17
1.7373e-17
1.68076e-17
1.69178e-17
1.56006e-17
1.65828e-17
1.46711e-17
1.61016e-17
1.41305e-17
1.54312e-17
1.37713e-17
1.47241e-17
1.34737e-17
1.40806e-17
1.32084e-17
1.35054e-17
1.29931e-17
1.30605e-17
1.27402e-17
1.27657e-17
1.2452e-17
1.25699e-17
1.22946e-17
1.24472e-17
1.22724e-17
1.24604e-17
1.20777e-17
1.2767e-17
1.22253e-17
1.3157e-17
1.29421e-17
1.3677e-17
1.36911e-17
1.5945e-17
1.24998e-17
1.96871e-17
1.56466e-17
1.63289e-17
3.4289e-17
7.83986e-18
6.05399e-17
2.2224e-16
2.18963e-17
1.49652e-17
1.70085e-17
2.26167e-17
2.50945e-17
2.53057e-17
2.38468e-17
2.36451e-17
2.2541e-17
2.24472e-17
2.1321e-17
2.13908e-17
2.02799e-17
2.0286e-17
1.90751e-17
1.9207e-17
1.83872e-17
1.81408e-17
1.76712e-17
1.73055e-17
1.67348e-17
1.68625e-17
1.55445e-17
1.65317e-17
1.46293e-17
1.60534e-17
1.40972e-17
1.53893e-17
1.37428e-17
1.46886e-17
1.3448e-17
1.40493e-17
1.31853e-17
1.34779e-17
1.29706e-17
1.30356e-17
1.27175e-17
1.27414e-17
1.24304e-17
1.25429e-17
1.22726e-17
1.2415e-17
1.22488e-17
1.24228e-17
1.20504e-17
1.27188e-17
1.21918e-17
1.30872e-17
1.28984e-17
1.35741e-17
1.36397e-17
1.5749e-17
1.25267e-17
1.92189e-17
1.5871e-17
1.55586e-17
3.42238e-17
7.96439e-18
5.83268e-17
2.21265e-16
2.08629e-17
1.48257e-17
1.65263e-17
2.20429e-17
2.46132e-17
2.48976e-17
2.35106e-17
2.33514e-17
2.22958e-17
2.22305e-17
2.11362e-17
2.12199e-17
2.01352e-17
2.01501e-17
1.89616e-17
1.90937e-17
1.82913e-17
1.80531e-17
1.7585e-17
1.72375e-17
1.66607e-17
1.68063e-17
1.54879e-17
1.64789e-17
1.45875e-17
1.60032e-17
1.4064e-17
1.53454e-17
1.37143e-17
1.46516e-17
1.34222e-17
1.40166e-17
1.31618e-17
1.34493e-17
1.29475e-17
1.30098e-17
1.26941e-17
1.27162e-17
1.2408e-17
1.25149e-17
1.22496e-17
1.23819e-17
1.22241e-17
1.23844e-17
1.20222e-17
1.26693e-17
1.21579e-17
1.30159e-17
1.28544e-17
1.34709e-17
1.35877e-17
1.55553e-17
1.25522e-17
1.8765e-17
1.60783e-17
1.48426e-17
3.40694e-17
8.13407e-18
5.61701e-17
2.19132e-16
1.99539e-17
1.47273e-17
1.60719e-17
2.14879e-17
2.41382e-17
2.44949e-17
2.31783e-17
2.30602e-17
2.20516e-17
2.20141e-17
2.09509e-17
2.10482e-17
1.99894e-17
2.00135e-17
1.88474e-17
1.898e-17
1.81944e-17
1.7965e-17
1.74974e-17
1.71693e-17
1.65854e-17
1.67492e-17
1.54309e-17
1.64248e-17
1.45458e-17
1.59513e-17
1.4031e-17
1.52999e-17
1.36859e-17
1.4613e-17
1.33963e-17
1.39827e-17
1.3138e-17
1.34196e-17
1.29239e-17
1.2983e-17
1.267e-17
1.26902e-17
1.23849e-17
1.24861e-17
1.22258e-17
1.23482e-17
1.21983e-17
1.23452e-17
1.19933e-17
1.26186e-17
1.21239e-17
1.29434e-17
1.28102e-17
1.33678e-17
1.3535e-17
1.53645e-17
1.25761e-17
1.83258e-17
1.62667e-17
1.41792e-17
3.3824e-17
8.34529e-18
5.40418e-17
2.15879e-16
1.9162e-17
1.46565e-17
1.56448e-17
2.09523e-17
2.36701e-17
2.40979e-17
2.28503e-17
2.27721e-17
2.18091e-17
2.17986e-17
2.07658e-17
2.08763e-17
1.98431e-17
1.98764e-17
1.87326e-17
1.88659e-17
1.80967e-17
1.78767e-17
1.74088e-17
1.71008e-17
1.65093e-17
1.66915e-17
1.53736e-17
1.63693e-17
1.45044e-17
1.58978e-17
1.39984e-17
1.52528e-17
1.36576e-17
1.4573e-17
1.33704e-17
1.39477e-17
1.31139e-17
1.3389e-17
1.28997e-17
1.29554e-17
1.26453e-17
1.26634e-17
1.2361e-17
1.24566e-17
1.22011e-17
1.23138e-17
1.21716e-17
1.23054e-17
1.19638e-17
1.25668e-17
1.20899e-17
1.287e-17
1.27658e-17
1.32654e-17
1.34817e-17
1.51769e-17
1.25984e-17
1.7902e-17
1.64349e-17
1.35669e-17
3.34884e-17
8.59494e-18
5.19188e-17
2.11575e-16
1.84787e-17
1.46009e-17
1.52447e-17
2.04368e-17
2.32098e-17
2.37072e-17
2.25272e-17
2.24874e-17
2.15688e-17
2.15843e-17
2.05812e-17
2.07044e-17
1.96964e-17
1.97391e-17
1.86175e-17
1.87518e-17
1.79985e-17
1.77884e-17
1.73194e-17
1.70322e-17
1.64326e-17
1.66331e-17
1.53163e-17
1.63126e-17
1.44634e-17
1.58429e-17
1.39661e-17
1.52042e-17
1.36296e-17
1.45318e-17
1.33445e-17
1.39117e-17
1.30896e-17
1.33576e-17
1.28752e-17
1.29272e-17
1.26201e-17
1.2636e-17
1.23366e-17
1.24265e-17
1.21758e-17
1.22789e-17
1.2144e-17
1.22651e-17
1.1934e-17
1.25142e-17
1.2056e-17
1.2796e-17
1.27213e-17
1.31639e-17
1.3428e-17
1.49932e-17
1.26188e-17
1.7494e-17
1.65815e-17
1.30044e-17
3.30662e-17
8.88008e-18
4.97821e-17
2.06311e-16
1.78953e-17
1.45502e-17
1.4871e-17
1.99419e-17
2.2758e-17
2.33233e-17
2.22093e-17
2.22066e-17
2.1331e-17
2.13719e-17
2.03976e-17
2.05332e-17
1.95498e-17
1.96019e-17
1.85024e-17
1.86379e-17
1.79e-17
1.77003e-17
1.72295e-17
1.69636e-17
1.63554e-17
1.65743e-17
1.52592e-17
1.62549e-17
1.44228e-17
1.57867e-17
1.39342e-17
1.51544e-17
1.36019e-17
1.44895e-17
1.33186e-17
1.38747e-17
1.30652e-17
1.33255e-17
1.28503e-17
1.28983e-17
1.25944e-17
1.2608e-17
1.23117e-17
1.23959e-17
1.215e-17
1.22437e-17
1.21158e-17
1.22244e-17
1.1904e-17
1.24609e-17
1.20223e-17
1.27218e-17
1.26769e-17
1.30638e-17
1.33741e-17
1.48136e-17
1.26373e-17
1.71025e-17
1.67056e-17
1.24905e-17
3.25631e-17
9.19779e-18
4.76195e-17
2.00199e-16
1.74022e-17
1.44964e-17
1.45232e-17
1.9468e-17
2.23154e-17
2.29468e-17
2.18973e-17
2.19301e-17
2.10962e-17
2.11615e-17
2.02153e-17
2.03628e-17
1.94036e-17
1.9465e-17
1.83875e-17
1.85244e-17
1.78014e-17
1.76125e-17
1.71393e-17
1.68951e-17
1.6278e-17
1.65149e-17
1.52022e-17
1.61963e-17
1.43827e-17
1.57294e-17
1.39028e-17
1.51035e-17
1.35744e-17
1.44462e-17
1.32929e-17
1.38371e-17
1.30406e-17
1.32928e-17
1.28251e-17
1.2869e-17
1.25684e-17
1.25795e-17
1.22863e-17
1.2365e-17
1.21237e-17
1.22083e-17
1.20871e-17
1.21835e-17
1.18739e-17
1.24071e-17
1.19891e-17
1.26477e-17
1.26326e-17
1.29655e-17
1.33201e-17
1.46387e-17
1.26538e-17
1.67279e-17
1.68068e-17
1.20243e-17
3.19862e-17
9.54466e-18
4.54233e-17
1.93362e-16
1.69899e-17
1.44336e-17
1.42008e-17
1.90153e-17
2.18827e-17
2.25781e-17
2.15914e-17
2.16581e-17
2.08646e-17
2.09537e-17
2.00349e-17
2.01936e-17
1.92582e-17
1.93287e-17
1.8273e-17
1.84114e-17
1.77029e-17
1.75252e-17
1.70489e-17
1.68268e-17
1.62006e-17
1.64552e-17
1.51457e-17
1.61369e-17
1.43432e-17
1.56712e-17
1.38719e-17
1.50517e-17
1.35473e-17
1.4402e-17
1.32673e-17
1.37988e-17
1.30161e-17
1.32596e-17
1.27998e-17
1.28393e-17
1.25421e-17
1.25508e-17
1.22607e-17
1.23338e-17
1.2097e-17
1.21729e-17
1.2058e-17
1.21426e-17
1.1844e-17
1.2353e-17
1.19563e-17
1.25741e-17
1.25886e-17
1.28692e-17
1.32663e-17
1.44687e-17
1.26682e-17
1.63706e-17
1.68845e-17
1.16048e-17
3.13436e-17
9.91708e-18
4.31917e-17
1.85932e-16
1.66481e-17
1.43578e-17
1.39031e-17
1.85839e-17
2.14605e-17
2.22176e-17
2.12921e-17
2.13909e-17
2.06366e-17
2.07486e-17
1.98565e-17
2.00259e-17
1.91137e-17
1.91932e-17
1.81591e-17
1.82992e-17
1.76047e-17
1.74384e-17
1.69587e-17
1.67588e-17
1.61233e-17
1.63953e-17
1.50897e-17
1.60769e-17
1.43044e-17
1.56123e-17
1.38415e-17
1.49992e-17
1.35206e-17
1.43572e-17
1.3242e-17
1.376e-17
1.29915e-17
1.32261e-17
1.27743e-17
1.28094e-17
1.25157e-17
1.25217e-17
1.22349e-17
1.23024e-17
1.20701e-17
1.21374e-17
1.20287e-17
1.21017e-17
1.18144e-17
1.22989e-17
1.19242e-17
1.25011e-17
1.2545e-17
1.27752e-17
1.32128e-17
1.4304e-17
1.26802e-17
1.60309e-17
1.69388e-17
1.12313e-17
3.06447e-17
1.03107e-17
4.09264e-17
1.78045e-16
1.63669e-17
1.42664e-17
1.36294e-17
1.81737e-17
2.10493e-17
2.18657e-17
2.09997e-17
2.11288e-17
2.04123e-17
2.05465e-17
1.96803e-17
1.98599e-17
1.89704e-17
1.90586e-17
1.8046e-17
1.81878e-17
1.75069e-17
1.73523e-17
1.68688e-17
1.66911e-17
1.60465e-17
1.63351e-17
1.50342e-17
1.60163e-17
1.42662e-17
1.55527e-17
1.38116e-17
1.4946e-17
1.34943e-17
1.43118e-17
1.32169e-17
1.37208e-17
1.2967e-17
1.31924e-17
1.27488e-17
1.27792e-17
1.24892e-17
1.24925e-17
1.2209e-17
1.2271e-17
1.20432e-17
1.21021e-17
1.19993e-17
1.20609e-17
1.17853e-17
1.22449e-17
1.18929e-17
1.24291e-17
1.2502e-17
1.26838e-17
1.31598e-17
1.4145e-17
1.26899e-17
1.57092e-17
1.69696e-17
1.0903e-17
2.9899e-17
1.07207e-17
3.86344e-17
1.69838e-16
1.61366e-17
1.41589e-17
1.33791e-17
1.77847e-17
2.06496e-17
2.15227e-17
2.07144e-17
2.0872e-17
2.01921e-17
2.03476e-17
1.95068e-17
1.96959e-17
1.88286e-17
1.89253e-17
1.79338e-17
1.80773e-17
1.74096e-17
1.7267e-17
1.67793e-17
1.66238e-17
1.59701e-17
1.62748e-17
1.49795e-17
1.59554e-17
1.42287e-17
1.54927e-17
1.37824e-17
1.48924e-17
1.34684e-17
1.4266e-17
1.31922e-17
1.36813e-17
1.29427e-17
1.31584e-17
1.27233e-17
1.27489e-17
1.24627e-17
1.24633e-17
1.21831e-17
1.22397e-17
1.20162e-17
1.20671e-17
1.197e-17
1.20205e-17
1.17567e-17
1.21913e-17
1.18623e-17
1.23584e-17
1.24598e-17
1.25951e-17
1.31075e-17
1.39919e-17
1.26971e-17
1.54057e-17
1.69774e-17
1.06189e-17
2.91157e-17
1.1141e-17
3.63263e-17
1.61441e-16
1.59477e-17
1.4036e-17
1.31513e-17
1.74166e-17
2.02619e-17
2.1189e-17
2.04366e-17
2.06206e-17
1.9976e-17
2.01521e-17
1.93359e-17
1.95342e-17
1.86885e-17
1.87933e-17
1.78226e-17
1.7968e-17
1.7313e-17
1.71826e-17
1.66905e-17
1.65569e-17
1.58944e-17
1.62144e-17
1.49255e-17
1.58942e-17
1.4192e-17
1.54324e-17
1.37538e-17
1.48384e-17
1.34431e-17
1.42199e-17
1.31677e-17
1.36417e-17
1.29186e-17
1.31244e-17
1.26979e-17
1.27186e-17
1.24363e-17
1.24341e-17
1.21573e-17
1.22085e-17
1.19894e-17
1.20323e-17
1.1941e-17
1.19805e-17
1.17289e-17
1.21382e-17
1.18327e-17
1.22893e-17
1.24184e-17
1.25093e-17
1.30561e-17
1.38448e-17
1.27016e-17
1.51203e-17
1.69626e-17
1.03781e-17
2.83038e-17
1.15653e-17
3.40162e-17
1.52979e-16
1.57907e-17
1.38991e-17
1.29455e-17
1.70691e-17
1.98864e-17
2.08647e-17
2.01664e-17
2.03749e-17
1.97641e-17
1.99601e-17
1.9168e-17
1.93747e-17
1.85502e-17
1.86628e-17
1.77127e-17
1.78598e-17
1.72173e-17
1.7099e-17
1.66024e-17
1.64905e-17
1.58195e-17
1.6154e-17
1.48723e-17
1.58329e-17
1.41561e-17
1.5372e-17
1.37258e-17
1.47842e-17
1.34182e-17
1.41736e-17
1.31437e-17
1.36019e-17
1.28947e-17
1.30904e-17
1.26727e-17
1.26884e-17
1.24101e-17
1.2405e-17
1.21317e-17
1.21776e-17
1.19628e-17
1.1998e-17
1.19123e-17
1.1941e-17
1.17019e-17
1.20859e-17
1.1804e-17
1.22218e-17