/*--------------------------------*- C++ -*----------------------------------*\
| =========                 |                                                 |
| \\      /  F ield         | OpenFOAM: The Open Source CFD Toolbox           |
|  \\    /   O peration     | Version:  2312                                  |
|   \\  /    A nd           | Website:  www.openfoam.com                      |
|    \\/     M anipulation  |                                                 |
\*---------------------------------------------------------------------------*/
FoamFile
{
    version     2.0;
    format      ascii;
    arch        "LSB;label=32;scalar=64";
    class       volScalarField;
    location    "160";
    object      nut;
}
// * * * * * * * * * * * * * * * * * * * * * * * * * * * * * * * * * * * * * //

dimensions      [0 2 -1 0 0 0 0];

internalField   nonuniform List<scalar> 
144000
(
3.8083e-25
4.54373e-25
3.53852e-27
4.38363e-28
4.6788e-27
4.32263e-31
1.26773e-27
8.67806e-28
1.39024e-27
6.14304e-28
7.04349e-28
4.20297e-28
5.373e-28
3.96701e-28
5.80763e-28
7.55139e-28
1.30867e-27
1.26088e-27
1.01559e-27
8.87872e-28
9.70882e-28
9.84112e-28
8.16299e-28
7.96289e-28
1.03073e-27
1.68239e-27
2.41966e-27
2.44475e-27
1.7713e-27
1.08677e-27
6.40713e-28
6.85752e-28
1.12218e-27
1.94456e-27
2.23516e-27
2.28071e-27
1.88202e-27
1.62862e-27
1.23442e-27
8.30383e-28
7.26463e-28
8.7131e-28
1.56617e-27
1.42394e-27
1.42213e-27
1.38714e-27
1.11149e-27
8.119e-28
4.09345e-28
1.61857e-28
1.43827e-29
8.10612e-32
2.5575e-29
5.31475e-28
2.82787e-27
2.98686e-27
3.08057e-25
7.33963e-24
9.819e-24
5.30865e-25
1.35367e-23
5.95304e-25
4.35926e-25
4.4258e-26
6.81523e-27
5.61022e-30
1.85929e-27
2.34043e-27
1.9811e-27
2.07137e-27
1.1309e-27
1.43259e-27
9.81954e-28
1.22843e-27
1.14755e-27
1.81815e-27
2.48076e-27
2.91009e-27
2.17829e-27
2.04644e-27
2.13557e-27
2.29308e-27
1.82304e-27
1.88261e-27
2.18795e-27
3.588e-27
4.68435e-27
5.18183e-27
3.76059e-27
2.56631e-27
1.62966e-27
1.61594e-27
2.49466e-27
3.89321e-27
4.55845e-27
4.4467e-27
3.97449e-27
3.39956e-27
2.71132e-27
1.99926e-27
1.6689e-27
2.08828e-27
3.00632e-27
2.56236e-27
2.80741e-27
2.59177e-27
2.09512e-27
1.372e-27
7.52017e-28
2.43665e-28
2.31134e-29
4.70211e-31
1.02357e-28
1.77969e-27
7.77083e-27
1.17188e-26
5.56781e-25
2.49629e-23
5.34174e-23
1.04261e-24
2.86035e-23
1.09605e-23
1.87487e-24
5.43431e-25
1.62994e-26
1.19639e-30
2.16241e-27
3.85005e-27
2.75442e-27
2.96898e-27
1.78957e-27
1.97363e-27
1.54821e-27
1.65431e-27
1.73802e-27
2.52563e-27
3.66911e-27
4.06088e-27
3.23787e-27
2.94112e-27
3.12569e-27
3.26506e-27
2.67408e-27
2.70805e-27
3.14309e-27
5.14745e-27
6.69426e-27
7.43e-27
5.45604e-27
3.78416e-27
2.35584e-27
2.40871e-27
3.50598e-27
5.60111e-27
6.45422e-27
6.50798e-27
5.6891e-27
5.07103e-27
3.99444e-27
3.01729e-27
2.53074e-27
3.04626e-27
4.16678e-27
3.69588e-27
4.17343e-27
3.68842e-27
3.05297e-27
2.03621e-27
1.10242e-27
3.76694e-28
3.31413e-29
4.89208e-31
1.39099e-28
2.07379e-27
9.19304e-27
1.50597e-26
1.4228e-24
4.19779e-23
6.32199e-23
1.65061e-23
6.56463e-23
6.56e-23
4.21389e-24
3.41487e-24
1.82501e-26
2.94791e-31
2.78155e-27
4.11773e-27
3.15485e-27
3.07106e-27
1.94254e-27
1.94205e-27
1.63181e-27
1.64101e-27
1.86353e-27
2.64983e-27
3.99676e-27
4.35681e-27
3.39779e-27
3.02847e-27
3.22091e-27
3.38495e-27
2.74006e-27
2.76788e-27
3.31664e-27
5.53008e-27
7.32229e-27
8.0043e-27
5.69656e-27
3.81431e-27
2.25911e-27
2.38753e-27
3.56628e-27
6.17058e-27
6.91589e-27
7.17172e-27
6.00088e-27
5.42395e-27
4.11878e-27
3.08662e-27
2.51462e-27
3.25532e-27
4.21058e-27
4.07493e-27
4.60547e-27
3.9901e-27
3.38705e-27
2.20812e-27
1.24263e-27
4.24113e-28
4.68e-29
1.64875e-30
9.53044e-29
1.72389e-27
6.51778e-27
1.22813e-26
2.09013e-24
7.06179e-23
8.26756e-23
9.51368e-23
8.43653e-23
2.21455e-22
4.38847e-24
1.08756e-23
4.37369e-26
1.92633e-30
3.64611e-27
4.76568e-27
3.44962e-27
3.47078e-27
1.96742e-27
2.1127e-27
1.65591e-27
1.78673e-27
1.96469e-27
2.95125e-27
4.38421e-27
4.87014e-27
3.56928e-27
3.23255e-27
3.39002e-27
3.60352e-27
2.84603e-27
2.91743e-27
3.59998e-27
6.13404e-27
8.2033e-27
8.82166e-27
6.02176e-27
3.91639e-27
2.20991e-27
2.42933e-27
3.81714e-27
6.94605e-27
7.62483e-27
8.02827e-27
6.48216e-27
5.85785e-27
4.2406e-27
3.12838e-27
2.4639e-27
3.28536e-27
4.36407e-27
4.72848e-27
5.07416e-27
4.47793e-27
3.74529e-27
2.49984e-27
1.44016e-27
5.35962e-28
7.90721e-29
1.13839e-29
6.97662e-29
1.38044e-27
4.32843e-27
9.08573e-27
3.23118e-24
1.13331e-22
1.00926e-22
3.01318e-22
7.98195e-23
5.09694e-22
2.8985e-24
2.384e-23
1.29878e-25
7.04623e-30
5.47966e-27
5.57859e-27
3.93157e-27
4.03615e-27
2.0599e-27
2.38171e-27
1.73154e-27
2.01239e-27
2.13565e-27
3.40119e-27
4.98534e-27
5.6243e-27
3.8684e-27
3.60857e-27
3.6987e-27
3.9908e-27
3.06268e-27
3.22289e-27
4.06909e-27
7.10021e-27
9.51091e-27
1.00709e-26
6.58343e-27
4.16866e-27
2.24934e-27
2.58784e-27
4.30338e-27
8.08418e-27
8.74843e-27
9.2703e-27
7.25071e-27
6.48843e-27
4.44443e-27
3.18451e-27
2.39435e-27
3.61332e-27
4.85648e-27
5.71554e-27
5.79213e-27
5.26814e-27
4.28813e-27
3.05024e-27
1.78845e-27
7.8684e-28
1.71147e-28
7.96243e-29
1.11001e-28
1.16858e-27
2.96755e-27
5.02725e-27
4.40088e-24
1.63137e-22
1.3503e-22
6.38295e-22
7.7562e-23
9.18525e-22
1.45002e-24
4.14041e-23
3.72159e-25
9.19803e-30
9.5875e-27
6.18031e-27
4.68723e-27
4.66744e-27
2.25568e-27
2.65398e-27
1.88517e-27
2.26212e-27
2.39063e-27
3.97597e-27
5.78059e-27
6.54878e-27
4.27437e-27
4.09982e-27
4.11442e-27
4.4924e-27
3.35528e-27
3.64514e-27
4.69057e-27
8.3859e-27
1.11952e-26
1.16599e-26
7.28342e-27
4.49704e-27
2.32736e-27
2.81203e-27
4.96398e-27
9.51978e-27
1.02167e-26
1.08323e-26
8.24e-27
7.24264e-27
4.69564e-27
3.25842e-27
2.34952e-27
3.86333e-27
5.52576e-27
7.11589e-27
6.80275e-27
6.35599e-27
5.09074e-27
3.94783e-27
2.41929e-27
1.32504e-27
4.6028e-28
4.39557e-28
5.63935e-28
2.0856e-27
6.31579e-27
1.31971e-26
4.97171e-24
2.18399e-22
2.36501e-22
1.04272e-21
7.63549e-23
1.41489e-21
1.0048e-24
6.15869e-23
9.69194e-25
5.46101e-30
1.71468e-26
6.60322e-27
5.61231e-27
5.48755e-27
2.51285e-27
2.95527e-27
2.10972e-27
2.55245e-27
2.72777e-27
4.66676e-27
6.76057e-27
7.63381e-27
4.77614e-27
4.68914e-27
4.63099e-27
5.09912e-27
3.71669e-27
4.17725e-27
5.46718e-27
9.98184e-27
1.3218e-26
1.35674e-26
8.08966e-27
4.86535e-27
2.4247e-27
3.07619e-27
5.78086e-27
1.12594e-26
1.20456e-26
1.27258e-26
9.46753e-27
8.11711e-27
4.99689e-27
3.32518e-27
2.28638e-27
4.29066e-27
6.36452e-27
8.93506e-27
8.20357e-27
7.86467e-27
6.30467e-27
5.41649e-27
3.61175e-27
2.53838e-27
1.41932e-27
1.94304e-27
3.10722e-27
8.70973e-27
3.51082e-26
9.30765e-26
5.14285e-24
2.81539e-22
4.3571e-22
1.42533e-21
9.99252e-23
1.92294e-21
1.98415e-24
8.02836e-23
2.16984e-24
2.33274e-28
3.11152e-26
6.56034e-27
6.76103e-27
6.61718e-27
2.81328e-27
3.33462e-27
2.40901e-27
2.91711e-27
3.13236e-27
5.50134e-27
7.96776e-27
8.91749e-27
5.38721e-27
5.40541e-27
5.28451e-27
5.83278e-27
4.15461e-27
4.84662e-27
6.4192e-27
1.19284e-26
1.56449e-26
1.58243e-26
8.99654e-27
5.29016e-27
2.54626e-27
3.39607e-27
6.79967e-27
1.33706e-26
1.43066e-26
1.50654e-26
1.10404e-26
9.22196e-27
5.45611e-27
3.48241e-27
2.29663e-27
4.98446e-27
7.11617e-27
1.14458e-26
1.02508e-26
1.00412e-26
8.15038e-27
7.87923e-27
5.89e-27
5.14655e-27
4.01855e-27
7.13063e-27
1.3434e-26
3.72861e-26
1.59115e-25
4.40757e-25
4.62526e-24
3.56445e-22
8.38319e-22
1.62352e-21
1.77137e-22
2.51246e-21
5.059e-24
9.65379e-23
4.36329e-24
3.47905e-27
5.31621e-26
6.1313e-27
8.15146e-27
8.23888e-27
3.15524e-27
3.84349e-27
2.77618e-27
3.39213e-27
3.60217e-27
6.51625e-27
9.41574e-27
1.04637e-26
6.13868e-27
6.29382e-27
6.08318e-27
6.72312e-27
4.69562e-27
5.68433e-27
7.5731e-27
1.42828e-26
1.84856e-26
1.85234e-26
1.00574e-26
5.78886e-27
2.70408e-27
3.78783e-27
8.03062e-27
1.59496e-26
1.71257e-26
1.80065e-26
1.31275e-26
1.07218e-26
6.18027e-27
3.86081e-27
2.66855e-27
4.93142e-27
7.31485e-27
1.48957e-26
1.32936e-26
1.31741e-26
1.10373e-26
1.19828e-26
1.00518e-26
1.03191e-26
9.89609e-27
2.1586e-26
4.48317e-26
1.257e-25
5.19665e-25
1.39661e-24
3.70616e-24
4.57258e-22
1.55154e-21
1.6233e-21
3.75129e-22
3.03515e-21
1.18789e-23
1.115e-22
7.74552e-24
2.22003e-26
8.638e-26
5.10845e-27
1.01595e-26
1.04208e-26
3.58879e-27
4.49597e-27
3.22244e-27
3.99857e-27
4.14457e-27
7.76495e-27
1.11807e-26
1.23471e-26
7.06045e-27
7.4132e-27
7.07059e-27
7.80793e-27
5.34832e-27
6.7405e-27
8.94652e-27
1.71441e-26
2.18762e-26
2.17796e-26
1.13018e-26
6.39995e-27
2.89265e-27
4.26412e-27
9.51247e-27
1.90678e-26
2.05844e-26
2.17257e-26
1.5835e-26
1.25872e-26
7.09237e-27
4.31414e-27
2.82325e-27
5.85503e-27
7.99284e-27
1.84909e-26
1.83876e-26
1.74057e-26
1.57584e-26
1.85528e-26
1.75375e-26
2.03613e-26
2.33712e-26
5.44166e-26
1.21192e-25
3.36661e-25
1.30973e-24
3.32166e-24
2.62016e-24
6.19659e-22
2.83879e-21
1.4706e-21
7.29449e-22
3.44342e-21
2.77574e-23
1.38429e-22
1.20032e-23
9.10529e-26
1.32625e-25
3.78543e-27
1.31742e-26
1.3396e-26
4.11204e-27
5.34865e-27
3.73302e-27
4.79135e-27
4.79711e-27
9.31644e-27
1.33413e-26
1.46753e-26
8.18764e-27
8.82609e-27
8.27192e-27
9.1417e-27
6.12606e-27
8.08136e-27
1.05961e-26
2.06818e-26
2.5941e-26
2.57796e-26
1.27984e-26
7.14673e-27
3.09533e-27
4.82389e-27
1.12366e-26
2.28926e-26
2.4887e-26
2.65562e-26
1.9375e-26
1.50627e-26
8.72307e-27
5.49217e-27
3.94783e-27
9.12539e-27
7.77749e-27
2.33927e-26
2.53512e-26
2.39372e-26
2.29639e-26
2.89147e-26
3.03906e-26
3.86851e-26
5.12033e-26
1.18164e-25
2.74573e-25
7.38843e-25
2.67736e-24
6.24082e-24
1.79672e-24
8.99868e-22
4.87057e-21
1.32799e-21
1.49391e-21
4.3621e-21
4.07468e-23
1.80062e-22
1.69428e-23
3.1103e-25
1.83135e-25
2.78637e-27
1.75049e-26
1.75859e-26
4.68173e-27
6.47437e-27
4.3283e-27
5.84173e-27
5.61018e-27
1.12806e-26
1.60823e-26
1.75146e-26
9.56706e-27
1.05998e-26
9.74543e-27
1.07505e-26
7.03633e-27
9.81291e-27
1.26009e-26
2.51577e-26
3.10251e-26
3.06928e-26
1.45373e-26
8.08198e-27
3.28544e-27
5.49008e-27
1.33237e-26
2.77186e-26
3.03633e-26
3.31502e-26
2.43494e-26
1.92884e-26
1.23873e-26
1.10216e-26
1.34497e-26
8.75126e-27
3.1208e-27
3.48043e-26
3.20265e-26
3.55761e-26
3.23015e-26
4.53837e-26
5.06545e-26
6.97152e-26
9.97835e-26
2.30171e-25
5.35175e-25
1.37896e-24
4.66873e-24
9.92122e-24
1.34878e-24
1.34305e-21
7.64658e-21
1.19717e-21
2.77718e-21
6.48398e-21
4.11959e-23
2.52606e-22
2.22349e-23
8.81673e-25
2.29874e-25
2.291e-27
2.41343e-26
2.33542e-26
5.28357e-27
7.96371e-27
5.05668e-27
7.23677e-27
6.70108e-27
1.37736e-26
1.95688e-26
2.0934e-26
1.12857e-26
1.27937e-26
1.14756e-26
1.26772e-26
8.14132e-27
1.20684e-26
1.5147e-26
3.09239e-26
3.72904e-26
3.67637e-26
1.65227e-26
9.22883e-27
3.44991e-27
6.28195e-27
1.58136e-26
3.38833e-26
3.73187e-26
4.20198e-26
3.13612e-26
2.58756e-26
1.81024e-26
2.03063e-26
1.96881e-26
9.23926e-28
3.81896e-27
3.51232e-26
4.42455e-26
5.05156e-26
4.58968e-26
6.91029e-26
8.08003e-26
1.18121e-25
1.76204e-25
4.0354e-25
9.14545e-25
2.22986e-24
7.06149e-24
1.3705e-23
1.52191e-24
2.01822e-21
1.13226e-20
1.33992e-21
4.26534e-21
1.00051e-20
4.1039e-23
3.99884e-22
2.57677e-23
2.03337e-24
2.71143e-25
2.41975e-27
3.58032e-26
3.04983e-26
6.02268e-27
9.85663e-27
6.04232e-27
9.04816e-27
8.22665e-27
1.69461e-26
2.40915e-26
2.49861e-26
1.33896e-26
1.54842e-26
1.35143e-26
1.49437e-26
9.52615e-27
1.50609e-26
1.84846e-26
3.84417e-26
4.50729e-26
4.41396e-26
1.86765e-26
1.06093e-26
3.54462e-27
7.1703e-27
1.86798e-26
4.11367e-26
4.48437e-26
5.14906e-26
3.72326e-26
2.93362e-26
1.95614e-26
1.84496e-26
4.45826e-28
4.62427e-26
4.04616e-26
1.19721e-26
7.8257e-26
6.17761e-26
6.97067e-26
9.81736e-26
1.25531e-25
1.84136e-25
2.84423e-25
6.35973e-25
1.37996e-24
3.16707e-24
9.28261e-24
1.65217e-23
3.12404e-24
3.04602e-21
1.60188e-20
2.0134e-21
6.8619e-21
1.55403e-20
3.62605e-23
6.78603e-22
2.59847e-23
4.04974e-24
2.89433e-25
4.01739e-27
5.47786e-26
3.98857e-26
6.80905e-27
1.2461e-26
7.34783e-27
1.15609e-26
1.04847e-26
2.0914e-26
2.98367e-26
2.98343e-26
1.59259e-26
1.87588e-26
1.58602e-26
1.7633e-26
1.13344e-26
1.90564e-26
2.29983e-26
4.83211e-26
5.45676e-26
5.30508e-26
2.10516e-26
1.22724e-26
3.60876e-27
8.28559e-27
2.23798e-26
5.10623e-26
5.53472e-26
6.63167e-26
4.84172e-26
4.02629e-26
3.60858e-26
8.51291e-26
1.46874e-25
1.38269e-25
1.51085e-28
1.80839e-26
9.36676e-26
9.22993e-26
9.25773e-26
1.41808e-25
1.81653e-25
2.69726e-25
4.20038e-25
9.09755e-25
1.87604e-24
4.05639e-24
1.10238e-23
1.77881e-23
6.95673e-24
4.50174e-21
2.16485e-20
3.55411e-21
1.04323e-20
2.33114e-20
2.28247e-23
1.10491e-21
2.41379e-23
7.57627e-24
2.60684e-25
7.84551e-27
8.41201e-26
5.27022e-26
7.54214e-27
1.61911e-26
9.09384e-27
1.51827e-26
1.37768e-26
2.59157e-26
3.73641e-26
3.54806e-26
1.89576e-26
2.27057e-26
1.86535e-26
2.08002e-26
1.36971e-26
2.44745e-26
2.91257e-26
6.13031e-26
6.62683e-26
6.3598e-26
2.35561e-26
1.43135e-26
3.6348e-27
9.71249e-27
2.74306e-26
6.47346e-26
7.01251e-26
9.00349e-26
6.89667e-26
6.53871e-26
7.57395e-26
3.3638e-25
2.15961e-24
1.20544e-28
2.89004e-25
7.23468e-26
9.07181e-26
1.44538e-25
1.12485e-25
2.0053e-25
2.45016e-25
3.71118e-25
5.59641e-25
1.18103e-24
2.28649e-24
4.68383e-24
1.18819e-23
1.67357e-23
1.53132e-23
6.47163e-21
2.70944e-20
6.79209e-21
1.49366e-20
3.4627e-20
5.89124e-24
1.70632e-21
1.94858e-23
1.25896e-23
2.08282e-25
1.49473e-26
1.35087e-25
6.81322e-26
8.47294e-27
2.13524e-26
1.1459e-26
2.02933e-26
1.85952e-26
3.24109e-26
4.71605e-26
4.2053e-26
2.26106e-26
2.74508e-26
2.19173e-26
2.45761e-26
1.68601e-26
3.18506e-26
3.75503e-26
7.83317e-26
8.01791e-26
7.58747e-26
2.61028e-26
1.66127e-26
3.53971e-27
1.11483e-26
3.28364e-26
7.89004e-26
8.15243e-26
1.05899e-25
7.27155e-26
5.91755e-26
4.71349e-26
1.207e-25
2.21972e-25
1.62862e-25
1.11237e-27
3.29564e-26
1.67223e-25
1.51179e-25
1.59418e-25
2.45268e-25
3.24934e-25
4.62574e-25
6.84839e-25
1.38419e-24
2.52354e-24
4.70499e-24
1.12192e-23
1.34758e-23
3.11982e-23
8.97629e-21
3.27846e-20
1.30074e-20
1.94495e-20
5.10385e-20
3.39833e-25
2.54913e-21
1.35166e-23
1.90905e-23
1.37206e-25
2.58661e-26
2.18097e-25
8.72301e-26
9.67543e-27
2.84818e-26
1.47938e-26
2.75887e-26
2.57862e-26
4.07494e-26
6.03396e-26
4.94762e-26
2.70286e-26
3.31012e-26
2.58893e-26
2.89596e-26
2.11304e-26
4.20725e-26
4.91551e-26
1.00692e-25
9.67072e-26
8.98482e-26
2.8697e-26
1.92832e-26
3.36586e-27
1.28867e-26
3.98613e-26
9.6751e-26
9.47725e-26
1.25323e-25
7.59323e-26
5.13318e-26
2.56301e-26
2.5327e-26
3.95799e-29
8.36626e-26
1.73621e-25
2.84857e-26
2.40021e-25
1.70141e-25
1.9975e-25
2.97171e-25
3.93819e-25
5.4318e-25
7.79368e-25
1.48166e-24
2.5295e-24
4.0528e-24
9.11103e-24
9.14271e-24
5.91458e-23
1.19339e-20
3.69168e-20
2.38358e-20
2.50463e-20
7.36538e-20
1.27267e-24
3.5874e-21
9.10609e-24
2.69983e-23
6.81636e-26
3.92117e-26
3.47963e-25
1.117e-25
1.11807e-26
3.86154e-26
1.94191e-26
3.8475e-26
3.68668e-26
5.13079e-26
7.82687e-26
5.79627e-26
3.2444e-26
3.98332e-26
3.06601e-26
3.4078e-26
2.7014e-26
5.64314e-26
6.53009e-26
1.30169e-25
1.15637e-25
1.05451e-25
3.14828e-26
2.22621e-26
3.14133e-27
1.51171e-26
4.95061e-26
1.21637e-25
1.1513e-25
1.61306e-25
9.49155e-26
6.41512e-26
3.0103e-26
3.94961e-26
3.99998e-26
9.52504e-28
1.87694e-26
1.70582e-25
2.10326e-25
2.32454e-25
2.13939e-25
3.55343e-25
4.34418e-25
5.94291e-25
8.22251e-25
1.4027e-24
2.24578e-24
3.01423e-24
6.24295e-24
4.99625e-24
9.62371e-23
1.52348e-20
4.05079e-20
4.13827e-20
2.92825e-20
1.02212e-19
1.8617e-23
4.85207e-21
8.25475e-24
3.53069e-23
2.72035e-26
5.40147e-26
5.57858e-25
1.41093e-25
1.33949e-26
5.28298e-26
2.57852e-26
5.49157e-26
5.37115e-26
6.5039e-26
1.03494e-25
6.76559e-26
3.90688e-26
4.7838e-26
3.656e-26
3.99509e-26
3.50606e-26
7.7076e-26
8.76295e-26
1.6904e-25
1.37049e-25
1.21999e-25
3.42846e-26
2.53387e-26
2.73563e-27
1.73761e-26
6.08863e-26
1.48027e-25
1.31902e-25
1.92902e-25
1.0325e-25
6.08814e-26
1.88893e-26
2.10592e-26
2.31829e-26
1.79458e-26
1.20771e-26
3.01793e-25
2.37201e-25
2.50378e-25
2.38972e-25
3.74663e-25
4.53624e-25
5.78367e-25
7.55694e-25
1.15115e-24
1.67401e-24
1.80348e-24
3.35883e-24
1.84829e-24
1.46104e-22
1.87466e-20
4.14228e-20
6.80293e-20
3.34487e-20
1.41065e-19
1.0446e-22
6.16072e-21
1.41562e-23
4.29169e-23
1.56382e-26
6.73274e-26
8.7137e-25
1.81224e-25
1.6343e-26
7.32127e-26
3.42056e-26
8.01124e-26
7.91538e-26
8.32132e-26
1.39987e-25
7.9157e-26
4.74891e-26
5.73416e-26
4.3896e-26
4.66772e-26
4.61996e-26
1.07149e-25
1.18766e-25
2.20579e-25
1.60396e-25
1.38903e-25
3.73169e-26
2.82341e-26
2.20119e-27
1.97446e-26
7.5265e-26
1.77694e-25
1.47856e-25
2.26164e-25
1.08921e-25
5.11305e-26
9.82093e-27
8.22309e-27
3.82903e-27
1.59919e-26
5.03248e-26
3.01506e-25
2.83914e-25
2.48275e-25
2.47919e-25
3.63907e-25
4.27443e-25
5.02012e-25
5.89621e-25
7.95737e-25
1.03129e-24
7.60668e-25
1.2551e-24
3.1308e-25
1.99169e-22
2.22854e-20
4.03608e-20
1.06945e-19
3.59021e-20
1.9334e-19
3.59329e-22
7.37724e-21
3.5642e-23
5.03565e-23
4.69277e-26
7.76487e-26
1.32546e-24
2.36243e-25
2.08088e-26
1.00467e-25
4.62663e-26
1.17522e-25
1.18175e-25
1.06344e-25
1.96101e-25
9.25429e-26
5.92568e-26
6.81396e-26
5.36886e-26
5.37373e-26
6.20419e-26
1.51167e-25
1.6266e-25
2.88578e-25
1.84879e-25
1.54215e-25
4.09546e-26
3.04173e-26
1.57112e-27
2.22014e-26
9.41801e-26
2.11203e-25
1.6495e-25
2.68341e-25
1.20924e-25
4.44588e-26
6.6667e-27
6.59909e-27
1.06052e-27
1.47155e-26
1.2123e-25
3.14556e-25
2.83618e-25
2.55725e-25
2.22477e-25
3.24439e-25
3.49428e-25
3.80401e-25
3.78632e-25
4.24887e-25
5.12429e-25
1.94616e-25
2.89317e-25
4.52035e-26
2.56001e-22
2.57645e-20
3.6211e-20
1.61066e-19
3.8598e-20
2.51609e-19
9.5569e-22
8.43832e-21
8.88885e-23
5.58918e-23
1.90188e-25
8.69961e-26
2.06152e-24
3.03065e-25
2.95511e-26
1.33673e-25
6.56669e-26
1.70721e-25
1.80901e-25
1.3361e-25
2.87536e-25
1.08627e-25
7.9083e-26
7.95587e-26
6.79253e-26
6.0497e-26
8.6077e-26
2.15153e-25
2.26648e-25
3.7752e-25
2.08476e-25
1.65791e-25
4.68151e-26
3.12527e-26
9.74554e-28
2.43781e-26
1.17874e-25
2.46036e-25
1.80536e-25
3.15753e-25
1.39746e-25
3.83896e-26
6.93427e-27
9.37097e-27
3.2937e-28
1.40894e-26
2.11164e-25
3.28279e-25
2.49715e-25
2.57837e-25
1.71213e-25
2.54715e-25
2.36861e-25
2.41633e-25
1.79069e-25
1.46171e-25
2.47841e-25
9.43149e-26
2.50776e-25
7.18138e-25
2.93967e-22
2.91678e-20
3.22142e-20
2.35623e-19
3.31698e-20
3.19864e-19
1.9307e-21
9.5937e-21
2.04395e-22
5.94137e-23
6.78654e-25
9.73975e-26
3.21911e-24
4.09923e-25
4.30323e-26
1.88563e-25
9.477e-26
2.56705e-25
2.77464e-25
1.761e-25
4.47265e-25
1.34699e-25
1.16094e-25
9.67861e-26
9.25491e-26
6.86915e-26
1.22779e-25
3.17045e-25
3.25285e-25
5.03994e-25
2.36304e-25
1.76019e-25
5.92593e-26
3.11008e-26
5.41056e-28
2.66009e-26
1.51537e-25
2.80232e-25
1.95934e-25
3.72773e-25
1.75866e-25
3.11889e-26
1.18236e-26
1.54014e-26
1.37906e-28
1.55736e-26
3.47607e-25
3.07356e-25
2.14502e-25
2.4648e-25
1.10395e-25
1.64809e-25
1.29169e-25
1.16927e-25
5.15306e-26
1.85936e-26
2.9818e-25
5.91436e-25
1.74415e-24
4.44316e-24
3.18643e-22
3.19123e-20
2.41433e-20
3.30255e-19
4.07413e-25
4.5372e-25
3.89923e-27
4.51882e-28
4.3061e-27
8.03757e-31
1.20878e-27
9.10448e-28
1.35203e-27
6.32925e-28
6.93629e-28
4.26961e-28
5.34641e-28
4.01902e-28
5.84634e-28
7.55331e-28
1.31822e-27
1.25731e-27
1.02845e-27
8.86534e-28
9.83169e-28
9.85757e-28
8.30174e-28
8.00201e-28
1.05499e-27
1.69064e-27
2.46367e-27
2.47724e-27
1.80947e-27
1.1184e-27
6.66538e-28
7.16909e-28
1.1679e-27
2.02982e-27
2.33414e-27
2.40616e-27
2.00239e-27
1.75226e-27
1.33376e-27
9.19077e-28
7.41523e-28
8.90023e-28
1.37034e-27
1.44173e-27
1.43122e-27
1.40142e-27
1.10813e-27
8.18043e-28
4.09743e-28
1.6381e-28
1.49326e-29
9.09086e-32
2.48527e-29
5.27155e-28
2.86566e-27
2.96628e-27
3.04358e-25
7.41258e-24
1.00543e-23
5.19007e-25
1.38855e-23
5.95991e-25
4.45816e-25
4.45517e-26
6.28038e-27
8.01457e-30
1.77914e-27
2.46631e-27
1.90837e-27
2.14212e-27
1.10532e-27
1.46179e-27
9.71138e-28
1.2517e-27
1.14432e-27
1.8423e-27
2.48774e-27
2.93404e-27
2.19007e-27
2.07275e-27
2.15428e-27
2.32523e-27
1.84965e-27
1.91349e-27
2.24262e-27
3.63609e-27
4.79713e-27
5.28289e-27
3.86706e-27
2.66019e-27
1.71027e-27
1.70386e-27
2.62685e-27
4.10191e-27
4.81123e-27
4.73206e-27
4.26563e-27
3.6705e-27
2.93893e-27
2.17959e-27
1.72524e-27
2.16002e-27
2.57298e-27
2.68486e-27
2.80509e-27
2.61861e-27
2.09323e-27
1.37858e-27
7.57683e-28
2.43546e-28
2.40041e-29
4.77074e-31
9.97358e-29
1.78647e-27
7.82046e-27
1.17682e-26
5.50336e-25
2.51866e-23
5.43378e-23
1.04129e-24
2.90217e-23
1.09984e-23
1.89135e-24
5.44138e-25
1.52712e-26
2.84786e-30
2.06733e-27
4.06349e-27
2.63087e-27
3.09696e-27
1.74217e-27
2.02492e-27
1.53321e-27
1.68791e-27
1.73824e-27
2.56548e-27
3.69049e-27
4.10811e-27
3.25997e-27
2.9977e-27
3.15563e-27
3.33905e-27
2.71152e-27
2.77929e-27
3.22632e-27
5.25438e-27
6.8766e-27
7.62485e-27
5.62893e-27
3.95552e-27
2.48779e-27
2.5631e-27
3.72115e-27
5.94252e-27
6.85144e-27
6.95758e-27
6.12951e-27
5.47715e-27
4.33746e-27
3.27777e-27
2.63435e-27
3.15683e-27
3.46142e-27
4.02733e-27
4.04416e-27
3.77312e-27
3.0232e-27
2.05382e-27
1.10417e-27
3.7547e-28
3.4182e-29
5.22121e-31
1.35633e-28
2.09236e-27
9.24904e-27
1.50988e-26
1.4139e-24
4.2329e-23
6.41912e-23
1.65683e-23
6.63368e-23
6.58298e-23
4.2424e-24
3.41808e-24
1.73051e-26
3.70297e-31
2.71626e-27
4.30573e-27
3.03002e-27
3.22242e-27
1.88535e-27
2.00889e-27
1.61641e-27
1.68315e-27
1.86903e-27
2.70565e-27
4.0357e-27
4.41744e-27
3.43717e-27
3.10535e-27
3.26317e-27
3.48536e-27
2.78208e-27
2.87075e-27
3.41033e-27
5.69236e-27
7.53825e-27
8.26103e-27
5.89186e-27
4.02423e-27
2.39952e-27
2.56984e-27
3.80285e-27
6.57476e-27
7.35108e-27
7.68137e-27
6.4661e-27
5.85978e-27
4.48763e-27
3.37019e-27
2.67929e-27
3.18461e-27
3.53905e-27
4.50089e-27
4.32153e-27
4.17317e-27
3.29205e-27
2.26274e-27
1.22081e-27
4.29554e-28
4.65651e-29
1.68129e-30
9.37667e-29
1.73446e-27
6.55868e-27
1.23039e-26
2.08347e-24
7.10934e-23
8.38318e-23
9.55226e-23
8.5285e-23
2.22341e-22
4.4165e-24
1.08909e-23
4.26939e-26
8.48752e-31
3.61675e-27
4.92488e-27
3.35528e-27
3.63292e-27
1.91443e-27
2.19418e-27
1.64214e-27
1.8434e-27
1.97481e-27
3.03442e-27
4.43608e-27
4.94757e-27
3.6317e-27
3.32618e-27
3.44979e-27
3.7216e-27
2.89877e-27
3.04795e-27
3.70528e-27
6.34929e-27
8.45014e-27
9.12422e-27
6.23527e-27
4.15168e-27
2.34976e-27
2.6281e-27
4.05967e-27
7.39344e-27
8.07043e-27
8.57753e-27
6.95308e-27
6.32432e-27
4.65283e-27
3.46386e-27
2.70047e-27
3.22921e-27
3.75292e-27
5.05874e-27
4.71095e-27
4.75324e-27
3.58931e-27
2.60099e-27
1.38879e-27
5.53861e-28
7.63211e-29
1.18136e-29
6.97263e-29
1.38019e-27
4.35972e-27
9.06821e-27
3.22768e-24
1.14095e-22
1.02475e-22
3.0268e-22
8.0756e-23
5.11847e-22
2.91035e-24
2.38738e-23
1.28642e-25
4.13906e-30
5.49044e-27
5.70742e-27
3.87637e-27
4.2026e-27
2.01817e-27
2.47544e-27
1.72299e-27
2.08497e-27
2.15255e-27
3.51669e-27
5.04707e-27
5.72444e-27
3.95651e-27
3.71678e-27
3.77859e-27
4.12091e-27
3.13186e-27
3.37525e-27
4.18948e-27
7.36299e-27
9.7858e-27
1.04079e-26
6.81264e-27
4.41794e-27
2.38362e-27
2.79609e-27
4.54209e-27
8.5635e-27
9.19024e-27
9.85509e-27
7.7297e-27
7.0128e-27
4.93979e-27
3.65915e-27
2.80537e-27
3.50476e-27
4.16652e-27
5.80948e-27
5.42515e-27
5.60728e-27
4.09662e-27
3.19538e-27
1.70842e-27
8.24462e-28
1.63346e-28
8.40611e-29
1.11416e-28
1.16512e-27
2.97564e-27
4.99476e-27
4.40573e-24
1.64227e-22
1.37116e-22
6.41286e-22
7.89469e-23
9.22865e-22
1.44432e-24
4.1481e-23
3.69808e-25
6.23578e-30
9.66511e-27
6.27405e-27
4.67419e-27
4.84058e-27
2.22359e-27
2.76103e-27
1.88088e-27
2.35266e-27
2.41283e-27
4.1254e-27
5.84268e-27
6.67974e-27
4.38211e-27
4.22135e-27
4.21201e-27
4.63048e-27
3.44146e-27
3.81256e-27
4.8255e-27
8.6843e-27
1.1492e-26
1.20109e-26
7.52233e-27
4.74238e-27
2.45018e-27
3.01733e-27
5.18368e-27
1.00057e-26
1.06302e-26
1.14295e-26
8.7191e-27
7.83492e-27
5.30868e-27
3.91917e-27
2.98271e-27
3.89086e-27
4.67999e-27
6.7807e-27
6.47947e-27
6.7406e-27
4.88812e-27
4.13196e-27
2.31299e-27
1.39235e-27
4.4201e-28
4.63298e-28
5.58944e-28
2.11807e-27
6.23342e-27
1.33151e-26
4.98293e-24
2.20002e-22
2.40359e-22
1.04826e-21
7.73519e-23
1.42193e-21
9.85797e-25
6.17216e-23
9.64166e-25
6.57134e-30
1.72896e-26
6.66277e-27
5.65028e-27
5.66865e-27
2.48899e-27
3.07752e-27
2.10704e-27
2.6628e-27
2.75079e-27
4.8531e-27
6.8139e-27
7.80495e-27
4.89346e-27
4.82626e-27
4.74056e-27
5.24224e-27
3.81619e-27
4.35335e-27
5.61293e-27
1.03042e-26
1.35238e-26
1.39114e-26
8.32412e-27
5.08754e-27
2.52736e-27
3.26299e-27
5.96091e-27
1.17055e-26
1.23802e-26
1.3276e-26
9.90698e-27
8.75111e-27
5.73044e-27
4.23977e-27
3.21865e-27
4.40448e-27
5.34237e-27
7.98458e-27
7.93938e-27
8.28885e-27
6.1086e-27
5.64441e-27
3.47374e-27
2.65666e-27
1.37696e-27
2.03074e-27
3.07084e-27
8.89798e-27
3.4631e-26
9.4117e-26
5.17525e-24
2.8371e-22
4.40241e-22
1.43336e-21
1.01042e-22
1.93197e-21
1.94413e-24
8.0421e-23
2.15675e-24
2.57873e-28
3.13853e-26
6.5778e-27
6.86651e-27
6.79919e-27
2.79947e-27
3.47217e-27
2.40474e-27
3.0494e-27
3.15071e-27
5.72993e-27
7.9998e-27
9.1399e-27
5.50239e-27
5.56314e-27
5.3938e-27
5.97989e-27
4.26075e-27
5.0281e-27
6.56766e-27
1.22623e-26
1.59373e-26
1.6136e-26
9.20833e-27
5.47155e-27
2.6197e-27
3.54461e-27
6.90944e-27
1.37009e-26
1.44739e-26
1.54538e-26
1.13355e-26
9.79038e-27
6.25357e-27
4.66581e-27
3.54334e-27
5.08501e-27
6.20629e-27
9.49469e-27
1.0016e-26
1.0477e-26
8.01052e-27
8.14383e-27
5.71603e-27
5.34817e-27
3.9344e-27
7.3817e-27
1.33057e-26
3.79619e-26
1.57547e-25
4.45385e-25
4.66509e-24
3.59087e-22
8.4489e-22
1.63169e-21
1.79135e-22
2.52507e-21
4.96321e-24
9.66743e-23
4.33471e-24
3.56949e-27
5.37686e-26
6.09195e-27
8.35031e-27
8.40567e-27
3.15767e-27
3.99149e-27
2.76995e-27
3.54682e-27
3.61278e-27
6.79428e-27
9.41306e-27
1.07469e-26
6.23999e-27
6.47939e-27
6.17683e-27
6.87953e-27
4.79871e-27
5.87024e-27
7.71131e-27
1.46174e-26
1.87274e-26
1.87764e-26
1.02214e-26
5.91267e-27
2.73719e-27
3.87595e-27
8.0254e-27
1.60646e-26
1.69894e-26
1.8051e-26
1.30772e-26
1.10124e-26
6.89055e-27
5.25781e-27
4.01284e-27
5.84527e-27
7.34788e-27
1.14252e-26
1.29365e-26
1.36415e-26
1.10178e-26
1.22569e-26
9.85887e-27
1.06334e-26
9.763e-27
2.21669e-26
4.45332e-26
1.27527e-25
5.16289e-25
1.41006e-24
3.74616e-24
4.60261e-22
1.56199e-21
1.63258e-21
3.79602e-22
3.05046e-21
1.16655e-23
1.11537e-22
7.69354e-24
2.22509e-26
8.75984e-26
5.01704e-27
1.04798e-26
1.05503e-26
3.61476e-27
4.64407e-27
3.21865e-27
4.17303e-27
4.14781e-27
8.09455e-27
1.11281e-26
1.26985e-26
7.13543e-27
7.63136e-27
7.13131e-27
7.98066e-27
5.43564e-27
6.93179e-27
9.0523e-27
1.7464e-26
2.20074e-26
2.19482e-26
1.13814e-26
6.44843e-27
2.86786e-27
4.2702e-27
9.3304e-27
1.88543e-26
1.9974e-26
2.12222e-26
1.5207e-26
1.24834e-26
7.67554e-27
6.00875e-27
4.50705e-27
7.00189e-27
8.88952e-27
1.38209e-26
1.71308e-26
1.82342e-26
1.57557e-26
1.89041e-26
1.73051e-26
2.0858e-26
2.31954e-26
5.55506e-26
1.20693e-25
3.4068e-25
1.30403e-24
3.35201e-24
2.65165e-24
6.22954e-22
2.85738e-21
1.47974e-21
7.34107e-22
3.46391e-21
2.75681e-23
1.38504e-22
1.19275e-23
9.08498e-26
1.34423e-25
3.68545e-27
1.36139e-26
1.34889e-26
4.15984e-27
5.49306e-27
3.73538e-27
4.98402e-27
4.79055e-27
9.69998e-27
1.32264e-26
1.51095e-26
8.21741e-27
9.08272e-27
8.28201e-27
9.33826e-27
6.18145e-27
8.28003e-27
1.06373e-26
2.09774e-26
2.58994e-26
2.58315e-26
1.27472e-26
7.10139e-27
2.99615e-27
4.7236e-27
1.08024e-26
2.21972e-26
2.35689e-26
2.51743e-26
1.78469e-26
1.42936e-26
8.63818e-27
7.03947e-27
5.25623e-27
8.24621e-27
1.09084e-26
1.68646e-26
2.29732e-26
2.49778e-26
2.30267e-26
2.9385e-26
3.01112e-26
3.95158e-26
5.09706e-26
1.20165e-25
2.73925e-25
7.46183e-25
2.66994e-24
6.29299e-24
1.82464e-24
9.03727e-22
4.89218e-21
1.33703e-21
1.50338e-21
4.38682e-21
4.05647e-23
1.7991e-22
1.68488e-23
3.10123e-25
1.85578e-25
2.68178e-27
1.80934e-26
1.76246e-26
4.75308e-27
6.60995e-27
4.34269e-27
6.04665e-27
5.59696e-27
1.17251e-26
1.59048e-26
1.80281e-26
9.53657e-27
1.09001e-26
9.68786e-27
1.09761e-26
7.04141e-27
1.00203e-26
1.25388e-26
2.54228e-26
3.07355e-26
3.0586e-26
1.42961e-26
7.91959e-27
3.09335e-27
5.24311e-27
1.25115e-26
2.6266e-26
2.79096e-26
3.02156e-26
2.11017e-26
1.65345e-26
9.85397e-27
8.51606e-27
6.42262e-27
9.69044e-27
1.31907e-26
2.0724e-26
3.12199e-26
3.46435e-26
3.3702e-26
4.53371e-26
5.07964e-26
7.06898e-26
9.97414e-26
2.33397e-25
5.34566e-25
1.3911e-24
4.66115e-24
1.00019e-23
1.37237e-24
1.34793e-21
7.67442e-21
1.20386e-21
2.79857e-21
6.52269e-21
4.08663e-23
2.52022e-22
2.21368e-23
8.77918e-25
2.33277e-25
2.18076e-27
2.49315e-26
2.33147e-26
5.37914e-27
8.08839e-27
5.08364e-27
7.45011e-27
6.68883e-27
1.42818e-26
1.92998e-26
2.15172e-26
1.11842e-26
1.31438e-26
1.1326e-26
1.29347e-26
8.07246e-27
1.22815e-26
1.49334e-26
3.11345e-26
3.66222e-26
3.64621e-26
1.60197e-26
8.92361e-27
3.14569e-27
5.84516e-27
1.44768e-26
3.13564e-26
3.3183e-26
3.66452e-26
2.50764e-26
1.92094e-26
1.12302e-26
1.04101e-26
7.6883e-27
1.07965e-26
1.54545e-26
2.57398e-26
4.2333e-26
4.80231e-26
4.88213e-26
6.84128e-26
8.17111e-26
1.18913e-25
1.77003e-25
4.07955e-25
9.14675e-25
2.24875e-24
7.05863e-24
1.38153e-23
1.5438e-24
2.02445e-21
1.13669e-20
1.34848e-21
4.29054e-21
1.00708e-20
4.06519e-23
3.98937e-22
2.56701e-23
2.02418e-24
2.75428e-25
2.31558e-27
3.68849e-26
3.03693e-26
6.14207e-27
9.97372e-27
6.08499e-27
9.28541e-27
8.22906e-27
1.74733e-26
2.36963e-26
2.56418e-26
1.31989e-26
1.5894e-26
1.32439e-26
1.52318e-26
9.3536e-27
1.52762e-26
1.80588e-26
3.85789e-26
4.38828e-26
4.36176e-26
1.78578e-26
1.01634e-26
3.13616e-27
6.56308e-27
1.68518e-26
3.77538e-26
3.95081e-26
4.4806e-26
2.97922e-26
2.2196e-26
1.26402e-26
1.26101e-26
8.94047e-27
1.37862e-26
1.99114e-26
3.12202e-26
5.72296e-26
6.57499e-26
6.94066e-26
1.00303e-25
1.2488e-25
1.86761e-25
2.84884e-25
6.42906e-25
1.38042e-24
3.19592e-24
9.28519e-24
1.66526e-23
3.15771e-24
3.05463e-21
1.60831e-20
2.02939e-21
6.90147e-21
1.5647e-20
3.59112e-23
6.77832e-22
2.59129e-23
4.03641e-24
2.93888e-25
3.91826e-27
5.61805e-26
3.96832e-26
6.94466e-27
1.25804e-26
7.39591e-27
1.18232e-26
1.04698e-26
2.1479e-26
2.92757e-26
3.05751e-26
1.56201e-26
1.92345e-26
1.54371e-26
1.79476e-26
1.1024e-26
1.92715e-26
2.2277e-26
4.8375e-26
5.27049e-26
5.22555e-26
1.98392e-26
1.16615e-26
3.07559e-27
7.43101e-27
1.97559e-26
4.59853e-26
4.72786e-26
5.53358e-26
3.56586e-26
2.58976e-26
1.44982e-26
1.62252e-26
1.33937e-26
1.74596e-26
2.57818e-26
3.90211e-26
7.56588e-26
8.96214e-26
9.5856e-26