/*--------------------------------*- C++ -*----------------------------------*\
| =========                 |                                                 |
| \\      /  F ield         | OpenFOAM: The Open Source CFD Toolbox           |
|  \\    /   O peration     | Version:  2312                                  |
|   \\  /    A nd           | Website:  www.openfoam.com                      |
|    \\/     M anipulation  |                                                 |
\*---------------------------------------------------------------------------*/
FoamFile
{
    version     2.0;
    format      ascii;
    arch        "LSB;label=32;scalar=64";
    class       volScalarField;
    location    "160";
    object      pMean;
}
// * * * * * * * * * * * * * * * * * * * * * * * * * * * * * * * * * * * * * //

dimensions      [0 2 -2 0 0 0 0];

internalField   nonuniform List<scalar> 
144000
(
1.94774e-09
8.44264e-10
-9.98239e-10
-1.60227e-09
-1.27809e-09
-8.2602e-10
-4.52184e-10
-2.40119e-10
-7.30422e-11
-1.74107e-11
5.05661e-11
4.87341e-11
8.96827e-11
6.87948e-11
1.02177e-10
7.43013e-11
1.02563e-10
6.30116e-11
9.22805e-11
5.4553e-11
8.72876e-11
4.39641e-11
7.92251e-11
3.59273e-11
7.57503e-11
3.06485e-11
7.30253e-11
2.23279e-11
6.80482e-11
1.65658e-11
6.75601e-11
1.47438e-11
6.77248e-11
6.97903e-12
6.36366e-11
2.85709e-12
6.51023e-11
1.63675e-12
6.66652e-11
-2.43551e-12
6.53539e-11
-3.1403e-12
7.0082e-11
-5.6094e-12
6.733e-11
-1.25913e-11
6.20375e-11
-1.16869e-11
6.41491e-11
-2.55643e-12
6.93156e-11
2.43576e-11
7.90473e-11
7.01171e-11
7.5207e-11
1.54712e-10
1.59677e-10
6.09373e-10
-2.11e-09
-5.53759e-10
2.00566e-09
8.86249e-10
-1.01327e-09
-1.61378e-09
-1.28015e-09
-8.25781e-10
-4.52575e-10
-2.40936e-10
-7.4121e-11
-1.84628e-11
4.95728e-11
4.79533e-11
8.89575e-11
6.82376e-11
1.01625e-10
7.39443e-11
1.0214e-10
6.26953e-11
9.18974e-11
5.43727e-11
8.69881e-11
4.38115e-11
7.89362e-11
3.58584e-11
7.55014e-11
3.06279e-11
7.28011e-11
2.23216e-11
6.78149e-11
1.66058e-11
6.73366e-11
1.4836e-11
6.75028e-11
7.06066e-12
6.3378e-11
3.00676e-12
6.48471e-11
1.83078e-12
6.6389e-11
-2.22795e-12
6.49526e-11
-2.94078e-12
6.96862e-11
-5.23583e-12
6.69558e-11
-1.21525e-11
6.15793e-11
-1.10835e-11
6.36633e-11
-1.848e-12
6.8746e-11
2.52316e-11
7.83873e-11
7.10136e-11
7.4198e-11
1.53628e-10
1.64177e-10
6.39154e-10
-2.14148e-09
-6.16176e-10
2.09284e-09
8.79819e-10
-1.04472e-09
-1.60914e-09
-1.27484e-09
-8.22601e-10
-4.51332e-10
-2.41096e-10
-7.47936e-11
-1.98435e-11
4.83684e-11
4.66524e-11
8.80869e-11
6.7192e-11
1.0097e-10
7.31659e-11
1.01775e-10
6.19852e-11
9.15426e-11
5.3815e-11
8.68334e-11
4.331e-11
7.87962e-11
3.54403e-11
7.54712e-11
3.02662e-11
7.28284e-11
2.19571e-11
6.78274e-11
1.6285e-11
6.73967e-11
1.45841e-11
6.76321e-11
6.75615e-12
6.34389e-11
2.75946e-12
6.49727e-11
1.62175e-12
6.65243e-11
-2.43398e-12
6.49158e-11
-3.26973e-12
6.96834e-11
-5.33359e-12
6.70979e-11
-1.21593e-11
6.15973e-11
-1.09445e-11
6.37258e-11
-1.6355e-12
6.87057e-11
2.55128e-11
7.84582e-11
7.09835e-11
7.47076e-11
1.47997e-10
1.68278e-10
6.81048e-10
-2.20688e-09
-6.4451e-10
2.18086e-09
7.75613e-10
-1.08165e-09
-1.57351e-09
-1.2596e-09
-8.16536e-10
-4.47926e-10
-2.3957e-10
-7.44717e-11
-2.09519e-11
4.69931e-11
4.50333e-11
8.69099e-11
6.58566e-11
1.00013e-10
7.21537e-11
1.0123e-10
6.10626e-11
9.09339e-11
5.30858e-11
8.65455e-11
4.26753e-11
7.84909e-11
3.49156e-11
7.53184e-11
2.98479e-11
7.27925e-11
2.15344e-11
6.77372e-11
1.59187e-11
6.73732e-11
1.43228e-11
6.7743e-11
6.44369e-12
6.3405e-11
2.50069e-12
6.50406e-11
1.44117e-12
6.66238e-11
-2.58295e-12
6.4759e-11
-3.62121e-12
6.95275e-11
-5.4812e-12
6.7226e-11
-1.21062e-11
6.15209e-11
-1.07761e-11
6.38201e-11
-1.4973e-12
6.88094e-11
2.53822e-11
7.93874e-11
6.93877e-11
7.8223e-11
1.34245e-10
1.83972e-10
7.06806e-10
-2.29383e-09
-5.86447e-10
2.25311e-09
5.3954e-10
-1.11802e-09
-1.48666e-09
-1.23107e-09
-8.09291e-10
-4.43433e-10
-2.3633e-10
-7.29711e-11
-2.16198e-11
4.552e-11
4.32242e-11
8.5442e-11
6.42966e-11
9.87357e-11
7.09548e-11
1.00459e-10
5.99713e-11
9.00241e-11
5.22033e-11
8.60621e-11
4.19519e-11
7.79423e-11
3.43168e-11
7.49753e-11
2.94068e-11
7.2604e-11
2.11096e-11
6.7449e-11
1.55516e-11
6.71703e-11
1.41265e-11
6.77365e-11
6.20659e-12
6.31614e-11
2.31207e-12
6.49387e-11
1.37749e-12
6.65701e-11
-2.53531e-12
6.43487e-11
-3.78315e-12
6.90058e-11
-5.61567e-12
6.71376e-11
-1.17953e-11
6.11734e-11
-1.04918e-11
6.37785e-11
-1.3982e-12
6.90472e-11
2.46728e-11
8.14606e-11
6.55333e-11
8.57948e-11
1.11722e-10
2.14767e-10
7.06308e-10
-2.39636e-09
-4.12652e-10
2.3163e-09
1.65922e-10
-1.15825e-09
-1.34372e-09
-1.18638e-09
-8.03008e-10
-4.39348e-10
-2.32007e-10
-7.06438e-11
-2.19783e-11
4.38807e-11
4.12133e-11
8.3697e-11
6.25349e-11
9.71754e-11
6.95974e-11
9.94897e-11
5.87802e-11
8.88559e-11
5.1206e-11
8.53927e-11
4.11792e-11
7.7178e-11
3.36623e-11
7.44506e-11
2.89675e-11
7.2262e-11
2.07095e-11
6.69583e-11
1.52085e-11
6.67855e-11
1.4008e-11
6.75805e-11
6.07357e-12
6.26891e-11
2.20709e-12
6.46319e-11
1.46395e-12
6.63207e-11
-2.21778e-12
6.36391e-11
-3.69838e-12
6.80146e-11
-5.77813e-12
6.67246e-11
-1.11919e-11
6.05433e-11
-1.00802e-11
6.3611e-11
-1.40502e-12
6.95122e-11
2.312e-11
8.50178e-11
5.89112e-11
9.82683e-11
8.0491e-11
2.60576e-10
6.80296e-10
-2.52003e-09
-1.20983e-10
2.3837e-09
-3.30273e-10
-1.21262e-09
-1.14757e-09
-1.12297e-09
-7.98436e-10
-4.37002e-10
-2.27259e-10
-6.78272e-11
-2.22929e-11
4.18996e-11
3.88799e-11
8.16025e-11
6.05513e-11
9.53323e-11
6.80818e-11
9.83339e-11
5.75275e-11
8.74739e-11
5.01339e-11
8.45688e-11
4.0412e-11
7.62347e-11
3.2993e-11
7.37701e-11
2.85703e-11
7.17714e-11
2.0377e-11
6.62849e-11
1.49259e-11
6.62237e-11
1.39954e-11
6.72714e-11
6.08371e-12
6.19981e-11
2.22039e-12
6.41126e-11
1.73478e-12
6.58668e-11
-1.59182e-12
6.26887e-11
-3.31266e-12
6.64288e-11
-6.03051e-12
6.59935e-11
-1.02716e-11
5.96442e-11
-9.59686e-12
6.334e-11
-1.62077e-12
7.0327e-11
2.05807e-11
9.01986e-11
4.93977e-11
1.1536e-10
4.27114e-11
3.16757e-10
6.35595e-10
-2.66397e-09
2.71211e-10
2.46307e-09
-9.10022e-10
-1.28798e-09
-9.09937e-10
-1.0398e-09
-7.95403e-10
-4.37292e-10
-2.2266e-10
-6.47961e-11
-2.27579e-11
3.94458e-11
3.60846e-11
7.9037e-11
5.82791e-11
9.31484e-11
6.63711e-11
9.69445e-11
5.62111e-11
8.58933e-11
4.8999e-11
8.35868e-11
3.96745e-11
7.51381e-11
3.23412e-11
7.29499e-11
2.82427e-11
7.11479e-11
2.01475e-11
6.54529e-11
1.47368e-11
6.55003e-11
1.41179e-11
6.68058e-11
6.26563e-12
6.11039e-11
2.37006e-12
6.33928e-11
2.20018e-12
6.52344e-11
-6.39289e-13
6.16222e-11
-2.63394e-12
6.40889e-11
-6.46391e-12
6.49549e-11
-9.05275e-12
5.8529e-11
-9.08484e-12
6.30115e-11
-2.10369e-12
7.15145e-11
1.70629e-11
9.67793e-11
3.76922e-11
1.35561e-10
2.56217e-12
3.74577e-10
5.83026e-10
-2.81859e-09
7.209e-10
2.55696e-09
-1.51949e-09
-1.38714e-09
-6.4972e-10
-9.37911e-10
-7.92754e-10
-4.40819e-10
-2.18798e-10
-6.18168e-11
-2.34948e-11
3.63779e-11
3.27597e-11
7.5942e-11
5.56529e-11
9.05786e-11
6.44143e-11
9.52606e-11
5.48042e-11
8.40992e-11
4.77944e-11
8.24186e-11
3.89614e-11
7.38885e-11
3.17187e-11
7.19904e-11
2.79899e-11
7.03906e-11
2.00406e-11
6.44758e-11
1.46634e-11
6.46328e-11
1.43876e-11
6.61881e-11
6.63392e-12
6.00404e-11
2.66652e-12
6.24963e-11
2.84304e-12
6.4478e-11
6.23217e-13
6.06609e-11
-1.69112e-12
6.07758e-11
-7.13352e-12
6.36685e-11
-7.56098e-12
5.72528e-11
-8.56649e-12
6.26337e-11
-2.79353e-12
7.29888e-11
1.2871e-11
1.04144e-10
2.50228e-11
1.564e-10
-3.50221e-11
4.2477e-10
5.33496e-10
-2.96918e-09
1.17228e-09
2.65915e-09
-2.10445e-09
-1.50818e-09
-3.88658e-10
-8.205e-10
-7.88937e-10
-4.47702e-10
-2.16198e-10
-5.90716e-11
-2.45439e-11
3.27203e-11
2.89071e-11
7.23025e-11
5.26602e-11
8.76074e-11
6.22086e-11
9.32481e-11
5.32769e-11
8.20898e-11
4.65086e-11
8.10432e-11
3.82573e-11
7.24852e-11
3.11192e-11
7.0884e-11
2.78183e-11
6.94892e-11
2.00421e-11
6.3362e-11
1.47039e-11
6.36307e-11
1.48061e-11
6.54161e-11
7.18918e-12
5.88276e-11
3.10607e-12
6.14471e-11
3.65307e-12
6.36344e-11
2.16759e-12
6.00598e-11
-5.85488e-13
5.62299e-11
-8.09113e-12
6.2206e-11
-5.83785e-12
5.58714e-11
-8.03255e-12
6.21852e-11
-3.57344e-12
7.4552e-11
8.52597e-12
1.114e-10
1.30625e-11
1.75127e-10
-6.53655e-11
4.60233e-10
4.93907e-10
-3.09687e-09
1.57725e-09
2.75573e-09
-2.61252e-09
-1.64489e-09
-1.48179e-10
-6.9267e-10
-7.82207e-10
-4.57604e-10
-2.15312e-10
-5.68275e-11
-2.58943e-11
2.85213e-11
2.45668e-11
6.81416e-11
4.93201e-11
8.42533e-11
5.97509e-11
9.09018e-11
5.16247e-11
7.98595e-11
4.51403e-11
7.9452e-11
3.75453e-11
7.09239e-11
3.05376e-11
6.96239e-11
2.77081e-11
6.84373e-11
2.01455e-11
6.21238e-11
1.48617e-11
6.24967e-11
1.53635e-11
6.44915e-11
7.9103e-12
5.74931e-11
3.68945e-12
6.02575e-11
4.59006e-12
6.27766e-11
3.96154e-12
6.01205e-11
4.36529e-13
5.01655e-11
-9.36844e-12
6.06345e-11
-3.90319e-12
5.43831e-11
-7.43487e-12
6.15623e-11
-4.25935e-12
7.58745e-11
4.60599e-12
1.1759e-10
3.36447e-12
1.89338e-10
-8.51581e-11
4.77122e-10
4.66653e-10
-3.18157e-09
1.90024e-09
2.83024e-09
-3.00966e-09
-1.78635e-09
5.52778e-11
-5.60709e-10
-7.70966e-10
-4.69776e-10
-2.16497e-10
-5.5294e-11
-2.75247e-11
2.38649e-11
1.9805e-11
6.35004e-11
4.56683e-11
8.05312e-11
5.70647e-11
8.82263e-11
4.98487e-11
7.74174e-11
4.36984e-11
7.76379e-11
3.68113e-11
6.92053e-11
2.99661e-11
6.82048e-11
2.76517e-11
6.7231e-11
2.03365e-11
6.07663e-11
1.51259e-11
6.12341e-11
1.60412e-11
6.34302e-11
8.77773e-12
5.60454e-11
4.40296e-12
5.89474e-11
5.60937e-12
6.19566e-11
5.92686e-12
6.13548e-11
1.14009e-12
4.21528e-11
-1.08977e-11
5.90296e-11
-1.79842e-12
5.27561e-11
-6.68268e-12
6.0703e-11
-4.64139e-12
7.66029e-11
1.69498e-12
1.21889e-10
-2.77182e-12
1.97411e-10
-9.27374e-11
4.74965e-10
4.50932e-10
-3.20919e-09
2.11862e-09
2.86637e-09
-3.27602e-09
-1.91872e-09
2.10716e-10
-4.31212e-10
-7.54027e-10
-4.83102e-10
-2.19963e-10
-5.47378e-11
-2.9415e-11
1.88521e-11
1.47036e-11
5.84403e-11
4.17406e-11
7.64827e-11
5.41667e-11
8.5242e-11
4.79594e-11
7.47843e-11
4.21953e-11
7.56071e-11
3.60507e-11
6.73379e-11
2.94071e-11
6.66349e-11
2.76342e-11
6.58803e-11
2.05987e-11
5.92966e-11
1.54819e-11
5.98471e-11
1.68197e-11
6.22315e-11
9.7697e-12
5.45022e-11
5.2312e-12
5.75271e-11
6.68606e-12
6.11752e-11
8.04058e-12
6.43454e-11
1.22166e-12
3.17229e-11
-1.25363e-11
5.74465e-11
4.60086e-13
5.09689e-11
-5.70507e-12
5.94467e-11
-4.48529e-12
7.6435e-11
2.68849e-13
1.23681e-10
-4.63942e-12
1.9866e-10
-8.80965e-11
4.5549e-10
4.43158e-10
-3.17154e-09
2.22459e-09
2.85234e-09
-3.40921e-09
-2.02952e-09
3.13595e-10
-3.10231e-10
-7.30774e-10
-4.96342e-10
-2.25725e-10
-5.5366e-11
-3.15607e-11
1.35816e-11
9.3553e-12
5.30232e-11
3.76004e-11
7.21566e-11
5.11013e-11
8.19786e-11
4.59774e-11
7.1986e-11
4.06426e-11
7.33712e-11
3.52633e-11
6.53351e-11
2.88628e-11
6.49216e-11
2.76451e-11
6.43933e-11
2.09172e-11
5.77236e-11
1.59179e-11
5.83479e-11
1.76792e-11
6.08994e-11
1.08639e-11
5.28718e-11
6.17501e-12
5.59846e-11
7.83873e-12
6.03425e-11
1.03328e-11
6.95279e-11
-1.99988e-13
1.84986e-11
-1.40877e-11
5.59617e-11
2.89824e-12
4.90277e-11
-4.42236e-12
5.77199e-11
-3.62331e-12
7.51695e-11
6.4505e-13
1.22676e-10
-2.08361e-12
1.933e-10
-7.25864e-11
4.22426e-10
4.387e-10
-3.06814e-09
2.22386e-09
2.78094e-09
-3.41723e-09
-2.10843e-09
3.64659e-10
-2.02846e-10
-7.01316e-10
-5.08332e-10
-2.33633e-10
-5.7368e-11
-3.39829e-11
8.14527e-12
3.84448e-12
4.73114e-11
3.32914e-11
6.75935e-11
4.79004e-11
7.84663e-11
4.39174e-11
6.90438e-11
3.90543e-11
7.09516e-11
3.44477e-11
6.32115e-11
2.83328e-11
6.30783e-11
2.76754e-11
6.27796e-11
2.12797e-11
5.60618e-11
1.64225e-11
5.67493e-11
1.86023e-11
5.94453e-11
1.20439e-11
5.11629e-11
7.22982e-12
5.43254e-11
9.06691e-12
5.94185e-11
1.25588e-11
7.8323e-11
-3.60995e-12
1.54803e-12
-1.5691e-11
5.44035e-11
5.45424e-12
4.69105e-11
-2.76291e-12
5.54704e-11
-1.96764e-12
7.27216e-11
2.89562e-12
1.1892e-10
4.56432e-12
1.82246e-10
-4.84756e-11
3.80057e-10
4.33122e-10
-2.90405e-09
2.13086e-09
2.65181e-09
-3.31725e-09
-2.14912e-09
3.68712e-10
-1.12736e-10
-6.66391e-10
-5.18036e-10
-2.43383e-10
-6.08891e-11
-3.67233e-11
2.61763e-12
-1.74999e-12
4.13661e-11
2.88489e-11
6.28339e-11
4.45954e-11
7.47437e-11
4.17936e-11
6.59796e-11
3.74431e-11
6.83713e-11
3.36062e-11
6.09834e-11
2.78168e-11
6.11207e-11
2.77165e-11
6.10542e-11
2.16773e-11
5.43253e-11
1.69833e-11
5.50672e-11
1.95682e-11
5.78876e-11
1.32837e-11
4.94012e-11
8.35972e-12
5.2595e-11
1.03073e-11
5.84785e-11
1.40258e-11
9.24756e-11
-3.62988e-12
-1.95099e-11
-1.75282e-11
5.2171e-11
7.93953e-12
4.45342e-11
-7.4492e-13
5.26605e-11
4.84489e-13
6.91203e-11
6.90656e-12
1.12711e-10
1.46235e-11
1.66871e-10
-1.84123e-11
3.33133e-10
4.22741e-10
-2.68914e-09
1.96569e-09
2.46762e-09
-3.13064e-09
-2.1481e-09
3.33468e-10
-4.21398e-11
-6.27277e-10
-5.24682e-10
-2.54572e-10
-6.60164e-11
-3.98418e-11
-2.94401e-12
-7.35831e-12
3.52396e-11
2.4305e-11
5.79147e-11
4.12168e-11
7.08463e-11
3.96205e-11
6.28157e-11
3.58186e-11
6.56562e-11
3.27402e-11
5.86646e-11
2.73125e-11
5.90646e-11
2.77607e-11
5.92357e-11
2.21e-11
5.25311e-11
1.75875e-11
5.33168e-11
2.0562e-11
5.62437e-11
1.45738e-11
4.75814e-11
9.59035e-12
5.07229e-11
1.17686e-11
5.70084e-11
1.55066e-11
9.92658e-11
-4.93313e-14
-3.14712e-11
-1.76621e-11
4.94837e-11
1.04363e-11
4.19776e-11
1.65093e-12
4.93424e-11
3.67973e-12
6.44964e-11
1.2423e-11
1.04539e-10
2.7255e-11
1.48832e-10
1.49656e-11
2.85769e-10
4.05394e-10
-2.43433e-09
1.74903e-09
2.23526e-09
-2.88102e-09
-2.10581e-09
2.68391e-10
8.17425e-12
-5.85508e-10
-5.27751e-10
-2.66714e-10
-7.27592e-11
-4.34012e-11
-8.49636e-12
-1.29201e-11
2.89833e-11
1.96855e-11
5.28705e-11
3.77863e-11
6.6806e-11
3.74115e-11
5.95737e-11
3.4189e-11
6.28291e-11
3.1852e-11
5.62766e-11
2.68183e-11
5.69327e-11
2.78009e-11
5.73404e-11
2.25379e-11
5.06939e-11
1.82245e-11
5.1512e-11
2.15725e-11
5.45214e-11
1.59141e-11
4.56889e-11
1.097e-11
4.85978e-11
1.36943e-11
5.44259e-11
1.82631e-11
8.6726e-11
1.68563e-12
-2.2525e-11
-1.39951e-11
4.69109e-11
1.31351e-11
3.93897e-11
4.44251e-12
4.56319e-11
7.51709e-12
5.9084e-11
1.90997e-11
9.50336e-11
4.1478e-11
1.29791e-10
4.91724e-11
2.40763e-10
3.80213e-10
-2.15212e-09
1.50117e-09
1.96371e-09
-2.59191e-09
-2.02489e-09
1.83344e-10
3.87098e-11
-5.42806e-10
-5.26998e-10
-2.79263e-10
-8.10579e-11
-4.74646e-11
-1.40153e-11
-1.83865e-11
2.26442e-11
1.50192e-11
4.77295e-11
3.43206e-11
6.26503e-11
3.51748e-11
5.62725e-11
3.25593e-11
5.99123e-11
3.09421e-11
5.38328e-11
2.63305e-11
5.47402e-11
2.78301e-11
5.53853e-11
2.29815e-11
4.88295e-11
1.88818e-11
4.96717e-11
2.25821e-11
5.27457e-11
1.72692e-11
4.37674e-11
1.24232e-11
4.63544e-11
1.58216e-11
5.13224e-11
2.10142e-11
6.73525e-11
6.36689e-12
-4.56013e-12
-8.5127e-12
4.39552e-11
1.5771e-11
3.66824e-11
7.50682e-12
4.16117e-11
1.18106e-11
5.31368e-11
2.65056e-11
8.48801e-11
5.62813e-11
1.1118e-10
8.20642e-11
2.00121e-10
3.47516e-10
-1.85457e-09
1.24034e-09
1.66371e-09
-2.2839e-09
-1.91025e-09
8.73567e-11
5.10531e-11
-5.00771e-10
-5.22472e-10
-2.91728e-10
-9.07974e-11
-5.2093e-11
-1.9498e-11
-2.37234e-11
1.6262e-11
1.03199e-11
4.25131e-11
3.08332e-11
5.84074e-11
3.29178e-11
5.29281e-11
3.09319e-11
5.69258e-11
3.00103e-11
5.13467e-11
2.58452e-11
5.25023e-11
2.7843e-11
5.3387e-11
2.34231e-11
4.69523e-11
1.95475e-11
4.78129e-11
2.35758e-11
5.09399e-11
1.86154e-11
4.18567e-11
1.38833e-11
4.41252e-11
1.78724e-11
4.83104e-11
2.28283e-11
5.37373e-11
1.39866e-11
8.63335e-12
-3.32307e-12
4.04569e-11
1.81913e-11
3.38478e-11
1.07247e-11
3.73992e-11
1.63673e-11
4.69638e-11
3.42151e-11
7.47407e-11
7.07458e-11
9.41707e-11
1.12039e-10
1.65235e-10
3.08408e-10
-1.55315e-09
9.81822e-10
1.34487e-09
-1.97432e-09
-1.76721e-09
-1.12102e-11
4.74821e-11
-4.6092e-10
-5.14499e-10
-3.03683e-10
-1.01819e-10
-5.73387e-11
-2.49609e-11
-2.89094e-11
9.86845e-12
5.59963e-12
3.72395e-11
2.73319e-11
5.41015e-11
3.06458e-11
4.95534e-11
2.93068e-11
5.3888e-11
2.90536e-11
4.88299e-11
2.53573e-11
5.0233e-11
2.78347e-11
5.1361e-11
2.3854e-11
4.5074e-11
2.02114e-11
4.59477e-11
2.45448e-11
4.91189e-11
1.99486e-11
3.99576e-11
1.53515e-11
4.18936e-11
1.98579e-11
4.53529e-11
2.42505e-11
4.47709e-11
1.92926e-11
1.74331e-11
1.8056e-12
3.70601e-11
2.05345e-11
3.10172e-11
1.40405e-11
3.31671e-11
2.1e-11
4.08583e-11
4.1823e-11
6.51773e-11
8.41381e-11
7.96452e-11
1.37995e-10
1.36482e-10
2.64646e-10
-1.25685e-09
7.36739e-10
1.01616e-09
-1.67793e-09
-1.60177e-09
-1.05249e-10
3.09081e-11
-4.24439e-10
-5.03573e-10
-3.14777e-10
-1.13923e-10
-6.32307e-11
-3.04249e-11
-3.39331e-11
3.49264e-12
8.69765e-13
3.1924e-11
2.38213e-11
4.97508e-11
2.83622e-11
4.61607e-11
2.76818e-11
5.08145e-11
2.80725e-11
4.62937e-11
2.48612e-11
4.79447e-11
2.77999e-11
4.9321e-11
2.42675e-11
4.32063e-11
2.0863e-11
4.40892e-11
2.54775e-11
4.73013e-11
2.12525e-11
3.80882e-11
1.68023e-11
3.96841e-11
2.17502e-11
4.2484e-11
2.5571e-11
3.84689e-11
2.26205e-11
2.3353e-11
7.0937e-12
3.40556e-11
2.28248e-11
2.82602e-11
1.7356e-11
2.90627e-11
2.55206e-11
3.50852e-11
4.89654e-11
5.66537e-11
9.59164e-11
6.81542e-11
1.59345e-10
1.13681e-10
2.18038e-10
-9.72814e-10
5.13573e-10
6.85749e-10
-1.40731e-09
-1.42041e-09
-1.89134e-10
4.57568e-12
-3.92141e-10
-4.90295e-10
-3.24746e-10
-1.26872e-10
-6.97726e-11
-3.59152e-11
-3.87927e-11
-2.84133e-12
-3.86095e-12
2.6581e-11
2.03021e-11
4.53719e-11
2.60709e-11
4.27614e-11
2.60526e-11
4.7718e-11
2.7066e-11
4.37473e-11
2.43503e-11
4.56482e-11
2.77329e-11
4.72792e-11
2.46576e-11
4.13601e-11
2.14925e-11
4.22521e-11
2.63606e-11
4.55048e-11
2.25094e-11
3.62744e-11
1.81971e-11
3.75485e-11
2.34843e-11
3.98181e-11
2.6783e-11
3.38577e-11
2.48358e-11
2.73337e-11
1.2389e-11
3.14558e-11
2.5002e-11
2.56123e-11
2.05584e-11
2.52088e-11
2.97618e-11
2.98716e-11
5.53673e-11
4.95109e-11
1.05729e-10
5.99646e-11
1.75831e-10
9.62825e-11
1.69981e-10
-7.06343e-10
3.19032e-10
3.614e-10
-1.17101e-09
-1.23024e-09
-2.59025e-10
-2.81904e-11
-3.6442e-10
-4.75276e-10
-3.33436e-10
-1.40457e-10
-7.69611e-11
-4.14694e-11
-4.35038e-11
-9.12246e-12
-8.59209e-12
2.12183e-11
1.67667e-11
4.09734e-11
2.37731e-11
3.93636e-11
2.44109e-11
4.46062e-11
2.60328e-11
4.11982e-11
2.38169e-11
4.33521e-11
2.76273e-11
4.52441e-11
2.50187e-11
3.95451e-11
2.2091e-11
4.04475e-11
2.71832e-11
4.37429e-11
2.37079e-11
3.45347e-11
1.9508e-11
3.55186e-11
2.50284e-11
3.74107e-11
2.78434e-11
3.04387e-11
2.64678e-11
2.98748e-11
1.74587e-11
2.92292e-11
2.70258e-11
2.31262e-11
2.35582e-11
2.17172e-11
3.35979e-11
2.5399e-11
6.08436e-11
4.3972e-11
1.13417e-10
5.51301e-11
1.87478e-10
8.38223e-11
1.21059e-10
-4.61363e-10
1.58696e-10
5.06605e-11
-9.7467e-10
-1.03806e-09
-3.12654e-10
-6.44614e-11
-3.41348e-10
-4.59075e-10
-3.40761e-10
-1.54488e-10
-8.47862e-11
-4.71295e-11
-4.80867e-11
-1.53492e-11
-1.33258e-11
1.5836e-11
1.32053e-11
3.65579e-11
2.1471e-11
3.59724e-11
2.27506e-11
4.14821e-11
2.49736e-11
3.86499e-11
2.32546e-11
4.10599e-11
2.74781e-11
4.32213e-11
2.53482e-11
3.77664e-11
2.26517e-11
3.86819e-11
2.79368e-11
4.20242e-11
2.48436e-11
3.28801e-11
2.07196e-11
3.36028e-11
2.6382e-11
3.526e-11
2.87459e-11
2.79154e-11
2.77837e-11
3.13212e-11
2.21478e-11
2.73631e-11
2.88841e-11
2.08611e-11
2.62825e-11
1.86685e-11
3.69327e-11
2.17867e-11
6.52751e-11
4.01462e-11
1.18954e-10
5.35967e-11
1.94375e-10
7.60035e-11
7.16577e-11
-2.41235e-10
3.60644e-11
1.94759e-09
8.50092e-10
-9.92623e-10
-1.59911e-09
-1.27546e-09
-8.21959e-10
-4.47374e-10
-2.3572e-10
-6.97552e-11
-1.55572e-11
5.12242e-11
4.852e-11
8.89375e-11
6.76769e-11
1.00885e-10
7.28893e-11
1.01295e-10
6.19766e-11
9.14931e-11
5.38989e-11
8.68299e-11
4.36452e-11
7.90343e-11
3.57474e-11
7.56324e-11
3.0479e-11
7.29667e-11
2.23053e-11
6.81195e-11
1.65635e-11
6.7633e-11
1.46712e-11
6.77336e-11
6.80919e-12
6.36245e-11
2.66095e-12
6.51768e-11
1.45882e-12
6.68943e-11
-2.32119e-12
6.61081e-11
-2.05792e-12
7.04681e-11
-5.14529e-12
6.71406e-11
-1.31731e-11
6.09144e-11
-1.28016e-11
6.25122e-11
-4.10875e-12
6.7078e-11
2.22347e-11
7.61277e-11
6.77534e-11
7.17844e-11
1.52551e-10
1.57478e-10
6.06171e-10
-2.10997e-09
-5.57366e-10
2.00557e-09
8.92556e-10
-1.00776e-09
-1.61073e-09
-1.27747e-09
-8.21687e-10
-4.4773e-10
-2.36516e-10
-7.08271e-11
-1.66099e-11
5.02257e-11
4.77313e-11
8.82031e-11
6.7109e-11
1.00323e-10
7.25191e-11
1.00864e-10
6.16555e-11
9.11062e-11
5.37131e-11
8.65289e-11
4.34926e-11
7.8744e-11
3.56764e-11
7.53818e-11
3.04556e-11
7.27443e-11
2.23037e-11
6.78886e-11
1.66067e-11
6.741e-11
1.47647e-11
6.75113e-11
6.8943e-12
6.33631e-11
2.8138e-12
6.49188e-11
1.65845e-12
6.6615e-11
-2.09658e-12
6.57524e-11
-1.80055e-12
7.01237e-11
-4.76361e-12
6.67619e-11
-1.27357e-11
6.04546e-11
-1.22036e-11
6.20214e-11
-3.40574e-12
6.64977e-11
2.30977e-11
7.54638e-11
6.8639e-11
7.07811e-11
1.51487e-10
1.62002e-10
6.36068e-10
-2.14142e-09
-6.20166e-10
2.09322e-09
8.87315e-10
-1.03939e-09
-1.60644e-09
-1.27216e-09
-8.18462e-10
-4.46426e-10
-2.36646e-10
-7.14713e-11
-1.79828e-11
4.90166e-11
4.64204e-11
8.73225e-11
6.60518e-11
9.9655e-11
7.17227e-11
1.00485e-10
6.09361e-11
9.07468e-11
5.31473e-11
8.63713e-11
4.29915e-11
7.86047e-11
3.52553e-11
7.53503e-11
3.0089e-11
7.27733e-11
2.19453e-11
6.79086e-11
1.62895e-11
6.74735e-11
1.4513e-11
6.76418e-11
6.59313e-12
6.3425e-11
2.56833e-12
6.50408e-11
1.45308e-12
6.67489e-11
-2.29779e-12
6.57745e-11
-2.0439e-12
7.02195e-11
-4.81817e-12
6.68951e-11
-1.27447e-11
6.04649e-11
-1.20672e-11
6.20735e-11
-3.19357e-12
6.64514e-11
2.33709e-11
7.55319e-11
6.85998e-11
7.12877e-11
1.45823e-10
1.66178e-10
6.78544e-10
-2.20708e-09
-6.49882e-10
2.1817e-09
7.84888e-10
-1.07642e-09
-1.57133e-09
-1.25701e-09
-8.1234e-10
-4.42956e-10
-2.35052e-10
-7.11074e-11
-1.90737e-11
4.7642e-11
4.47925e-11
8.61356e-11
6.47037e-11
9.86852e-11
7.06883e-11
9.99186e-11
6.00001e-11
9.01315e-11
5.24075e-11
8.60776e-11
4.23571e-11
7.83019e-11
3.47278e-11
7.51967e-11
2.96634e-11
7.27364e-11
2.15292e-11
6.78279e-11
1.59288e-11
6.74571e-11
1.42516e-11
6.77541e-11
6.28462e-12
6.33907e-11
2.31264e-12
6.51032e-11
1.27554e-12
6.68411e-11
-2.46331e-12
6.56937e-11
-2.3031e-12
7.02199e-11
-4.83907e-12
6.70286e-11
-1.27017e-11
6.03936e-11
-1.19009e-11
6.21643e-11
-3.06347e-12
6.65554e-11
2.3205e-11
7.64853e-11
6.69757e-11
7.48269e-11
1.32021e-10
1.81885e-10
7.0514e-10
-2.29426e-09
-5.93684e-10
2.25373e-09
5.50496e-10
-1.11274e-09
-1.48498e-09
-1.22858e-09
-8.05117e-10
-4.38352e-10
-2.31715e-10
-6.95275e-11
-1.9708e-11
4.61815e-11
4.29818e-11
8.46603e-11
6.31319e-11
9.73957e-11
6.94655e-11
9.91209e-11
5.88909e-11
8.9214e-11
5.15124e-11
8.55851e-11
4.16346e-11
7.77574e-11
3.41278e-11
7.48519e-11
2.92135e-11
7.25422e-11
2.11113e-11
6.75517e-11
1.5572e-11
6.72615e-11
1.40594e-11
6.77447e-11
6.05664e-12
6.31425e-11
2.13312e-12
6.4986e-11
1.21965e-12
6.6766e-11
-2.46745e-12
6.53968e-11
-2.42548e-12
6.98998e-11
-4.71354e-12
6.69768e-11
-1.24085e-11
6.00521e-11
-1.16211e-11
6.21348e-11
-2.97184e-12
6.68055e-11
2.24782e-11
7.85809e-11
6.30708e-11
8.24058e-11
1.09453e-10
2.12671e-10
7.05325e-10
-2.39683e-09
-4.21736e-10
2.31673e-09
1.78131e-10
-1.15279e-09
-1.34247e-09
-1.18397e-09
-7.98818e-10
-4.34164e-10
-2.27274e-10
-6.71243e-11
-2.00276e-11
4.45582e-11
4.09726e-11
8.29136e-11
6.13653e-11
9.58265e-11
6.80878e-11
9.81233e-11
5.76807e-11
8.80366e-11
5.05034e-11
8.49034e-11
4.08621e-11
7.69989e-11
3.34742e-11
7.43254e-11
2.87657e-11
7.21892e-11
2.07183e-11
6.70722e-11
1.52436e-11
6.68812e-11
1.39509e-11
6.75794e-11
5.94043e-12
6.26553e-11
2.05022e-12
6.46535e-11
1.31961e-12
6.64799e-11
-2.24759e-12
6.48421e-11
-2.37635e-12
6.91564e-11
-4.4417e-12
6.66586e-11
-1.1835e-11
5.94338e-11
-1.1209e-11
6.19885e-11
-2.98792e-12
6.73012e-11
2.0895e-11
8.21564e-11
5.6399e-11
9.48797e-11
7.81491e-11
2.58423e-10
6.79967e-10
-2.52036e-09
-1.31295e-10
2.38346e-09
-3.17414e-10
-1.20685e-09
-1.14663e-09
-1.12068e-09
-7.9422e-10
-4.31722e-10
-2.22422e-10
-6.42186e-11
-2.02776e-11
4.26082e-11
3.86522e-11
8.08233e-11
5.93817e-11
9.39794e-11
6.65568e-11
9.69406e-11
5.64089e-11
8.66439e-11
4.94206e-11
8.40647e-11
4.00947e-11
7.60615e-11
3.2809e-11
7.3642e-11
2.83621e-11
7.16824e-11
2.03933e-11
6.64057e-11
1.49812e-11
6.63181e-11
1.39577e-11
6.72542e-11
5.9776e-12
6.19368e-11
2.10434e-12
6.40898e-11
1.61806e-12
6.59641e-11
-1.76375e-12
6.40404e-11
-2.12919e-12
6.79107e-11
-4.02939e-12
6.60786e-11
-1.09589e-11
5.85555e-11
-1.07136e-11
6.17483e-11
-3.20484e-12
6.81597e-11
1.83291e-11
8.73628e-11
4.68513e-11
1.11974e-10
4.02774e-11
3.1456e-10
6.35767e-10
-2.66397e-09
2.60251e-10
2.46206e-09
-8.9712e-10
-1.28181e-09
-9.09154e-10
-1.03766e-09
-7.9117e-10
-4.31924e-10
-2.17727e-10
-6.11024e-11
-2.06675e-11
4.0187e-11
3.58716e-11
7.82679e-11
5.71158e-11
9.17961e-11
6.48372e-11
9.55278e-11
5.50749e-11
8.50521e-11
4.82757e-11
8.30662e-11
3.93565e-11
7.49692e-11
3.21644e-11
7.28161e-11
2.80311e-11
7.10379e-11
2.01718e-11
6.55746e-11
1.48194e-11
6.55867e-11
1.41091e-11
6.67588e-11
6.20045e-12
6.09982e-11
2.31226e-12
6.33024e-11
2.13054e-12
6.52299e-11
-9.94338e-13
6.30538e-11
-1.6861e-12
6.61517e-11
-3.5167e-12
6.52384e-11
-9.8013e-12
5.74631e-11
-1.01771e-11
6.14619e-11
-3.68541e-12
6.93953e-11
1.47949e-11
9.39718e-11
3.51061e-11
1.32202e-10
1.98687e-14
3.7238e-10
5.83553e-10
-2.81831e-09
7.09838e-10
2.55528e-09
-1.50718e-09
-1.38061e-09
-6.48911e-10
-9.3589e-10
-7.88514e-10
-4.3538e-10
-2.13769e-10
-5.80262e-11
-2.13269e-11
3.71595e-11
3.25675e-11
7.51879e-11
5.45015e-11
8.92305e-11
6.28793e-11
9.38249e-11
5.36528e-11
8.32473e-11
4.70639e-11
8.18805e-11
3.86426e-11
7.37227e-11
3.15527e-11
7.18503e-11
2.77786e-11
7.02548e-11
2.00743e-11
6.45923e-11
1.47799e-11
6.47036e-11
1.44171e-11
6.60991e-11
6.62348e-12
5.98715e-11
2.69031e-12
6.23064e-11
2.8616e-12
6.43161e-11
4.96429e-14
6.19483e-11
-1.05478e-12
6.38644e-11
-2.88346e-12
6.41749e-11
-8.40488e-12
5.62138e-11
-9.62283e-12
6.11367e-11
-4.36561e-12
7.09244e-11
1.05948e-11
1.0137e-10
2.23953e-11
1.53076e-10
-3.76942e-11
4.22591e-10
5.34174e-10
-2.96877e-09
1.16175e-09
2.65706e-09
-2.09332e-09
-1.50148e-09
-3.87711e-10
-8.18563e-10
-7.847e-10
-4.42204e-10
-2.11074e-10
-5.51905e-11
-2.23031e-11
3.35443e-11
2.87395e-11
7.15661e-11
5.15265e-11
8.62705e-11
6.06796e-11
9.1799e-11
5.21149e-11
8.12273e-11
4.57734e-11
8.04875e-11
3.79377e-11
7.232e-11
3.0967e-11
7.07361e-11
2.76114e-11
6.93244e-11
2.00873e-11
6.3469e-11
1.48594e-11
6.36783e-11
1.48819e-11
6.52777e-11
7.2458e-12
5.85797e-11
3.24099e-12
6.11223e-11
3.80375e-12
6.32222e-11
1.36418e-12
6.07978e-11
-2.82555e-13
6.10382e-11
-2.15067e-12
6.29253e-11
-6.80888e-12
5.4862e-11
-9.04279e-12
6.07501e-11
-5.12775e-12
7.25542e-11
6.25153e-12
1.08668e-10
1.03955e-11
1.71861e-10
-6.81701e-11
4.58096e-10
4.94563e-10
-3.09656e-09
1.56787e-09
2.75366e-09
-2.6029e-09
-1.63829e-09
-1.47008e-10
-6.90774e-10
-7.77983e-10
-4.52067e-10
-2.10106e-10
-5.28664e-11
-2.3587e-11
2.93872e-11
2.44263e-11
6.74255e-11
4.82088e-11
8.29319e-11
5.82334e-11
8.94457e-11
5.04575e-11
7.89882e-11
4.44036e-11
7.88792e-11
3.72259e-11
7.07561e-11
3.04006e-11
6.9466e-11
2.75093e-11
6.8242e-11
2.02035e-11
6.22128e-11
1.50587e-11
6.25147e-11
1.54931e-11
6.42954e-11
8.04535e-12
5.71492e-11
3.96129e-12
5.97698e-11
4.93687e-12
6.19834e-11
2.92226e-12
5.96705e-11
5.77593e-13
5.77172e-11
-1.34576e-12
6.15196e-11
-5.03192e-12
5.34066e-11
-8.39159e-12
6.01962e-11
-5.78762e-12
7.3947e-11
2.34019e-12
1.1491e-10
6.63729e-13
1.86151e-10
-8.80844e-11
4.75053e-10
4.67164e-10
-3.18156e-09
1.89239e-09
2.82853e-09
-3.00167e-09
-1.78008e-09
5.67223e-11
-5.58814e-10
-7.66763e-10
-4.64215e-10
-2.11231e-10
-5.12714e-11
-2.5159e-11
2.4771e-11
1.96922e-11
6.28085e-11
4.45836e-11
7.92295e-11
5.55639e-11
8.67687e-11
4.8681e-11
7.6539e-11
4.29631e-11
7.70493e-11
3.64932e-11
6.90332e-11
2.98471e-11
6.80361e-11
2.74634e-11
6.70058e-11
2.04077e-11
6.08326e-11
1.53651e-11
6.12187e-11
1.6228e-11
6.31694e-11
8.99837e-12
5.55928e-11
4.82723e-12
5.82586e-11
6.22634e-12
6.06226e-11
4.66699e-12
5.8642e-11
1.49992e-12
5.39419e-11
-4.47232e-13
5.99874e-11
-3.09836e-12
5.18264e-11
-7.5761e-12
5.94135e-11
-6.13715e-12
7.4748e-11
-5.59689e-13
1.19267e-10
-5.49825e-12
1.94317e-10
-9.57598e-11
4.72973e-10
4.51219e-10
-3.20966e-09
2.11248e-09
2.86532e-09
-3.26974e-09
-1.91299e-09
2.12455e-10
-4.29279e-10
-7.49862e-10
-4.7754e-10
-2.14656e-10
-5.06693e-11
-2.70001e-11
1.97959e-11
1.462e-11
5.77716e-11
4.06867e-11
7.52044e-11
5.26878e-11
8.37883e-11
4.67973e-11
7.39008e-11
4.14644e-11
7.50052e-11
3.57352e-11
6.71597e-11
2.93058e-11
6.64549e-11
2.74583e-11
6.56252e-11
2.06832e-11
5.93379e-11
1.57621e-11
5.97977e-11
1.70642e-11
6.19045e-11
1.00785e-11
5.39341e-11
5.81819e-12
5.66133e-11
7.64148e-12
5.91469e-11
6.54638e-12
5.77462e-11
2.47154e-12
4.97887e-11
5.54662e-13
5.83207e-11
-1.02317e-12
5.00978e-11
-6.52737e-12
5.82391e-11
-5.94447e-12
7.46555e-11
-1.96579e-12
1.21117e-10
-7.38071e-12
1.95663e-10
-9.1187e-11
4.53565e-10
4.43185e-10
-3.17262e-09
2.22016e-09
2.85218e-09
-3.40456e-09
-2.02449e-09
3.15604e-10
-3.0822e-10
-7.26652e-10
-4.90801e-10
-2.20398e-10
-5.12681e-11
-2.91069e-11
1.45576e-11
9.29903e-12
5.23769e-11
3.65786e-11
7.09008e-11
4.96468e-11
8.05336e-11
4.48243e-11
7.11003e-11
3.99191e-11
7.27585e-11
3.49512e-11
6.51498e-11
2.87784e-11
6.47308e-11
2.74821e-11
6.41112e-11
2.10137e-11
5.77393e-11
1.62358e-11
5.82663e-11
1.79784e-11
6.05129e-11
1.12546e-11
5.21972e-11
6.91608e-12
5.48538e-11
9.1516e-12
5.75641e-11
8.50727e-12
5.69735e-11
3.52423e-12
4.5388e-11
1.67505e-12
5.6506e-11
1.191e-12
4.81972e-11
-5.18167e-12
5.65878e-11
-5.04609e-12
7.34657e-11
-1.56293e-12
1.20177e-10
-4.8302e-12
1.904e-10
-7.57118e-11
4.20565e-10
4.3844e-10
-3.06992e-09
2.22107e-09
2.78184e-09
-3.41406e-09
-2.10422e-09
3.66905e-10
-2.00721e-10
-6.9724e-10
-5.02834e-10
-2.28308e-10
-5.32584e-11
-3.1501e-11
9.14965e-12
3.81436e-12
4.66874e-11
3.22987e-11
6.63627e-11
4.64736e-11
7.70337e-11
4.27768e-11
6.81589e-11
3.83407e-11
7.03306e-11
3.41398e-11
6.30188e-11
2.8264e-11
6.28777e-11
2.75248e-11
6.24743e-11
2.13856e-11
5.60531e-11
1.67725e-11
5.66412e-11
1.89483e-11
5.90101e-11
1.25024e-11
5.04016e-11
8.10075e-12
5.30007e-11
1.07298e-11
5.58693e-11
1.04898e-11
5.62074e-11
4.73905e-12
4.10153e-11
2.94097e-12
5.45216e-11
3.53419e-12
4.61015e-11
-3.47268e-12
5.44049e-11
-3.35442e-12
7.10888e-11
7.1883e-13
1.16484e-10
1.82363e-12
1.79437e-10
-5.1601e-11
3.78254e-10
4.32568e-10