/*--------------------------------*- C++ -*----------------------------------*\
| =========                 |                                                 |
| \\      /  F ield         | OpenFOAM: The Open Source CFD Toolbox           |
|  \\    /   O peration     | Version:  2312                                  |
|   \\  /    A nd           | Website:  www.openfoam.com                      |
|    \\/     M anipulation  |                                                 |
\*---------------------------------------------------------------------------*/
FoamFile
{
    version     2.0;
    format      ascii;
    arch        "LSB;label=32;scalar=64";
    class       volScalarField;
    location    "160";
    object      pPrime2Mean;
}
// * * * * * * * * * * * * * * * * * * * * * * * * * * * * * * * * * * * * * //

dimensions      [0 4 -4 0 0 0 0];

internalField   nonuniform List<scalar> 
144000
(
1.41645e-17
1.90484e-17
1.74717e-17
1.36454e-17
9.92091e-18
7.27679e-18
5.53376e-18
4.12441e-18
3.06693e-18
2.51894e-18
2.34432e-18
2.11916e-18
1.80023e-18
1.44152e-18
1.19845e-18
1.00915e-18
9.21738e-19
7.92238e-19
7.33148e-19
6.53589e-19
5.85873e-19
4.8581e-19
4.89554e-19
3.69691e-19
3.88965e-19
3.06734e-19
3.08582e-19
2.51265e-19
2.47159e-19
1.94841e-19
2.04145e-19
1.4956e-19
1.70406e-19
1.23736e-19
1.30949e-19
1.30442e-19
7.04735e-20
1.46357e-19
5.02854e-20
9.46748e-20
1.2062e-19
1.34858e-20
1.85994e-19
4.51666e-20
1.35329e-19
2.05142e-19
7.97949e-20
2.80959e-19
2.18301e-19
2.34299e-19
4.22553e-19
3.72176e-19
5.40822e-19
7.8375e-19
9.72038e-19
1.43956e-18
2.30287e-18
3.76096e-18
8.45932e-18
1.04697e-17
1.4861e-17
1.94705e-17
1.79351e-17
1.39878e-17
1.00846e-17
7.37272e-18
5.59641e-18
4.16446e-18
3.08922e-18
2.53231e-18
2.35555e-18
2.12907e-18
1.80745e-18
1.44626e-18
1.2017e-18
1.01168e-18
9.24128e-19
7.94174e-19
7.34511e-19
6.55339e-19
5.87303e-19
4.86373e-19
4.90746e-19
3.7064e-19
3.8942e-19
3.07735e-19
3.0905e-19
2.52019e-19
2.47714e-19
1.95307e-19
2.0485e-19
1.49887e-19
1.71088e-19
1.2438e-19
1.31138e-19
1.3213e-19
6.99891e-20
1.48344e-19
5.11953e-20
9.46598e-20
1.24343e-19
1.24583e-20
1.89725e-19
4.77384e-20
1.36003e-19
2.12473e-19
8.13337e-20
2.87774e-19
2.27425e-19
2.40518e-19
4.37517e-19
3.87939e-19
5.60702e-19
8.16719e-19
1.01437e-18
1.50218e-18
2.4067e-18
3.89107e-18
8.86692e-18
1.07065e-17
1.52789e-17
1.98355e-17
1.80771e-17
1.41023e-17
1.01254e-17
7.40308e-18
5.62725e-18
4.18914e-18
3.10424e-18
2.54184e-18
2.36567e-18
2.13871e-18
1.81472e-18
1.45068e-18
1.20488e-18
1.01409e-18
9.27094e-19
7.96211e-19
7.36106e-19
6.57439e-19
5.89156e-19
4.86722e-19
4.92693e-19
3.71398e-19
3.90494e-19
3.08761e-19
3.0999e-19
2.52884e-19
2.48763e-19
1.95805e-19
2.06191e-19
1.50218e-19
1.72405e-19
1.25295e-19
1.31668e-19
1.34799e-19
6.93612e-20
1.5176e-19
5.25283e-20
9.5218e-20
1.30111e-19
1.12771e-20
1.96022e-19
5.16687e-20
1.38122e-19
2.23653e-19
8.46111e-20
2.98931e-19
2.417e-19
2.51138e-19
4.60642e-19
4.12243e-19
5.90515e-19
8.63615e-19
1.07147e-18
1.5791e-18
2.52038e-18
4.02374e-18
9.20588e-18
1.09628e-17
1.50192e-17
1.96779e-17
1.7677e-17
1.37848e-17
9.94821e-18
7.30082e-18
5.57833e-18
4.16628e-18
3.09062e-18
2.53345e-18
2.36329e-18
2.13927e-18
1.81533e-18
1.45063e-18
1.20482e-18
1.01414e-18
9.28399e-19
7.96845e-19
7.36395e-19
6.58727e-19
5.90423e-19
4.86389e-19
4.94255e-19
3.71865e-19
3.913e-19
3.09716e-19
3.10867e-19
2.53754e-19
2.49797e-19
1.96326e-19
2.07653e-19
1.50544e-19
1.7393e-19
1.26339e-19
1.32252e-19
1.37973e-19
6.86105e-20
1.55869e-19
5.41681e-20
9.59498e-20
1.36983e-19
1.00761e-20
2.03379e-19
5.66011e-20
1.40611e-19
2.36748e-19
8.87893e-20
3.11641e-19
2.58473e-19
2.63233e-19
4.86269e-19
4.39422e-19
6.21397e-19
9.11781e-19
1.12528e-18
1.64426e-18
2.5966e-18
4.05161e-18
9.31502e-18
1.09247e-17
1.41624e-17
1.92179e-17
1.68208e-17
1.30743e-17
9.57174e-18
7.06149e-18
5.43974e-18
4.08528e-18
3.03916e-18
2.49851e-18
2.33987e-18
2.12311e-18
1.80393e-18
1.44248e-18
1.19894e-18
1.00978e-18
9.26084e-19
7.94581e-19
7.34111e-19
6.57862e-19
5.90057e-19
4.84811e-19
4.94513e-19
3.71583e-19
3.91401e-19
3.10141e-19
3.11337e-19
2.54319e-19
2.50514e-19
1.96652e-19
2.08941e-19
1.50734e-19
1.75354e-19
1.27317e-19
1.32682e-19
1.41181e-19
6.77722e-20
1.59923e-19
5.59284e-20
9.65807e-20
1.43907e-19
9.01478e-21
2.10375e-19
6.19089e-20
1.42777e-19
2.4959e-19
9.31815e-20
3.23236e-19
2.74935e-19
2.74388e-19
5.09425e-19
4.64506e-19
6.4672e-19
9.5088e-19
1.16503e-18
1.68375e-18
2.62917e-18
3.98409e-18
9.27714e-18
1.07159e-17
1.31453e-17
1.8993e-17
1.57753e-17
1.21669e-17
9.08306e-18
6.73386e-18
5.22932e-18
3.95352e-18
2.95309e-18
2.43747e-18
2.29401e-18
2.0883e-18
1.77858e-18
1.42459e-18
1.18607e-18
1.00004e-18
9.19217e-19
7.88635e-19
7.28572e-19
6.54039e-19
5.8734e-19
4.81574e-19
4.92917e-19
3.70101e-19
3.90497e-19
3.097e-19
3.1116e-19
2.54361e-19
2.50689e-19
1.96625e-19
2.09813e-19
1.50651e-19
1.76425e-19
1.28065e-19
1.32788e-19
1.44056e-19
6.68505e-20
1.63514e-19
5.75998e-20
9.70132e-20
1.50132e-19
8.16721e-21
2.16234e-19
6.69458e-20
1.44384e-19
2.60521e-19
9.72738e-20
3.32503e-19
2.88947e-19
2.8366e-19
5.27396e-19
4.84964e-19
6.64793e-19
9.78655e-19
1.18911e-18
1.70186e-18
2.62616e-18
3.86183e-18
9.2554e-18
1.05725e-17
1.21435e-17
1.92275e-17
1.46866e-17
1.11892e-17
8.52362e-18
6.34233e-18
4.96223e-18
3.78082e-18
2.8383e-18
2.35443e-18
2.22829e-18
2.03615e-18
1.73986e-18
1.39726e-18
1.16637e-18
9.85051e-19
9.0778e-19
7.78929e-19
7.19787e-19
6.47087e-19
5.82104e-19
4.76532e-19
4.89237e-19
3.67149e-19
3.88385e-19
3.08254e-19
3.10102e-19
2.53783e-19
2.50176e-19
1.96158e-19
2.10116e-19
1.5024e-19
1.76978e-19
1.285e-19
1.32489e-19
1.4639e-19
6.58514e-20
1.66368e-19
5.90331e-20
9.72724e-20
1.55302e-19
7.52462e-21
2.20792e-19
7.12765e-20
1.45522e-19
2.69091e-19
1.00688e-19
3.39441e-19
2.99704e-19
2.91016e-19
5.40191e-19
5.00097e-19
6.76288e-19
9.95605e-19
1.19869e-18
1.70341e-18
2.5932e-18
3.70424e-18
9.30682e-18
1.06099e-17
1.12112e-17
1.98825e-17
1.36115e-17
1.02076e-17
7.90676e-18
5.90092e-18
4.64981e-18
3.575e-18
2.70078e-18
2.25392e-18
2.14639e-18
1.96977e-18
1.68993e-18
1.36171e-18
1.14063e-18
9.65355e-19
8.92238e-19
7.65907e-19
7.08177e-19
6.37341e-19
5.74591e-19
4.69796e-19
4.83601e-19
3.62761e-19
3.84997e-19
3.05836e-19
3.08094e-19
2.52595e-19
2.48946e-19
1.95251e-19
2.09805e-19
1.4952e-19
1.76953e-19
1.28632e-19
1.31764e-19
1.48142e-19
6.47978e-20
1.68503e-19
6.02227e-20
9.73631e-20
1.59535e-19
7.00874e-21
2.24224e-19
7.48766e-20
1.46304e-19
2.75636e-19
1.0327e-19
3.44821e-19
3.07459e-19
2.967e-19
5.49023e-19
5.10468e-19
6.82367e-19
1.00375e-18
1.19526e-18
1.69205e-18
2.53449e-18
3.5205e-18
9.43021e-18
1.0788e-17
1.03657e-17
2.07194e-17
1.25771e-17
9.26863e-18
7.2475e-18
5.42589e-18
4.30502e-18
3.34561e-18
2.54775e-18
2.14109e-18
2.053e-18
1.89284e-18
1.63154e-18
1.31978e-18
1.11004e-18
9.41783e-19
8.7328e-19
7.50161e-19
6.94314e-19
6.25373e-19
5.65274e-19
4.61662e-19
4.76347e-19
3.57165e-19
3.80355e-19
3.02573e-19
3.05148e-19
2.50857e-19
2.4704e-19
1.93979e-19
2.08928e-19
1.48557e-19
1.76381e-19
1.28539e-19
1.3063e-19
1.49411e-19
6.37164e-20
1.69981e-19
6.13072e-20
9.72207e-20
1.63177e-19
6.49336e-21
2.26867e-19
7.8006e-20
1.46559e-19
2.80945e-19
1.04816e-19
3.4892e-19
3.12857e-19
3.00379e-19
5.54657e-19
5.1603e-19
6.82806e-19
1.00379e-18
1.17912e-18
1.66697e-18
2.45209e-18
3.3171e-18
9.57751e-18
1.0964e-17
9.60803e-18
2.14334e-17
1.1609e-17
8.38856e-18
6.57084e-18
4.93494e-18
3.94301e-18
3.10295e-18
2.38622e-18
2.02133e-18
1.9524e-18
1.809e-18
1.56761e-18
1.27354e-18
1.07605e-18
9.15397e-19
8.51735e-19
7.32302e-19
6.78754e-19
6.11775e-19
5.54765e-19
4.52507e-19
4.67924e-19
3.50742e-19
3.74576e-19
2.98695e-19
3.01347e-19
2.4865e-19
2.44528e-19
1.92435e-19
2.07557e-19
1.4743e-19
1.7531e-19
1.28325e-19
1.2909e-19
1.5029e-19
6.26322e-20
1.70782e-19
6.24968e-20
9.66256e-20
1.66587e-19
5.85767e-21
2.28641e-19
8.10291e-20
1.45741e-19
2.85414e-19
1.05058e-19
3.51192e-19
3.16173e-19
3.00897e-19
5.56445e-19
5.16205e-19
6.75913e-19
9.94219e-19
1.14795e-18
1.62387e-18
2.33889e-18
3.09208e-18
9.67858e-18
1.09271e-17
8.91266e-18
2.16659e-17
1.07231e-17
7.55548e-18
5.90512e-18
4.44731e-18
3.57909e-18
2.85699e-18
2.22315e-18
1.89966e-18
1.84872e-18
1.72177e-18
1.50078e-18
1.22496e-18
1.04016e-18
8.87342e-19
8.28473e-19
7.13056e-19
6.61942e-19
5.97035e-19
5.43603e-19
4.42719e-19
4.58723e-19
3.43927e-19
3.6786e-19
2.94384e-19
2.96828e-19
2.46022e-19
2.41506e-19
1.90705e-19
2.05749e-19
1.4621e-19
1.73774e-19
1.2806e-19
1.27142e-19
1.50836e-19
6.15656e-20
1.70788e-19
6.3969e-20
9.53058e-20
1.69892e-19
5.02828e-21
2.29164e-19
8.41445e-20
1.43251e-19
2.88777e-19
1.03719e-19
3.5055e-19
3.17097e-19
2.97068e-19
5.53194e-19
5.09784e-19
6.59436e-19
9.73001e-19
1.1004e-18
1.55906e-18
2.19486e-18
2.84474e-18
9.63715e-18
1.05348e-17
8.25191e-18
2.12314e-17
9.92186e-18
6.75916e-18
5.27333e-18
3.97914e-18
3.22627e-18
2.61586e-18
2.0639e-18
1.78016e-18
1.74538e-18
1.63397e-18
1.43324e-18
1.17569e-18
1.0036e-18
8.58586e-19
8.04307e-19
6.93026e-19
6.44334e-19
5.81558e-19
5.32146e-19
4.32643e-19
4.49039e-19
3.37098e-19
3.60451e-19
2.89831e-19
2.91753e-19
2.43024e-19
2.3805e-19
1.88842e-19
2.03531e-19
1.44954e-19
1.71823e-19
1.27777e-19
1.24773e-19
1.51025e-19
6.05475e-20
1.6982e-19
6.57556e-20
9.30535e-20
1.7299e-19
4.01033e-21
2.28047e-19
8.73138e-20
1.38608e-19
2.90585e-19
1.00698e-19
3.46221e-19
3.15338e-19
2.88371e-19
5.44119e-19
4.96441e-19
6.33148e-19
9.3981e-19
1.0376e-18
1.47245e-18
2.02566e-18
2.58062e-18
9.39679e-18
9.75119e-18
7.59393e-18
2.00963e-17
9.1864e-18
5.9896e-18
4.68999e-18
3.54205e-18
2.89492e-18
2.38553e-18
1.91218e-18
1.66581e-18
1.64505e-18
1.54788e-18
1.36676e-18
1.12694e-18
9.67307e-19
8.29943e-19
7.79953e-19
6.72793e-19
6.26391e-19
5.65706e-19
5.20624e-19
4.22564e-19
4.39095e-19
3.30531e-19
3.5264e-19
2.85193e-19
2.86333e-19
2.39719e-19
2.34249e-19
1.86867e-19
2.00917e-19
1.43705e-19
1.69482e-19
1.27471e-19
1.22036e-19
1.50794e-19
5.96104e-20
1.6777e-19
6.77914e-20
8.99201e-20
1.75885e-19
2.87972e-21
2.25184e-19
9.04044e-20
1.31918e-19
2.90521e-19
9.61681e-20
3.38055e-19
3.10904e-19
2.74983e-19
5.29467e-19
4.76979e-19
5.98247e-19
8.96404e-19
9.63394e-19
1.36845e-18
1.84138e-18
2.30871e-18
8.938e-18
8.64099e-18
6.9191e-18
1.83615e-17
8.49283e-18
5.24599e-18
4.16179e-18
3.14312e-18
2.59118e-18
2.16997e-18
1.77021e-18
1.55857e-18
1.54958e-18
1.4652e-18
1.30256e-18
1.0797e-18
9.32016e-19
8.02062e-19
7.55967e-19
6.52887e-19
6.08537e-19
5.49795e-19
5.09172e-19
4.127e-19
4.29043e-19
3.24378e-19
3.4466e-19
2.806e-19
2.8075e-19
2.36193e-19
2.30192e-19
1.84811e-19
1.97938e-19
1.42495e-19
1.66798e-19
1.27123e-19
1.19025e-19
1.50113e-19
5.879e-20
1.64694e-19
6.99708e-20
8.60542e-20
1.78794e-19
1.76393e-21
2.20972e-19
9.33469e-20
1.23559e-19
2.88566e-19
9.05512e-20
3.26528e-19
3.04327e-19
2.5794e-19
5.10344e-19
4.53061e-19
5.57277e-19
8.45827e-19
8.82975e-19
1.25367e-18
1.65494e-18
2.04068e-18
8.28773e-18
7.34318e-18
6.21552e-18
1.62153e-17
7.81635e-18
4.53675e-18
3.6886e-18
2.78547e-18
2.31788e-18
1.97151e-18
1.63904e-18
1.45941e-18
1.46013e-18
1.38695e-18
1.24143e-18
1.03462e-18
8.98113e-19
7.75336e-19
7.32753e-19
6.33644e-19
5.91097e-19
5.34118e-19
4.97894e-19
4.03208e-19
4.19005e-19
3.18693e-19
3.36697e-19
2.7614e-19
2.75148e-19
2.32555e-19
2.25984e-19
1.82715e-19
1.94656e-19
1.41352e-19
1.63849e-19
1.26725e-19
1.15872e-19
1.49009e-19
5.8134e-20
1.60745e-19
7.22367e-20
8.1587e-20
1.8243e-19
8.37609e-22
2.16461e-19
9.61883e-20
1.14037e-19
2.84991e-19
8.43982e-20
3.12327e-19
2.96346e-19
2.38534e-19
4.88163e-19
4.26657e-19
5.13019e-19
7.91474e-19
8.01504e-19
1.13498e-18
1.47655e-18
1.78648e-18
7.49072e-18
6.00377e-18
5.48448e-18
1.38776e-17
7.13923e-18
3.87577e-18
3.266e-18
2.4693e-18
2.07554e-18
1.79107e-18
1.51877e-18
1.36855e-18
1.37717e-18
1.31368e-18
1.18385e-18
9.91957e-19
8.65821e-19
7.49994e-19
7.10556e-19
6.15277e-19
5.74299e-19
5.18922e-19
4.86863e-19
3.94202e-19
4.09083e-19
3.13471e-19
3.28885e-19
2.71871e-19
2.69648e-19
2.28918e-19
2.21719e-19
1.80626e-19
1.91157e-19
1.40287e-19
1.60736e-19
1.26275e-19
1.12714e-19
1.47543e-19
5.76875e-20
1.56139e-19
7.45322e-20
7.66647e-20
1.87915e-19
2.33686e-22
2.13402e-19
9.9033e-20
1.03879e-19
2.80191e-19
7.82321e-20
2.96362e-19
2.87711e-19
2.1801e-19
4.64314e-19
3.99546e-19
4.67935e-19
7.36255e-19
7.23078e-19
1.01814e-18
1.31263e-18
1.55233e-18
6.61014e-18
4.75682e-18
4.73858e-18
1.15353e-17
6.44855e-18
3.27491e-18
2.88734e-18
2.19246e-18
1.8628e-18
1.62849e-18
1.4089e-18
1.28567e-18
1.30073e-18
1.24561e-18
1.12995e-18
9.51835e-19
8.35233e-19
7.26151e-19
6.89503e-19
5.97894e-19
5.5828e-19
5.04388e-19
4.76138e-19
3.85748e-19
3.99357e-19
3.08677e-19
3.21303e-19
2.67823e-19
2.64335e-19
2.25367e-19
2.17482e-19
1.78591e-19
1.87538e-19
1.39307e-19
1.57553e-19
1.25793e-19
1.09639e-19
1.45826e-19
5.74077e-20
1.5121e-19
7.65872e-20
7.185e-20
1.90583e-19
2.40019e-27
2.08624e-19
1.01421e-19
9.36102e-20
2.74512e-19
7.24645e-20
2.79407e-19
2.79015e-19
1.97391e-19
4.39938e-19
3.73087e-19
4.23849e-19
6.82486e-19
6.50132e-19
9.07013e-19
1.16639e-18
1.34113e-18
5.70236e-18
3.67862e-18
4.00165e-18
9.3377e-18
5.74302e-18
2.74309e-18
2.54599e-18
1.95162e-18
1.67731e-18
1.48299e-18
1.3087e-18
1.21017e-18
1.23055e-18
1.18267e-18
1.07971e-18
9.14234e-19
8.06353e-19
7.03814e-19
6.69635e-19
5.81533e-19
5.431e-19
4.90634e-19
4.65754e-19
3.7788e-19
3.89927e-19
3.04268e-19
3.14024e-19
2.64004e-19
2.59258e-19
2.21967e-19
2.1334e-19
1.76648e-19
1.83888e-19
1.38416e-19
1.54381e-19
1.25305e-19
1.06701e-19
1.43978e-19
5.72337e-20
1.46249e-19
7.81612e-20
6.76003e-20
1.8415e-19
2.1128e-22
1.96534e-19
1.02954e-19
8.36375e-20
2.68277e-19
6.73819e-20
2.62061e-19
2.7066e-19
1.77425e-19
4.15799e-19
3.48188e-19
3.81957e-19
6.31554e-19
5.84128e-19
8.03999e-19
1.03822e-18
1.15413e-18
4.81774e-18
2.80773e-18
3.30039e-18
7.38268e-18
5.03038e-18
2.28515e-18
2.23651e-18
1.74273e-18
1.51636e-18
1.35359e-18
1.21735e-18
1.14135e-18
1.16623e-18
1.12464e-18
1.033e-18
8.79095e-19
7.79112e-19
6.8293e-19
6.50932e-19
5.66172e-19
5.28764e-19
4.77717e-19
4.55738e-19
3.70596e-19
3.80837e-19
3.00203e-19
3.07067e-19
2.60413e-19
2.54443e-19
2.18757e-19
2.09344e-19
1.74822e-19
1.80287e-19
1.3761e-19
1.51292e-19
1.24822e-19
1.03963e-19
1.4206e-19
5.7216e-20
1.41319e-19
7.94841e-20
6.36803e-20
1.75718e-19
8.60426e-22
1.83212e-19
1.04309e-19
7.4153e-20
2.61733e-19
6.31476e-20
2.44776e-19
2.62883e-19
1.58612e-19
3.92429e-19
3.25365e-19
3.42949e-19
5.84219e-19
5.25523e-19
7.10246e-19
9.27091e-19
9.91158e-19
3.9934e-18
2.1495e-18
2.66264e-18
5.71919e-18
4.32592e-18
1.89957e-18
1.95507e-18
1.56168e-18
1.37707e-18
1.23904e-18
1.13404e-18
1.07844e-18
1.10727e-18
1.0712e-18
9.89605e-19
8.46249e-19
7.53404e-19
6.63421e-19
6.33359e-19
5.5176e-19
5.15242e-19
4.65651e-19
4.46098e-19
3.63873e-19
3.72128e-19
2.96442e-19
3.00442e-19
2.57043e-19
2.49899e-19
2.15758e-19
2.05532e-19
1.73126e-19
1.76792e-19
1.36882e-19
1.4834e-19
1.24356e-19
1.01459e-19
1.40123e-19
5.73948e-20
1.36466e-19
8.07986e-20
5.99003e-20
1.69685e-19
2.11014e-21
1.72633e-19
1.05908e-19
6.52926e-20
2.5503e-19
5.98537e-20
2.27865e-19
2.55797e-19
1.41252e-19
3.70043e-19
3.04855e-19
3.07113e-19
5.40784e-19
4.74125e-19
6.25844e-19
8.31091e-19
8.51125e-19
3.25455e-18
1.68499e-18
2.11009e-18
4.35451e-18
3.64683e-18
1.58083e-18
1.69937e-18
1.40429e-18
1.25669e-18
1.13801e-18
1.05803e-18
1.0207e-18
1.05312e-18
1.02202e-18
9.49289e-19
8.15515e-19
7.29114e-19
6.45193e-19
6.16862e-19
5.38235e-19
5.02485e-19
4.54417e-19
4.36837e-19
3.57674e-19
3.63823e-19
2.92951e-19
2.94149e-19
2.53884e-19
2.45626e-19
2.12978e-19
2.01925e-19
1.71563e-19
1.7344e-19
1.36231e-19
1.45556e-19
1.23922e-19
9.91889e-20
1.38222e-19
5.77317e-20
1.31801e-19
8.20898e-20
5.64039e-20
1.65167e-19
3.78798e-21
1.63484e-19
1.07672e-19
5.72085e-20
2.48277e-19
5.74927e-20
2.11544e-19
2.49413e-19
1.25501e-19
3.48804e-19
2.86714e-19
2.74496e-19
5.01266e-19
4.29311e-19
5.50613e-19
7.48091e-19
7.32467e-19
2.61263e-18
1.38231e-18
1.65917e-18
3.27449e-18
3.00978e-18
1.32042e-18
1.4682e-18
1.26691e-18
1.15268e-18
1.04919e-18
9.88657e-19
9.67491e-19
1.00326e-18
9.76725e-19
9.11809e-19
7.8671e-19
7.06123e-19
6.28144e-19
6.01362e-19
5.25526e-19
4.9044e-19
4.43974e-19
4.2795e-19
3.51956e-19
3.55931e-19
2.89698e-19
2.88181e-19
2.5092e-19
2.41618e-19
2.10413e-19
1.98536e-19
1.70132e-19
1.70254e-19
1.35651e-19
1.42961e-19
1.23525e-19
9.71551e-20
1.36385e-19
5.82076e-20
1.27378e-19
8.3323e-20
5.33173e-20
1.61412e-19
5.73335e-21
1.55124e-19
1.09528e-19
4.99615e-20
2.41553e-19
5.60167e-20
1.95953e-19
2.4369e-19
1.1142e-19
3.28753e-19
2.70841e-19
2.44997e-19
4.65507e-19
3.90403e-19
4.83862e-19
6.76292e-19
6.33177e-19
2.0705e-18
1.20449e-18
1.3197e-18
2.44882e-18
2.43154e-18
1.10854e-18
1.26108e-18
1.14629e-18
1.06278e-18
9.71327e-19
9.25392e-19
9.18245e-19
9.5723e-19
9.34983e-19
8.76933e-19
7.59659e-19
6.84319e-19
6.12177e-19
5.86795e-19
5.13568e-19
4.7905e-19
4.34274e-19
4.19427e-19
3.46674e-19
3.48454e-19
2.86656e-19
2.82527e-19
2.48137e-19
2.37865e-19
2.08055e-19
1.95372e-19
1.68827e-19
1.67246e-19
1.35135e-19
1.40568e-19
1.23165e-19
9.53584e-20
1.34622e-19
5.88204e-20
1.232e-19
8.45116e-20
5.06601e-20
1.58031e-19
7.88077e-21
1.47351e-19
1.11477e-19
4.3545e-20
2.34903e-19
5.53571e-20
1.81182e-19
2.38553e-19
9.90003e-20
3.09863e-19
2.57086e-19
2.1843e-19
4.33267e-19
3.56704e-19
4.2492e-19
6.13904e-19
5.51056e-19
1.6242e-18
1.11543e-18
1.09611e-18
1.83474e-18
1.92663e-18
9.35471e-19
1.07777e-18
1.03987e-18
9.85106e-19
9.03273e-19
8.67765e-19
8.725e-19
9.14579e-19
8.96461e-19
8.44441e-19
7.34193e-19
6.63594e-19
5.97192e-19
5.73087e-19
5.02295e-19
4.68261e-19
4.25259e-19
4.11255e-19
3.41783e-19
3.41385e-19
2.83798e-19
2.77172e-19
2.45517e-19
2.34354e-19
2.05895e-19
1.92437e-19
1.67639e-19
1.64421e-19
1.34676e-19
1.38379e-19
1.22839e-19
9.37951e-20
1.32943e-19
5.95607e-20
1.19272e-19
8.56738e-20
4.84083e-20
1.54808e-19
1.02088e-20
1.40084e-19
1.13501e-19
3.79418e-20
2.2836e-19
5.54262e-20
1.67298e-19
2.33914e-19
8.81972e-20
2.92091e-19
2.45255e-19
1.94599e-19
4.04231e-19
3.27558e-19
3.73043e-19
5.59573e-19
4.84261e-19
1.26596e-18
1.08131e-18
9.87098e-19
1.38702e-18
1.50493e-18
7.92735e-19
9.17466e-19
9.4556e-19
9.18091e-19
8.44012e-19
8.15376e-19
8.29874e-19
8.74927e-19
8.60865e-19
8.1413e-19
7.10154e-19
6.43845e-19
5.83099e-19
5.6017e-19
4.91647e-19
4.58023e-19
4.16872e-19
4.03417e-19
3.37242e-19
3.34711e-19
2.81107e-19
2.72097e-19
2.43048e-19
2.31071e-19
2.03922e-19
1.89729e-19
1.66564e-19
1.61776e-19
1.34271e-19
1.36396e-19
1.22547e-19
9.24586e-20
1.31355e-19
6.04136e-20
1.15607e-19
8.68122e-20
4.65377e-20
1.51709e-19
1.26969e-20
1.33294e-19
1.15568e-19
3.31282e-20
2.2197e-19
5.61318e-20
1.54355e-19
2.29712e-19
7.8938e-20
2.75429e-19
2.35156e-19
1.73332e-19
3.78139e-19
3.02438e-19
3.2761e-19
5.12177e-19
4.30952e-19
9.85808e-19
1.07226e-18
1.41969e-17
1.91109e-17
1.7548e-17
1.36921e-17
9.95009e-18
7.29326e-18
5.54615e-18
4.13444e-18
3.07433e-18
2.52365e-18
2.34691e-18
2.12053e-18
1.80078e-18
1.44163e-18
1.19826e-18
1.00892e-18
9.21503e-19
7.92199e-19
7.33213e-19
6.53663e-19
5.85993e-19
4.85913e-19
4.89729e-19
3.69741e-19
3.8911e-19
3.06752e-19
3.08709e-19
2.51296e-19
2.47307e-19
1.94813e-19
2.04257e-19
1.49502e-19
1.70449e-19
1.23681e-19
1.30968e-19
1.30414e-19
7.05085e-20
1.4635e-19
5.03477e-20
9.46706e-20
1.20735e-19
1.34626e-20
1.86031e-19
4.50896e-20
1.35478e-19
2.05344e-19
7.98044e-20
2.81227e-19
2.18418e-19
2.34574e-19
4.22854e-19
3.72524e-19
5.40843e-19
7.84176e-19
9.7173e-19
1.43932e-18
2.30189e-18
3.75839e-18
8.5093e-18
1.04988e-17
1.48922e-17
1.95363e-17
1.80119e-17
1.40369e-17
1.01137e-17
7.38921e-18
5.60887e-18
4.17445e-18
3.09663e-18
2.53701e-18
2.35812e-18
2.13042e-18
1.80799e-18
1.44635e-18
1.20149e-18
1.01143e-18
9.23883e-19
7.94125e-19
7.34574e-19
6.55406e-19
5.87422e-19
4.86474e-19
4.90921e-19
3.70686e-19
3.89563e-19
3.07751e-19
3.09178e-19
2.52052e-19
2.47863e-19
1.9528e-19
2.04962e-19
1.49831e-19
1.71129e-19
1.2433e-19
1.31155e-19
1.32106e-19
7.00211e-20
1.48339e-19
5.12556e-20
9.46561e-20
1.24464e-19
1.24341e-20
1.89768e-19
4.76578e-20
1.36156e-19
2.12687e-19
8.13451e-20
2.8805e-19
2.2755e-19
2.40794e-19
4.37827e-19
3.88286e-19
5.60687e-19
8.17107e-19
1.014e-18
1.50187e-18
2.40522e-18
3.88836e-18
8.91764e-18
1.07352e-17
1.53176e-17
1.99031e-17
1.81531e-17
1.41512e-17
1.01536e-17
7.41849e-18
5.63912e-18
4.19904e-18
3.11155e-18
2.5465e-18
2.36821e-18
2.14001e-18
1.81523e-18
1.45074e-18
1.20464e-18
1.01381e-18
9.26829e-19
7.9615e-19
7.36166e-19
6.57498e-19
5.89274e-19
4.86821e-19
4.92868e-19
3.7144e-19
3.90635e-19
3.08774e-19
3.10119e-19
2.52921e-19
2.48918e-19
1.95781e-19
2.06305e-19
1.50164e-19
1.72444e-19
1.2525e-19
1.31684e-19
1.3478e-19
6.93913e-20
1.51762e-19
5.25889e-20
9.52131e-20
1.30242e-19
1.1252e-20
1.96083e-19
5.15771e-20
1.38288e-19
2.23887e-19
8.46305e-20
2.99217e-19
2.41842e-19
2.51429e-19
4.60983e-19
4.12623e-19
5.90541e-19
8.64127e-19
1.07116e-18
1.57885e-18
2.51879e-18
4.02313e-18
9.25509e-18
1.09943e-17
1.50589e-17
1.9749e-17
1.77473e-17
1.38299e-17
9.97424e-18
7.31408e-18
5.58958e-18
4.17573e-18
3.09781e-18
2.538e-18
2.36576e-18
2.1405e-18
1.81578e-18
1.45064e-18
1.20454e-18
1.01381e-18
9.28102e-19
7.96764e-19
7.36446e-19
6.58776e-19
5.90533e-19
4.86486e-19
4.94429e-19
3.71904e-19
3.91437e-19
3.09727e-19
3.10994e-19
2.53797e-19
2.49954e-19
1.96308e-19
2.07768e-19
1.50495e-19
1.73966e-19
1.263e-19
1.32263e-19
1.37963e-19
6.86361e-20
1.5587e-19
5.42292e-20
9.59442e-20
1.37143e-19
1.00522e-20
2.03458e-19
5.64823e-20
1.408e-19
2.37009e-19
8.88194e-20
3.11959e-19
2.58646e-19
2.63552e-19
4.86684e-19
4.39884e-19
6.21506e-19
9.12441e-19
1.12528e-18
1.64446e-18
2.59584e-18
4.05429e-18
9.36813e-18
1.09588e-17
1.41921e-17
1.92844e-17
1.68815e-17
1.31125e-17
9.59409e-18
7.07418e-18
5.44971e-18
4.09414e-18
3.04601e-18
2.50292e-18
2.34219e-18
2.12427e-18
1.80428e-18
1.44242e-18
1.19861e-18
1.0094e-18
9.25742e-19
7.9447e-19
7.34143e-19
6.57899e-19
5.90152e-19
4.84908e-19
4.94684e-19
3.71621e-19
3.9153e-19
3.1015e-19
3.11454e-19
2.54371e-19
2.50672e-19
1.96644e-19
2.09053e-19
1.50694e-19
1.75382e-19
1.27287e-19
1.32686e-19
1.41179e-19
6.77878e-20
1.59934e-19
5.59889e-20
9.65706e-20
1.44089e-19
8.99487e-21
2.1048e-19
6.174e-20
1.42997e-19
2.49886e-19
9.32294e-20
3.23583e-19
2.75144e-19
2.74762e-19
5.09936e-19
4.65078e-19
6.47023e-19
9.51796e-19
1.16545e-18
1.68458e-18
2.62978e-18
3.98641e-18
9.33513e-18
1.075e-17
1.31788e-17
1.90494e-17
1.58272e-17
1.21979e-17
9.10111e-18
6.74492e-18
5.23833e-18
3.96179e-18
2.95985e-18
2.44185e-18
2.29623e-18
2.08934e-18
1.77885e-18
1.42447e-18
1.18569e-18
9.99602e-19
9.18824e-19
7.88495e-19
7.2858e-19
6.54059e-19
5.87414e-19
4.81667e-19
4.93081e-19
3.7014e-19
3.90613e-19
3.0971e-19
3.11261e-19
2.54424e-19
2.50845e-19
1.96631e-19
2.09921e-19
1.50622e-19
1.76437e-19
1.28049e-19
1.32778e-19
1.44069e-19
6.68559e-20
1.63532e-19
5.76567e-20
9.69977e-20
1.50346e-19
8.15536e-21
2.16372e-19
6.66987e-20
1.44635e-19
2.60851e-19
9.73441e-20
3.32875e-19
2.89193e-19
2.84093e-19
5.2798e-19
4.85647e-19
6.65254e-19
9.7981e-19
1.18989e-18
1.70326e-18
2.62785e-18
3.86516e-18
9.31563e-18
1.06035e-17
1.2177e-17
1.92725e-17
1.47305e-17
1.12141e-17
8.5388e-18
6.35183e-18
4.97049e-18
3.78884e-18
2.84495e-18
2.3587e-18
2.23037e-18
2.03705e-18
1.74006e-18
1.39708e-18
1.16595e-18
9.84566e-19
9.07333e-19
7.78752e-19
7.19771e-19
6.47089e-19
5.82153e-19
4.76623e-19
4.89391e-19
3.67194e-19
3.88485e-19
3.08267e-19
3.10181e-19
2.53859e-19
2.50323e-19
1.96182e-19
2.1021e-19
1.50228e-19
1.76971e-19
1.28502e-19
1.32458e-19
1.46423e-19
6.58392e-20
1.66391e-19
5.908e-20
9.72397e-20
1.55548e-19
7.52496e-21
2.20965e-19
7.09193e-20
1.45806e-19
2.69454e-19
1.00781e-19
3.39829e-19
2.99986e-19
2.91499e-19
5.40841e-19
5.00878e-19
6.76876e-19
9.96979e-19
1.19972e-18
1.70525e-18
2.59566e-18
3.70801e-18
9.36685e-18
1.06377e-17
1.1244e-17
1.99184e-17
1.36482e-17
1.02275e-17
7.91945e-18
5.90898e-18
4.65737e-18
3.58283e-18
2.70735e-18
2.25808e-18
2.14843e-18
1.97058e-18
1.69006e-18
1.36148e-18
1.14017e-18
9.64833e-19
8.91741e-19
7.65697e-19
7.08137e-19
6.37329e-19
5.74609e-19
4.69887e-19
4.83742e-19
3.62815e-19
3.85076e-19
3.05854e-19
3.08146e-19
2.52685e-19
2.49078e-19
1.95299e-19
2.0988e-19
1.49528e-19
1.76919e-19
1.28657e-19
1.31707e-19
1.48195e-19
6.47569e-20
1.6854e-19
6.02478e-20
9.73081e-20
1.59795e-19
7.02446e-21
2.24494e-19
7.43668e-20
1.46612e-19
2.76011e-19
1.03383e-19
3.45222e-19
3.07767e-19
2.97226e-19
5.49718e-19
5.11335e-19
6.83051e-19
1.00526e-18
1.19647e-18
1.69417e-18
2.53719e-18
3.52422e-18
9.48753e-18
1.08132e-17
1.03977e-17
2.07495e-17
1.26076e-17
9.28413e-18
7.25792e-18
5.43265e-18
4.31195e-18
3.3532e-18
2.55416e-18
2.14516e-18
2.05496e-18
1.89356e-18
1.63161e-18
1.31951e-18
1.10953e-18
9.41233e-19
8.72736e-19
7.49922e-19
6.94249e-19
6.25349e-19
5.6526e-19
4.61753e-19
4.7647e-19
3.57234e-19
3.80412e-19
3.02599e-19
3.0517e-19
2.50964e-19
2.47152e-19
1.94052e-19
2.08979e-19
1.48591e-19
1.76313e-19
1.28594e-19
1.30537e-19
1.49485e-19
6.36355e-20
1.70041e-19
6.1281e-20
9.71347e-20
1.63423e-19
6.52343e-21
2.27218e-19
7.72917e-20
1.46877e-19
2.81354e-19
1.04946e-19
3.49324e-19
3.13186e-19
3.00931e-19
5.55371e-19
5.16951e-19
6.83551e-19
1.00537e-18
1.1804e-18
1.66919e-18
2.45503e-18
3.32075e-18
9.63038e-18
1.09874e-17
9.63874e-18
2.14608e-17
1.1634e-17
8.40077e-18
6.57921e-18
4.94058e-18
3.94933e-18
3.11025e-18
2.39247e-18
2.02532e-18
1.9543e-18
1.80967e-18
1.56764e-18
1.27324e-18
1.07552e-18
9.14827e-19
8.51153e-19
7.3204e-19
6.78663e-19
6.11745e-19
5.5472e-19
4.52602e-19
4.68024e-19
3.50827e-19
3.7461e-19
2.98731e-19
3.01336e-19
2.48774e-19
2.44619e-19
1.92537e-19
2.0758e-19
1.47492e-19
1.75202e-19
1.28412e-19
1.28955e-19
1.50397e-19
6.24975e-20
1.70879e-19
6.23979e-20
9.65389e-20
1.66742e-19
5.89746e-21
2.29159e-19
8.00491e-20
1.46054e-19
2.85847e-19
1.05201e-19
3.51588e-19
3.16513e-19
3.01459e-19
5.57164e-19
5.17137e-19
6.76647e-19
9.95808e-19
1.14924e-18
1.62611e-18
2.34174e-18
3.09561e-18
9.72596e-18
1.09497e-17
8.94148e-18
2.16915e-17
1.0744e-17
7.56503e-18
5.9117e-18
4.452e-18
3.58484e-18
2.86398e-18
2.22924e-18
1.90358e-18
1.85058e-18
1.7224e-18
1.50078e-18
1.22464e-18
1.03962e-18
8.86757e-19
8.27861e-19
7.12773e-19
6.61823e-19
5.97002e-19
5.4353e-19
4.4282e-19
4.58799e-19
3.44026e-19
3.6787e-19
2.94432e-19
2.96784e-19
2.46164e-19
2.4157e-19
1.90838e-19
2.0574e-19
1.46305e-19
1.73627e-19
1.28184e-19
1.26952e-19
1.50989e-19
6.13653e-20
1.70924e-19
6.37376e-20
9.51923e-20
1.69829e-19
5.06969e-21
2.29816e-19
8.28412e-20
1.43538e-19
2.89229e-19
1.03869e-19
3.50927e-19
3.17435e-19
2.97619e-19
5.53896e-19
5.10699e-19
6.6016e-19
9.74528e-19
1.10164e-18
1.56111e-18
2.19753e-18
2.848e-18
9.67789e-18
1.05569e-17
8.27863e-18
2.12556e-17
9.93919e-18
6.76659e-18
5.27838e-18
3.98288e-18
3.23147e-18
2.62255e-18
2.06983e-18
1.784e-18
1.7472e-18
1.63457e-18
1.43322e-18
1.17536e-18
1.00304e-18
8.57987e-19
8.0367e-19
6.92726e-19
6.44188e-19
5.81523e-19
5.32044e-19
4.32751e-19
4.49095e-19
3.37215e-19
3.60438e-19
2.8989e-19
2.9168e-19
2.43182e-19
2.38085e-19
1.89003e-19
2.03488e-19
1.45082e-19
1.71632e-19
1.27939e-19
1.24531e-19
1.51225e-19
6.02655e-20
1.7002e-19
6.53455e-20
9.29202e-20
1.72521e-19
4.04925e-21
2.28743e-19
8.56392e-20
1.3887e-19
2.91041e-19
1.0085e-19
3.4657e-19
3.15666e-19
2.88893e-19
5.44785e-19
4.97302e-19
6.33827e-19
9.41214e-19
1.03875e-18
1.47422e-18
2.02806e-18
2.58356e-18
9.43057e-18
9.77246e-18
7.61817e-18
2.01189e-17
9.20087e-18
5.99531e-18
4.69375e-18
3.54512e-18
2.8996e-18
2.39188e-18
1.91794e-18
1.66956e-18
1.64684e-18
1.54847e-18
1.36671e-18
1.1266e-18
9.66749e-19
8.29339e-19
7.79297e-19
6.72489e-19
6.26217e-19
5.6567e-19
5.20496e-19
4.22677e-19
4.3913e-19
3.30664e-19
3.52605e-19
2.85263e-19
2.8623e-19
2.3989e-19
2.34254e-19
1.87055e-19
2.00842e-19
1.43863e-19
1.69245e-19
1.2767e-19
1.21737e-19
1.5104e-19
5.92409e-20
1.68049e-19
6.71698e-20
8.97181e-20
1.7456e-19
2.92677e-21
2.25693e-19
8.8334e-20
1.32132e-19
2.90963e-19
9.63187e-20
3.38372e-19
3.11212e-19
2.75461e-19
5.3008e-19
4.77767e-19
5.98872e-19
8.97642e-19
9.64429e-19
1.36987e-18
1.84348e-18
2.3113e-18
8.96498e-18
8.66051e-18
6.94048e-18
1.83817e-17
8.50504e-18
5.25022e-18
4.16446e-18
3.14562e-18
2.59537e-18
2.17598e-18
1.77579e-18
1.56223e-18
1.5513e-18
1.46576e-18
1.30249e-18
1.07938e-18
9.31442e-19
8.0145e-19
7.55298e-19
6.52575e-19
6.0834e-19
5.4976e-19
5.09021e-19
4.12818e-19
4.29059e-19
3.24526e-19
3.44606e-19
2.80679e-19
2.80619e-19
2.36377e-19
2.30169e-19
1.85022e-19
1.97835e-19
1.42683e-19
1.66524e-19
1.27356e-19
1.18678e-19
1.50402e-19
5.83419e-20
1.65047e-19
6.91184e-20
8.57544e-20
1.75776e-19
1.84186e-21
2.20799e-19
9.08542e-20
1.23702e-19
2.88991e-19
9.06984e-20
3.26804e-19
3.0461e-19
2.58367e-19
5.10899e-19
4.53764e-19
5.57833e-19
8.46876e-19
8.83875e-19
1.25472e-18
1.65671e-18
2.04286e-18
8.30834e-18
7.3604e-18
6.2338e-18
1.62324e-17
7.82667e-18
4.53976e-18
3.69039e-18
2.7875e-18
2.32162e-18
1.97718e-18
1.64442e-18
1.46297e-18
1.46182e-18
1.38748e-18
1.24135e-18
1.03429e-18
8.97537e-19
7.74723e-19
7.32071e-19
6.33329e-19
5.90879e-19
5.34085e-19
4.97723e-19
4.0333e-19
4.19004e-19
3.18853e-19
3.36627e-19
2.76227e-19
2.74994e-19
2.32747e-19
2.25937e-19
1.82945e-19
1.94529e-19
1.41565e-19
1.63545e-19
1.26985e-19
1.15488e-19
1.49329e-19
5.76118e-20
1.61183e-19
7.10994e-20
8.12819e-20
1.7612e-19
9.40869e-22
2.14339e-19
9.32058e-20
1.1413e-19
2.8539e-19
8.45342e-20
3.12565e-19
2.96599e-19
2.38907e-19
4.88654e-19
4.27268e-19
5.13506e-19
7.92334e-19
8.0228e-19
1.13567e-18
1.47798e-18
1.78825e-18
7.50565e-18
6.01883e-18
5.49977e-18
1.38914e-17
7.14793e-18
3.87777e-18
3.2671e-18
2.47097e-18
2.07888e-18
1.79639e-18
1.52394e-18
1.372e-18
1.37881e-18
1.3142e-18
1.18375e-18
9.91619e-19
8.65245e-19
7.49384e-19
7.09869e-19
6.1496e-19
5.74065e-19
5.18893e-19
4.86676e-19
3.94326e-19
4.09069e-19
3.1364e-19
3.28803e-19
2.71963e-19
2.69475e-19
2.29114e-19
2.21652e-19
1.8087e-19
1.91011e-19
1.40519e-19
1.6041e-19
1.26558e-19
1.12296e-19
1.47897e-19
5.70801e-20
1.56694e-19
7.30471e-20
7.6577e-20
1.75627e-19
3.4613e-22
2.06775e-19
9.54391e-20
1.03971e-19
2.80536e-19
7.8351e-20
2.96562e-19