/*--------------------------------*- C++ -*----------------------------------*\
| =========                 |                                                 |
| \\      /  F ield         | OpenFOAM: The Open Source CFD Toolbox           |
|  \\    /   O peration     | Version:  2312                                  |
|   \\  /    A nd           | Website:  www.openfoam.com                      |
|    \\/     M anipulation  |                                                 |
\*---------------------------------------------------------------------------*/
FoamFile
{
    version     2.0;
    format      ascii;
    arch        "LSB;label=32;scalar=64";
    class       volScalarField;
    location    "600";
    object      nut;
}
// * * * * * * * * * * * * * * * * * * * * * * * * * * * * * * * * * * * * * //

dimensions      [0 2 -1 0 0 0 0];

internalField   nonuniform List<scalar> 
144000
(
1.44792e-28
2.52171e-29
1.02946e-29
4.2719e-28
9.90318e-29
9.1806e-32
4.06817e-29
9.43285e-30
2.68744e-29
1.68022e-29
2.45539e-29
1.84456e-29
2.67947e-29
2.2672e-29
2.48243e-29
2.0145e-29
2.90045e-29
3.00331e-29
2.90093e-29
2.69784e-29
3.30573e-29
3.37461e-29
3.42837e-29
3.29575e-29
3.32285e-29
3.31274e-29
3.73735e-29
3.72073e-29
3.79009e-29
3.62566e-29
3.4563e-29
3.2609e-29
3.85988e-29
3.77843e-29
3.54381e-29
3.12675e-29
2.8858e-29
2.58183e-29
2.53013e-29
1.94769e-29
1.94329e-29
1.29781e-29
2.72799e-29
1.88704e-29
1.54352e-29
1.24444e-29
6.24081e-30
3.11778e-30
9.08955e-31
2.12246e-31
1.34832e-31
2.00674e-30
1.60647e-29
5.15993e-29
2.5881e-28
1.01575e-28
1.07383e-27
6.61511e-26
1.16635e-25
1.1898e-26
5.36519e-26
3.15688e-27
1.99855e-27
4.28398e-27
6.77891e-29
2.38812e-30
7.52695e-29
2.56975e-29
3.83414e-29
5.21902e-29
3.66828e-29
5.0435e-29
4.38566e-29
5.78901e-29
4.53117e-29
4.65319e-29
5.16926e-29
7.03803e-29
5.6928e-29
5.726e-29
6.29316e-29
7.47792e-29
6.66331e-29
7.04896e-29
6.44848e-29
6.94003e-29
7.1582e-29
7.9134e-29
7.35158e-29
7.48388e-29
6.75868e-29
6.46599e-29
7.25576e-29
7.72102e-29
6.83526e-29
5.97731e-29
5.47e-29
4.76854e-29
4.73994e-29
3.8835e-29
3.85885e-29
3.13137e-29
5.96263e-29
2.71123e-29
3.3061e-29
2.20428e-29
1.34585e-29
4.08692e-30
1.93736e-30
1.52138e-31
1.48308e-31
7.94794e-30
2.71707e-29
1.59919e-28
4.48744e-28
4.78766e-28
1.32807e-27
1.5492e-25
6.80352e-25
7.65014e-27
1.73114e-25
1.557e-26
1.33189e-26
4.31987e-27
2.72541e-28
1.72536e-30
1.01369e-28
4.0946e-29
5.45018e-29
6.80018e-29
5.74732e-29
6.3356e-29
6.84155e-29
7.38487e-29
6.79106e-29
6.2833e-29
7.79195e-29
9.16521e-29
8.39388e-29
7.79479e-29
9.20885e-29
9.97718e-29
9.61578e-29
9.58954e-29
9.19784e-29
9.60588e-29
1.01696e-28
1.07546e-28
1.03681e-28
1.02389e-28
9.38773e-29
9.08713e-29
1.00765e-28
1.04113e-28
9.40555e-29
8.15606e-29
7.4949e-29
6.62025e-29
6.62963e-29
5.5312e-29
5.95733e-29
4.41037e-29
9.00724e-29
3.34754e-29
5.14781e-29
2.92996e-29
1.92975e-29
6.09762e-30
2.70313e-30
3.91855e-31
3.01034e-31
7.9922e-30
4.52586e-29
1.87713e-28
6.73028e-28
4.12568e-28
4.51393e-27
2.64057e-25
7.12082e-25
5.50998e-26
7.44704e-25
1.72104e-25
5.16736e-26
1.8326e-26
2.81189e-28
2.83128e-30
1.02045e-28
4.72178e-29
5.57868e-29
6.77243e-29
5.98769e-29
6.23052e-29
7.12562e-29
7.29677e-29
7.0611e-29
6.16482e-29
7.9849e-29
9.10161e-29
8.61867e-29
7.63407e-29
9.43598e-29
9.8142e-29
9.85734e-29
9.38305e-29
9.38467e-29
9.43181e-29
1.02637e-28
1.06305e-28
1.04661e-28
1.00269e-28
9.46822e-29
8.89882e-29
1.00437e-28
1.0291e-28
9.40044e-29
8.00816e-29
7.59402e-29
6.625e-29
6.95031e-29
5.78852e-29
6.34057e-29
5.39367e-29
8.74783e-29
3.25591e-29
5.87672e-29
2.79244e-29
2.21844e-29
5.85062e-30
3.65375e-30
6.10021e-31
1.33296e-31
8.61238e-30
3.75718e-29
1.77433e-28
5.72381e-28
3.6019e-28
5.71567e-27
3.93622e-25
1.03811e-24
2.89286e-25
1.61098e-24
8.91726e-25
9.12264e-26
6.31976e-26
6.20871e-28
6.63398e-30
1.13911e-28
5.71666e-29
5.65071e-29
7.20917e-29
5.89175e-29
6.56489e-29
7.17445e-29
7.56646e-29
7.14063e-29
6.25631e-29
8.08625e-29
9.36175e-29
8.71324e-29
7.62753e-29
9.63601e-29
9.87419e-29
1.00399e-28
9.31503e-29
9.54856e-29
9.37383e-29
1.04415e-28
1.06603e-28
1.05814e-28
9.99391e-29
9.5943e-29
8.84996e-29
1.02298e-28
1.04679e-28
9.55891e-29
8.16407e-29
7.8994e-29
6.96378e-29
7.44905e-29
6.19191e-29
6.64604e-29
5.60716e-29
8.10884e-29
3.77412e-29
6.49956e-29
2.87383e-29
2.51989e-29
6.39376e-30
5.12815e-30
1.20178e-30
6.05835e-32
8.68822e-30
2.99366e-29
1.62851e-28
4.54271e-28
2.76708e-28
8.21638e-27
6.36059e-25
1.41598e-24
1.2194e-24
2.43672e-24
2.8098e-24
1.0718e-25
1.59368e-25
1.65338e-27
1.77438e-29
1.39265e-28
7.01725e-29
6.16963e-29
7.8026e-29
5.9358e-29
7.02829e-29
7.38147e-29
8.03739e-29
7.33788e-29
6.5579e-29
8.43956e-29
9.92368e-29
8.96278e-29
7.91727e-29
1.00907e-28
1.02936e-28
1.04639e-28
9.55519e-29
9.9889e-29
9.6473e-29
1.09811e-28
1.10679e-28
1.10712e-28
1.03186e-28
1.00766e-28
9.19168e-29
1.09401e-28
1.11246e-28
1.01906e-28
8.75583e-29
8.63519e-29
7.70738e-29
8.21729e-29
6.65776e-29
6.77179e-29
6.34564e-29
8.02413e-29
4.84577e-29
7.25851e-29
3.29677e-29
2.9274e-29
8.31637e-30
7.70283e-30
2.64424e-30
1.22183e-31
8.76045e-30
2.26737e-29
1.43597e-28
3.27735e-28
1.80657e-28
1.21014e-26
1.02894e-24
1.80435e-24
3.57999e-24
2.9998e-24
6.68844e-24
9.58098e-26
3.28212e-25
4.16063e-27
4.064e-29
1.75978e-28
8.52969e-29
7.07618e-29
8.32098e-29
6.18269e-29
7.40578e-29
7.76781e-29
8.48632e-29
7.62911e-29
6.92425e-29
8.99812e-29
1.05593e-28
9.30677e-29
8.35242e-29
1.07039e-28
1.0866e-28
1.09829e-28
9.94706e-29
1.05755e-28
1.01282e-28
1.17558e-28
1.16532e-28
1.17558e-28
1.08522e-28
1.07916e-28
9.82275e-29
1.20204e-28
1.20458e-28
1.11192e-28
9.60426e-29
9.6722e-29
8.71732e-29
9.17696e-29
7.2141e-29
6.97966e-29
6.65059e-29
8.19153e-29
6.53036e-29
8.32563e-29
4.05861e-29
3.49273e-29
1.23553e-29
1.24575e-29
6.12954e-30
7.68982e-31
9.57777e-30
1.77435e-29
1.18691e-28
2.13884e-28
1.0896e-28
1.6328e-26
1.59755e-24
2.32935e-24
8.17633e-24
3.17168e-24
1.30793e-23
6.76637e-26
5.81648e-25
9.37048e-27
7.62356e-29
2.23572e-28
1.01857e-28
8.19362e-29
8.83163e-29
6.55597e-29
7.69496e-29
8.27693e-29
8.89148e-29
8.00285e-29
7.28939e-29
9.67802e-29
1.11899e-28
9.70905e-29
8.82669e-29
1.13986e-28
1.15139e-28
1.15453e-28
1.04206e-28
1.12584e-28
1.07228e-28
1.2623e-28
1.23649e-28
1.25762e-28
1.15098e-28
1.16742e-28
1.06234e-28
1.33177e-28
1.31577e-28
1.2265e-28
1.06479e-28
1.09985e-28
9.99778e-29
1.03854e-28
7.89599e-29
7.36122e-29
7.52043e-29
8.48652e-29
8.729e-29
9.88809e-29
5.2551e-29
4.34222e-29
2.01524e-29
2.14356e-29
1.44135e-29
4.00981e-30
1.44278e-29
1.96534e-29
1.01539e-28
1.5362e-28
1.37789e-28
2.07761e-26
2.36471e-24
3.06736e-24
1.53606e-23
3.05018e-24
2.25402e-23
3.77706e-26
9.31127e-25
1.96155e-26
1.28373e-28
2.86961e-28
1.17832e-28
9.3528e-29
9.43129e-29
6.99432e-29
7.94985e-29
8.91125e-29
9.26346e-29
8.45022e-29
7.67748e-29
1.05276e-28
1.18034e-28
1.01772e-28
9.33117e-29
1.2241e-28
1.22021e-28
1.21488e-28
1.0972e-28
1.20368e-28
1.14234e-28
1.36514e-28
1.31708e-28
1.34811e-28
1.23092e-28
1.27072e-28
1.15999e-28
1.48844e-28
1.44568e-28
1.36191e-28
1.1961e-28
1.27332e-28
1.17452e-28
1.22153e-28
9.24502e-29
8.72648e-29
9.4083e-29
8.11591e-29
1.18541e-28
1.22627e-28
7.11043e-29
5.68968e-29
3.47572e-29
3.92462e-29
3.33799e-29
1.57642e-29
3.21531e-29
4.188e-29
1.20024e-28
2.23081e-28
5.0414e-28
2.41804e-26
3.35855e-24
4.43202e-24
2.5431e-23
2.71036e-24
3.5166e-23
2.1337e-26
1.36303e-24
3.81807e-26
2.0247e-28
3.70849e-28
1.30712e-28
1.05418e-28
1.0166e-28
7.47434e-29
8.20664e-29
9.64793e-29
9.62666e-29
9.00403e-29
8.07263e-29
1.1507e-28
1.24002e-28
1.07377e-28
9.84939e-29
1.3205e-28
1.29178e-28
1.28451e-28
1.15742e-28
1.29462e-28
1.22077e-28
1.47742e-28
1.40804e-28
1.45214e-28
1.32175e-28
1.39169e-28
1.27427e-28
1.66641e-28
1.59934e-28
1.52762e-28
1.36305e-28
1.50743e-28
1.42418e-28
1.5103e-28
1.19821e-28
1.30271e-28
9.5589e-29
6.82044e-29
1.60434e-28
1.57981e-28
1.0035e-28
7.90151e-29
6.17695e-29
7.46685e-29
7.48031e-29
5.13728e-29
8.61204e-29
1.29209e-28
2.4643e-28
6.58587e-28
2.06894e-27
2.71027e-26
4.62007e-24
6.71807e-24
3.79614e-23
2.45308e-24
5.10916e-23
2.24863e-26
1.86408e-24
6.98558e-26
3.15975e-28
4.8719e-28
1.36297e-28
1.17517e-28
1.10431e-28
7.98442e-29
8.47204e-29
1.04927e-28
9.98614e-29
9.63012e-29
8.50258e-29
1.26417e-28
1.29748e-28
1.13755e-28
1.0393e-28
1.43348e-28
1.36276e-28
1.36221e-28
1.22258e-28
1.39782e-28
1.30708e-28
1.60699e-28
1.50433e-28
1.56716e-28
1.42559e-28
1.53083e-28
1.40861e-28
1.87512e-28
1.77714e-28
1.72706e-28
1.57369e-28
1.81319e-28
1.75667e-28
1.90254e-28
1.58645e-28
1.73539e-28
1.12052e-28
7.16519e-29
1.91656e-28
2.23461e-28
1.42054e-28
1.16682e-28
1.09834e-28
1.42675e-28
1.61151e-28
1.44561e-28
2.34116e-28
3.97396e-28
6.77468e-28
2.12006e-27
6.6312e-27
2.85134e-26
6.2568e-24
1.09956e-23
5.25527e-23
2.29399e-24
7.00066e-23
6.49291e-26
2.40693e-24
1.20828e-25
5.13695e-28
6.30626e-28
1.33553e-28
1.2991e-28
1.21341e-28
8.4663e-29
8.80103e-29
1.1361e-28
1.04098e-28
1.03021e-28
8.97642e-29
1.38443e-28
1.35656e-28
1.20651e-28
1.09687e-28
1.55551e-28
1.43539e-28
1.44805e-28
1.29234e-28
1.51448e-28
1.3997e-28
1.74391e-28
1.60845e-28
1.69947e-28
1.54043e-28
1.69168e-28
1.56146e-28
2.11081e-28
1.98455e-28
1.96822e-28
1.83281e-28
2.1996e-28
2.1683e-28
2.37356e-28
2.10984e-28
2.38899e-28
1.42853e-28
7.70861e-29
2.17719e-28
3.27232e-28
2.02591e-28
1.8071e-28
1.92917e-28
2.66962e-28
3.31515e-28
3.60935e-28
5.90901e-28
1.0835e-27
1.8407e-27
5.90278e-27
1.71561e-26
2.98856e-26
8.46337e-24
1.77774e-23
6.79854e-23
2.69848e-24
9.15946e-23
1.77495e-25
2.96418e-24
1.96425e-25
9.05933e-28
8.38007e-28
1.24498e-28
1.40642e-28
1.34897e-28
8.89771e-29
9.18899e-29
1.22549e-28
1.08999e-28
1.09504e-28
9.52046e-29
1.51493e-28
1.41629e-28
1.27648e-28
1.15942e-28
1.69096e-28
1.50823e-28
1.53685e-28
1.36945e-28
1.64054e-28
1.49822e-28
1.89929e-28
1.71799e-28
1.8427e-28
1.67176e-28
1.87333e-28
1.73611e-28
2.39218e-28
2.22768e-28
2.26582e-28
2.18289e-28
2.7638e-28
2.87419e-28
3.52407e-28
4.50133e-28
9.61722e-28
5.02273e-28
9.14617e-30
4.00648e-28
3.84681e-28
3.26444e-28
2.73053e-28
3.40727e-28
4.8788e-28
6.49904e-28
8.06785e-28
1.35609e-27
2.58692e-27
4.46753e-27
1.39479e-26
3.71345e-26
3.00956e-26
1.14213e-23
2.95255e-23
8.31843e-23
3.97368e-24
1.16526e-22
4.11241e-25
3.55469e-24
3.00938e-25
1.73229e-27
1.11602e-27
1.09768e-28
1.49065e-28
1.5188e-28
9.27614e-29
9.62146e-29
1.31606e-28
1.14372e-28
1.16366e-28
1.01096e-28
1.64539e-28
1.47913e-28
1.34957e-28
1.22676e-28
1.8294e-28
1.58405e-28
1.63202e-28
1.45183e-28
1.77851e-28
1.6031e-28
2.06112e-28
1.83814e-28
2.00333e-28
1.81644e-28
2.08176e-28
1.93388e-28
2.70903e-28
2.51668e-28
2.63641e-28
2.64047e-28
3.56017e-28
3.98951e-28
5.80894e-28
1.10773e-27
2.0306e-27
7.15398e-29
1.54069e-29
4.77648e-28
4.60133e-28
5.32953e-28
4.10537e-28
5.86864e-28
8.63193e-28
1.20855e-27
1.6478e-27
2.81655e-27
5.48993e-27
9.5618e-27
2.87676e-26
7.03082e-26
3.03678e-26
1.54985e-23
4.79754e-23
9.78549e-23
7.10887e-24
1.44337e-22
7.48388e-25
4.1821e-24
4.33422e-25
3.42672e-27
1.45724e-27
8.39085e-29
1.60975e-28
1.69447e-28
9.71644e-29
9.99625e-29
1.41912e-28
1.19452e-28
1.23655e-28
1.07265e-28
1.78475e-28
1.5395e-28
1.42554e-28
1.29809e-28
1.9785e-28
1.65838e-28
1.73216e-28
1.54113e-28
1.92548e-28
1.71476e-28
2.23933e-28
1.9649e-28
2.17639e-28
1.97875e-28
2.31076e-28
2.15269e-28
3.05648e-28
2.81304e-28
2.99582e-28
3.02749e-28
4.08162e-28
4.31562e-28
6.04527e-28
1.08639e-27
5.6137e-29
1.57295e-27
3.47815e-27
5.41499e-29
1.04709e-27
6.53817e-28
6.93302e-28
9.28069e-28
1.49012e-27
2.11753e-27
3.09778e-27
5.35423e-27
1.04849e-26
1.8351e-26
5.27888e-26
1.19512e-25
3.01944e-26
2.10393e-23
7.66563e-23
1.0924e-22
1.19657e-23
1.74305e-22
1.28187e-24
4.97871e-24
5.93261e-25
6.98579e-27
1.76365e-27
5.78561e-29
1.72522e-28
1.90474e-28
1.00561e-28
1.04282e-28
1.522e-28
1.25037e-28
1.31284e-28
1.13783e-28
1.92089e-28
1.60346e-28
1.50347e-28
1.37463e-28
2.12717e-28
1.73635e-28
1.8391e-28
1.63692e-28
2.08395e-28
1.83387e-28
2.41924e-28
2.10331e-28
2.37081e-28
2.15615e-28
2.56746e-28
2.3975e-28
3.44107e-28
3.17146e-28
3.47157e-28
3.63433e-28
5.20034e-28
6.05694e-28
1.15597e-27
3.21487e-27
6.78623e-27
6.27184e-27
8.12665e-31
1.43776e-28
1.23837e-27
1.02415e-27
1.04326e-27
1.46546e-27
2.43121e-27
3.51769e-27
5.4044e-27
9.34751e-27
1.82936e-26
3.18522e-26
8.80165e-26
1.85572e-25
3.20987e-26
2.86601e-23
1.14268e-22
1.15258e-22
2.15618e-23
2.04787e-22
1.89291e-24
5.97254e-24
7.61917e-25
1.35374e-26
2.08688e-27
3.77493e-29
1.84891e-28
2.14208e-28
1.03024e-28
1.08951e-28
1.62869e-28
1.31039e-28
1.38398e-28
1.20788e-28
2.06547e-28
1.66594e-28
1.58027e-28
1.45629e-28
2.28689e-28
1.81445e-28
1.94717e-28
1.74352e-28
2.24757e-28
1.95914e-28
2.61727e-28
2.24988e-28
2.5752e-28
2.35711e-28
2.84611e-28
2.67335e-28
3.89813e-28
3.6105e-28
4.11258e-28
4.59841e-28
7.27443e-28
1.01959e-27
2.67474e-27
1.10078e-26
1.02834e-25
2.42638e-28
1.9034e-26
7.78393e-28
1.04275e-27
1.74747e-27
1.4075e-27
2.30615e-27
3.73349e-27
5.56079e-27
8.7329e-27
1.51593e-26
2.93031e-26
5.05919e-26
1.34244e-25
2.6417e-25
3.68851e-26
3.90948e-23
1.68913e-22
1.17249e-22
3.81556e-23
2.43074e-22
2.44562e-24
7.37144e-24
9.28908e-25
2.49171e-26
2.33571e-27
2.66084e-29
1.99919e-28
2.39948e-28
1.0434e-28
1.14352e-28
1.73317e-28
1.37533e-28
1.45742e-28
1.28212e-28
2.20235e-28
1.73423e-28
1.65921e-28
1.54477e-28
2.44239e-28
1.899e-28
2.06115e-28
1.85733e-28
2.4203e-28
2.09148e-28
2.81776e-28
2.41031e-28
2.79319e-28
2.56941e-28
3.14164e-28
2.95151e-28
4.32481e-28
3.97223e-28
4.5195e-28
4.93623e-28
7.3138e-28
8.68467e-28
1.68124e-27
4.31519e-27
1.06953e-26
7.07665e-27
1.61709e-30
1.70051e-28
2.38237e-27
1.90382e-27
2.15719e-27
3.29614e-27
5.58157e-27
8.23843e-27
1.32713e-26
2.28109e-26
4.35936e-26
7.4095e-26
1.90582e-25
3.51932e-25
4.80887e-26
5.29152e-23
2.40557e-22
1.17346e-22
6.54053e-23
2.87387e-22
2.76705e-24
9.2389e-24
1.06268e-24
4.34222e-26
2.43549e-27
2.75584e-29
2.24161e-28
2.62608e-28
1.06089e-28
1.19004e-28
1.85562e-28
1.43168e-28
1.53671e-28
1.35626e-28
2.34855e-28
1.79744e-28
1.74203e-28
1.63696e-28
2.60686e-28
1.98154e-28
2.18048e-28
1.97926e-28
2.59822e-28
2.23015e-28
3.03337e-28
2.57859e-28
3.02054e-28
2.80266e-28
3.45058e-28
3.25164e-28
4.78392e-28
4.35518e-28
4.95401e-28
5.32323e-28
7.43022e-28
7.63591e-28
9.8935e-28
1.26074e-27
1.00904e-29
2.82949e-27
3.76617e-27
5.18563e-28
3.08619e-27
2.47592e-27
2.96129e-27
4.65927e-27
7.84161e-27
1.16296e-26
1.88434e-26
3.22042e-26
6.02834e-26
1.01246e-25
2.52945e-25
4.4307e-25
6.65186e-26
7.02072e-23
3.31675e-22
1.11441e-22
1.01981e-22
3.37857e-22
2.98002e-24
1.2011e-23
1.14552e-24
7.27438e-26
2.2046e-27
4.04565e-29
2.5493e-28
2.85594e-28
1.06079e-28
1.2504e-28
1.97549e-28
1.49184e-28
1.62273e-28
1.43509e-28
2.48452e-28
1.8668e-28
1.82907e-28
1.73678e-28
2.76319e-28
2.06981e-28
2.30819e-28
2.10801e-28
2.78489e-28
2.37763e-28
3.24428e-28
2.75951e-28
3.2693e-28
3.05044e-28
3.78548e-28
3.58389e-28
5.28047e-28
4.84207e-28
5.61777e-28
6.20309e-28
9.00211e-28
1.00437e-27
1.4182e-27
2.12364e-27
2.46529e-27
1.22206e-28
5.11452e-29
3.05905e-27
2.84017e-27
3.44335e-27
3.82927e-27
6.33753e-27
1.04369e-26
1.54734e-26
2.51789e-26
4.22948e-26
7.80274e-26
1.28574e-25
3.15018e-25
5.24847e-25
1.04734e-25
9.18289e-23
4.32901e-22
1.0184e-22
1.54548e-22
3.89152e-22
2.90719e-24
1.56061e-23
1.14961e-24
1.12863e-25
1.79518e-27
7.05235e-29
3.02961e-28
3.0418e-28
1.04746e-28
1.32726e-28
2.08641e-28
1.56116e-28
1.69859e-28
1.52248e-28
2.61629e-28
1.9383e-28
1.91092e-28
1.84421e-28
2.91773e-28
2.16117e-28
2.43211e-28
2.24925e-28
2.9664e-28
2.52998e-28
3.46116e-28
2.94526e-28
3.51454e-28
3.31026e-28
4.10799e-28
3.90309e-28
5.73377e-28
5.2255e-28
6.03889e-28
6.60117e-28
9.22993e-28
9.72354e-28
1.18702e-27
1.38494e-27
2.15977e-27
1.51361e-27
3.69243e-28
3.12546e-27
4.21346e-27
3.80463e-27
5.13242e-27
7.97303e-27
1.33308e-26
1.93586e-26
3.16299e-26
5.19683e-26
9.45543e-26
1.52444e-25
3.6853e-25
5.84878e-25
1.68256e-25
1.17544e-22
5.48253e-22
8.72782e-23
2.23618e-22
4.44056e-22
2.62663e-24
2.02583e-23
1.07391e-24
1.62562e-25
1.29832e-27
1.16696e-28
3.71119e-28
3.18367e-28
1.01506e-28
1.43094e-28
2.16981e-28
1.64703e-28
1.75982e-28
1.61992e-28
2.72633e-28
2.02183e-28
1.98547e-28
1.96017e-28
3.0564e-28
2.2622e-28
2.54818e-28
2.39826e-28
3.13703e-28
2.6842e-28
3.66799e-28
3.13782e-28
3.74772e-28
3.57158e-28
4.4162e-28
4.20651e-28
6.1539e-28
5.57065e-28
6.37363e-28
6.87033e-28
9.11871e-28
8.91651e-28
9.15585e-28
7.51474e-28
7.43394e-28
8.44783e-28
1.59727e-27
3.60876e-27
5.03292e-27
4.52173e-27
6.27971e-27
9.71211e-27
1.60797e-26
2.3013e-26
3.73409e-26
5.99636e-26
1.06845e-25
1.67985e-25
4.02451e-25
6.08878e-25
2.74942e-25
1.46433e-22
6.65295e-22
7.1717e-23
3.10156e-22
4.94234e-22
2.24853e-24
2.56321e-23
9.22698e-25
2.16816e-25
8.98292e-28
1.8847e-28
4.81958e-28
3.17752e-28
1.00397e-28
1.5082e-28
2.27751e-28
1.70645e-28
1.82742e-28
1.69854e-28
2.84382e-28
2.08965e-28
2.05725e-28
2.06303e-28
3.19522e-28
2.34807e-28
2.65759e-28
2.53606e-28
3.28832e-28
2.8249e-28
3.86189e-28
3.31583e-28
3.95276e-28
3.81915e-28
4.68057e-28
4.48667e-28
6.53864e-28
5.88779e-28
6.68302e-28
7.20696e-28
9.26102e-28
8.8635e-28
8.889e-28
6.78816e-28
5.60796e-28
1.12077e-27
2.40445e-27
4.67992e-27
5.26887e-27
5.27434e-27
7.29858e-27
1.12953e-26
1.82374e-26
2.58636e-26
4.09026e-26
6.46398e-26
1.1089e-25
1.70715e-25
4.03741e-25
5.89277e-25
4.34458e-25
1.7568e-22
7.72395e-22
5.56616e-23
4.09873e-22
5.5204e-22
1.96404e-24
3.19845e-23
7.41243e-25
2.75324e-25
6.35384e-28
2.9989e-28
6.66449e-28
2.99926e-28
1.03835e-28
1.51281e-28
2.46961e-28
1.69623e-28
1.96469e-28
1.71418e-28
2.98442e-28
2.12076e-28
2.1616e-28
2.11987e-28
3.34066e-28
2.40325e-28
2.79221e-28
2.6359e-28
3.44614e-28
2.93966e-28
4.0224e-28
3.47675e-28
4.1473e-28
4.03167e-28
4.91262e-28
4.72202e-28
6.78749e-28
6.15391e-28
6.87689e-28
7.41262e-28
9.21139e-28
8.72553e-28
8.67139e-28
6.84159e-28
5.36397e-28
1.42015e-27
3.30182e-27
5.24416e-27
5.51541e-27
5.76375e-27
8.1253e-27
1.24633e-26
1.93033e-26
2.73703e-26
4.13684e-26
6.48366e-26
1.05534e-25
1.61173e-25
3.76459e-25
5.52812e-25
6.30593e-25
2.02076e-22
8.63913e-22
4.56089e-23
5.23748e-22
6.30297e-22
1.89149e-24
4.06338e-23
5.50076e-25
3.45884e-25
5.37864e-28
4.65557e-28
9.97413e-28
2.88567e-28
1.04631e-28
1.62284e-28
2.69998e-28
1.77471e-28
2.10486e-28
1.82279e-28
3.21383e-28
2.24509e-28
2.28583e-28
2.28008e-28
3.57403e-28
2.55002e-28
2.96618e-28
2.83248e-28
3.67211e-28
3.1541e-28
4.29884e-28
3.73932e-28
4.42611e-28
4.3595e-28
5.23751e-28
5.07526e-28
7.22723e-28
6.53319e-28
7.15547e-28
7.72502e-28
9.35872e-28
8.77757e-28
8.85613e-28
7.23347e-28
5.87254e-28
1.74959e-27
4.25984e-27
5.53834e-27
5.85471e-27
6.24205e-27
8.83552e-27
1.32653e-26
1.99839e-26
2.76197e-26
4.04095e-26
6.18605e-26
9.69257e-26
1.45133e-25
3.44028e-25
5.12877e-25
8.79228e-25
2.31653e-22
9.53885e-22
4.17239e-23
1.88814e-28
2.4813e-29
1.01604e-29
4.30514e-28
8.76408e-29
1.83066e-31
3.66556e-29
1.07658e-29
2.49828e-29
1.76508e-29
2.38143e-29
1.86309e-29
2.65652e-29
2.24717e-29
2.52412e-29
1.96917e-29
2.94958e-29
2.93116e-29
2.95644e-29
2.64892e-29
3.35557e-29
3.35331e-29
3.47902e-29
3.29228e-29
3.42717e-29
3.31992e-29
3.84371e-29
3.82879e-29
3.88228e-29
3.81917e-29
3.61414e-29
3.51027e-29
4.10135e-29
4.17491e-29
3.91236e-29
3.63106e-29
3.41252e-29
3.22937e-29
3.18759e-29
2.7409e-29
2.30265e-29
1.75436e-29
1.93951e-29
1.91687e-29
1.44502e-29
1.34568e-29
5.71126e-30
3.40194e-30
8.01542e-31
2.50006e-31
1.50383e-31
1.86663e-30
1.64922e-29
5.00798e-29
2.63682e-28
1.04813e-28
1.04596e-27
6.71193e-26
1.20412e-25
1.16321e-26
5.60058e-26
3.21327e-27
2e-27
4.2656e-27
5.89362e-29
2.9208e-30
6.93428e-29
2.85812e-29
3.53055e-29
5.49064e-29
3.49255e-29
5.19019e-29
4.24867e-29
5.88062e-29
4.48036e-29
4.69144e-29
5.14593e-29
7.05656e-29
5.66964e-29
5.78756e-29
6.30135e-29
7.58875e-29
6.71112e-29
7.17419e-29
6.63868e-29
7.08608e-29
7.41546e-29
8.2606e-29
7.62318e-29
8.01935e-29
7.18945e-29
7.13262e-29
7.89606e-29
8.77055e-29
7.783e-29
7.22492e-29
6.73323e-29
6.2684e-29
6.22368e-29
5.6467e-29
4.70401e-29
4.38541e-29
3.87456e-29
3.17194e-29
2.92127e-29
2.48061e-29
1.18132e-29
4.75969e-30
1.58615e-30
2.10404e-31
2.04603e-31
7.07123e-30
2.92262e-29
1.52536e-28
4.6273e-28
4.89301e-28
1.29687e-27
1.56998e-25
6.94951e-25
7.45932e-27
1.74328e-25
1.56021e-26
1.32405e-26
4.27344e-27
2.53864e-28
1.99535e-30
9.41556e-29
4.46982e-29
5.0443e-29
7.13817e-29
5.47973e-29
6.55007e-29
6.59658e-29
7.56528e-29
6.66143e-29
6.40578e-29
7.70638e-29
9.31153e-29
8.28855e-29
8.01875e-29
9.14592e-29
1.03184e-28
9.62209e-29
9.93849e-29
9.44654e-29
9.98725e-29
1.05582e-28
1.14412e-28
1.08194e-28
1.11949e-28
1.00994e-28
1.02557e-28
1.11431e-28
1.21592e-28
1.09376e-28
1.01855e-28
9.46138e-29
8.98604e-29
8.89056e-29
8.22041e-29
7.26047e-29
6.50014e-29
5.22111e-29
4.50288e-29
4.22118e-29
3.46638e-29
1.61207e-29
7.45085e-30
2.04143e-30
5.40651e-31
4.569e-31
6.79925e-30
4.99448e-29
1.74751e-28
7.04064e-28
4.13572e-28
4.48324e-27
2.6652e-25
7.24895e-25
5.44502e-26
7.47466e-25
1.71761e-25
5.15506e-26
1.81837e-26
2.61116e-28
3.05489e-30
9.51984e-29
5.08499e-29
5.19619e-29
7.10615e-29
5.7144e-29
6.47841e-29
6.83859e-29
7.54349e-29
6.88411e-29
6.38415e-29
7.8743e-29
9.36187e-29
8.47699e-29
8.01293e-29
9.32259e-29
1.03663e-28
9.79873e-29
9.95692e-29
9.61601e-29
1.00565e-28
1.06815e-28
1.15789e-28
1.09713e-28
1.12573e-28
1.02845e-28
1.03496e-28
1.12642e-28
1.23733e-28
1.11024e-28
1.03184e-28
9.73344e-29
9.22319e-29
9.40699e-29
8.71666e-29
8.02439e-29
6.83084e-29
4.99165e-29
4.6529e-29
4.50049e-29
3.49848e-29
1.77155e-29
7.55314e-30
2.64508e-30
8.18993e-31
2.50666e-31
7.23835e-30
4.22184e-29
1.63123e-28
6.0301e-28
3.56062e-28
5.71834e-27
3.94428e-25
1.05778e-24
2.87711e-25
1.61646e-24
8.91069e-25
9.1193e-26
6.28574e-26
5.86967e-28
6.67293e-30
1.06595e-28
6.11565e-29
5.2962e-29
7.58366e-29
5.62551e-29
6.87117e-29
6.86262e-29
7.90413e-29
6.93645e-29
6.58694e-29
7.96302e-29
9.73332e-29
8.57785e-29
8.14511e-29
9.51014e-29
1.0616e-28
9.94242e-29
1.01231e-28
9.76415e-29
1.02466e-28
1.08863e-28
1.18493e-28
1.11243e-28
1.14862e-28
1.04678e-28
1.05408e-28
1.15222e-28
1.28114e-28
1.13058e-28
1.0662e-28
1.0065e-28
9.70264e-29
1.00104e-28
9.32712e-29
8.66101e-29
6.85756e-29
4.8822e-29
5.02323e-29
4.7984e-29
3.74929e-29
1.94391e-29
8.57351e-30
3.62838e-30
1.5629e-30
1.23978e-31
7.18831e-30
3.41024e-29
1.48318e-28
4.83085e-28
2.69693e-28
8.26501e-27
6.35587e-25
1.44673e-24
1.21705e-24
2.44373e-24
2.8088e-24
1.07335e-25
1.58624e-25
1.59847e-27
1.72936e-29
1.30298e-28
7.51387e-29
5.80262e-29
8.26221e-29
5.66328e-29
7.41089e-29
7.05196e-29
8.48633e-29
7.12107e-29
7.01105e-29
8.31012e-29
1.04136e-28
8.86308e-29
8.56429e-29
9.98212e-29
1.12078e-28
1.03601e-28
1.05938e-28
1.01976e-28
1.07701e-28
1.14422e-28
1.24916e-28
1.16333e-28
1.20701e-28
1.09589e-28
1.11121e-28
1.22312e-28
1.36916e-28
1.18917e-28
1.14021e-28
1.07384e-28
1.05773e-28
1.08677e-28
1.02288e-28
9.47983e-29
7.35573e-29
5.21488e-29
5.60029e-29
5.38457e-29
4.33407e-29
2.2359e-29
1.11993e-29
5.49653e-30
3.34493e-30
1.19591e-31
7.3356e-30
2.59737e-29
1.30408e-28
3.52695e-28
1.73169e-28
1.22458e-26
1.02823e-24
1.8443e-24
3.57736e-24
3.00774e-24
6.6927e-24
9.60554e-26
3.27008e-25
4.08131e-27
3.92415e-29
1.64571e-28
9.14784e-29
6.65347e-29
8.9268e-29
5.86506e-29
7.90677e-29
7.39393e-29
9.08545e-29
7.38255e-29
7.529e-29
8.83104e-29
1.11959e-28
9.23421e-29
9.13009e-29
1.06132e-28
1.19378e-28
1.08883e-28
1.11982e-28
1.07678e-28
1.14813e-28
1.2207e-28
1.32719e-28
1.23091e-28
1.28159e-28
1.16181e-28
1.19257e-28
1.32054e-28
1.47502e-28
1.26552e-28
1.23103e-28
1.15808e-28
1.16498e-28
1.18864e-28
1.13748e-28
1.06417e-28
8.26151e-29
5.90118e-29
6.32943e-29
6.37835e-29
5.22988e-29
2.71363e-29
1.61855e-29
9.23569e-30
7.51267e-30
5.47214e-31
8.67528e-30
1.98059e-29
1.09151e-28
2.32634e-28
1.03886e-28
1.65722e-26
1.59819e-24
2.38039e-24
8.18273e-24
3.17666e-24
1.30934e-23
6.7786e-26
5.79876e-25
9.25056e-27
7.34558e-29
2.09726e-28
1.08948e-28
7.71258e-29
9.61717e-29
6.16461e-29
8.3489e-29
7.82898e-29
9.67247e-29
7.69778e-29
8.07092e-29
9.43687e-29
1.2009e-28
9.63478e-29
9.74491e-29
1.13068e-28
1.27368e-28
1.14524e-28
1.18565e-28
1.14106e-28
1.2279e-28
1.30187e-28
1.41372e-28
1.30707e-28
1.36168e-28
1.23686e-28
1.28382e-28
1.42796e-28
1.58877e-28
1.34852e-28
1.32708e-28
1.25143e-28
1.28353e-28
1.30053e-28
1.28938e-28
1.22609e-28
9.84267e-29
6.9789e-29
7.18782e-29
7.89875e-29
6.53372e-29
3.49954e-29
2.52586e-29
1.67459e-29
1.70879e-29
3.05445e-30
1.46579e-29
2.00874e-29
9.73351e-29
1.63399e-28
1.37994e-28
2.11546e-26
2.36717e-24
3.12705e-24
1.53812e-23
3.05282e-24
2.25798e-23
3.7549e-26
9.29086e-25
1.9429e-26
1.24072e-28
2.71262e-28
1.25955e-28
8.81543e-29
1.04137e-28
6.51115e-29
8.77705e-29
8.35734e-29
1.02502e-28
8.05428e-29
8.6515e-29
1.01594e-28
1.28402e-28
1.00568e-28
1.04027e-28
1.21036e-28
1.35744e-28
1.20295e-28
1.25687e-28
1.21104e-28
1.31512e-28
1.3934e-28
1.5051e-28
1.38587e-28
1.44879e-28
1.31902e-28
1.38429e-28
1.54911e-28
1.70717e-28
1.43417e-28
1.43042e-28
1.35667e-28
1.41888e-28
1.43884e-28
1.49768e-28
1.44532e-28
1.21938e-28
8.3427e-29
8.29015e-29
1.0209e-28
8.442e-29
4.81633e-29
4.15011e-29
3.23151e-29
3.83354e-29
1.30279e-29
3.48567e-29
3.92948e-29
1.22742e-28
2.21765e-28
5.2227e-28
2.46537e-26
3.36186e-24
4.50622e-24
2.54834e-23
2.71072e-24
3.52471e-23
2.0638e-26
1.36078e-24
3.78679e-26
1.96778e-28
3.53328e-28
1.39487e-28
9.97157e-29
1.13345e-28
6.89931e-29
9.20464e-29
8.9692e-29
1.08241e-28
8.49211e-29
9.24537e-29
1.0965e-28
1.36812e-28
1.05256e-28
1.10867e-28
1.29701e-28
1.44421e-28
1.26588e-28
1.33098e-28
1.28964e-28
1.40807e-28
1.48814e-28
1.60332e-28
1.47171e-28
1.54003e-28
1.41055e-28
1.49284e-28
1.67732e-28
1.83392e-28
1.52934e-28
1.5448e-28
1.48247e-28
1.57894e-28
1.60614e-28
1.78063e-28
1.74232e-28
1.48405e-28
1.0126e-28
9.75882e-29
1.35533e-28
1.13257e-28
7.0552e-29
7.04306e-29
6.42599e-29
8.36463e-29
4.49844e-29
9.42733e-29
1.19426e-28
2.61496e-28
6.33699e-28
2.15028e-27
2.76639e-26
4.62234e-24
6.80974e-24
3.80503e-23
2.45978e-24
5.12513e-23
2.08626e-26
1.86216e-24
6.93746e-26
3.09097e-28
4.67651e-28
1.44853e-28
1.11825e-28
1.2361e-28
7.33307e-29
9.61534e-29
9.68568e-29
1.13773e-28
8.98969e-29
9.86698e-29
1.18922e-28
1.45068e-28
1.10312e-28
1.18018e-28
1.39497e-28
1.53032e-28
1.33246e-28
1.40845e-28
1.3756e-28
1.50657e-28
1.59351e-28
1.70385e-28
1.56127e-28
1.63914e-28
1.51096e-28
1.61337e-28
1.82123e-28
1.96939e-28
1.63587e-28
1.67768e-28
1.63461e-28
1.76962e-28
1.81325e-28
2.13667e-28
2.05063e-28
1.87846e-28
1.28441e-28
1.16059e-28
1.8499e-28
1.56593e-28
1.08178e-28
1.21177e-28
1.27492e-28
1.76083e-28
1.31511e-28
2.53062e-28
3.72578e-28
7.18559e-28
2.04518e-27
6.8608e-27
2.90766e-26
6.25747e-24
1.11384e-23
5.27075e-23
2.30244e-24
7.02687e-23
6.10929e-26
2.40524e-24
1.2022e-25
5.06627e-28
6.08986e-28
1.41954e-28
1.24043e-28
1.35941e-28
7.74901e-29
1.00747e-28
1.04237e-28
1.19851e-28
9.5191e-29
1.05281e-28
1.28627e-28
1.53552e-28
1.15502e-28
1.25591e-28
1.49701e-28
1.61887e-28
1.4026e-28
1.48951e-28
1.4701e-28
1.60978e-28
1.69969e-28
1.81032e-28
1.66041e-28
1.74485e-28
1.62353e-28
1.74462e-28
1.97671e-28
2.12008e-28
1.76067e-28
1.83342e-28
1.82046e-28
1.99597e-28
2.06026e-28
2.61025e-28
2.44992e-28
2.27215e-28
1.73016e-28
1.40785e-28
2.54868e-28
2.22533e-28
1.70576e-28
2.08827e-28
2.45977e-28
3.55145e-28
3.37061e-28
6.29012e-28
1.03212e-27
1.9316e-27
5.74413e-27
1.76803e-26
3.05055e-26
8.46771e-24
1.79698e-23
6.82084e-23
2.7178e-24
9.19829e-23
1.69386e-25
2.96148e-24
1.95824e-25
9.00621e-28
8.12004e-28
1.30767e-28
1.35302e-28
1.50607e-28
8.13552e-29
1.05689e-28
1.11976e-28
1.26387e-28
1.00287e-28
1.12485e-28
1.39239e-28
1.61984e-28
1.20576e-28
1.33706e-28
1.60817e-28
1.70785e-28
1.47202e-28
1.57754e-28
1.56965e-28
1.71743e-28
1.8178e-28
1.92064e-28
1.76265e-28
1.86412e-28
1.74704e-28
1.89003e-28
2.15805e-28
2.28678e-28
1.90385e-28
2.02259e-28
2.04673e-28
2.27018e-28
2.3789e-28
3.26105e-28
2.92292e-28
2.8763e-28
2.37371e-28
1.7344e-28
3.53278e-28
3.2253e-28
2.71361e-28
3.58557e-28
4.60452e-28
6.8618e-28
7.66741e-28
1.42627e-27
2.49334e-27
4.64533e-27
1.36654e-26
3.81063e-26
3.07311e-26
1.14263e-23
2.98251e-23
8.34889e-23
4.01048e-24
1.17128e-22
3.95618e-25
3.55021e-24
3.00548e-25
1.73259e-27
1.08167e-27
1.13465e-28
1.44348e-28
1.68701e-28
8.47684e-29
1.10958e-28
1.19869e-28
1.33245e-28
1.05784e-28
1.20045e-28
1.49777e-28
1.70622e-28
1.25822e-28
1.42331e-28
1.71884e-28
1.80021e-28
1.54473e-28
1.6704e-28
1.67724e-28
1.83024e-28
1.93734e-28
2.04042e-28
1.87547e-28
1.99387e-28
1.8879e-28
2.0514e-28
2.35429e-28
2.47883e-28
2.07617e-28
2.24724e-28
2.32225e-28
2.59273e-28
2.75591e-28
4.03015e-28
3.30349e-28
3.2957e-28
3.23149e-28
2.13524e-28
4.90188e-28
4.71732e-28
4.32554e-28
6.04254e-28
8.28925e-28
1.26212e-27
1.58628e-27
2.93553e-27
5.33734e-27
9.87799e-27
2.8335e-26
7.19998e-26
3.09841e-26
1.54954e-23
4.84155e-23
9.82329e-23
7.20655e-24
1.45209e-22
7.21842e-25
4.1734e-24
4.33672e-25
3.44233e-27
1.41842e-27
8.69657e-29
1.55122e-28
1.87789e-28
8.86984e-29
1.15487e-28
1.28998e-28
1.39609e-28
1.11712e-28
1.27793e-28
1.61209e-28
1.78817e-28
1.31289e-28
1.51363e-28
1.83766e-28
1.89091e-28
1.61969e-28
1.77037e-28
1.79069e-28
1.9491e-28
2.06932e-28
2.1661e-28
1.99584e-28
2.14091e-28
2.04374e-28
2.23391e-28
2.57883e-28
2.69404e-28
2.27539e-28
2.51083e-28
2.63902e-28
2.94761e-28
3.17337e-28
4.81649e-28
3.8075e-28
4.54835e-28
4.68799e-28
2.57811e-28
6.91141e-28
6.81174e-28
6.80781e-28
9.78145e-28
1.43034e-27
2.20384e-27
3.00347e-27
5.54867e-27
1.02515e-26
1.88784e-26
5.21662e-26
1.22121e-25
3.07457e-26
2.10278e-23
7.73965e-23
1.09724e-22
1.21226e-23
1.75451e-22
1.24637e-24
4.96544e-24
5.95194e-25
7.05588e-27
1.71844e-27
5.96321e-29
1.65278e-28
2.10713e-28
9.16173e-29
1.20623e-28
1.38064e-28
1.46483e-28
1.17921e-28
1.35882e-28
1.72279e-28
1.87325e-28
1.36854e-28
1.60965e-28
1.95369e-28
1.98586e-28
1.69879e-28
1.87736e-28
1.91258e-28
2.07561e-28
2.20004e-28
2.3041e-28
2.13287e-28
2.30279e-28
2.22019e-28
2.43773e-28
2.82331e-28
2.94561e-28
2.51786e-28
2.83335e-28
3.04259e-28
3.43337e-28
3.82078e-28
6.23723e-28
6.2892e-28
5.28941e-28
6.40454e-28
3.54641e-28
9.44119e-28
9.80012e-28