/*--------------------------------*- C++ -*----------------------------------*\
| =========                 |                                                 |
| \\      /  F ield         | OpenFOAM: The Open Source CFD Toolbox           |
|  \\    /   O peration     | Version:  2312                                  |
|   \\  /    A nd           | Website:  www.openfoam.com                      |
|    \\/     M anipulation  |                                                 |
\*---------------------------------------------------------------------------*/
FoamFile
{
    version     2.0;
    format      ascii;
    arch        "LSB;label=32;scalar=64";
    class       volScalarField;
    location    "600";
    object      p;
}
// * * * * * * * * * * * * * * * * * * * * * * * * * * * * * * * * * * * * * //

dimensions      [0 2 -2 0 0 0 0];

internalField   nonuniform List<scalar> 
144000
(
2.09425e-10
1.73084e-10
-7.17845e-11
-2.60706e-10
-2.65405e-10
-2.1722e-10
-1.50596e-10
-1.1534e-10
-8.05083e-11
-7.32715e-11
-5.46479e-11
-5.58579e-11
-4.15701e-11
-4.5718e-11
-3.18032e-11
-3.60941e-11
-2.44764e-11
-3.14263e-11
-1.77489e-11
-2.27191e-11
-9.98115e-12
-1.7504e-11
-4.70642e-12
-1.18339e-11
9.76465e-13
-6.21422e-12
6.03759e-12
-2.52245e-12
1.00416e-11
2.11578e-12
1.5088e-11
7.58016e-12
1.91069e-11
9.37884e-12
2.131e-11
1.28858e-11
2.43567e-11
1.61665e-11
2.63825e-11
1.73843e-11
2.62831e-11
1.89694e-11
2.74037e-11
1.98121e-11
2.80126e-11
2.06309e-11
2.7962e-11
2.42767e-11
2.87698e-11
2.73311e-11
2.90063e-11
3.18392e-11
2.21289e-11
2.25123e-11
-6.44111e-12
-2.58256e-12
-6.01423e-11
-1.3224e-10
-4.05982e-10
-7.31523e-11
2.21939e-10
1.79654e-10
-7.44062e-11
-2.63518e-10
-2.66786e-10
-2.17576e-10
-1.50784e-10
-1.15414e-10
-8.06837e-11
-7.33782e-11
-5.48252e-11
-5.5934e-11
-4.17207e-11
-4.57711e-11
-3.19211e-11
-3.6109e-11
-2.45843e-11
-3.14478e-11
-1.7846e-11
-2.27092e-11
-1.00715e-11
-1.74981e-11
-4.78947e-12
-1.18068e-11
9.01588e-13
-6.18082e-12
5.9609e-12
-2.49272e-12
9.9688e-12
2.15921e-12
1.50243e-11
7.63297e-12
1.90391e-11
9.41872e-12
2.12469e-11
1.29445e-11
2.4304e-11
1.6226e-11
2.63356e-11
1.74267e-11
2.61944e-11
1.89055e-11
2.72828e-11
1.98805e-11
2.79957e-11
2.07187e-11
2.79646e-11
2.43943e-11
2.88076e-11
2.74506e-11
2.91103e-11
3.19929e-11
2.2338e-11
2.26571e-11
-6.04766e-12
-2.16166e-12
-5.82239e-11
-1.30794e-10
-4.1468e-10
-7.92091e-11
2.37313e-10
1.86337e-10
-7.74409e-11
-2.66866e-10
-2.68677e-10
-2.18254e-10
-1.5102e-10
-1.1557e-10
-8.08257e-11
-7.35714e-11
-5.49937e-11
-5.6106e-11
-4.18498e-11
-4.59138e-11
-3.20195e-11
-3.61971e-11
-2.46407e-11
-3.15469e-11
-1.79137e-11
-2.27739e-11
-1.01119e-11
-1.75669e-11
-4.82732e-12
-1.18455e-11
8.79074e-13
-6.21417e-12
5.94393e-12
-2.53134e-12
9.95258e-12
2.13969e-12
1.50177e-11
7.62269e-12
1.90428e-11
9.39294e-12
2.12435e-11
1.29467e-11
2.43183e-11
1.62301e-11
2.63618e-11
1.74274e-11
2.61546e-11
1.87349e-11
2.71612e-11
1.98704e-11
2.80716e-11
2.07903e-11
2.80418e-11
2.4508e-11
2.8935e-11
2.75727e-11
2.92726e-11
3.21657e-11
2.26332e-11
2.28911e-11
-5.57036e-12
-1.78558e-12
-5.57622e-11
-1.26424e-10
-4.28029e-10
-8.62212e-11
2.55038e-10
1.92119e-10
-8.02935e-11
-2.70405e-10
-2.71404e-10
-2.19297e-10
-1.51317e-10
-1.15709e-10
-8.09354e-11
-7.37907e-11
-5.519e-11
-5.63217e-11
-4.20007e-11
-4.61003e-11
-3.21421e-11
-3.63129e-11
-2.46866e-11
-3.16777e-11
-1.79998e-11
-2.2867e-11
-1.01444e-11
-1.76618e-11
-4.86777e-12
-1.19028e-11
8.65262e-13
-6.26462e-12
5.94294e-12
-2.58937e-12
9.94527e-12
2.10388e-12
1.50249e-11
7.5986e-12
1.90771e-11
9.34867e-12
2.12548e-11
1.29348e-11
2.43632e-11
1.62201e-11
2.64319e-11
1.74291e-11
2.61402e-11
1.84948e-11
2.69798e-11
1.97863e-11
2.82174e-11
2.08675e-11
2.81802e-11
2.46194e-11
2.91597e-11
2.76783e-11
2.95434e-11
3.23059e-11
2.31257e-11
2.30617e-11
-4.82474e-12
-1.64482e-12
-5.19729e-11
-1.19865e-10
-4.45147e-10
-9.32891e-11
2.7253e-10
1.94648e-10
-8.20594e-11
-2.72815e-10
-2.74643e-10
-2.20681e-10
-1.51654e-10
-1.15784e-10
-8.10042e-11
-7.40279e-11
-5.54395e-11
-5.65897e-11
-4.21997e-11
-4.63344e-11
-3.23139e-11
-3.64551e-11
-2.47427e-11
-3.18348e-11
-1.81254e-11
-2.29813e-11
-1.01855e-11
-1.77725e-11
-4.93056e-12
-1.19704e-11
8.4339e-13
-6.32091e-12
5.94264e-12
-2.65464e-12
9.92878e-12
2.06154e-12
1.50306e-11
7.57274e-12
1.91287e-11
9.29779e-12
2.1265e-11
1.29159e-11
2.44283e-11
1.62025e-11
2.65421e-11
1.74422e-11
2.61548e-11
1.82174e-11
2.66966e-11
1.96056e-11
2.84262e-11
2.09508e-11
2.83744e-11
2.4712e-11
2.94877e-11
2.77366e-11
2.99389e-11
3.23598e-11
2.38616e-11
2.30693e-11
-3.71471e-12
-1.92761e-12
-4.6668e-11
-1.11756e-10
-4.64874e-10
-9.84638e-11
2.8814e-10
1.90481e-10
-8.25036e-11
-2.72611e-10
-2.77839e-10
-2.22356e-10
-1.51998e-10
-1.15749e-10
-8.10068e-11
-7.42754e-11
-5.57485e-11
-5.69188e-11
-4.24576e-11
-4.66247e-11
-3.25459e-11
-3.66341e-11
-2.48175e-11
-3.20217e-11
-1.82977e-11
-2.31231e-11
-1.02404e-11
-1.79007e-11
-5.02144e-12
-1.20524e-11
8.09631e-13
-6.38519e-12
5.93994e-12
-2.7276e-12
9.89937e-12
2.00982e-12
1.50324e-11
7.54287e-12
1.91965e-11
9.24001e-12
2.12727e-11
1.28838e-11
2.45155e-11
1.6171e-11
2.66995e-11
1.74668e-11
2.6218e-11
1.7905e-11
2.6275e-11
1.92952e-11
2.87001e-11
2.10325e-11
2.86273e-11
2.47614e-11
2.9928e-11
2.7715e-11
3.04799e-11
3.22719e-11
2.48804e-11
2.282e-11
-2.14989e-12
-2.81978e-12
-3.97397e-11
-1.02658e-10
-4.86617e-10
-9.88712e-11
3.01637e-10
1.76014e-10
-8.21899e-11
-2.68408e-10
-2.80352e-10
-2.24246e-10
-1.52323e-10
-1.15564e-10
-8.09139e-11
-7.45194e-11
-5.61143e-11
-5.7311e-11
-4.27789e-11
-4.69748e-11
-3.28439e-11
-3.68592e-11
-2.49182e-11
-3.22396e-11
-1.85204e-11
-2.32987e-11
-1.03142e-11
-1.80475e-11
-5.14408e-12
-1.21536e-11
7.6133e-13
-6.46029e-12
5.93209e-12
-2.80903e-12
9.8549e-12
1.94547e-12
1.50296e-11
7.50559e-12
1.9279e-11
9.17482e-12
2.12783e-11
1.28319e-11
2.46276e-11
1.61178e-11
2.69124e-11
1.74999e-11
2.63664e-11
1.75538e-11
2.56619e-11
1.88206e-11
2.90431e-11
2.11035e-11
2.89446e-11
2.47419e-11
3.04912e-11
2.75813e-11
3.1193e-11
3.19844e-11
2.62268e-11
2.22175e-11
-3.16091e-14
-4.48379e-12
-3.11117e-11
-9.30124e-11
-5.1049e-10
-9.15519e-11
3.13924e-10
1.48017e-10
-8.23273e-11
-2.59007e-10
-2.81472e-10
-2.26263e-10
-1.52618e-10
-1.15189e-10
-8.06991e-11
-7.47442e-11
-5.65315e-11
-5.77636e-11
-4.31659e-11
-4.73847e-11
-3.32108e-11
-3.71347e-11
-2.5053e-11
-3.24879e-11
-1.87956e-11
-2.35121e-11
-1.04131e-11
-1.8213e-11
-5.30181e-12
-1.22769e-11
6.95095e-13
-6.54736e-12
5.91464e-12
-2.89873e-12
9.79304e-12
1.86682e-12
1.50205e-11
7.45924e-12
1.93723e-11
9.10261e-12
2.12822e-11
1.27549e-11
2.47657e-11
1.60366e-11
2.71887e-11
1.75363e-11
2.66537e-11
1.71326e-11
2.47804e-11
1.81511e-11
2.9461e-11
2.11544e-11
2.93339e-11
2.46285e-11
3.1188e-11
2.73034e-11
3.21057e-11
3.14453e-11
2.79454e-11
2.11781e-11
2.72779e-12
-7.03044e-12
-2.08064e-11
-8.30614e-11
-5.37068e-10
-7.40321e-11
3.26869e-10
1.03947e-10
-8.46377e-11
-2.43498e-10
-2.80442e-10
-2.28303e-10
-1.52891e-10
-1.14596e-10
-8.03413e-11
-7.49356e-11
-5.69943e-11
-5.82722e-11
-4.36189e-11
-4.78516e-11
-3.36472e-11
-3.74632e-11
-2.52289e-11
-3.27646e-11
-1.91238e-11
-2.3765e-11
-1.05433e-11
-1.83964e-11
-5.49682e-12
-1.2424e-11
6.07529e-13
-6.64676e-12
5.88323e-12
-2.99617e-12
9.7118e-12
1.77292e-12
1.50033e-11
7.4029e-12
1.9472e-11
9.0239e-12
2.12848e-11
1.26489e-11
2.493e-11
1.59209e-11
2.75379e-11
1.7568e-11
2.71591e-11
1.6597e-11
2.35249e-11
1.72576e-11
2.99626e-11
2.11755e-11
2.98042e-11
2.43989e-11
3.20288e-11
2.68527e-11
3.3242e-11
3.06024e-11
3.007e-11
1.96443e-11
6.1801e-12
-1.04913e-11
-8.95554e-12
-7.28537e-11
-5.6723e-10
-4.45655e-11
3.42684e-10
4.22398e-11
-9.1028e-11
-2.21313e-10
-2.76526e-10
-2.30253e-10
-1.53172e-10
-1.13778e-10
-7.98255e-11
-7.5082e-11
-5.74971e-11
-5.88319e-11
-4.41371e-11
-4.83723e-11
-3.41516e-11
-3.78452e-11
-2.54523e-11
-3.30677e-11
-1.95034e-11
-2.40578e-11
-1.07104e-11
-1.85969e-11
-5.72977e-12
-1.2596e-11
4.95796e-13
-6.75853e-12
5.83372e-12
-3.1009e-12
9.61031e-12
1.66344e-12
1.49763e-11
7.33611e-12
1.95731e-11
8.93897e-12
2.12871e-11
1.25112e-11
2.51199e-11
1.57646e-11
2.79697e-11
1.7589e-11
2.79869e-11
1.58758e-11
2.17671e-11
1.61228e-11
3.05587e-11
2.11575e-11
3.03642e-11
2.40357e-11
3.30195e-11
2.62076e-11
3.46189e-11
2.94303e-11
3.26131e-11
1.75954e-11
1.03278e-11
-1.48182e-11
4.15473e-12
-6.2229e-11
-6.01741e-10
-2.39976e-12
3.63748e-10
-3.7512e-11
-1.03476e-10
-1.92315e-10
-2.69043e-10
-2.31974e-10
-1.5351e-10
-1.12745e-10
-7.91453e-11
-7.51756e-11
-5.80359e-11
-5.94388e-11
-4.472e-11
-4.89435e-11
-3.47225e-11
-3.82805e-11
-2.57282e-11
-3.33954e-11
-1.99323e-11
-2.43901e-11
-1.09187e-11
-1.88139e-11
-6.00043e-12
-1.2793e-11
3.57431e-13
-6.88249e-12
5.76298e-12
-3.21248e-12
9.48828e-12
1.53832e-12
1.4938e-11
7.25878e-12
1.96715e-11
8.84816e-12
2.12898e-11
1.23406e-11
2.53333e-11
1.55633e-11
2.8493e-11
1.75949e-11
2.92836e-11
1.4808e-11
1.93325e-11
1.47403e-11
3.12583e-11
2.1091e-11
3.10195e-11
2.35287e-11
3.4161e-11
2.53567e-11
3.62406e-11
2.79235e-11
3.556e-11
1.50526e-11
1.51168e-11
-1.98749e-11
1.81475e-11
-5.08913e-11
-6.41184e-10
5.22147e-11
3.92088e-10
-1.3463e-10
-1.23745e-10
-1.56792e-10
-2.57417e-10
-2.3329e-10
-1.53962e-10
-1.11527e-10
-7.83038e-11
-7.52118e-11
-5.8608e-11
-6.00904e-11
-4.53677e-11
-4.95633e-11
-3.53584e-11
-3.87683e-11
-2.60612e-11
-3.37469e-11
-2.04082e-11
-2.47609e-11
-1.11723e-11
-1.90472e-11
-6.30802e-12
-1.30151e-11
1.90322e-13
-7.01833e-12
5.66836e-12
-3.33078e-12
9.34593e-12
1.39801e-12
1.48869e-11
7.17138e-12
1.97631e-11
8.75201e-12
2.1293e-11
1.21379e-11
2.5566e-11
1.53137e-11
2.91174e-11
1.75708e-11
3.13164e-11
1.32204e-11
1.5965e-11
1.31076e-11
3.206e-11
2.0964e-11
3.17692e-11
2.28757e-11
3.54479e-11
2.43016e-11
3.80944e-11
2.60993e-11
3.88665e-11
1.20824e-11
2.04411e-11
-2.54524e-11
3.25559e-11
-3.85218e-11
-6.8569e-10
1.18129e-10
4.29482e-10
-2.47418e-10
-1.53408e-10
-1.15511e-10
-2.41204e-10
-2.33965e-10
-1.54569e-10
-1.10171e-10
-7.73141e-11
-7.51882e-11
-5.92105e-11
-6.07842e-11
-4.60801e-11
-5.02296e-11
-3.60579e-11
-3.93076e-11
-2.64549e-11
-3.41217e-11
-2.09284e-11
-2.51687e-11
-1.14742e-11
-1.92972e-11
-6.65147e-12
-1.32618e-11
-7.44996e-15
-7.16574e-12
5.54821e-12
-3.45565e-12
9.18346e-12
1.24337e-12
1.48212e-11
7.07468e-12
1.9844e-11
8.65163e-12
2.12959e-11
1.19063e-11
2.58115e-11
1.50152e-11
2.98452e-11
1.75073e-11
3.4393e-11
1.09768e-11
1.13991e-11
1.12685e-11
3.29664e-11
2.07709e-11
3.26068e-11
2.20831e-11
3.68556e-11
2.30616e-11
4.01491e-11
2.40016e-11
4.2459e-11
8.79222e-12
2.61476e-11
-3.12883e-11
4.6946e-11
-2.49097e-11
-7.35116e-10
1.93559e-10
4.76788e-10
-3.73203e-10
-1.93445e-10
-6.96423e-11
-2.20173e-10
-2.33729e-10
-1.55363e-10
-1.08725e-10
-7.61959e-11
-7.51028e-11
-5.98396e-11
-6.15172e-11
-4.68563e-11
-5.09403e-11
-3.68187e-11
-3.98967e-11
-2.69122e-11
-3.45198e-11
-2.14901e-11
-2.56118e-11
-1.18272e-11
-1.95645e-11
-7.02928e-12
-1.3532e-11
-2.37411e-13
-7.32454e-12
5.40093e-12
-3.58706e-12
9.00137e-12
1.07593e-12
1.47393e-11
6.96995e-12
1.99099e-11
8.54908e-12
2.12954e-11
1.1654e-11
2.60559e-11
1.4684e-11
3.06315e-11
1.75087e-11
3.86553e-11
8.07855e-12
5.48145e-12
9.38631e-12
3.40106e-11
2.05318e-11
3.35284e-11
2.11716e-11
3.836e-11
2.16707e-11
4.23559e-11
2.16993e-11
4.62369e-11
5.32329e-12
3.20495e-11
-3.70968e-11
6.08701e-11
-9.94835e-12
-7.88685e-10
2.76081e-10
5.3402e-10
-5.08417e-10
-2.44203e-10
-2.07343e-11
-1.9433e-10
-2.32288e-10
-1.56359e-10
-1.07314e-10
-7.49779e-11
-7.49546e-11
-6.04906e-11
-6.22868e-11
-4.76954e-11
-5.16934e-11
-3.76387e-11
-4.05334e-11
-2.74347e-11
-3.49418e-11
-2.20908e-11
-2.60881e-11
-1.22327e-11
-1.98501e-11
-7.4401e-12
-1.38245e-11
-5.00976e-13
-7.49464e-12
5.22553e-12
-3.72469e-12
8.79999e-12
8.9753e-13
1.46388e-11
6.85888e-12
1.99564e-11
8.44739e-12
2.12869e-11
1.13919e-11
2.62821e-11
1.43454e-11
3.14013e-11
1.76697e-11
4.48638e-11
1.66498e-12
-2.54928e-12
7.44317e-12
3.51576e-11
2.02619e-11
3.45223e-11
2.017e-11
3.99236e-11
2.01767e-11
4.46489e-11
1.92827e-11
5.00768e-11
1.84092e-12
3.79366e-11
-4.25864e-11
7.39495e-11
6.35346e-12
-8.45138e-10
3.62791e-10
6.00436e-10
-6.4904e-10
-3.05336e-10
2.94036e-11
-1.63935e-10
-2.29347e-10
-1.57542e-10
-1.06023e-10
-7.37052e-11
-7.47471e-11
-6.11593e-11
-6.30908e-11
-4.8597e-11
-5.24881e-11
-3.8516e-11
-4.12159e-11
-2.8023e-11
-3.53881e-11
-2.27281e-11
-2.65953e-11
-1.26921e-11
-2.0155e-11
-7.88281e-12
-1.41381e-11
-7.99352e-13
-7.67595e-12
5.02109e-12
-3.86821e-12
8.57949e-12
7.1038e-13
1.45175e-11
6.74347e-12
1.99798e-11
8.34888e-12
2.12671e-11
1.11257e-11
2.64851e-11
1.39998e-11
3.21371e-11
1.72821e-11
5.50078e-11
-1.98862e-12
-1.35697e-11
5.00089e-12
3.61416e-11
1.99166e-11
3.55462e-11
1.91107e-11
4.14924e-11
1.86371e-11
4.69476e-11
1.68588e-11
5.384e-11
-1.47283e-12
4.35926e-11
-4.74751e-11
8.58389e-11
2.38877e-11
-9.02885e-10
4.51453e-10
6.75219e-10
-7.90224e-10
-3.76176e-10
7.86847e-11
-1.29492e-10
-2.24585e-10
-1.58842e-10
-1.04953e-10
-7.24372e-11
-7.44866e-11
-6.18405e-11
-6.39267e-11
-4.95606e-11
-5.33232e-11
-3.94487e-11
-4.19418e-11
-2.86771e-11
-3.58596e-11
-2.34001e-11
-2.7131e-11
-1.32054e-11
-2.04804e-11
-8.35658e-12
-1.4471e-11
-1.13363e-12
-7.86829e-12
4.78729e-12
-4.01696e-12
8.33934e-12
5.16911e-13
1.43728e-11
6.62634e-12
1.99756e-11
8.25853e-12
2.12271e-11
1.08744e-11
2.66297e-11
1.37332e-11
3.26467e-11
1.67034e-11
6.18595e-11
-1.39419e-14
-2.04832e-11
2.78586e-12
3.69168e-11
1.95257e-11
3.65855e-11
1.80383e-11
4.301e-11
1.71202e-11
4.91616e-11
1.45452e-11
5.7379e-11
-4.43278e-12
4.88067e-11
-5.1509e-11
9.63396e-11
4.2406e-11
-9.60517e-10
5.36838e-10
7.56585e-10
-9.26582e-10
-4.55446e-10
1.24931e-10
-9.17642e-11
-2.17729e-10
-1.60159e-10
-1.04214e-10
-7.12459e-11
-7.41827e-11
-6.25275e-11
-6.47909e-11
-5.05846e-11
-5.41971e-11
-4.04341e-11
-4.27085e-11
-2.93958e-11
-3.63565e-11
-2.41045e-11
-2.76927e-11
-1.37724e-11
-2.08272e-11
-8.86045e-12
-1.48215e-11
-1.50441e-12
-8.07145e-12
4.52356e-12
-4.17015e-12
8.07904e-12
3.20099e-13
1.4202e-11
6.5106e-12
1.99384e-11
8.18331e-12
2.11539e-11
1.06665e-11
2.66642e-11
1.36871e-11
3.2667e-11
1.72806e-11
5.58697e-11
-6.37682e-13
-1.34618e-11
2.8842e-12
3.75668e-11
1.9199e-11
3.76507e-11
1.70183e-11
4.44214e-11
1.57029e-11
5.11981e-11
1.24643e-11
6.05489e-11
-6.86218e-12
5.33909e-11
-5.44863e-11
1.05335e-10
6.14774e-11
-1.0161e-09
6.16865e-10
8.41762e-10
-1.05362e-09
-5.41112e-10
1.66028e-10
-5.17194e-11
-2.08502e-10
-1.61369e-10
-1.03914e-10
-7.02146e-11
-7.385e-11
-6.32136e-11
-6.56796e-11
-5.16676e-11
-5.51086e-11
-4.14698e-11
-4.3513e-11
-3.01774e-11
-3.68789e-11
-2.48396e-11
-2.82775e-11
-1.43921e-11
-2.1196e-11
-9.39374e-12
-1.51873e-11
-1.91207e-12
-8.2851e-12
4.22962e-12
-4.32659e-12
7.79805e-12
1.23037e-13
1.40028e-11
6.39831e-12
1.98653e-11
8.12464e-12
2.10472e-11
1.0497e-11
2.66108e-11
1.37741e-11
3.23855e-11
1.77574e-11
4.60423e-11
3.95229e-12
-5.33071e-13
3.60578e-12
3.79049e-11
1.88429e-11
3.86424e-11
1.60928e-11
4.56627e-11
1.4459e-11
5.29623e-11
1.07339e-11
6.32125e-11
-8.60118e-12
5.71777e-11
-5.62432e-11
1.12774e-10
8.06348e-11
-1.06735e-09
6.88349e-10
9.27384e-10
-1.16651e-09
-6.30506e-10
2.00039e-10
-1.05033e-11
-1.9675e-10
-1.62321e-10
-1.04148e-10
-6.94362e-11
-7.35109e-11
-6.38942e-11
-6.65899e-11
-5.28092e-11
-5.60576e-11
-4.25542e-11
-4.4353e-11
-3.10198e-11
-3.74272e-11
-2.56041e-11
-2.8883e-11
-1.50634e-11
-2.15873e-11
-9.95625e-12
-1.55668e-11
-2.35683e-12
-8.5088e-12
3.90512e-12
-4.48509e-12
7.49564e-12
-7.14955e-14
1.37731e-11
6.29202e-12
1.97541e-11
8.0839e-12
2.09069e-11
1.03588e-11
2.64922e-11
1.38944e-11
3.20107e-11
1.76695e-11
3.96704e-11
1.06817e-11
8.522e-12
4.07333e-12
3.79724e-11
1.8476e-11
3.95263e-11
1.53155e-11
4.66774e-11
1.34608e-11
5.43671e-11
9.46179e-12
6.52498e-11
-9.50832e-12
6.00261e-11
-5.66416e-11
1.18598e-10
9.94845e-11
-1.11193e-09
7.48066e-10
1.01038e-09
-1.26063e-09
-7.20943e-10
2.25168e-10
3.06383e-11
-1.82404e-10
-1.62823e-10
-1.04979e-10
-6.90024e-11
-7.31925e-11
-6.45657e-11
-6.75182e-11
-5.40086e-11
-5.70446e-11
-4.36865e-11
-4.52264e-11
-3.192e-11
-3.80012e-11
-2.63974e-11
-2.95072e-11
-1.57841e-11
-2.20015e-11
-1.05483e-11
-1.59582e-11
-2.83888e-12
-8.74189e-12
3.55029e-12
-4.64421e-12
7.17047e-12
-2.6085e-13
1.35109e-11
6.19459e-12
1.96022e-11
8.06565e-12
2.07258e-11
1.02662e-11
2.62905e-11
1.40894e-11
3.15072e-11
1.76315e-11
3.55858e-11
1.35208e-11
1.5553e-11
5.12882e-12
3.80416e-11
1.82186e-11
4.02784e-11
1.47399e-11
4.74175e-11
1.27708e-11
5.5337e-11
8.73323e-12
6.65612e-11
-9.47329e-12
6.18274e-11
-5.5581e-11
1.22811e-10
1.17692e-10
-1.14787e-09
7.93061e-10
1.08772e-09
-1.33193e-09
-8.09719e-10
2.39953e-10
7.0457e-11
-1.65487e-10
-1.62696e-10
-1.06445e-10
-6.90004e-11
-7.29267e-11
-6.52259e-11
-6.84604e-11
-5.52641e-11
-5.8069e-11
-4.48652e-11
-4.61316e-11
-3.28747e-11
-3.86004e-11
-2.72186e-11
-3.01483e-11
-1.65523e-11
-2.24384e-11
-1.117e-11
-1.636e-11
-3.35783e-12
-8.98391e-12
3.16536e-12
-4.80258e-12
6.82171e-12
-4.42635e-13
1.32149e-11
6.10746e-12
1.94091e-11
8.07077e-12
2.05037e-11
1.02154e-11
2.60131e-11
1.43227e-11
3.09332e-11
1.77077e-11
3.27595e-11
1.53508e-11
2.13358e-11
6.60163e-12
3.80719e-11
1.80446e-11
4.08399e-11
1.43926e-11
4.784e-11
1.24465e-11
5.58152e-11
8.63172e-12
6.70763e-11
-8.41023e-12
6.25145e-11
-5.29846e-11
1.25359e-10
1.35056e-10
-1.17331e-09
8.20641e-10
1.15665e-09
-1.37686e-09
-8.94279e-10
2.43349e-10
1.07803e-10
-1.46157e-10
-1.61804e-10
-1.08566e-10
-6.95101e-11
-7.27499e-11
-6.58751e-11
-6.94137e-11
-5.65738e-11
-5.91305e-11
-4.60884e-11
-4.70682e-11
-3.38809e-11
-3.92236e-11
-2.80665e-11
-3.08058e-11
-1.73659e-11
-2.28976e-11
-1.18212e-11
-1.67712e-11
-3.91286e-12
-9.23485e-12
2.75064e-12
-4.95877e-12
6.44933e-12
-6.15047e-13
1.28851e-11
6.03068e-12
1.9175e-11
8.09879e-12
2.02441e-11
1.01973e-11
2.56794e-11
1.45544e-11
3.03796e-11
1.77672e-11
3.08843e-11
1.6401e-11
2.58285e-11
8.25512e-12
3.80218e-11
1.79637e-11
4.11801e-11
1.43133e-11
4.79178e-11
1.25254e-11
5.5769e-11
9.19056e-12
6.67649e-11
-6.29265e-12
6.20703e-11
-4.87908e-11
1.26045e-10
1.51656e-10
-1.18657e-09
8.28121e-10
1.21487e-09
-1.39238e-09
-9.72408e-10
2.34775e-10
1.41744e-10
-1.24708e-10
-1.60074e-10
-1.11359e-10
-7.06103e-11
-7.27056e-11
-6.65197e-11
-7.03795e-11
-5.79396e-11
-6.02319e-11
-4.73564e-11
-4.8039e-11
-3.49375e-11
-3.98702e-11
-2.89407e-11
-3.14809e-11
-1.82244e-11
-2.33788e-11
-1.25022e-11
-1.71921e-11
-4.50333e-12
-9.49535e-12
2.3061e-12
-5.1115e-12
6.05367e-12
-7.76944e-13
1.25221e-11
5.96366e-12
1.89002e-11
8.15004e-12
1.99492e-11
1.02063e-11
2.53e-11
1.47753e-11
2.98637e-11
1.77879e-11
2.97059e-11
1.69806e-11
2.92132e-11
1.00233e-11
3.79129e-11
1.80206e-11
4.12847e-11
1.45177e-11
4.76406e-11
1.30265e-11
5.51955e-11
1.04175e-11
6.56424e-11
-3.13223e-12
6.05177e-11
-4.28725e-11
1.24367e-10
1.68063e-10
-1.18612e-09
8.12594e-10
1.26064e-09
-1.37565e-09
-1.04247e-09
2.13963e-10
1.71626e-10
-1.01438e-10
-1.57453e-10
-1.14831e-10
-7.23804e-11
-7.28391e-11
-6.71675e-11
-7.13593e-11
-5.93661e-11
-6.13761e-11
-4.86717e-11
-4.90472e-11
-3.60455e-11
-4.05384e-11
-2.98413e-11
-3.2174e-11
-1.91285e-11
-2.38803e-11
-1.32146e-11
-1.76229e-11
-5.13042e-12
-9.76516e-12
1.83076e-12
-5.25839e-12
5.63358e-12
-9.26849e-13
1.21253e-11
5.90627e-12
1.85845e-11
8.22628e-12
1.962e-11
1.02384e-11
2.48793e-11
1.49842e-11
2.93774e-11
1.77893e-11
2.90049e-11
1.73125e-11
3.16863e-11
1.18602e-11
3.77474e-11
1.82484e-11
4.11372e-11
1.50071e-11
4.70053e-11
1.39495e-11
5.41063e-11
1.22943e-11
6.37432e-11
1.04146e-12
5.78463e-11
-3.49374e-11
1.19488e-10
1.85001e-10
-1.17005e-09
7.70878e-10
2.09865e-10
1.71932e-10
-7.32056e-11
-2.61989e-10
-2.66634e-10
-2.18035e-10
-1.51188e-10
-1.1581e-10
-8.09928e-11
-7.38083e-11
-5.51906e-11
-5.6372e-11
-4.20593e-11
-4.61715e-11
-3.22209e-11
-3.64718e-11
-2.4754e-11
-3.15989e-11
-1.78671e-11
-2.28044e-11
-1.00222e-11
-1.75164e-11
-4.71333e-12
-1.18505e-11
9.64194e-13
-6.26211e-12
6.02597e-12
-2.55201e-12
1.00203e-11
2.04007e-12
1.505e-11
7.46233e-12
1.90578e-11
9.22061e-12
2.12928e-11
1.27424e-11
2.44581e-11
1.60613e-11
2.66936e-11
1.74382e-11
2.70139e-11
1.95488e-11
2.78151e-11
2.03251e-11
2.83929e-11
2.0951e-11
2.833e-11
2.47265e-11
2.93224e-11
2.79824e-11
2.97711e-11
3.26987e-11
2.32206e-11
2.37531e-11
-5.00014e-12
-1.02982e-12
-5.88971e-11
-1.32119e-10
-4.08234e-10
-7.4109e-11
2.22378e-10
1.7851e-10
-7.58395e-11
-2.64794e-10
-2.6801e-10
-2.18387e-10
-1.51372e-10
-1.15883e-10
-8.11693e-11
-7.3918e-11
-5.5371e-11
-5.64521e-11
-4.22137e-11
-4.62293e-11
-3.23433e-11
-3.64926e-11
-2.48643e-11
-3.16231e-11
-1.79657e-11
-2.27974e-11
-1.01123e-11
-1.75108e-11
-4.79664e-12
-1.18248e-11
8.88994e-13
-6.22985e-12
5.95148e-12
-2.51996e-12
9.94937e-12
2.08519e-12
1.49873e-11
7.51628e-12
1.89906e-11
9.26328e-12
2.12285e-11
1.28048e-11
2.44026e-11
1.61277e-11
2.66435e-11
1.7498e-11
2.69489e-11
1.95516e-11
2.77448e-11
2.04093e-11
2.83793e-11
2.10409e-11
2.83348e-11
2.48454e-11
2.93626e-11
2.81043e-11
2.98774e-11
3.28561e-11
2.34348e-11
2.39041e-11
-4.60116e-12
-6.04233e-13
-5.69716e-11
-1.30675e-10
-4.16928e-10
-8.0177e-11
2.37733e-10
1.85204e-10
-7.88911e-11
-2.68126e-10
-2.69892e-10
-2.1906e-10
-1.51602e-10
-1.16038e-10
-8.13132e-11
-7.41161e-11
-5.55445e-11
-5.66302e-11
-4.23482e-11
-4.63785e-11
-3.24476e-11
-3.65889e-11
-2.4925e-11
-3.1726e-11
-1.80353e-11
-2.28657e-11
-1.01523e-11
-1.75794e-11
-4.83408e-12
-1.1865e-11
8.66601e-13
-6.26471e-12
5.9376e-12
-2.55527e-12
9.93676e-12
2.06747e-12
1.49829e-11
7.50685e-12
1.89961e-11
9.24021e-12
2.12252e-11
1.28098e-11
2.44154e-11
1.61375e-11
2.66689e-11
1.75104e-11
2.69446e-11
1.9465e-11
2.7707e-11
2.04399e-11
2.84609e-11
2.11128e-11
2.84138e-11
2.49596e-11
2.94916e-11
2.82278e-11
3.00417e-11
3.30291e-11
2.37336e-11
2.41425e-11
-4.12411e-12
-2.27458e-13
-5.45069e-11
-1.26275e-10
-4.30251e-10
-8.72271e-11
2.55404e-10
1.90989e-10
-8.17715e-11
-2.7164e-10
-2.7259e-10
-2.20093e-10
-1.51891e-10
-1.16175e-10
-8.14241e-11
-7.43407e-11
-5.5747e-11
-5.68528e-11
-4.25057e-11
-4.65729e-11
-3.25775e-11
-3.67149e-11
-2.49778e-11
-3.18622e-11
-1.8124e-11
-2.29633e-11
-1.01852e-11
-1.76736e-11
-4.87369e-12
-1.19241e-11
8.52711e-13
-6.31713e-12
5.93922e-12
-2.60899e-12
9.93404e-12
2.03434e-12
1.49926e-11
7.48443e-12
1.90317e-11
9.2e-12
2.12358e-11
1.28021e-11
2.44568e-11
1.6135e-11
2.67354e-11
1.75169e-11
2.69747e-11
1.93191e-11
2.76555e-11
2.04371e-11
2.86186e-11
2.11885e-11
2.85546e-11
2.50716e-11
2.97174e-11
2.83344e-11
3.03144e-11
3.31698e-11
2.42282e-11
2.43177e-11
-3.38279e-12
-8.77253e-14
-5.0711e-11
-1.19667e-10
-4.47304e-10
-9.43467e-11
2.72813e-10
1.93519e-10
-8.35748e-11
-2.74028e-10
-2.75791e-10
-2.21461e-10
-1.52215e-10
-1.16243e-10
-8.14922e-11
-7.45825e-11
-5.60031e-11
-5.71281e-11
-4.27118e-11
-4.68155e-11
-3.27573e-11
-3.68685e-11
-2.50434e-11
-3.20262e-11
-1.82532e-11
-2.3083e-11
-1.0228e-11
-1.77836e-11
-4.93524e-12
-1.19934e-11
8.30292e-13
-6.37571e-12
5.94022e-12
-2.66893e-12
9.92268e-12
1.99623e-12
1.50004e-11
7.46205e-12
1.90829e-11
9.15591e-12
2.12426e-11
1.27916e-11
2.4513e-11
1.61306e-11
2.68335e-11
1.75282e-11
2.70365e-11
1.91237e-11
2.75607e-11
2.03971e-11
2.8849e-11
2.12691e-11
2.87525e-11
2.51659e-11
3.00462e-11
2.83934e-11
3.07114e-11
3.32238e-11
2.49637e-11
2.43301e-11
-2.28012e-12
-3.73471e-13
-4.53967e-11
-1.11501e-10
-4.66938e-10
-9.95781e-11
2.88322e-10
1.89351e-10
-8.40647e-11
-2.73808e-10
-2.78944e-10
-2.23116e-10
-1.52542e-10
-1.162e-10
-8.14912e-11
-7.48329e-11
-5.6318e-11
-5.74639e-11
-4.29762e-11
-4.71139e-11
-3.29972e-11
-3.70594e-11
-2.51297e-11
-3.22211e-11
-1.84298e-11
-2.32307e-11
-1.02859e-11
-1.79108e-11
-5.02455e-12
-1.20766e-11
7.95431e-13
-6.44227e-12
5.93693e-12
-2.73577e-12
9.89826e-12
1.95071e-12
1.50033e-11
7.43824e-12
1.91477e-11
9.10878e-12
2.12425e-11
1.27746e-11
2.4583e-11
1.61216e-11
2.69646e-11
1.75444e-11
2.71399e-11
1.88735e-11
2.74045e-11
2.03061e-11
2.91562e-11
2.13469e-11
2.9011e-11
2.52186e-11
3.04871e-11
2.8372e-11
3.12529e-11
3.31348e-11
2.59792e-11
2.40849e-11
-7.24336e-13
-1.27119e-12
-3.84577e-11
-1.02338e-10
-4.88568e-10
-1.00036e-10
3.01724e-10
1.74881e-10
-8.38061e-11
-2.69604e-10
-2.81415e-10
-2.24983e-10
-1.52847e-10
-1.16001e-10
-8.13912e-11
-7.50773e-11
-5.66885e-11
-5.78615e-11
-4.33031e-11
-4.74711e-11
-3.33024e-11
-3.72954e-11
-2.52435e-11
-3.24481e-11
-1.86577e-11
-2.34125e-11
-1.03641e-11
-1.80567e-11
-5.14544e-12
-1.21781e-11
7.45383e-13
-6.51925e-12
5.92622e-12
-2.81047e-12
9.85797e-12
1.89489e-12
1.49998e-11
7.41028e-12
1.92233e-11
9.05918e-12
2.12342e-11
1.27465e-11
2.46661e-11
1.61045e-11
2.71301e-11
1.75645e-11
2.7298e-11
1.85602e-11
2.7171e-11
2.01521e-11
2.95446e-11
2.14129e-11
2.93371e-11
2.52049e-11
3.10511e-11
2.8238e-11
3.19653e-11
3.28451e-11
2.73195e-11
2.34851e-11
1.38471e-12
-2.94299e-12
-2.98173e-11
-9.26305e-11
-5.12323e-10
-9.27474e-11
3.13931e-10
1.46877e-10
-8.40061e-11
-2.60218e-10
-2.82497e-10
-2.26974e-10
-1.53119e-10
-1.15612e-10
-8.1166e-11
-7.52995e-11
-5.71086e-11
-5.83179e-11
-4.36942e-11
-4.78865e-11
-3.36754e-11
-3.75805e-11
-2.53918e-11
-3.27061e-11
-1.8939e-11
-2.3632e-11
-1.0469e-11
-1.82215e-11
-5.30153e-12
-1.23006e-11
6.76688e-13
-6.60747e-12
5.90348e-12
-2.89302e-12
9.79874e-12
1.82739e-12
1.49876e-11
7.37708e-12
1.93053e-11
9.00842e-12
2.12162e-11
1.27045e-11
2.47607e-11
1.60775e-11
2.73299e-11
1.75885e-11
2.75256e-11
1.81721e-11
2.68458e-11
1.99268e-11
3.0017e-11
2.1457e-11
2.97393e-11
2.51008e-11
3.17497e-11
2.79594e-11
3.28762e-11
3.23019e-11
2.90293e-11
2.24463e-11
4.13624e-12
-5.49913e-12
-1.94982e-11
-8.26261e-11
-5.38785e-10
-7.52259e-11
3.26827e-10
1.02793e-10
-8.63862e-11
-2.44739e-10
-2.8144e-10
-2.28988e-10
-1.53367e-10
-1.15001e-10
-8.07951e-11
-7.54852e-11
-5.75722e-11
-5.88282e-11
-4.41493e-11
-4.83571e-11
-3.41165e-11
-3.79166e-11
-2.5581e-11
-3.29927e-11
-1.92738e-11
-2.38907e-11
-1.06065e-11
-1.84046e-11
-5.49534e-12
-1.24457e-11
5.85898e-13
-6.70699e-12
5.86437e-12
-2.98291e-12
9.71797e-12
1.74737e-12
1.49645e-11
7.33805e-12
1.93884e-11
8.95771e-12
2.11879e-11
1.26462e-11
2.48645e-11
1.60393e-11
2.75629e-11
1.76162e-11
2.78389e-11
1.76956e-11
2.64179e-11
1.96237e-11
3.05759e-11
2.14682e-11
3.02269e-11
2.48846e-11
3.25934e-11
2.75079e-11
3.401e-11
3.14545e-11
3.11428e-11
2.09105e-11
7.58272e-12
-8.97016e-12
-7.63127e-12
-7.23778e-11
-5.68849e-10
-4.57194e-11
3.42629e-10
4.10683e-11
-9.28473e-11
-2.22596e-10
-2.7751e-10
-2.30917e-10
-1.53624e-10
-1.14163e-10
-8.0264e-11
-7.56229e-11
-5.80736e-11
-5.93876e-11
-4.46678e-11
-4.88791e-11
-3.46241e-11
-3.8304e-11
-2.58168e-11
-3.33053e-11
-1.96606e-11
-2.41891e-11
-1.07821e-11
-1.86052e-11
-5.72786e-12
-1.26143e-11
4.70151e-13
-6.81761e-12
5.80496e-12
-3.07973e-12
9.61437e-12
1.65445e-12
1.49287e-11
7.29275e-12
1.94676e-11
8.90761e-12
2.11497e-11
1.25697e-11
2.49751e-11
1.59889e-11
2.78268e-11
1.76474e-11
2.82562e-11
1.71157e-11
2.58801e-11
1.92405e-11
3.12219e-11
2.1435e-11
3.08089e-11
2.45386e-11
3.3589e-11
2.68623e-11
3.5384e-11
3.02763e-11
3.36732e-11
1.88563e-11
1.17268e-11
-1.33077e-11
5.49707e-12
-6.17217e-11
-6.03285e-10
-3.48297e-12
3.63724e-10
-3.86931e-11
-1.05361e-10
-1.93647e-10
-2.70027e-10
-2.32622e-10
-1.5394e-10
-1.1311e-10
-7.95672e-11
-7.57054e-11
-5.86088e-11
-5.99921e-11
-4.52491e-11
-4.94496e-11
-3.51965e-11
-3.87424e-11
-2.61039e-11
-3.3642e-11
-2.00972e-11
-2.45264e-11
-1.09998e-11
-1.88227e-11
-5.99913e-12
-1.28068e-11
3.2697e-13
-6.93906e-12
5.72243e-12
-3.18306e-12
9.48748e-12
1.54829e-12
1.48786e-11
7.24082e-12
1.9539e-11
8.85815e-12
2.11024e-11
1.24736e-11
2.509e-11
1.59254e-11
2.81184e-11
1.76812e-11
2.8794e-11
1.64166e-11
2.52293e-11
1.87791e-11
3.19528e-11
2.1347e-11
3.14905e-11
2.4052e-11
3.4737e-11
2.60113e-11
3.70025e-11
2.87618e-11
3.66061e-11
1.63047e-11
1.65141e-11
-1.83746e-11
1.951e-11
-5.03567e-11
-6.42686e-10
5.12155e-11
3.92124e-10
-1.35806e-10
-1.25678e-10
-1.58177e-10
-2.58417e-10
-2.33932e-10
-1.54373e-10
-1.11873e-10
-7.87084e-11
-7.57287e-11
-5.91755e-11
-6.06397e-11
-4.58935e-11
-5.00665e-11
-3.58326e-11
-3.92312e-11
-2.64465e-11
-3.40013e-11
-2.05809e-11
-2.49016e-11
-1.12636e-11
-1.9057e-11
-6.30856e-12
-1.30235e-11
1.54272e-13
-7.07108e-12
5.61453e-12
-3.29283e-12
9.33763e-12
1.42885e-12
1.4813e-11
7.18214e-12
1.95993e-11
8.80883e-12
2.10476e-11
1.23572e-11
2.52064e-11
1.58482e-11
2.8433e-11
1.7714e-11
2.94709e-11
1.55983e-11
2.44659e-11
1.82441e-11
3.27612e-11
2.11964e-11
3.22723e-11
2.3422e-11
3.60301e-11
2.49559e-11
3.88531e-11
2.69286e-11
3.9898e-11
1.33224e-11
2.18379e-11
-2.39614e-11
3.39383e-11
-3.79595e-11
-6.87173e-10
1.17211e-10
4.29609e-10
-2.48582e-10
-1.55376e-10
-1.16944e-10
-2.42229e-10
-2.34608e-10
-1.54966e-10
-1.105e-10
-7.77009e-11
-7.5691e-11
-5.97714e-11
-6.1328e-11
-4.66011e-11
-5.07281e-11
-3.65309e-11
-3.97695e-11
-2.68481e-11
-3.43826e-11
-2.11089e-11
-2.53131e-11
-1.15761e-11
-1.93082e-11
-6.6551e-12
-1.3264e-11
-4.97624e-14
-7.21354e-12
5.48007e-12
-3.40907e-12
9.16536e-12
1.29624e-12
1.47309e-11
7.11657e-12
1.9646e-11
8.75895e-12
2.09866e-11
1.22205e-11
2.53211e-11
1.57573e-11
2.8764e-11
1.77401e-11
3.02967e-11
1.46807e-11
2.36044e-11
1.76441e-11
3.36347e-11
2.09801e-11
3.31483e-11
2.26554e-11
3.74467e-11
2.37156e-11
4.09042e-11
2.48205e-11
4.34752e-11
1.0017e-11
2.75441e-11
-2.98053e-11
4.83498e-11
-2.43221e-11
-7.3661e-10
1.92724e-10
4.77029e-10
-3.7435e-10
-1.95429e-10
-7.11143e-11
-2.2123e-10
-2.34383e-10
-1.55751e-10
-1.09046e-10
-7.65663e-11
-7.55914e-11
-6.0393e-11
-6.20547e-11
-4.73717e-11
-5.14325e-11
-3.72892e-11
-4.03558e-11
-2.73115e-11
-3.47859e-11
-2.16781e-11
-2.57591e-11
-1.19398e-11
-1.95771e-11
-7.03716e-12
-1.35278e-11
-2.86491e-13
-7.36655e-12
5.318e-12
-3.532e-12
8.97181e-12
1.15115e-12
1.46314e-11
7.04397e-12
1.96767e-11
8.70775e-12
2.09207e-11
1.2065e-11
2.54304e-11
1.56537e-11
2.91006e-11
1.77523e-11
3.12561e-11
1.37186e-11
2.26949e-11
1.69915e-11
3.45534e-11
2.07016e-11
3.41059e-11
2.17695e-11
3.89595e-11
2.23232e-11
4.31067e-11
2.25064e-11
4.72374e-11
6.53014e-12
3.34451e-11
-3.56212e-11
6.22962e-11
-9.33515e-12
-7.90214e-10
2.75336e-10
5.34389e-10
-5.09522e-10
-2.46175e-10
-2.22312e-11
-1.95424e-10
-2.32963e-10
-1.56743e-10
-1.07618e-10
-7.53351e-11
-7.543e-11
-6.10364e-11
-6.28175e-11