/*--------------------------------*- C++ -*----------------------------------*\
| =========                 |                                                 |
| \\      /  F ield         | OpenFOAM: The Open Source CFD Toolbox           |
|  \\    /   O peration     | Version:  2312                                  |
|   \\  /    A nd           | Website:  www.openfoam.com                      |
|    \\/     M anipulation  |                                                 |
\*---------------------------------------------------------------------------*/
FoamFile
{
    version     2.0;
    format      ascii;
    arch        "LSB;label=32;scalar=64";
    class       volScalarField;
    location    "600";
    object      pPrime2Mean;
}
// * * * * * * * * * * * * * * * * * * * * * * * * * * * * * * * * * * * * * //

dimensions      [0 4 -4 0 0 0 0];

internalField   nonuniform List<scalar> 
144000
(
4.24591e-18
5.14862e-18
4.79408e-18
3.90076e-18
2.79077e-18
1.99206e-18
1.48914e-18
1.1033e-18
8.2004e-19
6.74308e-19
6.29351e-19
5.68936e-19
4.85072e-19
3.88411e-19
3.24559e-19
2.72869e-19
2.50343e-19
2.144e-19
1.99318e-19
1.76897e-19
1.59524e-19
1.31677e-19
1.33283e-19
1.00322e-19
1.06048e-19
8.3239e-20
8.4242e-20
6.81778e-20
6.75138e-20
5.29316e-20
5.58011e-20
4.06852e-20
4.65434e-20
3.35978e-20
3.56988e-20
3.52226e-20
1.93476e-20
3.93211e-20
1.37895e-20
2.54321e-20
3.24241e-20
3.72216e-21
4.98702e-20
1.21693e-20
3.63722e-20
5.49237e-20
2.16035e-20
7.52202e-20
5.86891e-20
6.2784e-20
1.13398e-19
9.95106e-20
1.45507e-19
2.0988e-19
2.61912e-19
3.89093e-19
6.25554e-19
1.11757e-18
2.68216e-18
2.82465e-18
4.45428e-18
5.26816e-18
4.92116e-18
3.99542e-18
2.83457e-18
2.01753e-18
1.50587e-18
1.11401e-18
8.25987e-19
6.77865e-19
6.32323e-19
5.71562e-19
4.86978e-19
3.89661e-19
3.25409e-19
2.73536e-19
2.50968e-19
2.14912e-19
1.99672e-19
1.77362e-19
1.59899e-19
1.31827e-19
1.33595e-19
1.00576e-19
1.06165e-19
8.35082e-20
8.43632e-20
6.83811e-20
6.76588e-20
5.30578e-20
5.59867e-20
4.07745e-20
4.6723e-20
3.37715e-20
3.57467e-20
3.56742e-20
1.92162e-20
3.98516e-20
1.40297e-20
2.54276e-20
3.34136e-20
3.44623e-21
5.08617e-20
1.28527e-20
3.65476e-20
5.68752e-20
2.20082e-20
7.70327e-20
6.11148e-20
6.44376e-20
1.17376e-19
1.03714e-19
1.50784e-19
2.18689e-19
2.73142e-19
4.05712e-19
6.53291e-19
1.1594e-18
2.80233e-18
2.89624e-18
4.60399e-18
5.3617e-18
4.96719e-18
4.02246e-18
2.84322e-18
2.02493e-18
1.51396e-18
1.1206e-18
8.29997e-19
6.80391e-19
6.34996e-19
5.74103e-19
4.88892e-19
3.90814e-19
3.2624e-19
2.74161e-19
2.51751e-19
2.15441e-19
2.00091e-19
1.77914e-19
1.60392e-19
1.31915e-19
1.34114e-19
1.00776e-19
1.06452e-19
8.37811e-20
8.46149e-20
6.86121e-20
6.79393e-20
5.31916e-20
5.63462e-20
4.08642e-20
4.70765e-20
3.40178e-20
3.58887e-20
3.63886e-20
1.90501e-20
4.07648e-20
1.43867e-20
2.55788e-20
3.4952e-20
3.13248e-21
5.25425e-20
1.39014e-20
3.71133e-20
5.98572e-20
2.28811e-20
8.00073e-20
6.49197e-20
6.72687e-20
1.23538e-19
1.10195e-19
1.58724e-19
2.3119e-19
2.88364e-19
4.25912e-19
6.83596e-19
1.20371e-18
2.91915e-18
2.96782e-18
4.57305e-18
5.29686e-18
4.87052e-18
3.92189e-18
2.79054e-18
1.99638e-18
1.50057e-18
1.11443e-18
8.26363e-19
6.78141e-19
6.3433e-19
5.74212e-19
4.89022e-19
3.90765e-19
3.26197e-19
2.7415e-19
2.52086e-19
2.15593e-19
2.00155e-19
1.78247e-19
1.60727e-19
1.3182e-19
1.34527e-19
1.00897e-19
1.06667e-19
8.4035e-20
8.48497e-20
6.88443e-20
6.82149e-20
5.3331e-20
5.67378e-20
4.09523e-20
4.74863e-20
3.42981e-20
3.60448e-20
3.72376e-20
1.88512e-20
4.18624e-20
1.48253e-20
2.57757e-20
3.67833e-20
2.8127e-21
5.45048e-20
1.5217e-20
3.77762e-20
6.33497e-20
2.39915e-20
8.33966e-20
6.93882e-20
7.04946e-20
1.30364e-19
1.17445e-19
1.66957e-19
2.44008e-19
3.02801e-19
4.42615e-19
7.04768e-19
1.21389e-18
2.98483e-18
2.94739e-18
4.37454e-18
5.14082e-18
4.65273e-18
3.69849e-18
2.68089e-18
1.93105e-18
1.46317e-18
1.09269e-18
8.12629e-19
6.68809e-19
6.28042e-19
5.69854e-19
4.85936e-19
3.8855e-19
3.2459e-19
2.72959e-19
2.51448e-19
2.14968e-19
1.99525e-19
1.78004e-19
1.60622e-19
1.31392e-19
1.34587e-19
1.00818e-19
1.0669e-19
8.41481e-20
8.49737e-20
6.89955e-20
6.84036e-20
5.34181e-20
5.70815e-20
4.1004e-20
4.78683e-20
3.45603e-20
3.61577e-20
3.80946e-20
1.86275e-20
4.29443e-20
1.52946e-20
2.59442e-20
3.8626e-20
2.52808e-21
5.63677e-20
1.66314e-20
3.83492e-20
6.67723e-20
2.51541e-20
8.64876e-20
7.37685e-20
7.3471e-20
1.36529e-19
1.24139e-19
1.7372e-19
2.5438e-19
3.13607e-19
4.52208e-19
7.15547e-19
1.18994e-18
3.02011e-18
2.87185e-18
4.13004e-18
5.06814e-18
4.38667e-18
3.40795e-18
2.53732e-18
1.84233e-18
1.40666e-18
1.05738e-18
7.89664e-19
6.52518e-19
6.15763e-19
5.60516e-19
4.79116e-19
3.83729e-19
3.21107e-19
2.70326e-19
2.49588e-19
2.13359e-19
1.98018e-19
1.76969e-19
1.59885e-19
1.30521e-19
1.34148e-19
1.00418e-19
1.06442e-19
8.40301e-20
8.49229e-20
6.90075e-20
6.84449e-20
5.34111e-20
5.73121e-20
4.09826e-20
4.81544e-20
3.47606e-20
3.61823e-20
3.88615e-20
1.83799e-20
4.39011e-20
1.57384e-20
2.60576e-20
4.02791e-20
2.29799e-21
5.79233e-20
1.79724e-20
3.87677e-20
6.96826e-20
2.62318e-20
8.89565e-20
7.74896e-20
7.59471e-20
1.41307e-19
1.29604e-19
1.78568e-19
2.61709e-19
3.204e-19
4.56035e-19
7.18339e-19
1.14408e-18
3.07347e-18
2.82455e-18
3.89488e-18
5.18156e-18
4.11503e-18
3.09247e-18
2.37117e-18
1.73686e-18
1.33521e-18
1.01116e-18
7.59046e-19
6.30359e-19
5.98171e-19
5.46539e-19
4.68716e-19
3.76383e-19
3.1579e-19
2.66289e-19
2.46501e-19
2.10744e-19
1.95639e-19
1.75097e-19
1.5847e-19
1.29168e-19
1.33148e-19
9.96254e-20
1.05868e-19
8.36442e-20
8.46343e-20
6.8854e-20
6.83001e-20
5.32858e-20
5.73883e-20
4.08731e-20
4.83008e-20
3.48763e-20
3.60967e-20
3.94826e-20
1.81098e-20
4.46593e-20
1.61168e-20
2.61223e-20
4.16484e-20
2.11973e-21
5.91269e-20
1.91243e-20
3.90562e-20
7.19605e-20
2.7124e-20
9.0804e-20
8.03378e-20
7.79149e-20
1.44702e-19
1.33655e-19
1.81682e-19
2.66147e-19
3.235e-19
4.55673e-19
7.14493e-19
1.08477e-18
3.16171e-18
2.8647e-18
3.68789e-18
5.50488e-18
3.85574e-18
2.78085e-18
2.18703e-18
1.61836e-18
1.25191e-18
9.56129e-19
7.22375e-19
6.03539e-19
5.76251e-19
5.28756e-19
4.55308e-19
3.66834e-19
3.08849e-19
2.60989e-19
2.42308e-19
2.07242e-19
1.92498e-19
1.72477e-19
1.56442e-19
1.27362e-19
1.31622e-19
9.84485e-20
1.0495e-19
8.29984e-20
8.40891e-20
6.85372e-20
6.79611e-20
5.30423e-20
5.72984e-20
4.06799e-20
4.8291e-20
3.49098e-20
3.58956e-20
3.99465e-20
1.78235e-20
4.52234e-20
1.64286e-20
2.61396e-20
4.27664e-20
1.97245e-21
6.00251e-20
2.00812e-20
3.92453e-20
7.36958e-20
2.77909e-20
9.22357e-20
8.23807e-20
7.94403e-20
1.47038e-19
1.36446e-19
1.83367e-19
2.68263e-19
3.23271e-19
4.52338e-19
7.0425e-19
1.01832e-18
3.27981e-18
3.00054e-18
3.51412e-18
5.97709e-18
3.61777e-18
2.49479e-18
1.99067e-18
1.49099e-18
1.16025e-18
8.94858e-19
6.81577e-19
5.73433e-19
5.5125e-19
5.08145e-19
4.39624e-19
3.55575e-19
3.00598e-19
2.54648e-19
2.37193e-19
2.03011e-19
1.88748e-19
1.69262e-19
1.53926e-19
1.25182e-19
1.29659e-19
9.69487e-20
1.03692e-19
8.21271e-20
8.32904e-20
6.80732e-20
6.74388e-20
5.27001e-20
5.70546e-20
4.0421e-20
4.81326e-20
3.48817e-20
3.55837e-20
4.02795e-20
1.75282e-20
4.56103e-20
1.67115e-20
2.60925e-20
4.37274e-20
1.82274e-21
6.07068e-20
2.0913e-20
3.92909e-20
7.50992e-20
2.81789e-20
9.33259e-20
8.37912e-20
8.04343e-20
1.48516e-19
1.37965e-19
1.8355e-19
2.6827e-19
3.19681e-19
4.45852e-19
6.86763e-19
9.4922e-19
3.40476e-18
3.18608e-18
3.36822e-18
6.48229e-18
3.40791e-18
2.24259e-18
1.79089e-18
1.35923e-18
1.0643e-18
8.30107e-19
6.38523e-19
5.4148e-19
5.24313e-19
4.8568e-19
4.22446e-19
3.43156e-19
2.91428e-19
2.4755e-19
2.31376e-19
1.98212e-19
1.84539e-19
1.65609e-19
1.51085e-19
1.22729e-19
1.27379e-19
9.5227e-20
1.02128e-19
8.10911e-20
8.226e-20
6.74834e-20
6.6752e-20
5.22846e-20
5.66764e-20
4.01173e-20
4.78386e-20
3.48198e-20
3.51619e-20
4.05064e-20
1.72309e-20
4.58149e-20
1.70221e-20
2.59228e-20
4.46294e-20
1.63906e-21
6.11507e-20
2.17175e-20
3.90488e-20
7.62778e-20
2.82179e-20
9.39293e-20
8.46433e-20
8.05881e-20
1.48963e-19
1.38058e-19
1.81756e-19
2.65781e-19
3.11943e-19
4.34916e-19
6.58842e-19
8.77874e-19
3.50269e-18
3.33369e-18
3.23183e-18
6.86088e-18
3.22822e-18
2.01879e-18
1.59719e-18
1.22794e-18
9.68118e-19
7.64539e-19
5.95064e-19
5.09015e-19
4.96543e-19
4.62301e-19
4.04481e-19
3.30105e-19
2.8174e-19
2.39999e-19
2.2509e-19
1.9304e-19
1.79988e-19
1.6165e-19
1.48063e-19
1.20106e-19
1.24887e-19
9.33996e-20
1.00309e-19
7.99391e-20
8.10346e-20
6.6781e-20
6.59265e-20
5.18183e-20
5.61791e-20
3.97881e-20
4.74184e-20
3.47432e-20
3.46301e-20
4.06426e-20
1.69375e-20
4.58057e-20
1.74086e-20
2.55586e-20
4.55087e-20
1.40282e-21
6.12559e-20
2.25486e-20
3.83603e-20
7.71609e-20
2.78349e-20
9.37559e-20
8.48544e-20
7.95846e-20
1.48055e-19
1.36401e-19
1.77362e-19
2.60237e-19
2.99537e-19
4.18307e-19
6.19784e-19
8.03753e-19
3.53115e-18
3.36505e-18
3.08435e-18
7.00078e-18
3.07412e-18
1.81436e-18
1.41704e-18
1.10122e-18
8.75107e-19
7.00333e-19
5.52628e-19
4.77128e-19
4.68855e-19
4.38764e-19
3.8631e-19
3.16865e-19
2.7186e-19
2.32256e-19
2.18552e-19
1.87655e-19
1.75219e-19
1.57492e-19
1.44955e-19
1.17405e-19
1.22262e-19
9.15679e-20
9.83008e-20
7.87218e-20
7.96577e-20
6.59792e-20
6.49831e-20
5.13156e-20
5.55697e-20
3.94483e-20
4.68852e-20
3.4661e-20
3.39854e-20
4.06824e-20
1.66563e-20
4.55356e-20
1.788e-20
2.49453e-20
4.63411e-20
1.11639e-21
6.09205e-20
2.3396e-20
3.70986e-20
7.76296e-20
2.70037e-20
9.25994e-20
8.4348e-20
7.72834e-20
1.45584e-19
1.32901e-19
1.70288e-19
2.51533e-19
2.82661e-19
3.95828e-19
5.71273e-19
7.27517e-19
3.46419e-18
3.2377e-18
2.90523e-18
6.84734e-18
2.93276e-18
1.61962e-18
1.25473e-18
9.82096e-19
7.87939e-19
6.39082e-19
5.122e-19
4.46616e-19
4.41965e-19
4.15678e-19
3.68413e-19
3.03755e-19
2.62044e-19
2.24539e-19
2.11954e-19
1.82214e-19
1.70356e-19
1.53232e-19
1.41824e-19
1.14701e-19
1.19564e-19
8.98052e-20
9.61821e-20
7.74815e-20
7.81856e-20
6.5095e-20
6.39453e-20
5.07828e-20
5.48527e-20
3.91099e-20
4.62457e-20
3.45718e-20
3.32418e-20
4.0609e-20
1.63964e-20
4.49763e-20
1.84192e-20
2.40974e-20
4.71326e-20
8.01003e-22
6.01205e-20
2.42244e-20
3.52933e-20
7.76e-20
2.57711e-20
9.04197e-20
8.31278e-20
7.37309e-20
1.41614e-19
1.27769e-19
1.60848e-19
2.40125e-19
2.62333e-19
3.68625e-19
5.16762e-19
6.50585e-19
3.29354e-18
2.95461e-18
2.68394e-18
6.41377e-18
2.79004e-18
1.42934e-18
1.11165e-18
8.72475e-19
7.08129e-19
5.81854e-19
4.74367e-19
4.17999e-19
4.16367e-19
3.93499e-19
3.51119e-19
2.91048e-19
2.52489e-19
2.17022e-19
2.05447e-19
1.76856e-19
1.65512e-19
1.48954e-19
1.38706e-19
1.12054e-19
1.16835e-19
8.81524e-20
9.40151e-20
7.62523e-20
7.66673e-20
6.41519e-20
6.28378e-20
5.02279e-20
5.40368e-20
3.87819e-20
4.55131e-20
3.44715e-20
3.24247e-20
4.04156e-20
1.61671e-20
4.41436e-20
1.8997e-20
2.30555e-20
4.79473e-20
4.91166e-22
5.89694e-20
2.50148e-20
3.30452e-20
7.7068e-20
2.42511e-20
8.7344e-20
8.13373e-20
6.92025e-20
1.36445e-19
1.21447e-19
1.49729e-19
2.2682e-19
2.40033e-19
3.38557e-19
4.60836e-19
5.75215e-19
3.03345e-18
2.55955e-18
2.41938e-18
5.76508e-18
2.63291e-18
1.24393e-18
9.86785e-19
7.73375e-19
6.36303e-19
5.29267e-19
4.39406e-19
3.91534e-19
3.9238e-19
3.72504e-19
3.34641e-19
2.78912e-19
2.43299e-19
2.0981e-19
1.99139e-19
1.71674e-19
1.60776e-19
1.44739e-19
1.35631e-19
1.09504e-19
1.14106e-19
8.66241e-20
9.18502e-20
7.50585e-20
7.51416e-20
6.31784e-20
6.16886e-20
4.96623e-20
5.31384e-20
3.84718e-20
4.47083e-20
3.43582e-20
3.15694e-20
4.01096e-20
1.59813e-20
4.30787e-20
1.95982e-20
2.18553e-20
4.8991e-20
2.31023e-22
5.77623e-20
2.57797e-20
3.04892e-20
7.61064e-20
2.25914e-20
8.35552e-20
7.91764e-20
6.40428e-20
1.3046e-19
1.14462e-19
1.37697e-19
2.12537e-19
2.17289e-19
3.07591e-19
4.07253e-19
5.03473e-19
2.7096e-18
2.11241e-18
2.12179e-18
4.99329e-18
2.45347e-18
1.06801e-18
8.77759e-19
6.85112e-19
5.72477e-19
4.81563e-19
4.07343e-19
3.67281e-19
3.70126e-19
3.52843e-19
3.19106e-19
2.67421e-19
2.34535e-19
2.02966e-19
1.93099e-19
1.66724e-19
1.56209e-19
1.40651e-19
1.32618e-19
1.07083e-19
1.11407e-19
8.52189e-20
8.97232e-20
7.3915e-20
7.36413e-20
6.22048e-20
6.05234e-20
4.90988e-20
5.21811e-20
3.81828e-20
4.38584e-20
3.42317e-20
3.07124e-20
3.97078e-20
1.58513e-20
4.18402e-20
2.0208e-20
2.05359e-20
5.05989e-20
6.32172e-23
5.69957e-20
2.65441e-20
2.77649e-20
7.4821e-20
2.09324e-20
7.9297e-20
7.68475e-20
5.85852e-20
1.24038e-19
1.0729e-19
1.25443e-19
1.98064e-19
1.95359e-19
2.77371e-19
3.58496e-19
4.36714e-19
2.3557e-18
1.67505e-18
1.80819e-18
4.18713e-18
2.2481e-18
9.07118e-19
7.81707e-19
6.07439e-19
5.16204e-19
4.38687e-19
3.78048e-19
3.45151e-19
3.49614e-19
3.34571e-19
3.04554e-19
2.56608e-19
2.26226e-19
1.96522e-19
1.87361e-19
1.62034e-19
1.51848e-19
1.36739e-19
1.29684e-19
1.04808e-19
1.08759e-19
8.39276e-20
8.7656e-20
7.28298e-20
7.21896e-20
6.12543e-20
5.93651e-20
4.855e-20
5.11908e-20
3.79173e-20
4.29889e-20
3.40975e-20
2.98775e-20
3.92406e-20
1.57649e-20
4.05175e-20
2.07498e-20
1.9247e-20
5.14136e-20
8.35609e-28
5.57829e-20
2.71764e-20
2.50141e-20
7.33038e-20
1.93848e-20
7.47756e-20
7.45112e-20
5.31025e-20
1.1749e-19
1.00299e-19
1.13481e-19
1.84028e-19
1.75027e-19
2.48943e-19
3.1577e-19
3.75776e-19
2.00201e-18
1.28983e-18
1.50181e-18
3.41964e-18
2.02031e-18
7.6604e-19
6.96077e-19
5.39753e-19
4.66805e-19
4.00418e-19
3.51327e-19
3.24987e-19
3.30781e-19
3.17674e-19
2.90983e-19
2.46469e-19
2.18372e-19
1.90479e-19
1.81938e-19
1.57617e-19
1.47711e-19
1.33035e-19
1.26841e-19
1.02689e-19
1.06189e-19
8.27393e-20
8.56684e-20
7.18057e-20
7.08e-20
6.03438e-20
5.82319e-20
4.80264e-20
5.01917e-20
3.76762e-20
4.21213e-20
3.39626e-20
2.90789e-20
3.87405e-20
1.5705e-20
3.91894e-20
2.11549e-20
1.81097e-20
4.95471e-20
5.75961e-23
5.24907e-20
2.75696e-20
2.23465e-20
7.16407e-20
1.80253e-20
7.0151e-20
7.22766e-20
4.7795e-20
1.11026e-19
9.37315e-20
1.02155e-19
1.70791e-19
1.56765e-19
2.22865e-19
2.79156e-19
3.21295e-19
1.67421e-18
9.81837e-19
1.22518e-18
2.74086e-18
1.77856e-18
6.47575e-19
6.18981e-19
4.81204e-19
4.23554e-19
3.66458e-19
3.26969e-19
3.06597e-19
3.13517e-19
3.02092e-19
2.78358e-19
2.36988e-19
2.10957e-19
1.84824e-19
1.76826e-19
1.53466e-19
1.43799e-19
1.29555e-19
1.24094e-19
1.00724e-19
1.03709e-19
8.16424e-20
8.37661e-20
7.08418e-20
6.94794e-20
5.94843e-20
5.71377e-20
4.75345e-20
4.92052e-20
3.74584e-20
4.12756e-20
3.38307e-20
2.83333e-20
3.82237e-20
1.56862e-20
3.7873e-20
2.14902e-20
1.70629e-20
4.71265e-20
2.31899e-22
4.88886e-20
2.791e-20
1.98117e-20
6.98971e-20
1.68974e-20
6.55436e-20
7.02067e-20
4.27955e-20
1.0479e-19
8.77231e-20
9.16591e-20
1.58531e-19
1.40711e-19
1.99294e-19
2.48181e-19
2.73636e-19
1.38909e-18
7.58942e-19
9.97303e-19
2.17556e-18
1.53448e-18
5.51546e-19
5.49282e-19
4.30829e-19
3.85722e-19
3.36448e-19
3.04764e-19
2.8978e-19
2.97688e-19
2.87745e-19
2.66624e-19
2.28122e-19
2.03954e-19
1.79538e-19
1.72016e-19
1.49567e-19
1.40105e-19
1.26301e-19
1.21449e-19
9.89086e-20
1.01331e-19
8.06269e-20
8.19524e-20
6.99365e-20
6.82311e-20
5.86807e-20
5.60925e-20
4.70778e-20
4.8247e-20
3.72625e-20
4.04659e-20
3.37045e-20
2.76503e-20
3.77037e-20
1.57201e-20
3.65791e-20
2.18245e-20
1.60559e-20
4.54375e-20
5.68815e-22
4.60516e-20
2.83196e-20
1.74462e-20
6.81131e-20
1.60254e-20
6.10367e-20
6.83314e-20
3.81833e-20
9.88374e-20
8.23312e-20
8.2069e-20
1.47292e-19
1.26789e-19
1.7808e-19
2.2205e-19
2.32907e-19
1.15505e-18
6.14826e-19
8.29563e-19
1.72618e-18
1.29921e-18
4.75407e-19
4.86397e-19
3.8757e-19
3.52657e-19
3.09999e-19
2.84519e-19
2.7434e-19
2.83151e-19
2.74539e-19
2.55719e-19
2.19821e-19
1.97331e-19
1.74594e-19
1.67495e-19
1.45905e-19
1.36616e-19
1.2327e-19
1.18905e-19
9.72321e-20
9.90609e-20
7.96833e-20
8.02275e-20
6.9087e-20
6.70553e-20
5.79356e-20
5.51024e-20
4.66574e-20
4.73272e-20
3.70877e-20
3.97011e-20
3.3588e-20
2.70301e-20
3.71953e-20
1.57963e-20
3.53376e-20
2.21537e-20
1.51254e-20
4.41922e-20
1.02286e-21
4.36148e-20
2.87797e-20
1.52914e-20
6.63164e-20
1.54061e-20
5.6687e-20
6.66511e-20
3.39972e-20
9.32079e-20
7.75616e-20
7.33842e-20
1.37038e-19
1.1478e-19
1.59014e-19
1.99897e-19
1.98995e-19
9.71958e-19
5.34329e-19
7.27359e-19
1.38141e-18
1.08283e-18
4.14926e-19
4.30076e-19
3.50436e-19
3.23778e-19
2.86734e-19
2.66066e-19
2.60104e-19
2.69766e-19
2.62379e-19
2.45577e-19
2.12038e-19
1.9106e-19
1.69967e-19
1.63243e-19
1.42462e-19
1.33319e-19
1.2045e-19
1.16462e-19
9.56835e-20
9.69021e-20
7.88035e-20
7.85898e-20
6.82894e-20
6.59505e-20
5.7248e-20
5.4171e-20
4.62729e-20
4.64517e-20
3.69326e-20
3.89869e-20
3.34825e-20
2.64731e-20
3.67055e-20
1.59101e-20
3.41616e-20
2.24692e-20
1.43048e-20
4.31676e-20
1.546e-21
4.1394e-20
2.92665e-20
1.33626e-20
6.45274e-20
1.50254e-20
5.25308e-20
6.51518e-20
3.02509e-20
8.79053e-20
7.33775e-20
6.55605e-20
1.27689e-19
1.04445e-19
1.41798e-19
1.80999e-19
1.71503e-19
8.34763e-19
4.98449e-19
6.90041e-19
1.12076e-18
8.93703e-19
3.65298e-19
3.80196e-19
3.18494e-19
2.98579e-19
2.66291e-19
2.49262e-19
2.46925e-19
2.57406e-19
2.51173e-19
2.3614e-19
2.04727e-19
1.8511e-19
1.6563e-19
1.59244e-19
1.39219e-19
1.30198e-19
1.17828e-19
1.14117e-19
9.42509e-20
9.48547e-20
7.79797e-20
7.70366e-20
6.75395e-20
6.49141e-20
5.66157e-20
5.33003e-20
4.59224e-20
4.56245e-20
3.6795e-20
3.83268e-20
3.33875e-20
2.59799e-20
3.62369e-20
1.60611e-20
3.30516e-20
2.27748e-20
1.35992e-20
4.22519e-20
2.12265e-21
3.93302e-20
2.97815e-20
1.16563e-20
6.27577e-20
1.48635e-20
4.85909e-20
6.38105e-20
2.694e-20
8.29151e-20
6.97304e-20
5.85303e-20
1.1916e-19
9.55479e-20
1.26184e-19
1.64701e-19
1.49839e-19
7.35189e-19
4.87957e-19
7.12375e-19
9.2158e-19
7.37587e-19
3.22152e-19
3.36622e-19
2.90972e-19
2.76644e-19
2.48349e-19
2.33982e-19
2.34682e-19
2.45954e-19
2.40832e-19
2.27346e-19
1.97843e-19
1.79452e-19
1.61557e-19
1.55477e-19
1.36159e-19
1.27241e-19
1.15389e-19
1.11868e-19
9.29221e-20
9.29174e-20
7.72051e-20
7.55642e-20
6.68329e-20
6.39431e-20
5.60361e-20
5.24913e-20
4.5604e-20
4.48465e-20
3.66732e-20
3.77218e-20
3.33023e-20
2.55495e-20
3.57913e-20
1.62468e-20
3.20087e-20
2.30751e-20
1.30019e-20
4.13842e-20
2.74777e-21
3.74001e-20
3.03202e-20
1.01671e-20
6.10148e-20
1.48959e-20
4.48845e-20
6.26003e-20
2.40503e-20
7.82188e-20
6.6564e-20
5.2227e-20
1.11357e-19
8.78817e-20
1.11949e-19
1.50514e-19
1.33464e-19
6.63824e-19
4.85057e-19
7.85226e-19
7.61305e-19
6.17035e-19
2.82137e-19
2.98996e-19
2.67231e-19
2.57621e-19
2.32626e-19
2.20116e-19
2.23276e-19
2.35308e-19
2.31279e-19
2.19144e-19
1.91342e-19
1.7406e-19
1.57723e-19
1.51924e-19
1.33267e-19
1.24432e-19
1.13118e-19
1.0971e-19
9.16868e-20
9.10865e-20
7.64748e-20
7.41675e-20
6.61661e-20
6.30338e-20
5.55066e-20
5.17438e-20
4.53158e-20
4.41171e-20
3.65658e-20
3.7172e-20
3.32267e-20
2.51802e-20
3.53707e-20
1.64632e-20
3.10361e-20
2.33705e-20
1.25065e-20
4.05533e-20
3.41593e-21
3.55945e-20
3.08726e-20
8.88772e-21
5.93112e-20
1.50966e-20
4.14253e-20
6.15025e-20
2.15617e-20
7.38092e-20
6.38261e-20
4.6596e-20
1.04215e-19
8.12912e-20
9.89238e-20
1.38057e-19
1.21896e-19
6.10765e-19
4.75157e-19
4.25363e-18
5.16678e-18
4.81249e-18
3.91151e-18
2.79744e-18
1.99562e-18
1.492e-18
1.10582e-18
8.22032e-19
6.75607e-19
6.30078e-19
5.69309e-19
4.85211e-19
3.88418e-19
3.24474e-19
2.72774e-19
2.50245e-19
2.14369e-19
1.99317e-19
1.76906e-19
1.59547e-19
1.31701e-19
1.33327e-19
1.00334e-19
1.06086e-19
8.32427e-20
8.42763e-20
6.81864e-20
6.75558e-20
5.29238e-20
5.5833e-20
4.06681e-20
4.65557e-20
3.35809e-20
3.5704e-20
3.5213e-20
1.9357e-20
3.93175e-20
1.38057e-20
2.54302e-20
3.24559e-20
3.71467e-21
4.98793e-20
1.21494e-20
3.64049e-20
5.49869e-20
2.15906e-20
7.53097e-20
5.86948e-20
6.28783e-20
1.13435e-19
9.96105e-20
1.45425e-19
2.0993e-19
2.61657e-19
3.88801e-19
6.24941e-19
1.1159e-18
2.69456e-18
2.83281e-18
4.46173e-18
5.28737e-18
4.93969e-18
4.00683e-18
2.8412e-18
2.02109e-18
1.50874e-18
1.11652e-18
8.2798e-19
6.79159e-19
6.33042e-19
5.71929e-19
4.87112e-19
3.89662e-19
3.25319e-19
2.73435e-19
2.50868e-19
2.14877e-19
1.99671e-19
1.7737e-19
1.59922e-19
1.31851e-19
1.3364e-19
1.00588e-19
1.06203e-19
8.35114e-20
8.43977e-20
6.83904e-20
6.77011e-20
5.30505e-20
5.60185e-20
4.0758e-20
4.67347e-20
3.37556e-20
3.57511e-20
3.56657e-20
1.92247e-20
3.98486e-20
1.40454e-20
2.54259e-20
3.34472e-20
3.43867e-21
5.08726e-20
1.28319e-20
3.65812e-20
5.69415e-20
2.1996e-20
7.7124e-20
6.1123e-20
6.45318e-20
1.17416e-19
1.03813e-19
1.50693e-19
2.18728e-19
2.72872e-19
4.05401e-19
6.52544e-19
1.15769e-18
2.8149e-18
2.9044e-18
4.61373e-18
5.3816e-18
4.98549e-18
4.03397e-18
2.84962e-18
2.0282e-18
1.51667e-18
1.12308e-18
8.31963e-19
6.81676e-19
6.35708e-19
5.74456e-19
4.89017e-19
3.90807e-19
3.26141e-19
2.74052e-19
2.51645e-19
2.15403e-19
2.00088e-19
1.7792e-19
1.60415e-19
1.31939e-19
1.34159e-19
1.00786e-19
1.06489e-19
8.37836e-20
8.46498e-20
6.86226e-20
6.79832e-20
5.31851e-20
5.63788e-20
4.08485e-20
4.70878e-20
3.40034e-20
3.58929e-20
3.63816e-20
1.90581e-20
4.07638e-20
1.44024e-20
2.55768e-20
3.49885e-20
3.12467e-21
5.25583e-20
1.38778e-20
3.71502e-20
5.99292e-20
2.2871e-20
8.01015e-20
6.49323e-20
6.73669e-20
1.23586e-19
1.10303e-19
1.58645e-19
2.31262e-19
2.88111e-19
4.25626e-19
6.82826e-19
1.20269e-18
2.93145e-18
2.97695e-18
4.58339e-18
5.31772e-18
4.88726e-18
3.93264e-18
2.79643e-18
1.99908e-18
1.50312e-18
1.11679e-18
8.28297e-19
6.79395e-19
6.35021e-19
5.74547e-19
4.8913e-19
3.90746e-19
3.26086e-19
2.74029e-19
2.51971e-19
2.1555e-19
2.0015e-19
1.7825e-19
1.60747e-19
1.31843e-19
1.34571e-19
1.00906e-19
1.06702e-19
8.40367e-20
8.48838e-20
6.88565e-20
6.82596e-20
5.33261e-20
5.67707e-20
4.0938e-20
4.74965e-20
3.42856e-20
3.60473e-20
3.72328e-20
1.88578e-20
4.18614e-20
1.48411e-20
2.57735e-20
3.68284e-20
2.80515e-21
5.45259e-20
1.51858e-20
3.78191e-20
6.34289e-20
2.39844e-20
8.34993e-20
6.94094e-20
7.06002e-20
1.30433e-19
1.17575e-19
1.669e-19
2.44121e-19
3.02626e-19
4.42463e-19
7.04203e-19
1.21397e-18
2.9983e-18
2.95733e-18
4.38216e-18
5.1598e-18
4.6668e-18
3.7077e-18
2.68587e-18
1.93362e-18
1.46537e-18
1.0949e-18
8.14475e-19
6.70026e-19
6.28697e-19
5.70172e-19
4.86019e-19
3.8851e-19
3.24468e-19
2.72822e-19
2.51321e-19
2.14917e-19
1.99515e-19
1.78003e-19
1.60638e-19
1.31415e-19
1.34631e-19
1.00827e-19
1.06724e-19
8.41492e-20
8.50051e-20
6.90102e-20
6.84487e-20
5.34161e-20
5.71134e-20
4.09922e-20
4.78761e-20
3.45506e-20
3.61585e-20
3.80921e-20
1.86313e-20
4.29458e-20
1.53102e-20
2.59408e-20
3.86777e-20
2.5217e-21
5.63958e-20
1.65861e-20
3.84002e-20
6.68611e-20
2.51521e-20
8.6598e-20
7.37994e-20
7.35916e-20
1.36623e-19
1.24299e-19
1.73714e-19
2.54565e-19
3.13536e-19
4.52253e-19
7.15314e-19
1.19012e-18
3.03491e-18
2.88151e-18
4.13864e-18
5.08287e-18
4.39822e-18
3.41552e-18
2.54125e-18
1.84447e-18
1.40861e-18
1.05943e-18
7.9149e-19
6.53726e-19
6.16389e-19
5.60798e-19
4.79178e-19
3.83673e-19
3.20971e-19
2.70175e-19
2.49446e-19
2.133e-19
1.98002e-19
1.76964e-19
1.59895e-19
1.30543e-19
1.3419e-19
1.00428e-19
1.06472e-19
8.40315e-20
8.49496e-20
6.90253e-20
6.84896e-20
5.34131e-20
5.73427e-20
4.09741e-20
4.81578e-20
3.47548e-20
3.61789e-20
3.88633e-20
1.83807e-20
4.39046e-20
1.57529e-20
2.60529e-20
4.03409e-20
2.29404e-21
5.79599e-20
1.79049e-20
3.88277e-20
6.97805e-20
2.62362e-20
8.90734e-20
7.75314e-20
7.60835e-20
1.41422e-19
1.29795e-19
1.78602e-19
2.61964e-19
3.20408e-19
4.5627e-19
7.1834e-19
1.1447e-18
3.08879e-18
2.83253e-18
3.90313e-18
5.19104e-18
4.12418e-18
3.0986e-18
2.37444e-18
1.7386e-18
1.33696e-18
1.01315e-18
7.60845e-19
6.31539e-19
5.98762e-19
5.46785e-19
4.68758e-19
3.76313e-19
3.15642e-19
2.66125e-19
2.46344e-19
2.10675e-19
1.95616e-19
1.75087e-19
1.58473e-19
1.29189e-19
1.33188e-19
9.96366e-20
1.05894e-19
8.36463e-20
8.46547e-20
6.88754e-20
6.83422e-20
5.3293e-20
5.74153e-20
4.08691e-20
4.82987e-20
3.48756e-20
3.60873e-20
3.94902e-20
1.81055e-20
4.46644e-20
1.61284e-20
2.61134e-20
4.17202e-20
2.11959e-21
5.91726e-20
1.9025e-20
3.9126e-20
7.20673e-20
2.71351e-20
9.09248e-20
8.039e-20
7.80647e-20
1.44835e-19
1.33874e-19
1.81746e-19
2.66471e-19
3.23553e-19
4.56071e-19
7.14634e-19
1.08564e-18
3.17678e-18
2.87053e-18
3.69552e-18
5.50945e-18
3.86261e-18
2.7858e-18
2.18976e-18
1.61973e-18
1.25346e-18
9.5807e-19
7.24157e-19
6.04693e-19
5.7683e-19
5.28977e-19
4.55332e-19
3.66751e-19
3.0869e-19
2.60816e-19
2.42138e-19
2.07164e-19
1.92468e-19
1.72463e-19
1.56436e-19
1.27383e-19
1.31658e-19
9.84626e-20
1.04969e-19
8.30021e-20
8.41018e-20
6.85626e-20
6.7999e-20
5.30561e-20
5.73197e-20
4.06821e-20
4.8281e-20
3.49157e-20
3.58785e-20
3.99598e-20
1.78109e-20
4.52327e-20
1.6434e-20
2.6125e-20
4.28431e-20
1.97727e-21
6.00973e-20
1.99375e-20
3.9323e-20
7.38059e-20
2.7808e-20
9.23595e-20
8.24412e-20
7.96015e-20
1.47184e-19
1.36691e-19
1.83453e-19
2.68635e-19
3.23345e-19
4.52858e-19
7.04398e-19
1.01925e-18
3.29397e-18
3.00424e-18
3.5211e-18
5.97796e-18
3.62257e-18
2.49872e-18
1.99292e-18
1.49202e-18
1.16163e-18
8.96737e-19
6.8332e-19
5.74563e-19
5.51808e-19
5.08344e-19
4.39634e-19
3.55482e-19
3.00429e-19
2.54468e-19
2.3701e-19
2.02925e-19
1.88712e-19
1.69245e-19
1.53911e-19
1.25204e-19
1.2969e-19
9.69667e-20
1.03706e-19
8.2133e-20
8.32943e-20
6.81033e-20
6.7471e-20
5.27213e-20
5.70693e-20
4.04304e-20
4.81129e-20
3.4896e-20
3.55561e-20
4.02988e-20
1.7504e-20
4.56264e-20
1.67023e-20
2.60702e-20
4.38002e-20
1.83249e-21
6.08031e-20
2.07094e-20
3.93729e-20
7.5219e-20
2.82014e-20
9.345e-20
8.38587e-20
8.06022e-20
1.48668e-19
1.38227e-19
1.83647e-19
2.68676e-19
3.19748e-19
4.46446e-19
6.86939e-19
9.50151e-19
3.41762e-18
3.18822e-18
3.37459e-18
6.48114e-18
3.41085e-18
2.24578e-18
1.7927e-18
1.35997e-18
1.0655e-18
8.31908e-19
6.40226e-19
5.42589e-19
5.24855e-19
4.85866e-19
4.22445e-19
3.43057e-19
2.91256e-19
2.47365e-19
2.31183e-19
1.9812e-19
1.84495e-19
1.6559e-19
1.51062e-19
1.22752e-19
1.27404e-19
9.52496e-20
1.02135e-19
8.10998e-20
8.22543e-20
6.75185e-20
6.67783e-20
5.23138e-20
5.66829e-20
4.01349e-20
4.78073e-20
3.48436e-20
3.51222e-20
4.05354e-20
1.71912e-20
4.58413e-20
1.69919e-20
2.59008e-20
4.46752e-20
1.65273e-21
6.12967e-20
2.14359e-20
3.91309e-20
7.64041e-20
2.82448e-20
9.40503e-20
8.4715e-20
8.07584e-20
1.49117e-19
1.38326e-19
1.81848e-19
2.66199e-19
3.11997e-19
4.35545e-19
6.58983e-19
8.78765e-19
3.51416e-18
3.33523e-18
3.23771e-18
6.85902e-18
3.22976e-18
2.02143e-18
1.59864e-18
1.22844e-18
9.69144e-19
7.66256e-19
5.9673e-19
5.10106e-19
4.97073e-19
4.62476e-19
4.0447e-19
3.30001e-19
2.81563e-19
2.39811e-19
2.24889e-19
1.92942e-19
1.79937e-19
1.6163e-19
1.48031e-19
1.2013e-19
1.24906e-19
9.34264e-20
1.00309e-19
7.99511e-20
8.10195e-20
6.6821e-20
6.59449e-20
5.18564e-20
5.61763e-20
3.9815e-20
4.73754e-20
3.47775e-20
3.45746e-20
4.06847e-20
1.68786e-20
4.58436e-20
1.73403e-20
2.553e-20
4.5489e-20
1.41823e-21
6.1446e-20
2.21715e-20
3.84366e-20
7.72926e-20
2.78647e-20
9.38708e-20
8.49273e-20
7.97513e-20
1.48207e-19
1.36666e-19
1.77451e-19
2.60645e-19
2.9957e-19
4.18899e-19
6.19897e-19
8.04541e-19
3.54109e-18
3.36677e-18
3.08997e-18
6.99926e-18
3.0746e-18
1.81657e-18
1.41817e-18
1.10149e-18
8.75965e-19
7.01961e-19
5.54253e-19
4.78198e-19
4.69374e-19
4.38931e-19
3.86297e-19
3.16757e-19
2.71681e-19
2.32066e-19
2.18345e-19
1.87553e-19
1.75161e-19
1.57472e-19
1.44916e-19
1.17431e-19
1.22275e-19
9.15998e-20
9.82949e-20
7.87372e-20
7.96342e-20
6.60237e-20
6.4993e-20
5.13619e-20
5.55574e-20
3.94846e-20
4.68294e-20
3.47061e-20
3.39146e-20
4.07378e-20
1.65737e-20
4.55919e-20
1.77599e-20
2.4912e-20
4.61993e-20
1.13217e-21
6.11332e-20
2.29088e-20
3.71688e-20
7.77625e-20
2.70348e-20
9.27054e-20
8.44202e-20
7.74415e-20
1.45729e-19
1.33152e-19
1.70368e-19
2.5191e-19
2.82678e-19
3.96337e-19
5.7136e-19
7.28182e-19
3.47263e-18
3.24008e-18
2.9107e-18
6.84668e-18
2.93255e-18
1.62148e-18
1.25561e-18
9.82215e-19
7.88635e-19
6.40613e-19
5.13778e-19
4.47661e-19
4.42473e-19
4.15842e-19
3.68394e-19
3.03649e-19
2.61867e-19
2.24349e-19
2.11743e-19
1.82111e-19
1.70291e-19
1.53212e-19
1.41777e-19
1.14729e-19
1.19571e-19
8.98419e-20
9.61702e-20
7.75e-20
7.81533e-20
6.51435e-20
6.39468e-20
5.08368e-20
5.48314e-20
3.91553e-20
4.61769e-20
3.46279e-20
3.31544e-20
4.06779e-20
1.62882e-20
4.50554e-20
1.82372e-20
2.40461e-20
4.67373e-20
8.19533e-22
6.02939e-20
2.36191e-20
3.535e-20
7.77293e-20
2.58032e-20
9.05156e-20
8.31971e-20
7.38754e-20
1.41748e-19
1.27999e-19
1.60918e-19
2.40452e-19
2.62338e-19
3.69014e-19
5.16833e-19
6.51118e-19
3.30059e-18
2.95764e-18
2.68932e-18
6.41406e-18
2.78951e-18
1.43086e-18
1.11231e-18
8.72477e-19
7.08672e-19
5.83281e-19
4.75893e-19
4.19016e-19
4.16856e-19
3.93657e-19
3.51095e-19
2.90946e-19
2.52309e-19
2.1683e-19
2.05233e-19
1.76753e-19
1.65441e-19
1.48935e-19
1.38654e-19
1.12083e-19
1.16837e-19
8.81933e-20
9.39978e-20
7.62735e-20
7.66271e-20
6.42037e-20
6.28313e-20
5.02887e-20
5.40072e-20
3.8836e-20
4.54335e-20
3.45376e-20
3.23233e-20
4.04971e-20
1.60359e-20
4.42443e-20
1.87477e-20
2.29778e-20
4.70575e-20
5.18273e-22
5.89646e-20
2.42837e-20
3.30821e-20
7.71924e-20
2.42836e-20
8.74272e-20
8.14022e-20
6.93309e-20
1.36568e-19
1.2165e-19
1.49791e-19
2.27086e-19
2.4003e-19
3.38802e-19
4.60892e-19
5.7561e-19
3.03921e-18
2.56306e-18
2.42463e-18
5.76608e-18
2.63235e-18
1.24511e-18
9.87258e-19
7.73292e-19
6.3671e-19
5.30585e-19
4.40874e-19
3.92522e-19
3.92858e-19
3.72655e-19
3.34614e-19
2.78809e-19
2.43119e-19
2.0962e-19
1.98924e-19
1.7157e-19
1.607e-19
1.44721e-19
1.35573e-19
1.09535e-19
1.14104e-19
8.66686e-20
9.18283e-20
7.50819e-20
7.50949e-20
6.32326e-20
6.16753e-20
4.97286e-20
5.31019e-20
3.85331e-20
4.46199e-20
3.44322e-20
3.1457e-20
4.02004e-20
1.58285e-20
4.32039e-20
1.9267e-20
2.17749e-20
4.71466e-20
2.68068e-22
5.72213e-20
2.49044e-20
3.0512e-20
7.62227e-20
2.26224e-20
8.36266e-20
7.9236e-20
6.41541e-20
1.30571e-19
1.14634e-19
1.37754e-19
2.12736e-19
2.17288e-19
3.07685e-19
4.07298e-19
5.03731e-19
2.71415e-18
2.11622e-18
2.12684e-18
4.99471e-18
2.45306e-18
1.06883e-18
8.78077e-19
6.84978e-19
5.7277e-19
4.8277e-19
4.08747e-19
3.68237e-19
3.7059e-19
3.52987e-19
3.19073e-19
2.67318e-19
2.34358e-19
2.02778e-19
1.92883e-19
1.6662e-19
1.56129e-19
1.40634e-19
1.32556e-19
1.07114e-19
1.11401e-19
8.52659e-20
8.96978e-20
7.39401e-20
7.35892e-20
6.22603e-20
6.05043e-20
4.91692e-20
5.21391e-20
3.82499e-20
4.37636e-20
3.43123e-20
3.05903e-20
3.98089e-20
1.56741e-20
4.1998e-20
1.97775e-20
2.05115e-20
4.70117e-20
1.02062e-22
5.51885e-20
2.54946e-20
2.77886e-20
7.49213e-20