/*--------------------------------*- C++ -*----------------------------------*\
| =========                 |                                                 |
| \\      /  F ield         | OpenFOAM: The Open Source CFD Toolbox           |
|  \\    /   O peration     | Version:  2312                                  |
|   \\  /    A nd           | Website:  www.openfoam.com                      |
|    \\/     M anipulation  |                                                 |
\*---------------------------------------------------------------------------*/
FoamFile
{
    version     2.0;
    format      ascii;
    arch        "LSB;label=32;scalar=64";
    class       volScalarField;
    location    "1000";
    object      p;
}
// * * * * * * * * * * * * * * * * * * * * * * * * * * * * * * * * * * * * * //

dimensions      [0 2 -2 0 0 0 0];

internalField   nonuniform List<scalar> 
144000
(
9.70162e-11
8.93828e-11
-1.8878e-11
-1.1673e-10
-1.36586e-10
-1.28255e-10
-1.0443e-10
-9.24258e-11
-7.78382e-11
-7.53832e-11
-6.62808e-11
-6.66019e-11
-5.87168e-11
-5.98711e-11
-5.15957e-11
-5.23322e-11
-4.50622e-11
-4.68766e-11
-3.791e-11
-3.84417e-11
-3.0239e-11
-3.24122e-11
-2.42878e-11
-2.63803e-11
-1.82782e-11
-2.01979e-11
-1.2319e-11
-1.50282e-11
-7.03983e-12
-9.4665e-12
-1.16198e-12
-3.10278e-12
4.37897e-12
1.04851e-12
8.64973e-12
5.82206e-12
1.30016e-11
1.04076e-11
1.6821e-11
1.36e-11
1.87892e-11
1.62899e-11
2.17931e-11
2.02088e-11
2.64448e-11
2.44528e-11
2.97967e-11
2.93214e-11
3.25773e-11
3.2786e-11
3.41271e-11
3.543e-11
2.86412e-11
2.56613e-11
6.0833e-12
8.41445e-13
-4.01016e-11
-8.5784e-11
-1.94109e-10
-2.08695e-11
1.02885e-10
9.26141e-11
-1.98236e-11
-1.1807e-10
-1.37369e-10
-1.28545e-10
-1.04593e-10
-9.25045e-11
-7.79524e-11
-7.545e-11
-6.63812e-11
-6.66465e-11
-5.8802e-11
-5.99035e-11
-5.16604e-11
-5.23423e-11
-4.51228e-11
-4.68903e-11
-3.79626e-11
-3.84377e-11
-3.02894e-11
-3.2411e-11
-2.43323e-11
-2.63666e-11
-1.83184e-11
-2.01808e-11
-1.23608e-11
-1.50134e-11
-7.07774e-12
-9.4431e-12
-1.19439e-12
-3.07414e-12
4.34371e-12
1.06992e-12
8.61971e-12
5.85483e-12
1.2978e-11
1.04406e-11
1.68027e-11
1.36207e-11
1.87392e-11
1.62091e-11
2.17123e-11
2.02522e-11
2.64482e-11
2.45105e-11
2.98152e-11
2.94005e-11
3.26183e-11
3.28718e-11
3.42124e-11
3.55446e-11
2.87937e-11
2.57848e-11
6.36207e-12
1.14215e-12
-3.92481e-11
-8.56269e-11
-1.98205e-10
-2.33529e-11
1.10019e-10
9.623e-11
-2.08469e-11
-1.19729e-10
-1.38447e-10
-1.29083e-10
-1.04827e-10
-9.26574e-11
-7.80709e-11
-7.55726e-11
-6.64844e-11
-6.67496e-11
-5.88818e-11
-5.99852e-11
-5.17193e-11
-5.23919e-11
-4.51601e-11
-4.69465e-11
-3.80041e-11
-3.84748e-11
-3.0318e-11
-3.24504e-11
-2.43549e-11
-2.63858e-11
-1.8333e-11
-2.01983e-11
-1.23739e-11
-1.50339e-11
-7.08616e-12
-9.44955e-12
-1.19778e-12
-3.07699e-12
4.34418e-12
1.05853e-12
8.62161e-12
5.8626e-12
1.29901e-11
1.04484e-11
1.6823e-11
1.36253e-11
1.87174e-11
1.60538e-11
2.16155e-11
2.02558e-11
2.65043e-11
2.45679e-11
2.98783e-11
2.94901e-11
3.27137e-11
3.29731e-11
3.43347e-11
3.56836e-11
2.90007e-11
2.59828e-11
6.71025e-12
1.53324e-12
-3.80179e-11
-8.4331e-11
-2.04643e-10
-2.62807e-11
1.18438e-10
1.00019e-10
-2.16641e-11
-1.21637e-10
-1.4005e-10
-1.29909e-10
-1.05158e-10
-9.28407e-11
-7.82009e-11
-7.5724e-11
-6.6609e-11
-6.68781e-11
-5.89784e-11
-6.00947e-11
-5.17939e-11
-5.24589e-11
-4.51948e-11
-4.70229e-11
-3.80581e-11
-3.85295e-11
-3.03456e-11
-3.2506e-11
-2.43792e-11
-2.64142e-11
-1.83433e-11
-2.02256e-11
-1.23798e-11
-1.50651e-11
-7.08872e-12
-9.46243e-12
-1.19319e-12
-3.08688e-12
4.36046e-12
1.03802e-12
8.63346e-12
5.86661e-12
1.3021e-11
1.04511e-11
1.68703e-11
1.36356e-11
1.87158e-11
1.58436e-11
2.14623e-11
2.02185e-11
2.66021e-11
2.46371e-11
2.99793e-11
2.95931e-11
3.28676e-11
3.30836e-11
3.45204e-11
3.58311e-11
2.93213e-11
2.61937e-11
7.22885e-12
1.94923e-12
-3.60871e-11
-8.21969e-11
-2.13064e-10
-2.94914e-11
1.26977e-10
1.0329e-10
-2.18039e-11
-1.2333e-10
-1.42076e-10
-1.3102e-10
-1.05578e-10
-9.3032e-11
-7.83389e-11
-7.58994e-11
-6.67652e-11
-6.70376e-11
-5.91029e-11
-6.0232e-11
-5.18957e-11
-5.25417e-11
-4.52361e-11
-4.71161e-11
-3.81343e-11
-3.85976e-11
-3.03792e-11
-3.25722e-11
-2.44148e-11
-2.64474e-11
-1.83574e-11
-2.02569e-11
-1.23854e-11
-1.51008e-11
-7.09445e-12
-9.47717e-12
-1.18812e-12
-3.09786e-12
4.38656e-12
1.01407e-12
8.64769e-12
5.86984e-12
1.30661e-11
1.04507e-11
1.69447e-11
1.3655e-11
1.87418e-11
1.55985e-11
2.12209e-11
2.01254e-11
2.67384e-11
2.47187e-11
3.0114e-11
2.97018e-11
3.30814e-11
3.31891e-11
3.4776e-11
3.59625e-11
2.97736e-11
2.63742e-11
7.95369e-12
2.31283e-12
-3.33747e-11
-7.93878e-11
-2.22933e-10
-3.24929e-11
1.34717e-10
1.04865e-10
-2.10243e-11
-1.24259e-10
-1.44354e-10
-1.32394e-10
-1.06064e-10
-9.32087e-11
-7.84719e-11
-7.60948e-11
-6.69545e-11
-6.72305e-11
-5.92592e-11
-6.04009e-11
-5.20292e-11
-5.26443e-11
-4.52873e-11
-4.72276e-11
-3.82359e-11
-3.86814e-11
-3.04205e-11
-3.26497e-11
-2.44643e-11
-2.64876e-11
-1.83767e-11
-2.02932e-11
-1.23916e-11
-1.51414e-11
-7.10511e-12
-9.49546e-12
-1.18343e-12
-3.11115e-12
4.42254e-12
9.86163e-13
8.66377e-12
5.86858e-12
1.31275e-11
1.04427e-11
1.70523e-11
1.36821e-11
1.88116e-11
1.53199e-11
2.08633e-11
1.99565e-11
2.69141e-11
2.48084e-11
3.02819e-11
2.98039e-11
3.33574e-11
3.32736e-11
3.51077e-11
3.60523e-11
3.03706e-11
2.64838e-11
8.9137e-12
2.54086e-12
-2.98308e-11
-7.60286e-11
-2.3388e-10
-3.43721e-11
1.41266e-10
1.03371e-10
-1.93812e-11
-1.2389e-10
-1.4667e-10
-1.33997e-10
-1.06592e-10
-9.33403e-11
-7.85842e-11
-7.63028e-11
-6.71748e-11
-6.74568e-11
-5.94485e-11
-6.06028e-11
-5.21972e-11
-5.27715e-11
-4.5351e-11
-4.73581e-11
-3.83645e-11
-3.87841e-11
-3.04711e-11
-3.27389e-11
-2.45294e-11
-2.65369e-11
-1.8402e-11
-2.03358e-11
-1.23992e-11
-1.51873e-11
-7.12171e-12
-9.51918e-12
-1.17923e-12
-3.12865e-12
4.46835e-12
9.53754e-13
8.68202e-12
5.8587e-12
1.32073e-11
1.0422e-11
1.71995e-11
1.37138e-11
1.89498e-11
1.50061e-11
2.03528e-11
1.96908e-11
2.71308e-11
2.49013e-11
3.04834e-11
2.98868e-11
3.36986e-11
3.33218e-11
3.5524e-11
3.60741e-11
3.11281e-11
2.64792e-11
1.0144e-11
2.55244e-12
-2.54156e-11
-7.22409e-11
-2.45793e-10
-3.40342e-11
1.46694e-10
9.74508e-11
-1.71948e-11
-1.21732e-10
-1.48781e-10
-1.35783e-10
-1.0714e-10
-9.34039e-11
-7.86598e-11
-7.6515e-11
-6.74226e-11
-6.77145e-11
-5.96714e-11
-6.08378e-11
-5.24011e-11
-5.29257e-11
-4.54308e-11
-4.75068e-11
-3.85211e-11
-3.89076e-11
-3.05335e-11
-3.28396e-11
-2.46117e-11
-2.65971e-11
-1.84345e-11
-2.03853e-11
-1.24099e-11
-1.52382e-11
-7.14544e-12
-9.54946e-12
-1.17598e-12
-3.15132e-12
4.5226e-12
9.16878e-13
8.70261e-12
5.83688e-12
1.3307e-11
1.03843e-11
1.73923e-11
1.37462e-11
1.91909e-11
1.46341e-11
1.96391e-11
1.93102e-11
2.73909e-11
2.49928e-11
3.072e-11
2.99376e-11
3.41081e-11
3.33183e-11
3.60355e-11
3.60017e-11
3.20631e-11
2.63191e-11
1.16798e-11
2.27851e-12
-2.01198e-11
-6.81062e-11
-2.58763e-10
-3.04253e-11
1.51473e-10
8.58947e-11
-1.49987e-11
-1.17374e-10
-1.50425e-10
-1.37706e-10
-1.07688e-10
-9.33768e-11
-7.86837e-11
-7.67223e-11
-6.76937e-11
-6.80005e-11
-5.99276e-11
-6.11046e-11
-5.26413e-11
-5.31082e-11
-4.55298e-11
-4.76728e-11
-3.87059e-11
-3.90532e-11
-3.06104e-11
-3.29513e-11
-2.47125e-11
-2.66692e-11
-1.84757e-11
-2.04419e-11
-1.24255e-11
-1.52938e-11
-7.1774e-12
-9.58707e-12
-1.17428e-12
-3.1798e-12
4.58343e-12
8.75786e-13
8.72567e-12
5.80047e-12
1.34274e-11
1.03255e-11
1.76373e-11
1.37735e-11
1.95858e-11
1.41682e-11
1.86544e-11
1.87985e-11
2.76986e-11
2.50783e-11
3.09942e-11
2.99446e-11
3.45894e-11
3.32486e-11
3.66527e-11
3.58112e-11
3.31904e-11
2.59689e-11
1.35476e-11
1.67267e-12
-1.39738e-11
-6.36492e-11
-2.73042e-10
-2.26592e-11
1.56319e-10
6.77452e-11
-1.34524e-11
-1.10491e-10
-1.51334e-10
-1.39718e-10
-1.08229e-10
-9.32414e-11
-7.86424e-11
-7.69164e-11
-6.79842e-11
-6.83115e-11
-6.0216e-11
-6.14011e-11
-5.29168e-11
-5.33196e-11
-4.5651e-11
-4.78545e-11
-3.89183e-11
-3.92211e-11
-3.07045e-11
-3.30735e-11
-2.48324e-11
-2.67543e-11
-1.85267e-11
-2.05055e-11
-1.24479e-11
-1.53539e-11
-7.21818e-12
-9.6325e-12
-1.17471e-12
-3.21438e-12
4.64855e-12
8.30728e-13
8.7515e-12
5.74752e-12
1.35684e-11
1.0242e-11
1.79406e-11
1.37913e-11
2.02053e-11
1.35538e-11
1.73098e-11
1.81452e-11
2.80591e-11
2.51528e-11
3.13091e-11
2.98974e-11
3.51449e-11
3.31002e-11
3.73843e-11
3.54846e-11
3.45193e-11
2.54054e-11
1.57586e-11
7.13499e-13
-7.0605e-12
-5.88195e-11
-2.88919e-10
-1.01317e-11
1.62167e-10
4.23659e-11
-1.3334e-11
-1.00883e-10
-1.51236e-10
-1.41765e-10
-1.08763e-10
-9.29871e-11
-7.85259e-11
-7.70906e-11
-6.82907e-11
-6.86445e-11
-6.05355e-11
-6.17255e-11
-5.32266e-11
-5.356e-11
-4.57969e-11
-4.80508e-11
-3.91572e-11
-3.94116e-11
-3.08179e-11
-3.32055e-11
-2.49714e-11
-2.68526e-11
-1.85887e-11
-2.0576e-11
-1.24787e-11
-1.5418e-11
-7.26811e-12
-9.68611e-12
-1.17796e-12
-3.25509e-12
4.71585e-12
7.82067e-13
8.7802e-12
5.67692e-12
1.37289e-11
1.01313e-11
1.83075e-11
1.37967e-11
2.11435e-11
1.27126e-11
1.54953e-11
1.73453e-11
2.84767e-11
2.5211e-11
3.16674e-11
2.97879e-11
3.57756e-11
3.2864e-11
3.82348e-11
3.50086e-11
3.60509e-11
2.46199e-11
1.8305e-11
-5.88608e-13
5.03645e-13
-5.35233e-11
-3.06711e-10
7.46052e-12
1.69993e-10
9.46637e-12
-1.54608e-11
-8.84861e-11
-1.49865e-10
-1.43777e-10
-1.09294e-10
-9.26102e-11
-7.83266e-11
-7.72392e-11
-6.86105e-11
-6.89973e-11
-6.08855e-11
-6.20761e-11
-5.357e-11
-5.38289e-11
-4.59697e-11
-4.82607e-11
-3.94214e-11
-3.96242e-11
-3.09529e-11
-3.33471e-11
-2.51295e-11
-2.69647e-11
-1.86627e-11
-2.06531e-11
-1.25192e-11
-1.54859e-11
-7.32724e-12
-9.74799e-12
-1.18479e-12
-3.30158e-12
4.78311e-12
7.30284e-13
8.81146e-12
5.58878e-12
1.39063e-11
9.99251e-12
1.87407e-11
1.37843e-11
2.25616e-11
1.14502e-11
1.30624e-11
1.63998e-11
2.89515e-11
2.52457e-11
3.20701e-11
2.96109e-11
3.64796e-11
3.25358e-11
3.92036e-11
3.4382e-11
3.77756e-11
2.36204e-11
2.116e-11
-2.19438e-12
8.56404e-12
-4.7652e-11
-3.26648e-10
3.01305e-11
1.80808e-10
-3.08985e-11
-2.06749e-11
-7.33921e-11
-1.46973e-10
-1.45666e-10
-1.09828e-10
-9.2115e-11
-7.80403e-11
-7.73571e-11
-6.89413e-11
-6.93679e-11
-6.12652e-11
-6.24515e-11
-5.3946e-11
-5.41259e-11
-4.61715e-11
-4.84834e-11
-3.97095e-11
-3.98584e-11
-3.11111e-11
-3.34981e-11
-2.53063e-11
-2.70906e-11
-1.87499e-11
-2.07363e-11
-1.25706e-11
-1.55573e-11
-7.39568e-12
-9.81798e-12
-1.19611e-12
-3.35331e-12
4.84821e-12
6.76205e-13
8.84436e-12
5.48468e-12
1.40961e-11
9.82701e-12
1.9239e-11
1.37471e-11
2.46544e-11
9.66325e-12
9.85059e-12
1.53412e-11
2.94892e-11
2.52531e-11
3.25169e-11
2.93652e-11
3.72509e-11
3.21166e-11
4.02832e-11
3.36125e-11
3.96724e-11
2.24321e-11
2.42771e-11
-4.03726e-12
1.69582e-11
-4.11253e-11
-3.48892e-10
5.76503e-11
1.95435e-10
-7.82809e-11
-2.97057e-11
-5.58481e-11
-1.42354e-10
-1.47328e-10
-1.10374e-10
-9.15152e-11
-7.76662e-11
-7.74395e-11
-6.92805e-11
-6.97543e-11
-6.16739e-11
-6.28501e-11
-5.43533e-11
-5.44502e-11
-4.64039e-11
-4.87185e-11
-4.002e-11
-4.01135e-11
-3.12942e-11
-3.36585e-11
-2.55012e-11
-2.723e-11
-1.88511e-11
-2.08255e-11
-1.26338e-11
-1.56321e-11
-7.47328e-12
-9.89557e-12
-1.21293e-12
-3.4095e-12
4.90863e-12
6.21014e-13
8.87722e-12
5.36828e-12
1.42911e-11
9.64151e-12
1.97837e-11
1.3722e-11
2.75562e-11
7.04168e-12
5.6912e-12
1.42499e-11
3.01085e-11
2.52397e-11
3.30096e-11
2.90551e-11
3.808e-11
3.1612e-11
4.14592e-11
3.27187e-11
4.17081e-11
2.10961e-11
2.75928e-11
-6.03423e-12
2.5502e-11
-3.38691e-11
-3.73419e-10
8.94916e-11
2.14546e-10
-1.31793e-10
-4.31599e-11
-3.62795e-11
-1.35863e-10
-1.48638e-10
-1.1094e-10
-9.08339e-11
-7.7208e-11
-7.74827e-11
-6.96258e-11
-7.0155e-11
-6.21108e-11
-6.32705e-11
-5.47908e-11
-5.48007e-11
-4.66682e-11
-4.89658e-11
-4.03515e-11
-4.03884e-11
-3.15036e-11
-3.38285e-11
-2.57135e-11
-2.73828e-11
-1.89675e-11
-2.09203e-11
-1.27094e-11
-1.57101e-11
-7.55995e-12
-9.98008e-12
-1.23653e-12
-3.46914e-12
4.96197e-12
5.66389e-13
8.90739e-12
5.2449e-12
1.44814e-11
9.45093e-12
2.0328e-11
1.3864e-11
3.18674e-11
2.25854e-12
-5.21405e-14
1.30897e-11
3.07874e-11
2.52091e-11
3.35463e-11
2.86889e-11
3.8954e-11
3.1039e-11
4.27088e-11
3.17287e-11
4.38383e-11
1.96684e-11
3.10271e-11
-8.0853e-12
3.40207e-11
-2.58331e-11
-4.00078e-10
1.24828e-10
2.38511e-10
-1.90174e-10
-6.14382e-11
-1.52561e-11
-1.2742e-10
-1.49457e-10
-1.1153e-10
-9.01036e-11
-7.66745e-11
-7.74839e-11
-6.99749e-11
-7.05691e-11
-6.25755e-11
-6.37118e-11
-5.52577e-11
-5.51766e-11
-4.69653e-11
-4.92254e-11
-4.07029e-11
-4.06824e-11
-3.17403e-11
-3.40087e-11
-2.59429e-11
-2.75484e-11
-1.90999e-11
-2.10206e-11
-1.27983e-11
-1.57909e-11
-7.65565e-12
-1.00706e-11
-1.26831e-12
-3.531e-12
5.00583e-12
5.13908e-13
8.93241e-12
5.11893e-12
1.46606e-11
9.26415e-12
2.08418e-11
1.36362e-11
3.91424e-11
-9.00705e-13
-7.96488e-12
1.16028e-11
3.13805e-11
2.51375e-11
3.41124e-11
2.82747e-11
3.98532e-11
3.04158e-11
4.40019e-11
3.06811e-11
4.60088e-11
1.82179e-11
3.44905e-11
-1.00821e-11
4.23403e-11
-1.70138e-11
-4.28515e-10
1.62609e-10
2.6751e-10
-2.51956e-10
-8.47993e-11
6.51613e-12
-1.17006e-10
-1.49618e-10
-1.12133e-10
-8.93619e-11
-7.60787e-11
-7.74405e-11
-7.03255e-11
-7.09954e-11
-6.30675e-11
-6.41732e-11
-5.5753e-11
-5.55766e-11
-4.72956e-11
-4.94974e-11
-4.1073e-11
-4.09942e-11
-3.2005e-11
-3.41996e-11
-2.61889e-11
-2.77265e-11
-1.92494e-11
-2.11262e-11
-1.29007e-11
-1.58743e-11
-7.76068e-12
-1.01661e-11
-1.30988e-12
-3.59369e-12
5.03782e-12
4.66047e-13
8.94761e-12
4.9997e-12
1.48095e-11
9.12906e-12
2.12185e-11
1.3367e-11
4.40334e-11
-9.81742e-15
-1.29678e-11
1.02805e-11
3.18642e-11
2.5041e-11
3.47054e-11
2.78299e-11
4.07558e-11
2.9767e-11
4.5302e-11
2.96215e-11
4.81569e-11
1.68224e-11
3.7886e-11
-1.19127e-11
5.03323e-11
-7.49919e-12
-4.58292e-10
2.01713e-10
3.01403e-10
-3.15733e-10
-1.13314e-10
2.82178e-11
-1.04693e-10
-1.48951e-10
-1.12732e-10
-8.86541e-11
-7.54394e-11
-7.73514e-11
-7.06745e-11
-7.14328e-11
-6.35864e-11
-6.46534e-11
-5.62755e-11
-5.59996e-11
-4.76593e-11
-4.9782e-11
-4.14607e-11
-4.13226e-11
-3.22982e-11
-3.44017e-11
-2.64511e-11
-2.79162e-11
-1.94166e-11
-2.12369e-11
-1.3017e-11
-1.59601e-11
-7.87527e-12
-1.02653e-11
-1.36281e-12
-3.65567e-12
5.05496e-12
4.25922e-13
8.94681e-12
4.9007e-12
1.49011e-11
9.11893e-12
2.13101e-11
1.37787e-11
3.99873e-11
2.52828e-13
-8.29152e-12
1.02958e-11
3.22886e-11
2.49615e-11
3.53288e-11
2.73807e-11
4.16385e-11
2.91237e-11
4.65689e-11
2.86026e-11
5.02153e-11
1.55657e-11
4.11156e-11
-1.34718e-11
5.78774e-11
2.57294e-12
-4.88739e-10
2.40927e-10
3.39977e-10
-3.78955e-10
-1.46897e-10
4.89063e-11
-9.06515e-11
-1.47292e-10
-1.133e-10
-8.80317e-11
-7.47822e-11
-7.72172e-11
-7.10191e-11
-7.18804e-11
-6.41313e-11
-6.51515e-11
-5.68239e-11
-5.6444e-11
-4.80559e-11
-5.00793e-11
-4.18649e-11
-4.16665e-11
-3.262e-11
-3.46155e-11
-2.67291e-11
-2.81167e-11
-1.96023e-11
-2.13528e-11
-1.31476e-11
-1.60477e-11
-7.99973e-12
-1.03668e-11
-1.42864e-12
-3.71572e-12
5.05538e-12
3.94732e-13
8.92874e-12
4.82141e-12
1.49427e-11
9.19437e-12
2.12101e-11
1.41502e-11
3.33347e-11
4.31264e-12
4.12974e-13
1.07861e-11
3.25515e-11
2.4863e-11
3.59504e-11
2.6941e-11
4.24715e-11
2.8518e-11
4.77583e-11
2.76795e-11
5.2113e-11
1.45335e-11
4.40783e-11
-1.46498e-11
6.48649e-11
1.30782e-11
-5.19153e-10
2.79254e-10
3.8279e-10
-4.3947e-10
-1.85191e-10
6.76141e-11
-7.51326e-11
-1.44488e-10
-1.13803e-10
-8.7548e-11
-7.4139e-11
-7.7042e-11
-7.13574e-11
-7.23378e-11
-6.47028e-11
-6.56674e-11
-5.73976e-11
-5.69089e-11
-4.84851e-11
-5.03896e-11
-4.22851e-11
-4.20246e-11
-3.29704e-11
-3.48417e-11
-2.70229e-11
-2.83274e-11
-1.98071e-11
-2.14736e-11
-1.32929e-11
-1.61367e-11
-8.13445e-12
-1.04692e-11
-1.50882e-12
-3.77258e-12
5.03749e-12
3.73311e-13
8.89257e-12
4.75994e-12
1.49446e-11
9.30412e-12
2.10364e-11
1.42067e-11
2.89798e-11
1.00973e-11
6.72133e-12
1.095e-11
3.26688e-11
2.47447e-11
3.65438e-11
2.65332e-11
4.32252e-11
2.79839e-11
4.88258e-11
2.69091e-11
5.37795e-11
1.3814e-11
4.66759e-11
-1.53306e-11
7.11613e-11
2.3927e-11
-5.48791e-10
3.14116e-10
4.29269e-10
-4.95058e-10
-2.27717e-10
8.33559e-11
-5.8446e-11
-1.40388e-10
-1.14183e-10
-8.72439e-11
-7.35431e-11
-7.68312e-11
-7.16874e-11
-7.28049e-11
-6.53011e-11
-6.62013e-11
-5.79964e-11
-5.73932e-11
-4.89458e-11
-5.07134e-11
-4.2721e-11
-4.23959e-11
-3.33488e-11
-3.50808e-11
-2.73327e-11
-2.85475e-11
-2.00314e-11
-2.15992e-11
-1.34527e-11
-1.62265e-11
-8.28018e-12
-1.05713e-11
-1.60485e-12
-3.82475e-12
4.99989e-12
3.63616e-13
8.83462e-12
4.72167e-12
1.48982e-11
9.46084e-12
2.07704e-11
1.43057e-11
2.61216e-11
1.26385e-11
1.17877e-11
1.15723e-11
3.27775e-11
2.46438e-11
3.71017e-11
2.61918e-11
4.38721e-11
2.75484e-11
4.97264e-11
2.63436e-11
5.51458e-11
1.34862e-11
4.88162e-11
-1.54004e-11
7.66754e-11
3.49901e-11
-5.76896e-10
3.44429e-10
4.78585e-10
-5.43418e-10
-2.73842e-10
9.51971e-11
-4.09626e-11
-1.34884e-10
-1.14384e-10
-8.71745e-11
-7.30297e-11
-7.65926e-11
-7.20071e-11
-7.32808e-11
-6.59262e-11
-6.67532e-11
-5.86197e-11
-5.78962e-11
-4.94369e-11
-5.10506e-11
-4.31723e-11
-4.27798e-11
-3.37548e-11
-3.53333e-11
-2.76588e-11
-2.87763e-11
-2.02757e-11
-2.17296e-11
-1.36273e-11
-1.63166e-11
-8.43746e-12
-1.06718e-11
-1.71767e-12
-3.87154e-12
4.94198e-12
3.65913e-13
8.7547e-12
4.70453e-12
1.48086e-11
9.65035e-12
2.04557e-11
1.44711e-11
2.41505e-11
1.45012e-11
1.60369e-11
1.2439e-11
3.28661e-11
2.45545e-11
3.75942e-11
2.59322e-11
4.43872e-11
2.72561e-11
5.042e-11
2.60366e-11
5.61537e-11
1.36045e-11
5.04157e-11
-1.47593e-11
8.12966e-11
4.61972e-11
-6.02548e-10
3.68503e-10
5.29937e-10
-5.82122e-10
-3.22859e-10
1.02281e-10
-2.30866e-11
-1.2793e-10
-1.14354e-10
-8.73753e-11
-7.26384e-11
-7.63386e-11
-7.23161e-11
-7.37657e-11
-6.65783e-11
-6.73231e-11
-5.92667e-11
-5.84179e-11
-4.99572e-11
-5.14012e-11
-4.36385e-11
-4.3176e-11
-3.41878e-11
-3.55995e-11
-2.80014e-11
-2.90136e-11
-2.05399e-11
-2.18651e-11
-1.38164e-11
-1.64065e-11
-8.60642e-12
-1.07698e-11
-1.84767e-12
-3.91303e-12
4.86365e-12
3.79874e-13
8.6543e-12
4.70364e-12
1.46865e-11
9.83872e-12
2.01566e-11
1.46114e-11
2.28832e-11
1.56496e-11
1.94245e-11
1.34139e-11
3.29273e-11
2.44822e-11
3.79996e-11
2.57742e-11
4.47507e-11
2.71292e-11
5.08765e-11
2.60266e-11
5.67638e-11
1.42639e-11
5.14083e-11
-1.33007e-11
8.48474e-11
5.7674e-11
-6.24855e-10
3.84322e-10
5.82556e-10
-6.08614e-10
-3.74039e-10
1.03853e-10
-5.2162e-12
-1.19546e-10
-1.14064e-10
-8.78872e-11
-7.2416e-11
-7.6088e-11
-7.26179e-11
-7.42628e-11
-6.72601e-11
-6.79135e-11
-5.99385e-11
-5.89606e-11
-5.05069e-11
-5.17657e-11
-4.41198e-11
-4.35857e-11
-3.46482e-11
-3.58801e-11
-2.8361e-11
-2.92596e-11
-2.08242e-11
-2.20065e-11
-1.40204e-11
-1.64955e-11
-8.78707e-12
-1.08647e-11
-1.99479e-12
-3.94972e-12
4.76491e-12
4.05476e-13
8.53462e-12
4.7157e-12
1.4538e-11
1.00188e-11
1.98898e-11
1.47096e-11
2.21279e-11
1.63293e-11
2.20984e-11
1.44634e-11
3.29741e-11
2.44535e-11
3.83033e-11
2.57351e-11
4.49477e-11
2.71902e-11
5.10777e-11
2.63408e-11
5.69543e-11
1.54826e-11
5.17603e-11
-1.09108e-11
8.69209e-11
6.98191e-11
-6.42862e-10
3.89472e-10
6.35568e-10
-6.202e-10
-4.26672e-10
9.92157e-11
1.23058e-11
-1.09764e-10
-1.13489e-10
-8.8744e-11
-7.24127e-11
-7.58611e-11
-7.29169e-11
-7.47757e-11
-6.79763e-11
-6.8527e-11
-6.06371e-11
-5.9527e-11
-5.10869e-11
-5.21435e-11
-4.46168e-11
-4.40095e-11
-3.51368e-11
-3.61747e-11
-2.87391e-11
-2.95148e-11
-2.11298e-11
-2.21541e-11
-1.42401e-11
-1.65827e-11
-8.98033e-12
-1.09559e-11
-2.15977e-12
-3.98191e-12
4.64559e-12
4.43427e-13
8.39631e-12
4.73709e-12
1.43672e-11
1.01864e-11
1.96537e-11
1.4771e-11
2.17311e-11
1.67367e-11
2.41905e-11
1.55548e-11
3.30048e-11
2.44847e-11
3.84896e-11
2.58244e-11
4.49642e-11
2.74537e-11
5.10087e-11
2.69939e-11
5.67081e-11
1.72812e-11
5.14363e-11
-7.38693e-12
8.69945e-11
8.32242e-11
-6.55362e-10
3.81214e-10
9.61191e-11
8.78333e-11
-2.04992e-11
-1.18308e-10
-1.38077e-10
-1.29513e-10
-1.05486e-10
-9.32737e-11
-7.85383e-11
-7.59542e-11
-6.67351e-11
-6.69483e-11
-5.8997e-11
-6.00841e-11
-5.17685e-11
-5.24615e-11
-4.5136e-11
-4.68871e-11
-3.79003e-11
-3.8412e-11
-3.01963e-11
-3.23568e-11
-2.42407e-11
-2.63377e-11
-1.82424e-11
-2.01868e-11
-1.23004e-11
-1.50319e-11
-7.04918e-12
-9.51068e-12
-1.18033e-12
-3.16878e-12
4.3627e-12
9.58571e-13
8.66638e-12
5.74856e-12
1.31128e-11
1.03598e-11
1.70907e-11
1.36404e-11
1.93782e-11
1.67109e-11
2.21705e-11
2.06067e-11
2.67332e-11
2.47247e-11
3.01149e-11
2.97021e-11
3.30233e-11
3.32929e-11
3.46984e-11
3.60439e-11
2.93679e-11
2.64248e-11
6.9006e-12
1.61499e-12
-3.96548e-11
-8.5992e-11
-1.95538e-10
-2.20888e-11
1.01983e-10
9.10624e-11
-2.14585e-11
-1.19649e-10
-1.38859e-10
-1.29802e-10
-1.05648e-10
-9.33524e-11
-7.86544e-11
-7.60239e-11
-6.68378e-11
-6.69955e-11
-5.90846e-11
-6.01196e-11
-5.18361e-11
-5.24756e-11
-4.51981e-11
-4.6903e-11
-3.79541e-11
-3.84102e-11
-3.02466e-11
-3.23562e-11
-2.42856e-11
-2.63252e-11
-1.82831e-11
-2.01709e-11
-1.23411e-11
-1.50162e-11
-7.08626e-12
-9.48676e-12
-1.21246e-12
-3.13986e-12
4.32753e-12
9.81443e-13
8.63515e-12
5.78358e-12
1.30867e-11
1.03977e-11
1.70689e-11
1.36738e-11
1.93437e-11
1.66886e-11
2.21301e-11
2.06596e-11
2.67387e-11
2.47836e-11
3.01345e-11
2.97816e-11
3.30654e-11
3.33795e-11
3.47843e-11
3.61595e-11
2.95218e-11
2.65501e-11
7.18047e-12
1.91579e-12
-3.8801e-11
-8.58357e-11
-1.99634e-10
-2.45782e-11
1.0911e-10
9.46797e-11
-2.24968e-11
-1.21304e-10
-1.39935e-10
-1.30338e-10
-1.05882e-10
-9.35071e-11
-7.87763e-11
-7.61506e-11
-6.69445e-11
-6.71028e-11
-5.91676e-11
-6.02052e-11
-5.18983e-11
-5.25299e-11
-4.52376e-11
-4.69616e-11
-3.79966e-11
-3.84495e-11
-3.02749e-11
-3.23957e-11
-2.43081e-11
-2.63458e-11
-1.82977e-11
-2.01897e-11
-1.23522e-11
-1.50352e-11
-7.09276e-12
-9.49286e-12
-1.21469e-12
-3.14292e-12
4.3291e-12
9.71084e-13
8.63695e-12
5.79252e-12
1.30976e-11
1.04092e-11
1.7088e-11
1.3688e-11
1.93452e-11
1.66141e-11
2.20988e-11
2.0689e-11
2.67984e-11
2.48414e-11
3.01985e-11
2.9871e-11
3.31611e-11
3.34809e-11
3.49069e-11
3.62979e-11
2.97292e-11
2.67491e-11
7.52619e-12
2.30552e-12
-3.75731e-11
-8.45306e-11
-2.06065e-10
-2.75242e-11
1.17511e-10
9.84696e-11
-2.33358e-11
-1.23208e-10
-1.41532e-10
-1.31159e-10
-1.06214e-10
-9.36914e-11
-7.891e-11
-7.63069e-11
-6.70736e-11
-6.72355e-11
-5.9268e-11
-6.03191e-11
-5.1977e-11
-5.26026e-11
-4.52758e-11
-4.70409e-11
-3.80519e-11
-3.85069e-11
-3.03023e-11
-3.24509e-11
-2.4332e-11
-2.63756e-11
-1.83081e-11
-2.02185e-11
-1.23561e-11
-1.50641e-11
-7.09277e-12
-9.50491e-12
-1.20875e-12
-3.15258e-12
4.34638e-12
9.52424e-13
8.64831e-12
5.79858e-12
1.3126e-11
1.04171e-11
1.71323e-11
1.37044e-11
1.93717e-11
1.64992e-11
2.20476e-11
2.07039e-11
2.6904e-11
2.4911e-11
3.03011e-11
2.9974e-11
3.33152e-11
3.35914e-11
3.50928e-11
3.64452e-11
3.00493e-11
2.69616e-11
8.03992e-12
2.71912e-12
-3.56441e-11
-8.2381e-11
-2.14463e-10
-3.07583e-11
1.26025e-10
1.01743e-10
-2.3503e-11
-1.249e-10
-1.43549e-10
-1.32262e-10
-1.06631e-10
-9.38828e-11
-7.90511e-11
-7.64875e-11
-6.72348e-11
-6.73994e-11
-5.93968e-11
-6.04614e-11
-5.20832e-11
-5.26919e-11
-4.53219e-11
-4.71378e-11
-3.813e-11
-3.8578e-11
-3.03363e-11
-3.25166e-11
-2.4367e-11
-2.64102e-11
-1.83225e-11
-2.02514e-11
-1.23603e-11
-1.50968e-11
-7.09557e-12
-9.51791e-12
-1.20258e-12
-3.16223e-12
4.37254e-12
9.3214e-13
8.6604e-12
5.80663e-12
1.31651e-11
1.04264e-11
1.71975e-11
1.37282e-11
1.94242e-11
1.63472e-11
2.19565e-11
2.07019e-11
2.70547e-11
2.49933e-11
3.04389e-11
3.00835e-11
3.35292e-11
3.36967e-11
3.53482e-11
3.65763e-11
3.04998e-11
2.71439e-11
8.75808e-12
3.0793e-12
-3.29324e-11
-7.95536e-11
-2.24296e-10
-3.37817e-11
1.33737e-10
1.03322e-10
-2.27538e-11
-1.25832e-10
-1.45817e-10
-1.33627e-10
-1.07111e-10
-9.40573e-11
-7.91858e-11
-7.66874e-11
-6.7429e-11
-6.75967e-11
-5.95571e-11
-6.06351e-11
-5.22212e-11
-5.28009e-11
-4.5379e-11
-4.72536e-11
-3.82338e-11
-3.86652e-11
-3.03787e-11
-3.25933e-11
-2.44157e-11
-2.64515e-11
-1.83424e-11
-2.02891e-11
-1.23662e-11
-1.51337e-11
-7.10326e-12
-9.53327e-12
-1.19744e-12
-3.17262e-12
4.40697e-12
9.10452e-13
8.6715e-12
5.81465e-12
1.32145e-11
1.04355e-11
1.72851e-11
1.3759e-11
1.95097e-11
1.6155e-11
2.18122e-11
2.06755e-11
2.7253e-11
2.50848e-11
3.0612e-11
3.01878e-11
3.38054e-11
3.3781e-11
3.56792e-11
3.66655e-11
3.10935e-11
2.72551e-11
9.71043e-12
3.30271e-12
-2.93878e-11
-7.61752e-11
-2.35197e-10
-3.56765e-11
1.40264e-10
1.01834e-10
-2.11434e-11
-1.2547e-10
-1.48124e-10
-1.35219e-10
-1.07632e-10
-9.41854e-11
-7.9298e-11
-7.6899e-11
-6.76537e-11
-6.78268e-11
-5.97501e-11
-6.08415e-11
-5.23934e-11
-5.29345e-11
-4.54495e-11
-4.73888e-11
-3.8365e-11
-3.87712e-11
-3.04312e-11
-3.26816e-11
-2.44798e-11
-2.65014e-11
-1.83687e-11
-2.03329e-11
-1.23745e-11
-1.51751e-11
-7.11721e-12
-9.55264e-12
-1.19383e-12
-3.18518e-12
4.44894e-12
8.8754e-13
8.68074e-12
5.8202e-12
1.32741e-11
1.04425e-11
1.73964e-11
1.37966e-11
1.96368e-11
1.59181e-11
2.16041e-11
2.06183e-11
2.75012e-11
2.51811e-11
3.08218e-11
3.02748e-11
3.41472e-11
3.38289e-11
3.60943e-11
3.66862e-11
3.18463e-11
2.72514e-11
1.0933e-11
3.30874e-12
-2.49697e-11
-7.237e-11
-2.47062e-10
-3.53417e-11
1.45681e-10
9.59198e-11
-1.89906e-11
-1.23326e-10
-1.50229e-10
-1.36994e-10
-1.08171e-10
-9.42437e-11
-7.93716e-11
-7.71132e-11
-6.79052e-11
-6.80875e-11
-5.9976e-11
-6.10802e-11
-5.2601e-11
-5.30943e-11
-4.55364e-11
-4.75426e-11
-3.85248e-11
-3.88982e-11
-3.04963e-11
-3.27815e-11
-2.45611e-11
-2.65616e-11
-1.84026e-11
-2.03832e-11
-1.23872e-11
-1.52213e-11
-7.13904e-12
-9.57692e-12
-1.19258e-12
-3.20052e-12
4.49649e-12
8.64095e-13
8.68712e-12
5.82153e-12
1.33432e-11
1.04464e-11
1.75314e-11
1.38413e-11
1.98142e-11
1.56288e-11
2.1324e-11
2.0526e-11
2.78004e-11
2.52778e-11
3.10705e-11
3.03324e-11
3.4558e-11
3.38253e-11
3.6604e-11
3.66122e-11
3.27752e-11
2.70913e-11
1.2462e-11
3.02858e-12
-1.96685e-11
-6.82213e-11
-2.59988e-10
-3.17195e-11
1.50463e-10
8.43722e-11
-1.68262e-11
-1.18986e-10
-1.5187e-10
-1.38906e-10
-1.08708e-10
-9.42101e-11
-7.93917e-11
-7.7321e-11
-6.81793e-11
-6.83757e-11
-6.02344e-11
-6.13499e-11
-5.28443e-11
-5.32815e-11
-4.56427e-11
-4.77138e-11
-3.87132e-11
-3.9047e-11
-3.05769e-11
-3.28926e-11
-2.46611e-11
-2.66331e-11
-1.84456e-11
-2.04398e-11
-1.24063e-11
-1.52717e-11
-7.17019e-12
-9.60675e-12
-1.19457e-12
-3.21894e-12
4.54728e-12
8.40885e-13
8.68991e-12
5.81716e-12
1.34208e-11
1.04466e-11
1.76897e-11
1.38939e-11
2.00512e-11
1.52777e-11
2.09653e-11
2.03963e-11
2.81514e-11
2.53697e-11
3.13612e-11
3.03492e-11
3.50416e-11
3.37558e-11
3.72191e-11
3.64195e-11
3.38955e-11
2.674e-11
1.43243e-11
2.41631e-12
-1.35146e-11
-6.37542e-11
-2.7423e-10
-2.39243e-11
1.55328e-10
6.62347e-11
-1.53063e-11
-1.12122e-10
-1.5278e-10
-1.4091e-10
-1.09239e-10
-9.40673e-11
-7.93452e-11
-7.75141e-11
-6.84716e-11
-6.86878e-11
-6.0524e-11
-6.16484e-11
-5.31222e-11
-5.34965e-11
-4.57709e-11
-4.79007e-11
-3.89295e-11
-3.92182e-11
-3.06753e-11
-3.30143e-11
-2.47806e-11
-2.67166e-11
-1.84988e-11
-2.05028e-11
-1.24335e-11
-1.53262e-11
-7.21155e-12
-9.64259e-12
-1.20057e-12
-3.24062e-12
4.5988e-12
8.18401e-13
8.6889e-12
5.80582e-12
1.35058e-11
1.04429e-11
1.78697e-11
1.39553e-11
2.03585e-11
1.48553e-11
2.05242e-11
2.02289e-11
2.85542e-11
2.5451e-11
3.16972e-11
3.03151e-11
3.56009e-11
3.3608e-11
3.79486e-11
3.609e-11
3.52168e-11
2.61737e-11
1.65314e-11
1.45073e-12
-6.59109e-12
-5.89161e-11
-2.90081e-10
-1.13568e-11
1.61215e-10
4.08739e-11
-1.52084e-11
-1.02535e-10
-1.52688e-10
-1.42952e-10
-1.09762e-10
-9.38051e-11
-7.92224e-11
-7.76858e-11
-6.87788e-11
-6.90209e-11
-6.08438e-11
-6.19736e-11
-5.34338e-11
-5.37394e-11
-4.59233e-11
-4.8102e-11
-3.91727e-11
-3.94116e-11
-3.07938e-11
-3.31463e-11
-2.49197e-11
-2.68128e-11
-1.85635e-11
-2.05717e-11
-1.24703e-11
-1.53844e-11
-7.2636e-12
-9.68489e-12
-1.2113e-12
-3.26567e-12
4.64901e-12
7.96917e-13
8.68421e-12
5.78636e-12
1.35966e-11
1.04349e-11
1.80692e-11
1.40259e-11
2.07451e-11
1.43508e-11
2.00002e-11
2.00253e-11
2.90069e-11
2.55158e-11
3.20811e-11
3.02218e-11
3.62369e-11
3.3373e-11
3.8797e-11
3.56104e-11
3.67402e-11
2.53836e-11
1.90754e-11
1.42729e-13
9.85905e-13
-5.36117e-11
-3.07864e-10
6.28128e-12
1.69099e-10
8.00079e-12
-1.73473e-11
-9.01572e-11
-1.51326e-10
-1.44963e-10
-1.10284e-10
-9.34204e-11
-7.90162e-11
-7.78307e-11
-6.90985e-11
-6.93731e-11
-6.11933e-11
-6.23241e-11
-5.37783e-11
-5.40098e-11
-4.61021e-11
-4.83165e-11
-3.94414e-11
-3.96271e-11
-3.09344e-11
-3.3288e-11
-2.50786e-11
-2.69222e-11
-1.86407e-11
-2.06465e-11
-1.2518e-11
-1.54461e-11
-7.32647e-12
-9.73395e-12
-1.22738e-12
-3.29401e-12
4.69609e-12
7.76356e-13
8.6763e-12
5.75782e-12
1.3692e-11
1.04225e-11
1.82855e-11
1.41051e-11
2.12223e-11
1.37639e-11
1.93964e-11
1.97886e-11
2.95053e-11
2.55582e-11
3.25139e-11
3.00636e-11
3.69478e-11
3.30462e-11
3.97637e-11
3.49794e-11
3.84566e-11
2.43778e-11
2.19291e-11
-1.46817e-12
9.06105e-12
-4.77307e-11
-3.27808e-10
2.89976e-11
1.79988e-10
-3.23306e-11
-2.25645e-11
-7.50782e-11
-1.48445e-10
-1.46854e-10
-1.1081e-10
-9.29175e-11
-7.87226e-11
-7.7944e-11
-6.94284e-11
-6.97423e-11
-6.15718e-11
-6.26985e-11
-5.41547e-11
-5.43073e-11
-4.6309e-11
-4.85434e-11
-3.97342e-11
-3.98638e-11
-3.10987e-11
-3.34395e-11
-2.5257e-11
-2.70448e-11
-1.87316e-11
-2.07266e-11
-1.25772e-11
-1.55111e-11
-7.40011e-12
-9.79e-12
-1.24942e-12
-3.32562e-12
4.73868e-12
7.56475e-13
8.6657e-12
5.71956e-12
1.379e-11
1.04055e-11
1.85144e-11
1.41913e-11
2.17961e-11
1.31042e-11
1.87253e-11
1.95233e-11
3.00428e-11
2.5574e-11
3.2995e-11
2.98386e-11
3.77268e-11
3.26286e-11
4.08414e-11
3.42047e-11
4.03449e-11
2.31813e-11
2.50456e-11
-3.31507e-12
1.74714e-11
-4.11932e-11
-3.50073e-10
5.6563e-11
1.94699e-10
-7.96734e-11
-3.15867e-11
-5.75424e-11
-1.43838e-10
-1.48519e-10
-1.1135e-10
-9.23107e-11
-7.83414e-11
-7.80214e-11
-6.97662e-11
-7.0127e-11
-6.19787e-11
-6.30954e-11
-5.4562e-11
-5.46312e-11
-4.65459e-11
-4.87822e-11
-4.00494e-11
-4.01211e-11
-3.12882e-11
-3.36007e-11
-2.54541e-11
-2.71808e-11
-1.88369e-11
-2.08121e-11
-1.26488e-11
-1.55794e-11
-7.48409e-12
-9.85299e-12
-1.27788e-12
-3.3605e-12
4.77538e-12
7.36824e-13
8.65314e-12
5.67145e-12
1.3889e-11
1.03839e-11
1.87497e-11
1.42795e-11
2.24606e-11
1.24063e-11
1.80186e-11
1.92333e-11
3.06088e-11
2.55614e-11
3.35216e-11
2.95492e-11
3.85641e-11
3.2126e-11
4.20154e-11
3.33047e-11
4.23719e-11
2.18358e-11
2.83606e-11
-5.3152e-12
2.60321e-11
-3.39231e-11