/*--------------------------------*- C++ -*----------------------------------*\
| =========                 |                                                 |
| \\      /  F ield         | OpenFOAM: The Open Source CFD Toolbox           |
|  \\    /   O peration     | Version:  2312                                  |
|   \\  /    A nd           | Website:  www.openfoam.com                      |
|    \\/     M anipulation  |                                                 |
\*---------------------------------------------------------------------------*/
FoamFile
{
    version     2.0;
    format      ascii;
    arch        "LSB;label=32;scalar=64";
    class       volScalarField;
    location    "1000";
    object      pMean;
}
// * * * * * * * * * * * * * * * * * * * * * * * * * * * * * * * * * * * * * //

dimensions      [0 2 -2 0 0 0 0];

internalField   nonuniform List<scalar> 
144000
(
5.77592e-10
2.99119e-10
-2.98002e-10
-5.84845e-10
-5.04977e-10
-3.55241e-10
-2.09353e-10
-1.30861e-10
-6.17845e-11
-4.38246e-11
-1.18034e-11
-1.46359e-11
7.17397e-12
-2.6033e-12
1.71414e-11
5.72704e-12
2.22889e-11
5.96587e-12
2.44262e-11
1.03123e-11
2.87292e-11
1.11709e-11
3.00978e-11
1.29679e-11
3.28737e-11
1.53276e-11
3.51795e-11
1.53059e-11
3.60553e-11
1.66734e-11
3.88434e-11
1.95199e-11
4.06892e-11
1.77147e-11
3.97795e-11
1.81034e-11
4.08067e-11
1.88255e-11
4.08238e-11
1.70406e-11
3.83389e-11
1.63733e-11
3.82836e-11
1.47043e-11
3.60499e-11
1.22863e-11
3.30503e-11
1.43146e-11
3.25227e-11
1.76631e-11
3.21024e-11
2.62453e-11
2.65915e-11
2.68534e-11
-1.01385e-12
2.25502e-11
-2.84627e-11
-1.26386e-11
-8.35878e-10
-1.86738e-10
6.02237e-10
3.13842e-10
-3.04035e-10
-5.89946e-10
-5.06766e-10
-3.55454e-10
-2.09556e-10
-1.31049e-10
-6.21384e-11
-4.41139e-11
-1.21583e-11
-1.48505e-11
6.89418e-12
-2.75248e-12
1.6925e-11
5.65252e-12
2.21071e-11
5.89227e-12
2.42606e-11
1.02949e-11
2.85871e-11
1.11551e-11
2.99632e-11
1.29881e-11
3.27546e-11
1.53641e-11
3.50626e-11
1.53417e-11
3.59393e-11
1.67309e-11
3.87387e-11
1.95972e-11
4.0581e-11
1.7778e-11
3.96665e-11
1.81983e-11
4.07047e-11
1.89299e-11
4.07225e-11
1.71323e-11
3.81737e-11
1.63737e-11
3.80899e-11
1.48478e-11
3.5955e-11
1.24611e-11
3.29558e-11
1.45457e-11
3.24566e-11
1.79105e-11
3.20815e-11
2.65486e-11
2.66589e-11
2.71197e-11
-8.57758e-13
2.26073e-11
-2.55624e-11
-4.75183e-12
-8.51316e-10
-2.0563e-10
6.35059e-10
3.19379e-10
-3.13319e-10
-5.92456e-10
-5.07675e-10
-3.55423e-10
-2.09487e-10
-1.31192e-10
-6.23691e-11
-4.45456e-11
-1.25357e-11
-1.52574e-11
6.6158e-12
-3.08595e-12
1.67161e-11
5.42496e-12
2.19949e-11
5.66648e-12
2.41356e-11
1.01312e-11
2.85287e-11
1.09977e-11
2.99062e-11
1.28742e-11
3.27333e-11
1.52679e-11
3.50575e-11
1.52399e-11
3.59295e-11
1.66541e-11
3.87487e-11
1.95439e-11
4.06153e-11
1.7701e-11
3.96762e-11
1.81585e-11
4.07442e-11
1.89003e-11
4.07748e-11
1.71013e-11
3.81276e-11
1.61706e-11
3.79763e-11
1.48151e-11
3.60473e-11
1.25292e-11
3.30234e-11
1.46749e-11
3.25811e-11
1.80535e-11
3.22195e-11
2.67374e-11
2.69428e-11
2.72849e-11
-3.62841e-13
2.16295e-11
-2.24232e-11
9.1515e-12
-8.77628e-10
-2.19484e-10
6.70049e-10
3.05096e-10
-3.23262e-10
-5.89026e-10
-5.07519e-10
-3.5519e-10
-2.09075e-10
-1.31011e-10
-6.2382e-11
-4.49538e-11
-1.29772e-11
-1.57713e-11
6.25739e-12
-3.51494e-12
1.64271e-11
5.12848e-12
2.18616e-11
5.37219e-12
2.3946e-11
9.90905e-12
2.84558e-11
1.07917e-11
2.9816e-11
1.27216e-11
3.26988e-11
1.51451e-11
3.50578e-11
1.51087e-11
3.59092e-11
1.6551e-11
3.87577e-11
1.9475e-11
4.06788e-11
1.76032e-11
3.96824e-11
1.80996e-11
4.08042e-11
1.88598e-11
4.08652e-11
1.70799e-11
3.80832e-11
1.58982e-11
3.77872e-11
1.46871e-11
3.62057e-11
1.26032e-11
3.31379e-11
1.47875e-11
3.28148e-11
1.81396e-11
3.2505e-11
2.67798e-11
2.76124e-11
2.70234e-11
9.64385e-13
1.86856e-11
-1.59094e-11
2.29246e-11
-9.11597e-10
-2.17309e-10
7.01551e-10
2.60744e-10
-3.32026e-10
-5.74007e-10
-5.05103e-10
-3.55019e-10
-2.08503e-10
-1.30458e-10
-6.21423e-11
-4.53053e-11
-1.35086e-11
-1.6387e-11
5.78356e-12
-4.04012e-12
1.60205e-11
4.76883e-12
2.16722e-11
5.02138e-12
2.36569e-11
9.63771e-12
2.83362e-11
1.05555e-11
2.96553e-11
1.25453e-11
3.26188e-11
1.50147e-11
3.50293e-11
1.49721e-11
3.58404e-11
1.64415e-11
3.87304e-11
1.94178e-11
4.07374e-11
1.75142e-11
3.96462e-11
1.80454e-11
4.08513e-11
1.88344e-11
4.09653e-11
1.71081e-11
3.80151e-11
1.56293e-11
3.74441e-11
1.44541e-11
3.63847e-11
1.27207e-11
3.32625e-11
1.48824e-11
3.31359e-11
1.81416e-11
3.29597e-11
2.65819e-11
2.87749e-11
2.60998e-11
3.46389e-12
1.34127e-11
-5.06199e-12
3.34273e-11
-9.51148e-10
-1.9e-10
7.29531e-10
1.79878e-10
-3.4063e-10
-5.44321e-10
-4.99014e-10
-3.55216e-10
-2.08019e-10
-1.29598e-10
-6.16817e-11
-4.56154e-11
-1.4153e-11
-1.71216e-11
5.17893e-12
-4.67061e-12
1.54868e-11
4.33435e-12
2.14174e-11
4.61942e-12
2.32649e-11
9.31479e-12
2.81622e-11
1.02932e-11
2.94204e-11
1.23431e-11
3.24884e-11
1.48778e-11
3.49662e-11
1.4834e-11
3.57168e-11
1.6327e-11
3.86621e-11
1.93724e-11
4.07823e-11
1.74395e-11
3.95615e-11
1.79926e-11
4.08796e-11
1.88243e-11
4.10728e-11
1.7201e-11
3.79321e-11
1.53782e-11
3.68936e-11
1.40759e-11
3.65667e-11
1.28807e-11
3.3399e-11
1.49347e-11
3.3557e-11
1.80108e-11
3.36288e-11
2.60313e-11
3.05532e-11
2.43007e-11
7.44082e-12
5.59105e-12
1.03466e-11
3.96936e-11
-9.97108e-10
-1.32382e-10
7.57176e-10
6.03742e-11
-3.52265e-10
-4.9864e-10
-4.87797e-10
-3.55842e-10
-2.07867e-10
-1.28505e-10
-6.10244e-11
-4.5912e-11
-1.49381e-11
-1.79991e-11
4.4235e-12
-5.41506e-12
1.48178e-11
3.81447e-12
2.10877e-11
4.16969e-12
2.27719e-11
8.93865e-12
2.79307e-11
1.00113e-11
2.91119e-11
1.21163e-11
3.23068e-11
1.47378e-11
3.48642e-11
1.47006e-11
3.55383e-11
1.62101e-11
3.85509e-11
1.934e-11
4.08086e-11
1.73852e-11
3.94295e-11
1.79404e-11
4.08885e-11
1.88285e-11
4.11926e-11
1.73634e-11
3.78794e-11
1.51522e-11
3.60597e-11
1.35068e-11
3.67561e-11
1.30785e-11
3.35576e-11
1.49073e-11
3.40957e-11
1.76929e-11
3.45676e-11
2.50349e-11
3.30342e-11
2.14838e-11
1.2997e-11
-4.57489e-12
2.96516e-11
4.2288e-11
-1.05018e-09
-4.36682e-11
7.87936e-10
-9.43395e-11
-3.70201e-10
-4.37674e-10
-4.70265e-10
-3.56787e-10
-2.0825e-10
-1.27252e-10
-6.01908e-11
-4.62107e-11
-1.58809e-11
-1.90404e-11
3.49372e-12
-6.28445e-12
1.40001e-11
3.19793e-12
2.06648e-11
3.67205e-12
2.21773e-11
8.50717e-12
2.76321e-11
9.71336e-12
2.87297e-11
1.1867e-11
3.20716e-11
1.45977e-11
3.47195e-11
1.45776e-11
3.53054e-11
1.60951e-11
3.8396e-11
1.93239e-11
4.08098e-11
1.73568e-11
3.92523e-11
1.78874e-11
4.08798e-11
1.88423e-11
4.13361e-11
1.75939e-11
3.79335e-11
1.49229e-11
3.48349e-11
1.26995e-11
3.69608e-11
1.33014e-11
3.37567e-11
1.47671e-11
3.47722e-11
1.71441e-11
3.58143e-11
2.3537e-11
3.62299e-11
1.76902e-11
1.99721e-11
-1.64142e-11
5.12442e-11
4.29337e-11
-1.10977e-09
7.10146e-11
8.25124e-10
-2.7661e-10
-3.97422e-10
-3.64033e-10
-4.45628e-10
-3.57736e-10
-2.09344e-10
-1.2594e-10
-5.92087e-11
-4.65176e-11
-1.6999e-11
-2.02522e-11
2.37899e-12
-7.28665e-12
1.3026e-11
2.47425e-12
2.01303e-11
3.12371e-12
2.14785e-11
8.01779e-12
2.72544e-11
9.39881e-12
2.82713e-11
1.15959e-11
3.17783e-11
1.44579e-11
3.45262e-11
1.44687e-11
3.50177e-11
1.5985e-11
3.81974e-11
1.93254e-11
4.07804e-11
1.73571e-11
3.90357e-11
1.78318e-11
4.08566e-11
1.88563e-11
4.15214e-11
1.78813e-11
3.82146e-11
1.46461e-11
3.3071e-11
1.16143e-11
3.72005e-11
1.35357e-11
3.4015e-11
1.44898e-11
3.55968e-11
1.63491e-11
3.73755e-11
2.15491e-11
4.0057e-11
1.31037e-11
2.79555e-11
-2.89694e-11
7.32114e-11
4.37237e-11
-1.17433e-09
2.02748e-10
8.70227e-10
-4.7667e-10
-4.35841e-10
-2.81566e-10
-4.13662e-10
-3.58265e-10
-2.11255e-10
-1.24682e-10
-5.81033e-11
-4.68297e-11
-1.82834e-11
-2.16294e-11
1.07724e-12
-8.42001e-12
1.18946e-11
1.64285e-12
1.94715e-11
2.52162e-12
2.06773e-11
7.46897e-12
2.67881e-11
9.06578e-12
2.77365e-11
1.13015e-11
3.14223e-11
1.43193e-11
3.42782e-11
1.4372e-11
3.46758e-11
1.58798e-11
3.79544e-11
1.93444e-11
4.07144e-11
1.73861e-11
3.87842e-11
1.77708e-11
4.08219e-11
1.88616e-11
4.17653e-11
1.82128e-11
3.88761e-11
1.42408e-11
3.0585e-11
1.02236e-11
3.74986e-11
1.37667e-11
3.43487e-11
1.40656e-11
3.65666e-11
1.5316e-11
3.92198e-11
1.91539e-11
4.43421e-11
8.05145e-12
3.63872e-11
-4.11757e-11
9.37417e-11
4.63334e-11
-1.24092e-09
3.4229e-10
9.22908e-10
-6.83027e-10
-4.86158e-10
-1.94846e-10
-3.74703e-10
-3.5787e-10
-2.14012e-10
-1.23606e-10
-5.69264e-11
-4.71401e-11
-1.97218e-11
-2.31611e-11
-4.06858e-13
-9.6781e-12
1.06113e-11
7.04226e-13
1.86828e-11
1.86651e-12
1.97757e-11
6.86184e-12
2.62272e-11
8.71182e-12
2.71254e-11
1.09834e-11
3.10003e-11
1.41789e-11
3.39711e-11
1.42865e-11
3.42819e-11
1.57807e-11
3.76661e-11
1.93791e-11
4.06075e-11
1.74405e-11
3.85035e-11
1.77039e-11
4.07756e-11
1.88461e-11
4.20907e-11
1.85755e-11
4.01167e-11
1.35244e-11
2.71513e-11
8.51726e-12
3.78747e-11
1.39844e-11
3.47578e-11
1.35024e-11
3.7655e-11
1.4082e-11
4.12719e-11
1.64843e-11
4.88519e-11
2.91173e-12
4.46665e-11
-5.20713e-11
1.11444e-10
5.18108e-11
-1.30581e-09
4.80312e-10
9.81233e-10
-8.85801e-10
-5.47508e-10
-1.08253e-10
-3.29579e-10
-3.5603e-10
-2.17555e-10
-1.22849e-10
-5.57352e-11
-4.74442e-11
-2.12959e-11
-2.48324e-11
-2.06564e-12
-1.10525e-11
9.18111e-12
-3.36189e-13
1.7761e-11
1.15925e-12
1.87789e-11
6.19977e-12
2.55677e-11
8.33442e-12
2.64401e-11
1.06412e-11
3.05099e-11
1.40354e-11
3.36024e-11
1.42101e-11
3.38378e-11
1.56867e-11
3.73317e-11
1.94268e-11
4.04582e-11
1.75174e-11
3.81958e-11
1.76308e-11
4.07174e-11
1.8798e-11
4.25171e-11
1.89425e-11
4.22811e-11
1.23177e-11
2.24448e-11
6.51401e-12
3.8339e-11
1.41745e-11
3.52278e-11
1.2826e-11
3.88301e-11
1.27068e-11
4.34282e-11
1.37082e-11
5.33315e-11
-1.92028e-12
5.22522e-11
-6.08986e-11
1.25435e-10
6.05544e-11
-1.36535e-09
6.08897e-10
1.04256e-09
-1.07636e-09
-6.18012e-10
-2.58274e-11
-2.79483e-10
-3.52234e-10
-2.21714e-10
-1.22533e-10
-5.46091e-11
-4.77402e-11
-2.29836e-11
-2.66253e-11
-3.88703e-12
-1.25347e-11
7.61376e-12
-1.47332e-12
1.67075e-11
4.01918e-13
1.76942e-11
5.48715e-12
2.48086e-11
7.93222e-12
2.56842e-11
1.02764e-11
2.99516e-11
1.38865e-11
3.31729e-11
1.41398e-11
3.33458e-11
1.5597e-11
3.6951e-11
1.94851e-11
4.02633e-11
1.76143e-11
3.78632e-11
1.75537e-11
4.0642e-11
1.87142e-11
4.30427e-11
1.93089e-11
4.57584e-11
1.042e-11
1.61342e-11
4.30384e-12
3.89051e-11
1.43367e-11
3.57392e-11
1.20705e-11
4.00219e-11
1.1278e-11
4.55711e-11
1.10051e-11
5.75271e-11
-6.1099e-12
5.8723e-11
-6.71784e-11
1.35376e-10
7.22157e-11
-1.41647e-09
7.22305e-10
1.1038e-09
-1.24834e-09
-6.9513e-10
4.91673e-11
-2.2588e-10
-3.46051e-10
-2.26246e-10
-1.22762e-10
-5.36315e-11
-4.80309e-11
-2.47605e-11
-2.85185e-11
-5.85765e-12
-1.41111e-11
5.92145e-12
-2.69686e-12
1.55263e-11
-4.02033e-13
1.65299e-11
4.72875e-12
2.39511e-11
7.50437e-12
2.48624e-11
9.89105e-12
2.93262e-11
1.37307e-11
3.26831e-11
1.40734e-11
3.28087e-11
1.55115e-11
3.6525e-11
1.95522e-11
4.00192e-11
1.77301e-11
3.75039e-11
1.7483e-11
4.05325e-11
1.86159e-11
4.3605e-11
1.97495e-11
5.07983e-11
7.34599e-12
7.95756e-12
2.07821e-12
3.96125e-11
1.45022e-11
3.62803e-11
1.12875e-11
4.11752e-11
9.88788e-12
4.75817e-11
8.55089e-12
6.12204e-11
-9.39858e-12
6.38061e-11
-7.07083e-11
1.41395e-10
8.59968e-11
-1.45681e-09
8.17074e-10
1.16162e-09
-1.39709e-09
-7.75772e-10
1.14259e-10
-1.7041e-10
-3.37185e-10
-2.30868e-10
-1.23611e-10
-5.28972e-11
-4.83279e-11
-2.66029e-11
-3.04914e-11
-7.96338e-12
-1.57715e-11
4.1151e-12
-3.99808e-12
1.42235e-11
-1.25e-12
1.52936e-11
3.92994e-12
2.29991e-11
7.04993e-12
2.39798e-11
9.48704e-12
2.8636e-11
1.35664e-11
3.21349e-11
1.40092e-11
3.22303e-11
1.54306e-11
3.60544e-11
1.96268e-11
3.97243e-11
1.78654e-11
3.71145e-11
1.74302e-11
4.03732e-11
1.8529e-11
4.41286e-11
2.02939e-11
5.84053e-11
1.32923e-12
-3.02659e-12
-2.07175e-13
4.03827e-11
1.46761e-11
3.68271e-11
1.05358e-11
4.22275e-11
8.62566e-12
4.93481e-11
6.49068e-12
6.42432e-11
-1.16144e-11
6.73716e-11
-7.15202e-11
1.43883e-10
1.00953e-10
-1.48468e-09
8.91277e-10
1.21286e-09
-1.51975e-09
-8.56654e-10
1.67802e-10
-1.14771e-10
-3.25493e-10
-2.35267e-10
-1.2513e-10
-5.25078e-11
-4.86517e-11
-2.84898e-11
-3.25247e-11
-1.01906e-11
-1.75077e-11
2.2053e-12
-5.36839e-12
1.28071e-11
-2.13967e-12
1.39927e-11
3.09593e-12
2.19575e-11
6.56843e-12
2.30413e-11
9.06622e-12
2.78839e-11
1.33923e-11
3.15311e-11
1.39459e-11
3.16141e-11
1.53548e-11
3.55409e-11
1.97075e-11
3.93787e-11
1.80184e-11
3.66967e-11
1.73963e-11
4.01672e-11
1.84493e-11
4.46068e-11
2.0295e-11
7.08955e-11
-1.87997e-12
-1.76732e-11
-2.86682e-12
4.08318e-11
1.47907e-11
3.73066e-11
9.85335e-12
4.31069e-11
7.56837e-12
5.07725e-11
4.94005e-12
6.64803e-11
-1.26665e-11
6.94203e-11
-6.98163e-11
1.43455e-10
1.16105e-10
-1.49906e-09
9.44426e-10
1.25469e-09
-1.61489e-09
-9.34589e-10
2.08839e-10
-6.05699e-11
-3.10967e-10
-2.39124e-10
-1.27332e-10
-5.25621e-11
-4.90297e-11
-3.04023e-11
-3.45995e-11
-1.25265e-11
-1.9312e-11
2.02161e-13
-6.79905e-12
1.1286e-11
-3.06825e-12
1.26344e-11
2.23157e-12
2.08327e-11
6.05959e-12
2.20512e-11
8.63027e-12
2.70732e-11
1.32074e-11
3.08758e-11
1.38828e-11
3.09634e-11
1.52846e-11
3.49852e-11
1.97945e-11
3.89818e-11
1.8193e-11
3.62402e-11
1.74065e-11
3.98655e-11
1.85025e-11
4.47502e-11
2.02031e-11
7.88427e-11
-2.06168e-14
-2.68665e-11
-4.78716e-12
4.09573e-11
1.49002e-11
3.77162e-11
9.303e-12
4.37608e-11
6.78614e-12
5.17786e-11
3.98046e-12
6.78694e-11
-1.25346e-11
7.00629e-11
-6.59083e-11
1.40839e-10
1.30496e-10
-1.49954e-09
9.77024e-10
1.28502e-09
-1.6823e-09
-1.0068e-09
2.37042e-10
-9.28151e-12
-2.93728e-10
-2.42132e-10
-1.30196e-10
-5.3149e-11
-4.94939e-11
-3.23233e-11
-3.6697e-11
-1.49573e-11
-2.1177e-11
-1.88374e-12
-8.28243e-12
9.66906e-12
-4.03297e-12
1.12258e-11
1.3415e-12
1.96309e-11
5.52352e-12
2.10153e-11
8.18119e-12
2.62088e-11
1.30109e-11
3.01722e-11
1.38191e-11
3.02812e-11
1.52214e-11
3.43885e-11
1.98891e-11
3.853e-11
1.83967e-11
3.57292e-11
1.74981e-11
3.93948e-11
1.88613e-11
4.41734e-11
2.1159e-11
7.02877e-11
3.24684e-13
-1.80148e-11
-4.04068e-12
4.09568e-11
1.51296e-11
3.80824e-11
8.9585e-12
4.41555e-11
6.33908e-12
5.23201e-11
3.66225e-12
6.84003e-11
-1.12648e-11
6.94798e-11
-6.01771e-11
1.36683e-10
1.43301e-10
-1.48629e-09
9.90362e-10
1.30207e-09
-1.72248e-09
-1.07074e-09
2.52602e-10
3.77962e-11
-2.74039e-10
-2.44025e-10
-1.33667e-10
-5.43469e-11
-5.00816e-11
-3.42401e-11
-3.88e-11
-1.74697e-11
-2.30951e-11
-4.04312e-12
-9.8116e-12
7.96546e-12
-5.03132e-12
9.77327e-12
4.29846e-13
1.83589e-11
4.96049e-12
1.99376e-11
7.72058e-12
2.52945e-11
1.28019e-11
2.94245e-11
1.37544e-11
2.95706e-11
1.51655e-11
3.37532e-11
1.99899e-11
3.8027e-11
1.86241e-11
3.51735e-11
1.76508e-11
3.88064e-11
1.93962e-11
4.31875e-11
2.20735e-11
5.69014e-11
5.1586e-12
-2.3363e-12
-2.1573e-12
4.05503e-11
1.53745e-11
3.83129e-11
8.82885e-12
4.42478e-11
6.25643e-12
5.23663e-11
3.9951e-12
6.81054e-11
-8.95293e-12
6.78706e-11
-5.3019e-11
1.31582e-10
1.53951e-10
-1.45976e-09
9.85881e-10
1.30458e-09
-1.73651e-09
-1.1243e-09
2.56102e-10
7.961e-11
-2.52261e-10
-2.44602e-10
-1.37679e-10
-5.6222e-11
-5.08367e-11
-3.61474e-11
-4.08954e-11
-2.00525e-11
-2.50625e-11
-6.26896e-12
-1.13809e-11
6.18434e-12
-6.06122e-12
8.28199e-12
-5.00209e-13
1.70233e-11
4.37063e-12
1.88217e-11
7.24961e-12
2.43343e-11
1.25803e-11
2.86362e-11
1.36883e-11
2.88347e-11
1.51175e-11
3.30818e-11
2.00962e-11
3.74763e-11
1.88709e-11
3.45823e-11
1.78441e-11
3.81514e-11
1.99619e-11
4.2127e-11
2.24116e-11
4.81301e-11
1.24449e-11
8.73259e-12
-4.40245e-13
3.97473e-11
1.56107e-11
3.83605e-11
8.93389e-12
4.40163e-11
6.55535e-12
5.1917e-11
4.96543e-12
6.70488e-11
-5.7207e-12
6.5458e-11
-4.47993e-11
1.26023e-10
1.62149e-10
-1.42064e-09
9.65069e-10
1.29172e-09
-1.72564e-09
-1.16577e-09
2.48442e-10
1.15349e-10
-2.28838e-10
-2.43731e-10
-1.42144e-10
-5.88211e-11
-5.18048e-11
-3.80462e-11
-4.29726e-11
-2.26957e-11
-2.70758e-11
-8.5557e-12
-1.29861e-11
4.33479e-12
-7.12046e-12
6.75602e-12
-1.44629e-12
1.56308e-11
3.75389e-12
1.76705e-11
6.76883e-12
2.33318e-11
1.23458e-11
2.78117e-11
1.36208e-11
2.80751e-11
1.50776e-11
3.23757e-11
2.02087e-11
3.68798e-11
1.91403e-11
3.39505e-11
1.80889e-11
3.74135e-11
2.05809e-11
4.09554e-11
2.27116e-11
4.24453e-11
1.60364e-11
1.69878e-11
1.79736e-12
3.89332e-11
1.59517e-11
3.82374e-11
9.30508e-12
4.34664e-11
7.23907e-12
5.09905e-11
6.53489e-12
6.53155e-11
-1.70099e-12
6.24447e-11
-3.5837e-11
1.20302e-10
1.67858e-10
-1.36966e-09
9.29161e-10
1.26325e-09
-1.69151e-09
-1.19413e-09
2.3073e-10
1.4454e-10
-2.04246e-10
-2.41348e-10
-1.46961e-10
-6.21661e-11
-5.30273e-11
-3.99403e-11
-4.50228e-11
-2.53888e-11
-2.91308e-11
-1.08975e-11
-1.46238e-11
2.42501e-12
-8.20684e-12
5.19954e-12
-2.40706e-12
1.41877e-11
3.11103e-12
1.64869e-11
6.27858e-12
2.2291e-11
1.20982e-11
2.69547e-11
1.35517e-11
2.72943e-11
1.50456e-11
3.16377e-11
2.0326e-11
3.62422e-11
1.94288e-11
3.32838e-11
1.83743e-11
3.66092e-11
2.12222e-11
3.97377e-11
2.30778e-11
3.84637e-11
1.82735e-11
2.33387e-11
4.44267e-12
3.81542e-11
1.63943e-11
3.79199e-11
9.93851e-12
4.26078e-11
8.2928e-12
4.96217e-11
8.64773e-12
6.30096e-11
2.96724e-12
5.90194e-11
-2.63833e-11
1.14536e-10
1.71233e-10
-1.30763e-09
8.79315e-10
1.2194e-09
-1.63598e-09
-1.20903e-09
2.04276e-10
1.67065e-10
-1.78973e-10
-2.37478e-10
-1.52031e-10
-6.6256e-11
-5.45406e-11
-4.18369e-11
-4.70406e-11
-2.8122e-11
-3.1224e-11
-1.32883e-11
-1.62929e-11
4.62739e-13
-9.31758e-12
3.6168e-12
-3.38263e-12
1.26995e-11
2.44299e-12
1.5274e-11
5.77836e-12
2.12159e-11
1.18363e-11
2.6069e-11
1.34811e-11
2.64954e-11
1.50206e-11
3.0872e-11
2.04449e-11
3.55688e-11
1.97316e-11
3.25921e-11
1.86818e-11
3.57692e-11
2.18295e-11
3.85824e-11
2.34105e-11
3.56956e-11
1.9628e-11
2.80733e-11
7.2757e-12
3.73932e-11
1.69346e-11
3.73958e-11
1.08199e-11
4.14626e-11
9.6914e-12
4.78695e-11
1.12307e-11
6.02472e-11
8.1489e-12
5.53526e-11
-1.66074e-11
1.08594e-10
1.72596e-10
-1.23532e-09
8.16602e-10
1.16113e-09
-1.56125e-09
-1.21095e-09
1.70472e-10
1.83198e-10
-1.53471e-10
-2.32216e-10
-1.57281e-10
-7.10874e-11
-5.63822e-11
-4.37509e-11
-4.90287e-11
-3.08918e-11
-3.33559e-11
-1.57253e-11
-1.79965e-11
-1.54808e-12
-1.04509e-11
2.01108e-12
-4.37539e-12
1.11691e-11
1.75031e-12
1.40337e-11
5.26625e-12
2.01096e-11
1.15584e-11
2.5157e-11
1.34088e-11
2.56817e-11
1.50012e-11
3.00826e-11
2.05618e-11
3.48641e-11
2.00456e-11
3.18831e-11
1.89997e-11
3.49101e-11
2.23885e-11
3.7515e-11
2.36842e-11
3.38083e-11
2.04973e-11
3.14849e-11
1.01623e-11
3.6653e-11
1.75889e-11
3.66756e-11
1.19319e-11
4.00678e-11
1.1397e-11
4.5808e-11
1.42005e-11
5.71575e-11
1.37093e-11
5.15906e-11
-6.55597e-12
1.02147e-10
1.72429e-10
-1.1535e-09
7.41983e-10
1.08997e-09
-1.46889e-09
-1.20094e-09
1.30499e-10
1.93458e-10
-1.28105e-10
-2.25683e-10
-1.62654e-10
-7.66606e-11
-5.85894e-11
-4.57009e-11
-5.09912e-11
-3.36993e-11
-3.55286e-11
-1.82098e-11
-1.97393e-11
-3.6068e-12
-1.1604e-11
3.84069e-13
-5.38679e-12
9.59747e-12
1.03519e-12
1.27663e-11
4.74092e-12
1.89724e-11
1.12637e-11
2.42199e-11
1.33361e-11
2.48539e-11
1.49868e-11
2.92713e-11
2.0674e-11
3.41311e-11
2.03705e-11
3.11616e-11
1.93196e-11
3.40389e-11
2.28983e-11
3.65283e-11
2.39141e-11
3.25372e-11
2.11225e-11
3.3825e-11
1.30166e-11
3.59342e-11
1.83683e-11
3.57761e-11
1.32449e-11
3.84613e-11
1.33621e-11
4.35123e-11
1.74678e-11
5.38537e-11
1.95411e-11
4.78155e-11
3.88603e-12
9.46304e-11
1.71328e-10
-1.06273e-09
6.55853e-10
5.78703e-10
2.99303e-10
-2.98298e-10
-5.85264e-10
-5.05366e-10
-3.54918e-10
-2.08655e-10
-1.3016e-10
-6.13658e-11
-4.37969e-11
-1.20644e-11
-1.50749e-11
6.63341e-12
-3.20257e-12
1.6531e-11
5.11949e-12
2.17988e-11
5.61509e-12
2.41765e-11
1.01155e-11
2.8614e-11
1.11082e-11
3.00685e-11
1.29277e-11
3.2852e-11
1.52593e-11
3.51708e-11
1.52879e-11
3.60695e-11
1.66187e-11
3.88404e-11
1.94077e-11
4.06576e-11
1.75398e-11
3.97651e-11
1.7928e-11
4.09065e-11
1.86796e-11
4.11248e-11
1.70926e-11
3.91117e-11
1.71214e-11
3.87013e-11
1.52027e-11
3.62901e-11
1.235e-11
3.30306e-11
1.43382e-11
3.25318e-11
1.77438e-11
3.21524e-11
2.63648e-11
2.67784e-11
2.72513e-11
-5.97569e-13
2.33326e-11
-2.77948e-11
-1.31414e-11
-8.38212e-10
-1.87927e-10
6.03377e-10
3.14123e-10
-3.04364e-10
-5.90375e-10
-5.07139e-10
-3.55122e-10
-2.08846e-10
-1.30342e-10
-6.17185e-11
-4.40891e-11
-1.24234e-11
-1.52952e-11
6.34806e-12
-3.35842e-12
1.63081e-11
5.03665e-12
2.16131e-11
5.53786e-12
2.40085e-11
1.00943e-11
2.84716e-11
1.10921e-11
2.99333e-11
1.29463e-11
3.27322e-11
1.52941e-11
3.5056e-11
1.53267e-11
3.59556e-11
1.66784e-11
3.87365e-11
1.94863e-11
4.05496e-11
1.76065e-11
3.96503e-11
1.8027e-11
4.0801e-11
1.87912e-11
4.102e-11
1.72022e-11
3.89776e-11
1.71881e-11
3.85623e-11
1.53619e-11
3.61961e-11
1.2525e-11
3.29366e-11
1.45683e-11
3.24657e-11
1.7991e-11
3.21303e-11
2.66669e-11
2.68479e-11
2.75191e-11
-4.36359e-13
2.33978e-11
-2.48811e-11
-5.22665e-12
-8.53661e-10
-2.06903e-10
6.36271e-10
3.19883e-10
-3.13692e-10
-5.92926e-10
-5.08036e-10
-3.55079e-10
-2.08759e-10
-1.30479e-10
-6.19445e-11
-4.45234e-11
-1.28065e-11
-1.57099e-11
6.06246e-12
-3.70058e-12
1.6091e-11
4.79749e-12
2.14936e-11
5.30642e-12
2.38807e-11
9.92545e-12
2.84127e-11
1.09349e-11
2.98767e-11
1.28303e-11
3.27105e-11
1.51955e-11
3.50538e-11
1.52293e-11
3.59504e-11
1.66041e-11
3.8749e-11
1.9434e-11
4.05854e-11
1.75327e-11
3.96597e-11
1.79902e-11
4.08381e-11
1.87671e-11
4.1071e-11
1.71806e-11
3.89766e-11
1.70708e-11
3.85424e-11
1.53781e-11
3.6293e-11
1.25915e-11
3.30035e-11
1.46964e-11
3.25889e-11
1.81339e-11
3.2268e-11
2.6853e-11
2.71335e-11
2.76853e-11
5.75112e-14
2.24155e-11
-2.17214e-11
8.81128e-12
-8.80011e-10
-2.21044e-10
6.71295e-10
3.0592e-10
-3.23674e-10
-5.89557e-10
-5.07868e-10
-3.5483e-10
-2.08327e-10
-1.30282e-10
-6.19488e-11
-4.49321e-11
-1.32535e-11
-1.62324e-11
5.69574e-12
-4.13956e-12
1.57922e-11
4.48689e-12
2.13491e-11
5.00421e-12
2.36871e-11
9.6967e-12
2.83379e-11
1.07294e-11
2.97877e-11
1.26755e-11
3.26756e-11
1.50694e-11
3.50558e-11
1.51035e-11
3.59361e-11
1.6505e-11
3.87615e-11
1.9367e-11
4.06497e-11
1.74399e-11
3.96646e-11
1.79362e-11
4.08935e-11
1.87335e-11
4.11569e-11
1.71561e-11
3.89909e-11
1.68916e-11
3.84963e-11
1.53567e-11
3.64668e-11
1.26607e-11
3.31198e-11
1.48084e-11
3.28223e-11
1.82186e-11
3.25541e-11
2.68882e-11
2.78074e-11
2.74219e-11
1.38402e-12
1.94618e-11
-1.51942e-11
2.27814e-11
-9.13974e-10
-2.19257e-10
7.02682e-10
2.6187e-10
-3.32457e-10
-5.74599e-10
-5.05429e-10
-3.54652e-10
-2.07723e-10
-1.29703e-10
-6.16916e-11
-4.528e-11
-1.37884e-11
-1.68555e-11
5.21374e-12
-4.67497e-12
1.53757e-11
4.11155e-12
2.11449e-11
4.64315e-12
2.33927e-11
9.41759e-12
2.82143e-11
1.04941e-11
2.96289e-11
1.24976e-11
3.25945e-11
1.4935e-11
3.50265e-11
1.49733e-11
3.5874e-11
1.6402e-11
3.8737e-11
1.93146e-11
4.07065e-11
1.73597e-11
3.96235e-11
1.78922e-11
4.09291e-11
1.87203e-11
4.12426e-11
1.71654e-11
3.89942e-11
1.6691e-11
3.83528e-11
1.53152e-11
3.66787e-11
1.27702e-11
3.32475e-11
1.49037e-11
3.31455e-11
1.82191e-11
3.30113e-11
2.66855e-11
2.89717e-11
2.64934e-11
3.87749e-12
1.41777e-11
-4.3358e-12
3.34682e-11
-9.53455e-10
-1.92336e-10
7.30521e-10
1.81228e-10
-3.41064e-10
-5.44971e-10
-4.99311e-10
-3.5483e-10
-2.07205e-10
-1.28811e-10
-6.12101e-11
-4.55828e-11
-1.44345e-11
-1.75961e-11
4.60248e-12
-5.31399e-12
1.48329e-11
3.66187e-12
2.08729e-11
4.22943e-12
2.29943e-11
9.08653e-12
2.80342e-11
1.02326e-11
2.93964e-11
1.22948e-11
3.24622e-11
1.47944e-11
3.49595e-11
1.48425e-11
3.57567e-11
1.62971e-11
3.86698e-11
1.92778e-11
4.07454e-11
1.72992e-11
3.95275e-11
1.78585e-11
4.0936e-11
1.87318e-11
4.13204e-11
1.72209e-11
3.89882e-11
1.64711e-11
3.80751e-11
1.52398e-11
3.69183e-11
1.29189e-11
3.33901e-11
1.49595e-11
3.3571e-11
1.80867e-11
3.36857e-11
2.61275e-11
3.07486e-11
2.46892e-11
7.84628e-12
6.33687e-12
1.10741e-11
3.9918e-11
-9.99285e-10
-1.34994e-10
7.57935e-10
6.18436e-11
-3.52683e-10
-4.99345e-10
-4.88072e-10
-3.55432e-10
-2.07018e-10
-1.27684e-10
-6.05262e-11
-4.58648e-11
-1.5217e-11
-1.84762e-11
3.8427e-12
-6.0649e-12
1.41564e-11
3.12867e-12
2.0525e-11
3.76702e-12
2.24937e-11
8.70227e-12
2.77946e-11
9.95129e-12
2.90905e-11
1.20691e-11
3.2278e-11
1.46516e-11
3.48501e-11
1.4717e-11
3.55826e-11
1.61934e-11
3.85567e-11
1.92593e-11
4.07606e-11
1.72661e-11
3.93757e-11
1.78377e-11
4.09093e-11
1.87723e-11
4.13873e-11
1.73299e-11
3.89878e-11
1.62286e-11
3.76327e-11
1.51176e-11
3.71897e-11
1.31011e-11
3.35595e-11
1.4941e-11
3.41166e-11
1.77688e-11
3.46315e-11
2.51241e-11
3.32274e-11
2.18687e-11
1.33952e-11
-3.85369e-12
3.03798e-11
4.26691e-11
-1.05218e-09
-4.64409e-11
7.88437e-10
-9.28568e-11
-3.70583e-10
-4.38424e-10
-4.70533e-10
-3.56353e-10
-2.07365e-10
-1.26397e-10
-5.96633e-11
-4.61437e-11
-1.61546e-11
-1.95177e-11
2.91125e-12
-6.93789e-12
1.33333e-11
2.50157e-12
2.00842e-11
3.25644e-12
2.18907e-11
8.26291e-12
2.74861e-11
9.65354e-12
2.87102e-11
1.18227e-11
3.20387e-11
1.45101e-11
3.46947e-11
1.46026e-11
3.53509e-11
1.60956e-11
3.83962e-11
1.92629e-11
4.07434e-11
1.72674e-11
3.91677e-11
1.78301e-11
4.08469e-11
1.88431e-11
4.14434e-11
1.74962e-11
3.9018e-11
1.59513e-11
3.70067e-11
1.49341e-11
3.74964e-11
1.33027e-11
3.37736e-11
1.4816e-11
3.48038e-11
1.7221e-11
3.58859e-11
2.362e-11
3.64194e-11
1.80693e-11
2.03693e-11
-1.57218e-11
5.19758e-11
4.34391e-11
-1.11158e-09
6.82009e-11
8.25406e-10
-2.75232e-10
-3.9778e-10
-3.64814e-10
-4.45897e-10
-3.57279e-10
-2.08425e-10
-1.25048e-10
-5.86477e-11
-4.64273e-11
-1.72638e-11
-2.07264e-11
1.79763e-12
-7.94053e-12
1.23558e-11
1.77078e-12
1.9533e-11
2.69564e-12
2.11828e-11
7.76647e-12
2.7097e-11
9.33888e-12
2.82529e-11
1.15563e-11
3.17404e-11
1.43709e-11
3.44875e-11
1.45029e-11
3.5061e-11
1.60068e-11
3.81876e-11
1.92901e-11
4.06882e-11
1.73065e-11
3.89079e-11
1.78367e-11
4.07477e-11
1.89437e-11
4.14936e-11
1.7718e-11
3.91078e-11
1.56241e-11
3.61791e-11
1.46875e-11
3.78469e-11
1.35053e-11
3.4052e-11
1.45605e-11
3.56431e-11
1.6429e-11
3.74561e-11
2.16275e-11
4.02424e-11
1.34749e-11
2.83555e-11
-2.83097e-11
7.39493e-11
4.43047e-11
-1.17599e-09
2.00041e-10
8.70369e-10
-4.75507e-10
-4.36207e-10
-2.82369e-10
-4.13941e-10
-3.57791e-10
-2.10304e-10
-1.23753e-10
-5.75083e-11
-4.67142e-11
-1.85367e-11
-2.20976e-11
4.9949e-13
-9.071e-12
1.12239e-11
9.35876e-13
1.88596e-11
2.08244e-12
2.0372e-11
7.2116e-12
2.6618e-11
9.00541e-12
2.77176e-11
1.12687e-11
3.13782e-11
1.4235e-11
3.42227e-11
1.44163e-11
3.47134e-11
1.59265e-11
3.79303e-11
1.93403e-11
4.05896e-11
1.73835e-11
3.86007e-11
1.78567e-11
4.06122e-11
1.9072e-11
4.15354e-11
1.79939e-11
3.92895e-11
1.52253e-11
3.51388e-11
1.43739e-11
3.82472e-11
1.36918e-11
3.44102e-11
1.41642e-11
3.66316e-11
1.54013e-11
3.93117e-11
1.9229e-11
4.45242e-11
8.41283e-12
3.67965e-11
-4.05493e-11
9.44915e-11
4.6948e-11
-1.24249e-09
3.39836e-10
9.23018e-10
-6.82131e-10
-4.86569e-10
-1.95664e-10
-3.75001e-10
-3.57388e-10
-2.13036e-10
-1.22642e-10
-5.62986e-11
-4.69985e-11
-1.99615e-11
-2.36208e-11
-9.78705e-13
-1.0323e-11
9.9424e-12
-2.85963e-15
1.80588e-11
1.41817e-12
1.9461e-11
6.5997e-12
2.60439e-11
8.6509e-12
2.71046e-11
1.09587e-11
3.09489e-11
1.40993e-11
3.3897e-11
1.43415e-11
3.43094e-11
1.58549e-11
3.76234e-11
1.94114e-11
4.04436e-11
1.74943e-11
3.8252e-11
1.78888e-11
4.04407e-11
1.92236e-11
4.15709e-11
1.8318e-11
3.95921e-11
1.47322e-11
3.38887e-11
1.39937e-11
3.86978e-11
1.38517e-11
3.48485e-11
1.36337e-11
3.77423e-11
1.41747e-11
4.1376e-11
1.65565e-11
4.90321e-11
3.26165e-12
4.50909e-11
-5.14753e-11
1.12211e-10
5.2432e-11
-1.30735e-09
4.7819e-10
9.81392e-10
-8.85187e-10
-5.47979e-10
-1.09076e-10
-3.29908e-10
-3.55552e-10
-2.1656e-10
-1.21855e-10
-5.50785e-11
-4.72771e-11
-2.15212e-11
-2.5282e-11
-2.62943e-12
-1.16887e-11
8.5162e-12
-1.04021e-12
1.71278e-11
7.03873e-13
1.8455e-11
5.9342e-12
2.53708e-11
8.27288e-12
2.64156e-11
1.06259e-11
3.04503e-11
1.39622e-11
3.35085e-11
1.42761e-11
3.3852e-11
1.57903e-11
3.72674e-11
1.94992e-11
4.02502e-11
1.76341e-11
3.78662e-11
1.79292e-11
4.02323e-11
1.93923e-11
4.15988e-11
1.86767e-11
4.00447e-11
1.41436e-11
3.24368e-11
1.35598e-11
3.91924e-11
1.39786e-11
3.53557e-11
1.29949e-11
3.8942e-11
1.28088e-11
4.35454e-11
1.37777e-11
5.35107e-11
-1.58275e-12
5.26949e-11
-6.03269e-11
1.26216e-10
6.11679e-11
-1.36692e-09
6.07128e-10
1.04285e-09
-1.07603e-09
-6.18565e-10
-2.66455e-11
-2.79846e-10
-3.51773e-10
-2.20708e-10
-1.21516e-10
-5.39276e-11
-4.7549e-11
-2.31939e-11
-2.70633e-11
-4.44181e-12
-1.31597e-11
6.95486e-12
-2.1714e-12
1.60678e-11
-5.79655e-14
1.73617e-11
5.21963e-12
2.45985e-11
7.8701e-12
2.56546e-11
1.02711e-11
2.9883e-11
1.38212e-11
3.30583e-11
1.42169e-11
3.33442e-11
1.57304e-11
3.68632e-11
1.95996e-11
4.00084e-11
1.77975e-11
3.7449e-11
1.79758e-11
3.99878e-11
1.95732e-11
4.16125e-11
1.9056e-11
4.06578e-11
1.3475e-11
3.0812e-11
1.30901e-11
3.97123e-11
1.40743e-11
3.59126e-11
1.2281e-11
4.01611e-11
1.13901e-11
4.5702e-11
1.10726e-11
5.77057e-11
-5.78515e-12
5.91852e-11
-6.66246e-11
1.36174e-10
7.28121e-11
-1.41811e-09
7.20894e-10
1.1043e-09
-1.24828e-09
-6.95787e-10
4.83617e-11
-2.26275e-10
-3.45616e-10
-2.25238e-10
-1.21727e-10
-5.29304e-11
-4.78184e-11
-2.49569e-11
-2.89447e-11
-6.40295e-12
-1.47234e-11
5.26956e-12
-3.38688e-12
1.48827e-11
-8.64309e-13
1.61898e-11
4.4607e-12
2.37284e-11
7.44171e-12
2.48265e-11
9.89576e-12
2.92484e-11
1.3674e-11
3.25485e-11
1.41611e-11
3.279e-11
1.5674e-11
3.64135e-11
1.97084e-11
3.97186e-11
1.79787e-11
3.7006e-11
1.80281e-11
3.97069e-11
1.97631e-11
4.16014e-11
1.94399e-11
4.14107e-11
1.27828e-11
2.90859e-11
1.26088e-11
4.02296e-11
1.415e-11
3.64929e-11
1.15365e-11
4.13399e-11
1.00095e-11
4.77259e-11
8.61684e-12
6.13994e-11
-9.08682e-12
6.42875e-11
-7.01658e-11
1.42212e-10
8.65679e-11
-1.45857e-09
8.16018e-10
1.16237e-09
-1.39726e-09
-7.76531e-10
1.13477e-10
-1.70834e-10
-3.36784e-10
-2.29868e-10
-1.22567e-10
-5.21823e-11
-4.80972e-11
-2.67862e-11
-3.09061e-11
-8.49905e-12
-1.63709e-11
3.47143e-12
-4.67827e-12
1.35782e-11
-1.71267e-12
1.49471e-11
3.66264e-12
2.27648e-11
6.98679e-12
2.39369e-11
9.5013e-12
2.85492e-11
1.35183e-11
3.19813e-11
1.41061e-11
3.21943e-11
1.562e-11
3.59211e-11
1.9822e-11
3.93823e-11
1.81732e-11
3.65412e-11
1.80862e-11
3.93893e-11
1.99599e-11
4.15503e-11
1.98058e-11
4.22205e-11
1.21722e-11
2.7404e-11
1.21452e-11
4.07045e-11
1.42203e-11
3.70638e-11
1.08155e-11
4.24138e-11
8.75476e-12
4.95036e-11
6.55469e-12