/*--------------------------------*- C++ -*----------------------------------*\
| =========                 |                                                 |
| \\      /  F ield         | OpenFOAM: The Open Source CFD Toolbox           |
|  \\    /   O peration     | Version:  2312                                  |
|   \\  /    A nd           | Website:  www.openfoam.com                      |
|    \\/     M anipulation  |                                                 |
\*---------------------------------------------------------------------------*/
FoamFile
{
    version     2.0;
    format      ascii;
    arch        "LSB;label=32;scalar=64";
    class       volScalarField;
    location    "1000";
    object      pPrime2Mean;
}
// * * * * * * * * * * * * * * * * * * * * * * * * * * * * * * * * * * * * * //

dimensions      [0 4 -4 0 0 0 0];

internalField   nonuniform List<scalar> 
144000
(
2.67363e-18
3.10938e-18
2.9219e-18
2.4541e-18
1.74184e-18
1.21967e-18
8.98426e-19
6.62533e-19
4.92237e-19
4.05243e-19
3.79308e-19
3.42913e-19
2.93407e-19
2.34852e-19
1.9723e-19
1.65513e-19
1.52552e-19
1.30099e-19
1.21557e-19
1.07337e-19
9.74302e-20
7.99388e-20
8.13973e-20
6.09269e-20
6.48645e-20
5.05224e-20
5.15934e-20
4.13158e-20
4.13563e-20
3.20494e-20
3.41994e-20
2.46188e-20
2.85134e-20
2.02642e-20
2.1845e-20
2.11838e-20
1.19444e-20
2.36118e-20
8.52331e-21
1.52606e-20
1.96195e-20
2.23603e-21
3.00434e-20
7.32675e-21
2.18683e-20
3.30421e-20
1.29692e-20
4.52613e-20
3.52144e-20
3.78014e-20
6.80404e-20
5.9761e-20
8.73061e-20
1.25929e-19
1.5716e-19
2.33775e-19
3.75591e-19
6.76333e-19
1.81783e-18
1.70919e-18
2.80819e-18
3.18353e-18
2.99971e-18
2.51265e-18
1.76844e-18
1.23493e-18
9.08466e-19
6.68967e-19
4.958e-19
4.07369e-19
3.81076e-19
3.44479e-19
2.94537e-19
2.35594e-19
1.9773e-19
1.65909e-19
1.52919e-19
1.30402e-19
1.21762e-19
1.07615e-19
9.76503e-20
8.0028e-20
8.15804e-20
6.10797e-20
6.49312e-20
5.06844e-20
5.16629e-20
4.14383e-20
4.14403e-20
3.21258e-20
3.43081e-20
2.46733e-20
2.86188e-20
2.0369e-20
2.18714e-20
2.14554e-20
1.18635e-20
2.39305e-20
8.66559e-21
1.5258e-20
2.02111e-20
2.07029e-21
3.06366e-20
7.73605e-21
2.19725e-20
3.42114e-20
1.32116e-20
4.63463e-20
3.66698e-20
3.87909e-20
7.04276e-20
6.22808e-20
9.04723e-20
1.31215e-19
1.63899e-19
2.43737e-19
3.92275e-19
7.02359e-19
1.8971e-18
1.75525e-18
2.91185e-18
3.23982e-18
3.03001e-18
2.52897e-18
1.77341e-18
1.2392e-18
9.13283e-19
6.72917e-19
4.98204e-19
4.08873e-19
3.82664e-19
3.45986e-19
2.95671e-19
2.36271e-19
1.98217e-19
1.66272e-19
1.53384e-19
1.3071e-19
1.22008e-19
1.07939e-19
9.79446e-20
8.00755e-20
8.18896e-20
6.11956e-20
6.51033e-20
5.08454e-20
5.18145e-20
4.15745e-20
4.16086e-20
3.22043e-20
3.45245e-20
2.4726e-20
2.88322e-20
2.05158e-20
2.1957e-20
2.18835e-20
1.17647e-20
2.44782e-20
8.88054e-21
1.53486e-20
2.11338e-20
1.88213e-21
3.1645e-20
8.36556e-21
2.23123e-20
3.60005e-20
1.37353e-20
4.81306e-20
3.89528e-20
4.0489e-20
7.41246e-20
6.61691e-20
9.52363e-20
1.38715e-19
1.73032e-19
2.55819e-19
4.10497e-19
7.30549e-19
1.98039e-18
1.80028e-18
2.90808e-18
3.19651e-18
2.9751e-18
2.46531e-18
1.74086e-18
1.22178e-18
9.05165e-19
6.69202e-19
4.96026e-19
4.07514e-19
3.82245e-19
3.46029e-19
2.95731e-19
2.36222e-19
1.98176e-19
1.66251e-19
1.53577e-19
1.30789e-19
1.22038e-19
1.08131e-19
9.81427e-20
8.00117e-20
8.21337e-20
6.12634e-20
6.52307e-20
5.09943e-20
5.19556e-20
4.17109e-20
4.17733e-20
3.22857e-20
3.47596e-20
2.47776e-20
2.90796e-20
2.06829e-20
2.20504e-20
2.23922e-20
1.1646e-20
2.51365e-20
9.14456e-21
1.54667e-20
2.22317e-20
1.69038e-21
3.2822e-20
9.15546e-21
2.27104e-20
3.80961e-20
1.44015e-20
5.01641e-20
4.16339e-20
4.2425e-20
7.82206e-20
7.05202e-20
1.00176e-19
1.46406e-19
1.8169e-19
2.65759e-19
4.2332e-19
7.38184e-19
2.03738e-18
1.78647e-18
2.80207e-18
3.09392e-18
2.84749e-18
2.32214e-18
1.673e-18
1.18222e-18
8.82615e-19
6.56133e-19
4.87795e-19
4.01908e-19
3.7845e-19
3.43388e-19
2.93854e-19
2.34868e-19
1.9719e-19
1.6552e-19
1.53183e-19
1.304e-19
1.21646e-19
1.07974e-19
9.8074e-20
7.97475e-20
8.2163e-20
6.12102e-20
6.52412e-20
5.10587e-20
5.20287e-20
4.17987e-20
4.18837e-20
3.23357e-20
3.49644e-20
2.48077e-20
2.93097e-20
2.08393e-20
2.21165e-20
2.29059e-20
1.15116e-20
2.57855e-20
9.42642e-21
1.55678e-20
2.33354e-20
1.51961e-21
3.39384e-20
1.0005e-20
2.30543e-20
4.01492e-20
1.50989e-20
5.20188e-20
4.42621e-20
4.42124e-20
8.19188e-20
7.45404e-20
1.04234e-19
1.52629e-19
1.88169e-19
2.71413e-19
4.30063e-19
7.24734e-19
2.07986e-18
1.73497e-18
2.66733e-18
3.04202e-18
2.69138e-18
2.13256e-18
1.58326e-18
1.12865e-18
8.48607e-19
6.34914e-19
4.74029e-19
3.9213e-19
3.71056e-19
3.37755e-19
2.8973e-19
2.31948e-19
1.95071e-19
1.6392e-19
1.52052e-19
1.29419e-19
1.20724e-19
1.07341e-19
9.76231e-20
7.92167e-20
8.18893e-20
6.0964e-20
6.50862e-20
5.09844e-20
5.19951e-20
4.18031e-20
4.19035e-20
3.23291e-20
3.50996e-20
2.47943e-20
2.94813e-20
2.09589e-20
2.2128e-20
2.33655e-20
1.13618e-20
2.63596e-20
9.69212e-21
1.56359e-20
2.43242e-20
1.38142e-21
3.48691e-20
1.08109e-20
2.3305e-20
4.18943e-20
1.57453e-20
5.35008e-20
4.64948e-20
4.57015e-20
8.47853e-20
7.78268e-20
1.07143e-19
1.57029e-19
1.92246e-19
2.73631e-19
4.3227e-19
6.97307e-19
2.13846e-18
1.69845e-18
2.53951e-18
3.11307e-18
2.53364e-18
1.9233e-18
1.47816e-18
1.06508e-18
8.05666e-19
6.0714e-19
4.55675e-19
3.78831e-19
3.60468e-19
3.29333e-19
2.83451e-19
2.27508e-19
1.91845e-19
1.61473e-19
1.5018e-19
1.27833e-19
1.19272e-19
1.06205e-19
9.6763e-20
7.83966e-20
8.12759e-20
6.04815e-20
6.47334e-20
5.07496e-20
5.1817e-20
4.17086e-20
4.18095e-20
3.22518e-20
3.51405e-20
2.47284e-20
2.95678e-20
2.10281e-20
2.20718e-20
2.37379e-20
1.11972e-20
2.68148e-20
9.91771e-21
1.5675e-20
2.51417e-20
1.27416e-21
3.55868e-20
1.1504e-20
2.34771e-20
4.32595e-20
1.62802e-20
5.46107e-20
4.82037e-20
4.68878e-20
8.68222e-20
8.02699e-20
1.09014e-19
1.59704e-19
1.94125e-19
2.73428e-19
4.30838e-19
6.61115e-19
2.22455e-18
1.71904e-18
2.43236e-18
3.33468e-18
2.3864e-18
1.71456e-18
1.36047e-18
9.93736e-19
7.55674e-19
5.74083e-19
4.33694e-19
3.62737e-19
3.47276e-19
3.1862e-19
2.75356e-19
2.21741e-19
1.87636e-19
1.58266e-19
1.4764e-19
1.25713e-19
1.1736e-19
1.04618e-19
9.55313e-20
7.73047e-20
8.03436e-20
5.97683e-20
6.41715e-20
5.03592e-20
5.1483e-20
4.15167e-20
4.1597e-20
3.2104e-20
3.50799e-20
2.46128e-20
2.95593e-20
2.10486e-20
2.19448e-20
2.40161e-20
1.10218e-20
2.71537e-20
1.01026e-20
1.56857e-20
2.58083e-20
1.18536e-21
3.61187e-20
1.20809e-20
2.35891e-20
4.42986e-20
1.66799e-20
5.54722e-20
4.94295e-20
4.78118e-20
8.82235e-20
8.19633e-20
1.10035e-19
1.61002e-19
1.94039e-19
2.71589e-19
4.25901e-19
6.20285e-19
2.33513e-18
1.80982e-18
2.35119e-18
3.68092e-18
2.2565e-18
1.52295e-18
1.23396e-18
9.17041e-19
7.00752e-19
5.37287e-19
4.09239e-19
3.44669e-19
3.32226e-19
3.06203e-19
2.65887e-19
2.14942e-19
1.82634e-19
1.54429e-19
1.44539e-19
1.23154e-19
1.15078e-19
1.02672e-19
9.4003e-20
7.59884e-20
7.91465e-20
5.88611e-20
6.34041e-20
4.98339e-20
5.09949e-20
4.12371e-20
4.12726e-20
3.18972e-20
3.49253e-20
2.44584e-20
2.94601e-20
2.10326e-20
2.17502e-20
2.4216e-20
1.08399e-20
2.73865e-20
1.02697e-20
1.5658e-20
2.63817e-20
1.09503e-21
3.65176e-20
1.25841e-20
2.36147e-20
4.51383e-20
1.69123e-20
5.61301e-20
5.0276e-20
4.842e-20
8.91111e-20
8.29011e-20
1.10161e-19
1.61057e-19
1.91982e-19
2.68019e-19
4.16803e-19
5.77886e-19
2.45506e-18
1.9485e-18
2.29376e-18
4.08561e-18
2.14939e-18
1.35651e-18
1.1046e-18
8.37601e-19
6.43344e-19
4.9841e-19
3.83431e-19
3.25492e-19
3.16008e-19
2.92668e-19
2.55512e-19
2.07443e-19
1.77074e-19
1.50134e-19
1.41011e-19
1.20252e-19
1.12516e-19
1.00463e-19
9.22756e-20
7.45079e-20
7.77565e-20
5.78206e-20
6.24494e-20
4.92102e-20
5.03654e-20
4.08826e-20
4.08477e-20
3.1647e-20
3.46885e-20
2.42777e-20
2.9278e-20
2.0997e-20
2.14884e-20
2.43523e-20
1.06558e-20
2.751e-20
1.04531e-20
1.55569e-20
2.69219e-20
9.8433e-22
3.67699e-20
1.30725e-20
2.34676e-20
4.5843e-20
1.69354e-20
5.64971e-20
5.07876e-20
4.85271e-20
8.93803e-20
8.29906e-20
1.09112e-19
1.59636e-19
1.87474e-19
2.61893e-19
4.01376e-19
5.3439e-19
2.56076e-18
2.08241e-18
2.2484e-18
4.4462e-18
2.06737e-18
1.21364e-18
9.79e-19
7.58242e-19
5.85895e-19
4.59053e-19
3.5738e-19
3.06007e-19
2.99283e-19
2.78578e-19
2.44655e-19
1.99559e-19
1.71194e-19
1.45563e-19
1.37194e-19
1.17125e-19
1.09746e-19
9.80674e-20
9.04354e-20
7.2925e-20
7.62364e-20
5.67164e-20
6.13396e-20
4.8517e-20
4.96167e-20
4.04611e-20
4.03379e-20
3.13667e-20
3.43786e-20
2.40823e-20
2.90186e-20
2.09529e-20
2.11598e-20
2.44345e-20
1.04732e-20
2.75055e-20
1.06822e-20
1.53394e-20
2.74525e-20
8.42201e-22
3.68149e-20
1.35789e-20
2.30526e-20
4.63702e-20
1.67053e-20
5.63991e-20
5.09146e-20
4.79419e-20
8.88387e-20
8.20351e-20
1.06509e-19
1.56397e-19
1.80184e-19
2.52384e-19
3.78931e-19
4.89576e-19
2.62184e-18
2.15873e-18
2.20035e-18
4.6809e-18
2.00796e-18
1.08883e-18
8.62578e-19
6.81336e-19
5.30446e-19
4.20528e-19
3.31941e-19
2.86867e-19
2.82601e-19
2.64389e-19
2.33667e-19
1.91558e-19
1.65193e-19
1.40873e-19
1.3322e-19
1.13868e-19
1.0684e-19
9.55519e-20
8.85396e-20
7.12948e-20
7.46341e-20
5.56095e-20
6.01139e-20
4.7785e-20
4.87748e-20
3.99804e-20
3.97559e-20
3.1065e-20
3.4e-20
2.38809e-20
2.869e-20
2.09061e-20
2.07626e-20
2.4459e-20
1.02972e-20
2.73444e-20
1.09629e-20
1.49727e-20
2.79619e-20
6.70076e-22
3.65924e-20
1.40971e-20
2.22939e-20
4.66486e-20
1.62063e-20
5.57117e-20
5.06113e-20
4.65791e-20
8.73591e-20
7.99759e-20
1.02301e-19
1.51262e-19
1.70198e-19
2.3927e-19
3.50282e-19
4.4385e-19
2.61733e-18
2.14237e-18
2.13347e-18
4.73775e-18
1.96261e-18
9.74802e-19
7.58728e-19
6.08625e-19
4.78587e-19
3.83792e-19
3.07702e-19
2.68551e-19
2.66395e-19
2.50467e-19
2.22837e-19
1.83631e-19
1.59225e-19
1.36196e-19
1.29203e-19
1.10576e-19
1.03875e-19
9.29742e-20
8.66259e-20
6.96627e-20
7.29854e-20
5.45438e-20
5.88192e-20
4.70393e-20
4.78736e-20
3.94506e-20
3.91158e-20
3.07456e-20
3.35553e-20
2.36809e-20
2.82961e-20
2.08554e-20
2.03054e-20
2.44157e-20
1.01332e-20
2.70098e-20
1.12846e-20
1.44654e-20
2.84577e-20
4.80704e-22
3.60908e-20
1.46056e-20
2.12092e-20
4.6628e-20
1.54664e-20
5.44101e-20
4.98795e-20
4.44644e-20
8.49806e-20
7.69338e-20
9.66678e-20
1.44486e-19
1.58097e-19
2.23157e-19
3.17437e-19
3.97995e-19
2.53739e-18
2.02494e-18
2.0368e-18
4.60608e-18
1.92091e-18
8.66156e-19
6.68771e-19
5.41241e-19
4.31199e-19
3.49491e-19
2.85012e-19
2.5137e-19
2.50962e-19
2.37089e-19
2.12364e-19
1.75943e-19
1.53409e-19
1.31636e-19
1.25236e-19
1.07333e-19
1.00919e-19
9.03855e-20
8.47167e-20
6.80635e-20
7.13158e-20
5.3544e-20
5.74933e-20
4.63003e-20
4.69428e-20
3.88857e-20
3.84328e-20
3.04134e-20
3.30499e-20
2.34875e-20
2.78449e-20
2.07985e-20
1.98036e-20
2.43008e-20
9.98662e-21
2.65113e-20
1.16292e-20
1.38423e-20
2.89827e-20
2.94881e-22
3.53844e-20
1.50921e-20
1.98593e-20
4.63055e-20
1.4554e-20
5.25698e-20
4.88053e-20
4.1761e-20
8.18816e-20
7.31687e-20
9.00167e-20
1.36542e-19
1.44748e-19
2.05123e-19
2.8322e-19
3.53253e-19
2.38711e-18
1.82478e-18
1.90458e-18
4.31015e-18
1.87186e-18
7.60805e-19
5.92219e-19
4.79823e-19
3.88624e-19
3.17999e-19
2.64034e-19
2.35478e-19
2.36496e-19
2.2442e-19
2.02377e-19
1.68597e-19
1.47809e-19
1.27258e-19
1.21384e-19
1.04193e-19
9.80251e-20
8.78332e-20
8.28297e-20
6.65228e-20
6.96453e-20
5.26188e-20
5.61667e-20
4.55824e-20
4.60058e-20
3.83028e-20
3.77237e-20
3.00751e-20
3.2494e-20
2.33051e-20
2.7349e-20
2.07341e-20
1.92782e-20
2.41186e-20
9.86518e-21
2.58736e-20
1.19869e-20
1.31238e-20
2.96731e-20
1.39093e-22
3.46609e-20
1.55641e-20
1.83245e-20
4.5725e-20
1.35576e-20
5.02997e-20
4.75084e-20
3.86739e-20
7.82911e-20
6.89921e-20
8.28025e-20
1.27972e-19
1.31063e-19
1.86364e-19
2.5004e-19
3.10729e-19
2.18025e-18
1.57334e-18
1.73849e-18
3.89658e-18
1.80674e-18
6.59684e-19
5.27388e-19
4.24648e-19
3.50828e-19
2.89467e-19
2.44781e-19
2.20911e-19
2.23069e-19
2.12552e-19
1.92954e-19
1.61637e-19
1.42462e-19
1.23099e-19
1.17689e-19
1.01192e-19
9.52314e-20
8.53573e-20
8.09777e-20
6.50584e-20
6.7991e-20
5.17675e-20
5.48613e-20
4.48947e-20
4.50824e-20
3.772e-20
3.70042e-20
2.97384e-20
3.19017e-20
2.31357e-20
2.6825e-20
2.06622e-20
1.87515e-20
2.38792e-20
9.77658e-21
2.51318e-20
1.23495e-20
1.23338e-20
3.07595e-20
3.82297e-23
3.42368e-20
1.60362e-20
1.66871e-20
4.49503e-20
1.25615e-20
4.77452e-20
4.61104e-20
3.54014e-20
7.4436e-20
6.46884e-20
7.54371e-20
1.1925e-19
1.17809e-19
1.67915e-19
2.19583e-19
2.71093e-19
1.93742e-18
1.3071e-18
1.54532e-18
3.41598e-18
1.719e-18
5.65088e-19
4.71988e-19
3.75694e-19
3.17497e-19
2.63865e-19
2.27175e-19
2.07614e-19
2.1069e-19
2.0152e-19
1.8412e-19
1.55083e-19
1.37387e-19
1.1918e-19
1.14172e-19
9.83465e-20
9.25603e-20
8.29868e-20
7.91712e-20
6.36813e-20
6.63661e-20
5.09847e-20
5.35903e-20
4.42419e-20
4.4187e-20
3.71512e-20
3.62883e-20
2.94109e-20
3.12888e-20
2.29806e-20
2.62881e-20
2.0586e-20
1.82374e-20
2.36011e-20
9.71291e-21
2.43403e-20
1.26675e-20
1.15621e-20
3.13256e-20
5.55103e-28
3.35512e-20
1.64199e-20
1.50325e-20
4.40363e-20
1.16322e-20
4.50296e-20
4.47077e-20
3.21066e-20
7.05038e-20
6.04768e-20
6.8233e-20
1.10761e-19
1.05478e-19
1.50475e-19
1.92751e-19
2.34716e-19
1.67885e-18
1.05395e-18
1.33772e-18
2.9166e-18
1.60681e-18
4.79697e-19
4.23748e-19
3.32741e-19
2.88177e-19
2.41066e-19
2.11099e-19
1.95492e-19
1.9932e-19
1.91315e-19
1.75875e-19
1.48933e-19
1.32584e-19
1.15501e-19
1.10843e-19
9.56637e-20
9.00226e-20
8.07411e-20
7.74172e-20
6.23967e-20
6.47872e-20
5.02637e-20
5.2366e-20
4.36255e-20
4.33278e-20
3.66065e-20
3.55869e-20
2.90988e-20
3.067e-20
2.28403e-20
2.57514e-20
2.05099e-20
1.77445e-20
2.33039e-20
9.66301e-21
2.35469e-20
1.28953e-20
1.08828e-20
3.00815e-20
3.46688e-23
3.15351e-20
1.66434e-20
1.3428e-20
4.30338e-20
1.0816e-20
4.22482e-20
4.33664e-20
2.89096e-20
6.66209e-20
5.65058e-20
6.14011e-20
1.02736e-19
9.4379e-20
1.34449e-19
1.69722e-19
2.0188e-19
1.4237e-18
8.33751e-19
1.12999e-18
2.4371e-18
1.47219e-18
4.05691e-19
3.80769e-19
2.9542e-19
2.62394e-19
2.2089e-19
1.96429e-19
1.84429e-19
1.88894e-19
1.81903e-19
1.68199e-19
1.43179e-19
1.28045e-19
1.12055e-19
1.07699e-19
9.314e-20
8.762e-20
7.86296e-20
7.57204e-20
6.12048e-20
6.32623e-20
4.95978e-20
5.11924e-20
4.30451e-20
4.25093e-20
3.60924e-20
3.49088e-20
2.88059e-20
3.00584e-20
2.27142e-20
2.5227e-20
2.04358e-20
1.72831e-20
2.29973e-20
9.63687e-21
2.27615e-20
1.3078e-20
1.02582e-20
2.84823e-20
1.39714e-22
2.93374e-20
1.68274e-20
1.19025e-20
4.19828e-20
1.01388e-20
3.94736e-20
4.21247e-20
2.58911e-20
6.28758e-20
5.28607e-20
5.50659e-20
9.52955e-20
8.4619e-20
1.19988e-19
1.50288e-19
1.72762e-19
1.18655e-18
6.56957e-19
9.36795e-19
2.00248e-18
1.32061e-18
3.43859e-19
3.41706e-19
2.63268e-19
2.39689e-19
2.03122e-19
1.83043e-19
1.74304e-19
1.79334e-19
1.73236e-19
1.6106e-19
1.37794e-19
1.23753e-19
1.08831e-19
1.04736e-19
9.07679e-20
8.53482e-20
7.66545e-20
7.40836e-20
6.01021e-20
6.17981e-20
4.89807e-20
5.00714e-20
4.24997e-20
4.17337e-20
3.5612e-20
3.42599e-20
2.85344e-20
2.94635e-20
2.26013e-20
2.47239e-20
2.03654e-20
1.68593e-20
2.26891e-20
9.64234e-21
2.19899e-20
1.32611e-20
9.65681e-21
2.73932e-20
3.43644e-22
2.76318e-20
1.70527e-20
1.04781e-20
4.09077e-20
9.61569e-21
3.67567e-20
4.10013e-20
2.31002e-20
5.93037e-20
4.95807e-20
4.92787e-20
8.84788e-20
7.61675e-20
1.07036e-19
1.33997e-19
1.47452e-19
9.77361e-19
5.25256e-19
7.69722e-19
1.62502e-18
1.15871e-18
2.93697e-19
3.05743e-19
2.35729e-19
2.19664e-19
1.87522e-19
1.70832e-19
1.64999e-19
1.7055e-19
1.65257e-19
1.54422e-19
1.32751e-19
1.19691e-19
1.05813e-19
1.01947e-19
8.85378e-20
8.32e-20
7.48129e-20
7.25077e-20
5.90824e-20
6.03987e-20
4.84069e-20
4.90035e-20
4.19875e-20
4.10013e-20
3.51666e-20
3.36442e-20
2.8285e-20
2.88915e-20
2.25012e-20
2.42474e-20
2.03012e-20
1.64731e-20
2.23882e-20
9.67324e-21
2.12499e-20
1.34419e-20
9.10084e-21
2.6606e-20
6.18298e-22
2.6177e-20
1.73108e-20
9.18134e-21
3.98247e-20
9.24498e-21
3.41321e-20
3.99971e-20
2.05622e-20
5.59296e-20
4.66742e-20
4.4045e-20
8.22728e-20
6.89008e-20
9.54799e-20
1.20309e-19
1.25967e-19
8.00511e-19
4.33991e-19
6.38199e-19
1.30813e-18
9.94236e-19
2.53545e-19
2.72515e-19
2.12237e-19
2.01984e-19
1.73855e-19
1.59703e-19
1.56411e-19
1.6246e-19
1.5791e-19
1.48246e-19
1.28019e-19
1.15842e-19
1.02985e-19
9.93202e-20
8.64386e-20
8.11672e-20
7.30986e-20
7.09924e-20
5.81393e-20
5.90662e-20
4.78713e-20
4.7988e-20
4.15062e-20
4.03114e-20
3.47556e-20
3.30638e-20
2.80571e-20
2.83462e-20
2.24128e-20
2.38012e-20
2.02437e-20
1.61252e-20
2.20988e-20
9.72696e-21
2.05495e-20
1.36157e-20
8.61066e-21
2.59673e-20
9.33177e-22
2.48526e-20
1.75874e-20
8.0213e-21
3.8746e-20
9.01843e-21
3.16223e-20
3.91043e-20
1.82872e-20
5.27572e-20
4.41232e-20
3.93408e-20
7.66347e-20
6.26739e-20
8.51314e-20
1.08751e-19
1.08181e-19
6.56871e-19
3.7515e-19
5.48573e-19
1.04802e-18
8.35314e-19
2.21101e-19
2.4199e-19
1.92215e-19
1.86372e-19
1.61895e-19
1.49577e-19
1.48452e-19
1.54987e-19
1.51139e-19
1.42496e-19
1.23573e-19
1.12187e-19
1.00333e-19
9.68456e-20
8.446e-20
7.92415e-20
7.15034e-20
6.95369e-20
5.72655e-20
5.78009e-20
4.73695e-20
4.70234e-20
4.10532e-20
3.96627e-20
3.43778e-20
3.25203e-20
2.78498e-20
2.78302e-20
2.23349e-20
2.33875e-20
2.01925e-20
1.58159e-20
2.18223e-20
9.80372e-21
1.98884e-20
1.37853e-20
8.1894e-21
2.54025e-20
1.27974e-21
2.36202e-20
1.78842e-20
6.99582e-21
3.76789e-20
8.92441e-21
2.92421e-20
3.83091e-20
1.62744e-20
4.97777e-20
4.19015e-20
3.51256e-20
7.15111e-20
5.73376e-20
7.58205e-20
9.8885e-20
9.38487e-20
5.44472e-19
3.39325e-19
5.04499e-19
8.37409e-19
6.89667e-19
1.93945e-19
2.14327e-19
1.75148e-19
1.72612e-19
1.51435e-19
1.4039e-19
1.41051e-19
1.48062e-19
1.44892e-19
1.37138e-19
1.19384e-19
1.08711e-19
9.78394e-20
9.45121e-20
8.25917e-20
7.74145e-20
7.00181e-20
6.81391e-20
5.64538e-20
5.66021e-20
4.68971e-20
4.61078e-20
4.0626e-20
3.90535e-20
3.40315e-20
3.20142e-20
2.76617e-20
2.7344e-20
2.22663e-20
2.30072e-20
2.01473e-20
1.55448e-20
2.15595e-20
9.90221e-21
1.92673e-20
1.39534e-20
7.83303e-21
2.48715e-20
1.65543e-21
2.24649e-20
1.81991e-20
6.10133e-21
3.66282e-20
8.94822e-21
2.70028e-20
3.75953e-20
1.45168e-20
4.69795e-20
3.99764e-20
3.13571e-20
6.68414e-20
5.27563e-20
6.73854e-20
9.03724e-20
8.27515e-20
4.59754e-19
3.16617e-19
5.06537e-19
6.65947e-19
5.63427e-19
1.69919e-19
1.89652e-19
1.60586e-19
1.60529e-19
1.42295e-19
1.32081e-19
1.34152e-19
1.41621e-19
1.3912e-19
1.32138e-19
1.15427e-19
1.05395e-19
9.54908e-20
9.2309e-20
8.08245e-20
7.56783e-20
6.86337e-20
6.67968e-20
5.56981e-20
5.54678e-20
4.64512e-20
4.52381e-20
4.02223e-20
3.84816e-20
3.37151e-20
3.15455e-20
2.74917e-20
2.68876e-20
2.22061e-20
2.26604e-20
2.01078e-20
1.53111e-20
2.13117e-20
1.002e-20
1.8688e-20
1.41199e-20
7.53764e-21
2.43656e-20
2.05718e-21
2.13816e-20
1.85258e-20
5.33342e-21
3.56015e-20
9.07427e-21
2.49131e-20
3.69511e-20
1.30031e-20
4.43566e-20
3.83165e-20
2.79984e-20
6.25804e-20
4.88256e-20
5.96952e-20
8.29422e-20
7.47003e-20
3.9786e-19
2.9761e-19
2.67914e-18
3.12065e-18
2.93251e-18
2.45997e-18
1.7454e-18
1.22144e-18
8.99956e-19
6.63991e-19
4.93458e-19
4.06048e-19
3.79761e-19
3.43136e-19
2.93477e-19
2.34836e-19
1.97152e-19
1.6543e-19
1.52467e-19
1.30063e-19
1.21541e-19
1.07332e-19
9.7436e-20
7.99489e-20
8.1421e-20
6.09317e-20
6.48852e-20
5.05225e-20
5.16135e-20
4.13209e-20
4.13832e-20
3.20448e-20
3.42198e-20
2.46079e-20
2.8521e-20
2.02531e-20
2.18477e-20
2.11772e-20
1.19499e-20
2.36091e-20
8.53358e-21
1.52595e-20
1.96414e-20
2.23086e-21
3.00488e-20
7.31484e-21
2.18866e-20
3.3084e-20
1.29599e-20
4.53229e-20
3.52176e-20
3.78679e-20
6.8064e-20
5.98287e-20
8.72579e-20
1.25959e-19
1.5701e-19
2.33589e-19
3.75219e-19
6.75276e-19
1.82569e-18
1.7141e-18
2.8136e-18
3.19547e-18
3.01039e-18
2.51892e-18
1.77197e-18
1.23669e-18
9.10005e-19
6.70417e-19
4.97022e-19
4.08171e-19
3.81524e-19
3.44698e-19
2.94604e-19
2.35575e-19
1.97648e-19
1.65822e-19
1.52833e-19
1.30364e-19
1.21746e-19
1.07609e-19
9.7656e-20
8.00379e-20
8.1604e-20
6.10839e-20
6.49516e-20
5.06842e-20
5.16831e-20
4.14438e-20
4.14674e-20
3.21216e-20
3.43286e-20
2.46628e-20
2.8626e-20
2.03585e-20
2.18737e-20
2.14494e-20
1.18685e-20
2.39282e-20
8.67552e-21
1.5257e-20
2.02343e-20
2.0651e-21
3.06433e-20
7.72357e-21
2.19914e-20
3.42552e-20
1.32027e-20
4.64089e-20
3.66746e-20
3.88572e-20
7.0453e-20
6.23479e-20
9.0419e-20
1.31237e-19
1.6374e-19
2.4354e-19
3.91822e-19
7.01278e-19
1.90508e-18
1.76016e-18
2.91873e-18
3.25224e-18
3.04055e-18
2.53532e-18
1.77681e-18
1.24079e-18
9.14725e-19
6.7435e-19
4.9941e-19
4.09669e-19
3.83107e-19
3.46196e-19
2.95733e-19
2.36246e-19
1.9813e-19
1.6618e-19
1.53293e-19
1.3067e-19
1.21992e-19
1.07932e-19
9.79499e-20
8.00852e-20
8.19134e-20
6.11991e-20
6.51233e-20
5.08446e-20
5.18349e-20
4.15808e-20
4.16368e-20
3.22006e-20
3.45454e-20
2.4716e-20
2.88392e-20
2.05062e-20
2.1959e-20
2.18784e-20
1.17693e-20
2.44771e-20
8.8905e-21
1.53475e-20
2.11591e-20
1.87678e-21
3.16549e-20
8.35121e-21
2.2333e-20
3.60478e-20
1.37277e-20
4.81949e-20
3.89601e-20
4.05576e-20
7.41551e-20
6.62414e-20
9.51898e-20
1.38758e-19
1.72883e-19
2.55637e-19
4.1003e-19
7.29891e-19
1.98825e-18
1.80584e-18
2.91541e-18
3.20952e-18
2.9847e-18
2.47126e-18
1.74395e-18
1.22303e-18
9.06509e-19
6.70565e-19
4.97213e-19
4.08291e-19
3.82675e-19
3.46228e-19
2.95781e-19
2.3619e-19
1.98082e-19
1.66152e-19
1.53481e-19
1.30746e-19
1.2202e-19
1.08122e-19
9.81465e-20
8.00211e-20
8.21574e-20
6.12663e-20
6.525e-20
5.0993e-20
5.19755e-20
4.17183e-20
4.1802e-20
3.2283e-20
3.47808e-20
2.47685e-20
2.9086e-20
2.06744e-20
2.20515e-20
2.23885e-20
1.16498e-20
2.51354e-20
9.15455e-21
1.54654e-20
2.22627e-20
1.68517e-21
3.28355e-20
9.1363e-21
2.27349e-20
3.81477e-20
1.43958e-20
5.02335e-20
4.16464e-20
4.24981e-20
7.82629e-20
7.06061e-20
1.00142e-19
1.46473e-19
1.81588e-19
2.6566e-19
4.22977e-19
7.38208e-19
2.04598e-18
1.7926e-18
2.80776e-18
3.10571e-18
2.85546e-18
2.32722e-18
1.67555e-18
1.18339e-18
8.83752e-19
6.57403e-19
4.88929e-19
4.02664e-19
3.78859e-19
3.43578e-19
2.9389e-19
2.34824e-19
1.97088e-19
1.65411e-19
1.53079e-19
1.30352e-19
1.21625e-19
1.07963e-19
9.80752e-20
7.97569e-20
8.21863e-20
6.1213e-20
6.52591e-20
5.1057e-20
5.20469e-20
4.18077e-20
4.19128e-20
3.23348e-20
3.49851e-20
2.48002e-20
2.93145e-20
2.08326e-20
2.21165e-20
2.29036e-20
1.15135e-20
2.57859e-20
9.4362e-21
1.55658e-20
2.33712e-20
1.51516e-21
3.39565e-20
9.9767e-21
2.30839e-20
4.02065e-20
1.50962e-20
5.20929e-20
4.42803e-20
4.42947e-20
8.19767e-20
7.46446e-20
1.0423e-19
1.5274e-19
1.88128e-19
2.71434e-19
4.29918e-19
7.24841e-19
2.08927e-18
1.74096e-18
2.67358e-18
3.051e-18
2.69781e-18
2.13672e-18
1.58519e-18
1.12957e-18
8.49591e-19
6.36091e-19
4.75153e-19
3.92881e-19
3.71448e-19
3.37923e-19
2.89753e-19
2.31894e-19
1.94961e-19
1.63802e-19
1.51939e-19
1.29365e-19
1.20698e-19
1.07327e-19
9.76205e-20
7.92255e-20
8.19117e-20
6.09671e-20
6.51021e-20
5.09828e-20
5.20103e-20
4.18141e-20
4.19325e-20
3.23309e-20
3.51195e-20
2.47888e-20
2.94832e-20
2.09547e-20
2.21253e-20
2.33659e-20
1.13617e-20
2.63612e-20
9.70114e-21
1.56331e-20
2.43671e-20
1.37857e-21
3.48926e-20
1.07681e-20
2.33404e-20
4.19572e-20
1.57465e-20
5.35787e-20
4.65195e-20
4.57933e-20
8.48552e-20
7.79501e-20
1.07162e-19
1.57184e-19
1.92249e-19
2.7377e-19
4.32264e-19
6.97708e-19
2.14816e-18
1.70337e-18
2.54544e-18
3.11847e-18
2.53859e-18
1.92666e-18
1.47972e-18
1.06576e-18
8.06528e-19
6.08282e-19
4.56785e-19
3.79566e-19
3.60839e-19
3.29479e-19
2.83462e-19
2.27446e-19
1.91728e-19
1.61347e-19
1.50057e-19
1.27773e-19
1.19243e-19
1.06187e-19
9.67555e-20
7.8405e-20
8.12969e-20
6.04858e-20
6.47465e-20
5.07484e-20
5.18281e-20
4.17218e-20
4.1837e-20
3.22569e-20
3.51581e-20
2.47258e-20
2.95662e-20
2.10272e-20
2.20652e-20
2.37419e-20
1.11937e-20
2.68174e-20
9.92478e-21
1.56695e-20
2.51918e-20
1.27385e-21
3.56161e-20
1.14404e-20
2.35191e-20
4.33277e-20
1.62855e-20
5.46909e-20
4.82347e-20
4.69879e-20
8.69027e-20
8.04111e-20
1.09051e-19
1.59903e-19
1.94151e-19
2.7367e-19
4.30914e-19
6.61682e-19
2.23403e-18
1.72251e-18
2.43779e-18
3.33659e-18
2.3899e-18
1.71728e-18
1.36173e-18
9.94192e-19
7.56417e-19
5.75199e-19
4.34795e-19
3.63457e-19
3.4764e-19
3.18752e-19
2.75357e-19
2.21671e-19
1.87513e-19
1.58134e-19
1.47508e-19
1.25647e-19
1.17326e-19
1.04598e-19
9.55183e-20
7.73132e-20
8.03625e-20
5.97744e-20
6.4181e-20
5.0359e-20
5.14891e-20
4.15324e-20
4.16218e-20
3.21132e-20
3.50939e-20
2.46142e-20
2.95525e-20
2.10518e-20
2.19331e-20
2.40238e-20
1.10127e-20
2.71589e-20
1.01055e-20
1.56767e-20
2.58622e-20
1.18836e-21
3.6165e-20
1.19883e-20
2.36367e-20
4.4369e-20
1.66889e-20
5.5554e-20
4.94654e-20
4.7919e-20
8.83113e-20
8.21209e-20
1.10082e-19
1.61233e-19
1.94074e-19
2.7191e-19
4.25979e-19
6.20902e-19
2.34396e-18
1.81179e-18
2.35611e-18
3.68004e-18
2.25867e-18
1.52512e-18
1.23498e-18
9.17297e-19
7.01385e-19
5.38366e-19
4.10318e-19
3.45375e-19
3.32579e-19
3.06322e-19
2.6588e-19
2.14868e-19
1.82505e-19
1.54293e-19
1.444e-19
1.23083e-19
1.1504e-19
1.02651e-19
9.39843e-20
7.5997e-20
7.91625e-20
5.88697e-20
6.34097e-20
4.9835e-20
5.09951e-20
4.12557e-20
4.12938e-20
3.19112e-20
3.49351e-20
2.44645e-20
2.94469e-20
2.10412e-20
2.17314e-20
2.42275e-20
1.08231e-20
2.73959e-20
1.0263e-20
1.5644e-20
2.6433e-20
1.10136e-21
3.65809e-20
1.24519e-20
2.36658e-20
4.52146e-20
1.69246e-20
5.62119e-20
5.03159e-20
4.85315e-20
8.92017e-20
8.30706e-20
1.10214e-19
1.61311e-19
1.92007e-19
2.68392e-19
4.16895e-19
5.78511e-19
2.46305e-18
1.94933e-18
2.29824e-18
4.08305e-18
2.15035e-18
1.35831e-18
1.10541e-18
8.37686e-19
6.43866e-19
4.99444e-19
3.84489e-19
3.26187e-19
3.16351e-19
2.92779e-19
2.55498e-19
2.07364e-19
1.76943e-19
1.49996e-19
1.40865e-19
1.20178e-19
1.12474e-19
1.0044e-19
9.22514e-20
7.45171e-20
7.77687e-20
5.78321e-20
6.24511e-20
4.9213e-20
5.03594e-20
4.09044e-20
4.08651e-20
3.16661e-20
3.46929e-20
2.42891e-20
2.92573e-20
2.10115e-20
2.14616e-20
2.43701e-20
1.06286e-20
2.75259e-20
1.04325e-20
1.55429e-20
2.69547e-20
9.93367e-22
3.68677e-20
1.28882e-20
2.35197e-20
4.59234e-20
1.69504e-20
5.65769e-20
5.08299e-20
4.86402e-20
8.94718e-20
8.3165e-20
1.09159e-19
1.59901e-19
1.87488e-19
2.62294e-19
4.01446e-19
5.34991e-19
2.56789e-18
2.08274e-18
2.25257e-18
4.4429e-18
2.0674e-18
1.21516e-18
9.79637e-19
7.58191e-19
5.86307e-19
4.60037e-19
3.58419e-19
3.06691e-19
2.99618e-19
2.78683e-19
2.44637e-19
1.99478e-19
1.71062e-19
1.45424e-19
1.37044e-19
1.17048e-19
1.09699e-19
9.80445e-20
9.0406e-20
7.29351e-20
7.62446e-20
5.67308e-20
6.1337e-20
4.8522e-20
4.96045e-20
4.04859e-20
4.03503e-20
3.13916e-20
3.4377e-20
2.40996e-20
2.89901e-20
2.09743e-20
2.11226e-20
2.44606e-20
1.04332e-20
2.75286e-20
1.06365e-20
1.53211e-20
2.74403e-20
8.52543e-22
3.69467e-20
1.33302e-20
2.3102e-20
4.64542e-20
1.67221e-20
5.64749e-20
5.09576e-20
4.80532e-20
8.89279e-20
8.22092e-20
1.06552e-19
1.56659e-19
1.80181e-19
2.5277e-19
3.78983e-19
4.90113e-19
2.62805e-18
2.15914e-18
2.20439e-18
4.67767e-18
2.00726e-18
1.09017e-18
8.63086e-19
6.81156e-19
5.3075e-19
4.21458e-19
3.32956e-19
2.87539e-19
2.82931e-19
2.6449e-19
2.33648e-19
1.91476e-19
1.6506e-19
1.40733e-19
1.33066e-19
1.13789e-19
1.06789e-19
9.55288e-20
8.8505e-20
7.1306e-20
7.46386e-20
5.56271e-20
6.01072e-20
4.77922e-20
4.87569e-20
4.0008e-20
3.97626e-20
3.10952e-20
3.39922e-20
2.39045e-20
2.86529e-20
2.09344e-20
2.07152e-20
2.44936e-20
1.02414e-20
2.73792e-20
1.08828e-20
1.49511e-20
2.78646e-20
6.80814e-22
3.67477e-20
1.37732e-20
2.23402e-20
4.67338e-20
1.6224e-20
5.57817e-20
5.06537e-20
4.66854e-20
8.74435e-20
8.01427e-20
1.02336e-19
1.51507e-19
1.70184e-19
2.3961e-19
3.50319e-19
4.44309e-19
2.62269e-18
2.14326e-18
2.13751e-18
4.73508e-18
1.96142e-18
9.75988e-19
7.59137e-19
6.08369e-19
4.78784e-19
3.84663e-19
3.0869e-19
2.69208e-19
2.66719e-19
2.50567e-19
2.22815e-19
1.83551e-19
1.59094e-19
1.36057e-19
1.29048e-19
1.10496e-19
1.0382e-19
9.29514e-20
8.65868e-20
6.96749e-20
7.29864e-20
5.45646e-20
5.88087e-20
4.70485e-20
4.785e-20
3.94808e-20
3.91171e-20
3.07808e-20
3.35416e-20
2.37104e-20
2.82505e-20
2.08908e-20
2.02471e-20
2.44591e-20
1.00603e-20
2.70591e-20
1.1163e-20
1.44326e-20
2.81863e-20
4.93156e-22
3.62324e-20
1.41999e-20
2.12476e-20
4.67114e-20
1.54848e-20
5.44736e-20
4.99201e-20
4.45626e-20
8.50582e-20
7.70887e-20
9.6697e-20
1.44703e-19
1.58074e-19
2.23427e-19
3.17465e-19
3.98373e-19
2.54198e-18
2.02639e-18
2.04093e-18
4.60419e-18
1.91949e-18
8.67192e-19
6.69104e-19
5.40932e-19
4.31297e-19
3.50296e-19
2.8597e-19
2.52011e-19
2.51274e-19
2.37184e-19
2.1234e-19
1.75867e-19
1.53277e-19
1.31497e-19
1.2508e-19
1.07252e-19
1.0086e-19
9.03634e-20
8.46738e-20
6.80767e-20
7.13135e-20
5.35676e-20
5.74793e-20
4.63112e-20
4.6914e-20
3.8918e-20
3.84288e-20
3.0453e-20
3.30308e-20
2.35226e-20
2.7792e-20
2.08404e-20
1.97359e-20
2.43522e-20
9.8983e-21
2.65745e-20
1.14624e-20
1.37928e-20
2.8378e-20
3.12318e-22
3.54236e-20
1.45989e-20
1.98852e-20
4.63865e-20
1.45727e-20
5.26253e-20
4.88433e-20
4.18495e-20
8.19522e-20
7.3308e-20
9.00401e-20
1.36723e-19
1.44721e-19
2.05307e-19
2.8324e-19
3.53544e-19
2.39105e-18
1.82673e-18
1.90881e-18
4.30896e-18
1.87042e-18
7.61679e-19
5.92493e-19
4.79486e-19
3.88633e-19
3.18735e-19
2.64957e-19
2.36102e-19
2.36801e-19
2.24512e-19
2.02352e-19
1.68521e-19
1.47679e-19
1.27121e-19
1.21227e-19
1.04113e-19
9.79635e-20
8.7812e-20
8.27834e-20
6.65367e-20
6.964e-20
5.26447e-20
5.61498e-20
4.55949e-20
4.59726e-20
3.83366e-20
3.77152e-20
3.01183e-20
3.24704e-20
2.33449e-20
2.72904e-20
2.07812e-20
1.92032e-20
2.41761e-20
9.76262e-21
2.59524e-20
1.17664e-20
1.30724e-20
2.84307e-20
1.62056e-22
3.43678e-20
1.49712e-20
1.8341e-20
4.58016e-20
1.35756e-20
5.03477e-20
4.75434e-20
3.87519e-20
7.83546e-20
6.91133e-20
8.28227e-20
1.28113e-19
1.31039e-19
1.86454e-19
2.50055e-19
3.10933e-19
2.18358e-18
1.57572e-18
1.74277e-18
3.89594e-18
1.80541e-18
6.60375e-19
5.27616e-19
4.24307e-19
3.50763e-19
2.90131e-19
2.45665e-19
2.21515e-19
2.23366e-19
2.1264e-19
1.92926e-19
1.61561e-19
1.42334e-19
1.22964e-19
1.17533e-19
1.01113e-19
9.51676e-20
8.53371e-20
8.0929e-20
6.50728e-20
6.79833e-20
5.17952e-20
5.48421e-20
4.49084e-20
4.50458e-20
3.77547e-20
3.69919e-20
2.97843e-20
3.18746e-20
2.31793e-20
2.67621e-20
2.07136e-20
1.86701e-20
2.39433e-20
9.65822e-21
2.52313e-20
1.20642e-20
1.23159e-20
2.83474e-20
6.22153e-23
3.31404e-20
1.53245e-20
1.67041e-20
4.50171e-20
1.25779e-20
4.77854e-20