/*--------------------------------*- C++ -*----------------------------------*\
| =========                 |                                                 |
| \\      /  F ield         | OpenFOAM: The Open Source CFD Toolbox           |
|  \\    /   O peration     | Version:  2312                                  |
|   \\  /    A nd           | Website:  www.openfoam.com                      |
|    \\/     M anipulation  |                                                 |
\*---------------------------------------------------------------------------*/
FoamFile
{
    version     2.0;
    format      ascii;
    arch        "LSB;label=32;scalar=64";
    class       volScalarField;
    location    "640";
    object      nut;
}
// * * * * * * * * * * * * * * * * * * * * * * * * * * * * * * * * * * * * * //

dimensions      [0 2 -1 0 0 0 0];

internalField   nonuniform List<scalar> 
144000
(
7.94608e-29
1.41645e-29
7.00841e-30
3.4673e-28
7.62906e-29
1.05109e-31
3.37083e-29
7.67285e-30
2.19796e-29
1.38397e-29
2.00928e-29
1.52227e-29
2.19646e-29
1.8692e-29
2.0315e-29
1.64989e-29
2.37256e-29
2.48067e-29
2.3822e-29
2.21393e-29
2.71126e-29
2.77808e-29
2.8194e-29
2.70806e-29
2.71957e-29
2.71403e-29
3.06256e-29
3.05295e-29
3.10952e-29
2.97361e-29
2.82078e-29
2.66026e-29
3.15186e-29
3.0949e-29
2.89511e-29
2.54817e-29
2.33336e-29
2.08366e-29
2.02797e-29
1.54092e-29
1.54248e-29
1.00594e-29
2.18912e-29
1.55836e-29
1.2324e-29
1.02118e-29
4.93555e-30
2.50206e-30
6.81563e-31
1.65877e-31
1.32114e-31
1.7054e-30
1.37034e-29
4.2182e-29
2.16681e-28
8.71954e-29
7.85694e-28
5.04374e-26
9.23696e-26
1.02634e-26
3.90142e-26
2.66449e-27
1.468e-27
3.46133e-27
4.86525e-29
2.35689e-30
6.18572e-29
2.12635e-29
3.1138e-29
4.30038e-29
2.98909e-29
4.16589e-29
3.57714e-29
4.78057e-29
3.69333e-29
3.81457e-29
4.20705e-29
5.81976e-29
4.66171e-29
4.6998e-29
5.13996e-29
6.16422e-29
5.45782e-29
5.80167e-29
5.25438e-29
5.68967e-29
5.84199e-29
6.49893e-29
6.00548e-29
6.14475e-29
5.49158e-29
5.26991e-29
5.89767e-29
6.31818e-29
5.55826e-29
4.85887e-29
4.39346e-29
3.82214e-29
3.77068e-29
3.04139e-29
3.04678e-29
2.43794e-29
4.85806e-29
2.20997e-29
2.65008e-29
1.80644e-29
1.06992e-29
3.25745e-30
1.46742e-30
1.16028e-31
1.41447e-31
6.84085e-30
2.28038e-29
1.31885e-28
3.72892e-28
4.10951e-28
9.62775e-28
1.16321e-25
5.38021e-25
6.60322e-27
1.32599e-25
1.10519e-26
1.03137e-26
3.37385e-27
2.0729e-28
1.53587e-30
8.49122e-29
3.34749e-29
4.45583e-29
5.58357e-29
4.68718e-29
5.21614e-29
5.58177e-29
6.09681e-29
5.53096e-29
5.15238e-29
6.34308e-29
7.57572e-29
6.86211e-29
6.40324e-29
7.50867e-29
8.22942e-29
7.85748e-29
7.89656e-29
7.47841e-29
7.8805e-29
8.28205e-29
8.833e-29
8.44807e-29
8.40391e-29
7.60427e-29
7.40704e-29
8.16391e-29
8.50953e-29
7.61314e-29
6.61574e-29
5.98444e-29
5.29196e-29
5.23572e-29
4.3229e-29
4.70307e-29
3.40938e-29
7.38513e-29
2.70009e-29
4.13379e-29
2.40403e-29
1.52584e-29
4.90345e-30
2.01853e-30
3.16055e-31
2.96561e-31
6.77511e-30
3.84669e-29
1.53541e-28
5.66564e-28
3.49792e-28
3.31025e-27
1.9964e-25
5.62781e-25
4.28755e-26
5.84006e-25
1.24499e-25
4.083e-26
1.39877e-26
2.08291e-28
2.42692e-30
8.53891e-29
3.89741e-29
4.55084e-29
5.57e-29
4.86314e-29
5.13628e-29
5.79352e-29
6.03359e-29
5.73348e-29
5.06269e-29
6.48188e-29
7.52752e-29
7.02743e-29
6.27556e-29
7.67203e-29
8.09869e-29
8.03127e-29
7.72959e-29
7.60693e-29
7.73914e-29
8.3315e-29
8.72838e-29
8.50083e-29
8.22184e-29
7.6422e-29
7.24405e-29
8.1023e-29
8.39327e-29
7.57203e-29
6.47548e-29
6.02953e-29
5.27856e-29
5.46342e-29
4.52875e-29
4.99737e-29
4.25558e-29
7.15671e-29
2.60078e-29
4.7466e-29
2.27881e-29
1.75889e-29
4.68061e-30
2.75114e-30
4.98101e-31
1.3626e-31
7.30693e-30
3.20128e-29
1.45418e-28
4.83302e-28
3.05648e-28
4.18064e-27
2.95841e-25
8.22123e-25
2.14614e-25
1.287e-24
6.57049e-25
7.35058e-26
4.8104e-26
4.56022e-28
5.33368e-30
9.57264e-29
4.77388e-29
4.6092e-29
5.92403e-29
4.77531e-29
5.41379e-29
5.81801e-29
6.25421e-29
5.78377e-29
5.13733e-29
6.54473e-29
7.73901e-29
7.0895e-29
6.26566e-29
7.8138e-29
8.1422e-29
8.15769e-29
7.66919e-29
7.7146e-29
7.68571e-29
8.44654e-29
8.74351e-29
8.56407e-29
8.18309e-29
7.7136e-29
7.1906e-29
8.21545e-29
8.51907e-29
7.66525e-29
6.58711e-29
6.24637e-29
5.54608e-29
5.85024e-29
4.87049e-29
5.25324e-29
4.4989e-29
6.5952e-29
3.01037e-29
5.27579e-29
2.32864e-29
2.00428e-29
5.07613e-30
3.8915e-30
9.82237e-31
5.91789e-32
7.40562e-30
2.55943e-29
1.33873e-28
3.86632e-28
2.35904e-28
5.98259e-27
4.76834e-25
1.12691e-24
9.02156e-25
1.97889e-24
2.09758e-24
8.81688e-26
1.21587e-25
1.22592e-27
1.40301e-29
1.18083e-28
5.99074e-29
5.0169e-29
6.40894e-29
4.8021e-29
5.78951e-29
5.97277e-29
6.6361e-29
5.93049e-29
5.38143e-29
6.81042e-29
8.19632e-29
7.27681e-29
6.49301e-29
8.16218e-29
8.47548e-29
8.48199e-29
7.85418e-29
8.04582e-29
7.89659e-29
8.85402e-29
9.06363e-29
8.93135e-29
8.43213e-29
8.07198e-29
7.4513e-29
8.75386e-29
9.0384e-29
8.14622e-29
7.05741e-29
6.81621e-29
6.15027e-29
6.46574e-29
5.27077e-29
5.37562e-29
5.16744e-29
6.44648e-29
3.8873e-29
5.8987e-29
2.65768e-29
2.33159e-29
6.55608e-30
5.88161e-30
2.14419e-30
8.74635e-32
7.49477e-30
1.9444e-29
1.18779e-28
2.82662e-28
1.55672e-28
8.78361e-27
7.72699e-25
1.44199e-24
2.6723e-24
2.4689e-24
5.04435e-24
8.06434e-26
2.51052e-25
3.1111e-27
3.25159e-29
1.50011e-28
7.32557e-29
5.76119e-29
6.83288e-29
4.99143e-29
6.09224e-29
6.27021e-29
6.99601e-29
6.15142e-29
5.67454e-29
7.24151e-29
8.71148e-29
7.53796e-29
6.83654e-29
8.63784e-29
8.92969e-29
8.88267e-29
8.15707e-29
8.4946e-29
8.27197e-29
9.4527e-29
9.52439e-29
9.45676e-29
8.8482e-29
8.6188e-29
7.94665e-29
9.59558e-29
9.77563e-29
8.87274e-29
7.74061e-29
7.63489e-29
6.97822e-29
7.24447e-29
5.74476e-29
5.56491e-29
5.46031e-29
6.48878e-29
5.2691e-29
6.75516e-29
3.2639e-29
2.77697e-29
9.69573e-30
9.54721e-30
4.91747e-30
5.2534e-31
8.17359e-30
1.50739e-29
9.90625e-29
1.86886e-28
9.40993e-29
1.18521e-26
1.20419e-24
1.85618e-24
6.16884e-24
2.64631e-24
9.94614e-24
5.87989e-26
4.46189e-25
7.03239e-27
6.19134e-29
1.90845e-28
8.65678e-29
6.7297e-29
7.23663e-29
5.28469e-29
6.31951e-29
6.66334e-29
7.31665e-29
6.43627e-29
5.96099e-29
7.76904e-29
9.2192e-29
7.8432e-29
7.20956e-29
9.17616e-29
9.44284e-29
9.31655e-29
8.52204e-29
9.02038e-29
8.73603e-29
1.0126e-28
1.00855e-28
1.00932e-28
9.36242e-29
9.3028e-29
8.5792e-29
1.06165e-28
1.06699e-28
9.7796e-29
8.58427e-29
8.69112e-29
8.03032e-29
8.22837e-29
6.31779e-29
5.90128e-29
6.22213e-29
6.64812e-29
7.046e-29
8.00611e-29
4.22061e-29
3.43693e-29
1.57761e-29
1.64305e-29
1.144e-29
2.8388e-30
1.19481e-29
1.59829e-29
8.49397e-29
1.31553e-28
1.09179e-28
1.50807e-26
1.78934e-24
2.42651e-24
1.17049e-23
2.57076e-24
1.72771e-23
3.41078e-26
7.17225e-25
1.47483e-26
1.05681e-28
2.46109e-28
1.01603e-28
7.69728e-29
7.71237e-29
5.63185e-29
6.5143e-29
7.15551e-29
7.60599e-29
6.77897e-29
6.26337e-29
8.43234e-29
9.70932e-29
8.19935e-29
7.60524e-29
9.83105e-29
9.98668e-29
9.78093e-29
8.94769e-29
9.62182e-29
9.28441e-29
1.09303e-28
1.07209e-28
1.07984e-28
9.9904e-29
1.01094e-28
9.3541e-29
1.18576e-28
1.17154e-28
1.08558e-28
9.64481e-29
1.00765e-28
9.46172e-29
9.71534e-29
7.4441e-29
7.07606e-29
7.85269e-29
6.26523e-29
9.53783e-29
9.91071e-29
5.69919e-29
4.47786e-29
2.7143e-29
3.00059e-29
2.62624e-29
1.14407e-29
2.55322e-29
3.21435e-29
9.75509e-29
1.73747e-28
3.69931e-28
1.75673e-26
2.55069e-24
3.45868e-24
1.95781e-23
2.29606e-24
2.71443e-23
1.92113e-26
1.05481e-24
2.87361e-26
1.68524e-28
3.18659e-28
1.15748e-28
8.66675e-29
8.29653e-29
6.01568e-29
6.7044e-29
7.73033e-29
7.88256e-29
7.20783e-29
6.56738e-29
9.19987e-29
1.01809e-28
8.62894e-29
8.00881e-29
1.05813e-28
1.05508e-28
1.0318e-28
9.41221e-29
1.03274e-28
9.89917e-29
1.18094e-28
1.14391e-28
1.16126e-28
1.07041e-28
1.10577e-28
1.02609e-28
1.32683e-28
1.29495e-28
1.21728e-28
1.09873e-28
1.19448e-28
1.14986e-28
1.20616e-28
9.73982e-29
1.07393e-28
8.10088e-29
5.17242e-29
1.28465e-28
1.27341e-28
8.02026e-29
6.1802e-29
4.80411e-29
5.68217e-29
5.84532e-29
3.77924e-29
6.65503e-29
9.64748e-29
1.90545e-28
4.79772e-28
1.5055e-27
1.97257e-26
3.52001e-24
5.16579e-24
2.95112e-23
2.05031e-24
3.97037e-23
1.80181e-26
1.45008e-24
5.27024e-26
2.64234e-28
4.15881e-28
1.23702e-28
9.65744e-29
8.99593e-29
6.42359e-29
6.89748e-29
8.3915e-29
8.15047e-29
7.69531e-29
6.89566e-29
1.00938e-28
1.06282e-28
9.12031e-29
8.42895e-29
1.1464e-28
1.11061e-28
1.09179e-28
9.91416e-29
1.11294e-28
1.0576e-28
1.28265e-28
1.21968e-28
1.25121e-28
1.15191e-28
1.21487e-28
1.13262e-28
1.49213e-28
1.43706e-28
1.37538e-28
1.26743e-28
1.43855e-28
1.42123e-28
1.52695e-28
1.30379e-28
1.44418e-28
9.44302e-29
5.42973e-29
1.51995e-28
1.79633e-28
1.13126e-28
9.07686e-29
8.51219e-29
1.08602e-28
1.25075e-28
1.07216e-28
1.78294e-28
2.95248e-28
5.08845e-28
1.52769e-27
4.85847e-27
2.08141e-26
4.77919e-24
8.33773e-24
4.12803e-23
1.85955e-24
5.47131e-23
4.73617e-26
1.88051e-24
9.14087e-26
4.25602e-28
5.35321e-28
1.25414e-28
1.0615e-28
9.90179e-29
6.79543e-29
7.14537e-29
9.06601e-29
8.46796e-29
8.21891e-29
7.25534e-29
1.10419e-28
1.10826e-28
9.65311e-29
8.87069e-29
1.24174e-28
1.16704e-28
1.1581e-28
1.04492e-28
1.20374e-28
1.13002e-28
1.38982e-28
1.30129e-28
1.35456e-28
1.24167e-28
1.34087e-28
1.25341e-28
1.67818e-28
1.602e-28
1.56593e-28
1.47385e-28
1.74597e-28
1.75398e-28
1.9042e-28
1.7291e-28
1.94637e-28
1.09858e-28
6.09803e-29
1.68618e-28
2.63388e-28
1.60348e-28
1.40124e-28
1.49055e-28
2.04048e-28
2.55744e-28
2.69457e-28
4.47432e-28
8.0698e-28
1.37152e-27
4.28017e-27
1.2702e-26
2.18773e-26
6.47535e-24
1.33705e-23
5.3956e-23
2.05811e-24
7.19677e-23
1.29483e-25
2.32512e-24
1.49304e-25
7.32675e-28
6.96912e-28
1.16972e-28
1.16828e-28
1.09182e-28
7.15687e-29
7.42693e-29
9.76134e-29
8.83477e-29
8.72185e-29
7.66813e-29
1.20714e-28
1.15359e-28
1.01927e-28
9.34784e-29
1.34766e-28
1.22306e-28
1.22646e-28
1.10388e-28
1.3017e-28
1.20667e-28
1.51139e-28
1.38652e-28
1.46593e-28
1.34394e-28
1.48274e-28
1.39084e-28
1.8997e-28
1.79406e-28
1.79981e-28
1.75085e-28
2.19197e-28
2.31857e-28
2.82013e-28
3.68335e-28
8.04832e-28
4.26312e-28
8.25148e-30
3.10791e-28
3.07688e-28
2.57386e-28
2.10914e-28
2.62024e-28
3.73094e-28
4.99749e-28
6.05283e-28
1.0257e-27
1.9355e-27
3.33188e-27
1.02104e-26
2.77419e-26
2.21124e-26
8.74286e-24
2.20869e-23
6.67634e-23
2.81454e-24
9.19111e-23
3.07467e-25
2.79288e-24
2.30025e-25
1.35138e-27
9.13546e-28
1.04506e-28
1.25509e-28
1.21644e-28
7.48518e-29
7.73773e-29
1.04627e-28
9.23646e-29
9.25255e-29
8.11398e-29
1.30964e-28
1.20087e-28
1.07551e-28
9.85823e-29
1.45551e-28
1.28089e-28
1.29951e-28
1.16646e-28
1.40873e-28
1.28774e-28
1.63737e-28
1.47945e-28
1.59048e-28
1.456e-28
1.64514e-28
1.54571e-28
2.14815e-28
2.02135e-28
2.09038e-28
2.11226e-28
2.82339e-28
3.21738e-28
4.68007e-28
9.26888e-28
1.7385e-27
6.24455e-29
1.21377e-29
3.67626e-28
3.64736e-28
4.19665e-28
3.16172e-28
4.50569e-28
6.59324e-28
9.27897e-28
1.24185e-27
2.13316e-27
4.13076e-27
7.1672e-27
2.12949e-26
5.31545e-26
2.22838e-26
1.1833e-23
3.56386e-23
7.91838e-23
4.90983e-24
1.14608e-22
5.65371e-25
3.27999e-24
3.34203e-25
2.5983e-27
1.206e-27
8.77331e-29
1.31499e-28
1.36745e-28
7.79836e-29
8.02426e-29
1.12452e-28
9.6155e-29
9.81128e-29
8.5798e-29
1.41873e-28
1.24555e-28
1.13367e-28
1.03951e-28
1.57143e-28
1.33675e-28
1.37594e-28
1.23392e-28
1.52233e-28
1.37352e-28
1.77577e-28
1.57673e-28
1.72416e-28
1.5815e-28
1.82306e-28
1.71673e-28
2.42045e-28
2.25411e-28
2.37293e-28
2.41929e-28
3.24163e-28
3.48481e-28
4.89555e-28
9.22797e-28
4.14647e-29
1.38973e-27
3.0281e-27
3.67129e-29
8.37261e-28
5.11547e-28
5.33136e-28
7.13601e-28
1.13825e-27
1.62495e-27
2.34452e-27
4.06625e-27
7.93451e-27
1.3841e-26
3.94689e-26
9.12578e-26
2.20676e-26
1.60387e-23
5.69679e-23
8.96247e-23
8.33485e-24
1.39107e-22
9.83416e-25
3.88211e-24
4.62469e-25
5.18107e-27
1.48065e-27
6.54054e-29
1.3927e-28
1.5365e-28
8.0654e-29
8.33807e-29
1.20248e-28
1.00306e-28
1.03921e-28
9.07074e-29
1.52428e-28
1.29271e-28
1.19281e-28
1.09689e-28
1.68617e-28
1.39493e-28
1.45707e-28
1.30593e-28
1.64434e-28
1.46455e-28
1.91448e-28
1.68248e-28
1.87427e-28
1.71851e-28
2.02168e-28
1.90735e-28
2.71978e-28
2.53359e-28
2.74363e-28
2.89548e-28
4.12386e-28
4.87752e-28
9.3768e-28
2.72551e-27
5.73748e-27
5.71973e-27
1.02818e-30
1.04988e-28
9.84908e-28
7.97897e-28
7.97937e-28
1.12694e-27
1.85962e-27
2.70036e-27
4.10819e-27
7.12368e-27
1.39238e-26
2.41762e-26
6.63897e-26
1.42874e-25
2.33319e-26
2.18909e-23
8.55631e-23
9.68207e-23
1.48397e-23
1.62871e-22
1.50355e-24
4.62549e-24
5.99427e-25
9.94093e-27
1.76262e-27
4.48308e-29
1.50372e-28
1.70894e-28
8.30434e-29
8.65532e-29
1.28369e-28
1.04726e-28
1.09264e-28
9.59707e-29
1.63562e-28
1.33821e-28
1.25029e-28
1.15792e-28
1.80886e-28
1.45256e-28
1.53822e-28
1.38601e-28
1.76946e-28
1.5598e-28
2.06651e-28
1.79364e-28
2.03099e-28
1.87259e-28
2.2368e-28
2.12134e-28
3.07385e-28
2.87405e-28
3.24056e-28
3.6504e-28
5.75417e-28
8.19096e-28
2.17345e-27
9.32403e-27
8.94696e-26
2.08594e-28
1.74775e-26
5.777e-28
8.15619e-28
1.36568e-27
1.07851e-27
1.77068e-27
2.86258e-27
4.2741e-27
6.66882e-27
1.16039e-26
2.24462e-26
3.86995e-26
1.02304e-25
2.05755e-25
2.62679e-26
2.98035e-23
1.26649e-22
1.00081e-22
2.62246e-23
1.92642e-22
1.99653e-24
5.64182e-24
7.37977e-25
1.8465e-26
1.96713e-27
3.15414e-29
1.60005e-28
1.91605e-28
8.39211e-29
9.0521e-29
1.36064e-28
1.09569e-28
1.1469e-28
1.01552e-28
1.73936e-28
1.38812e-28
1.3086e-28
1.22407e-28
1.92686e-28
1.51488e-28
1.62307e-28
1.47134e-28
1.90074e-28
1.66011e-28
2.219e-28
1.9152e-28
2.19687e-28
2.03371e-28
2.46538e-28
2.33659e-28
3.40552e-28
3.15687e-28
3.56101e-28
3.92203e-28
5.78692e-28
6.97475e-28
1.35973e-27
3.62358e-27
9.03062e-27
6.09392e-27
1.76112e-30
1.08687e-28
1.88478e-27
1.48285e-27
1.672e-27
2.52528e-27
4.29341e-27
6.3437e-27
1.01845e-26
1.75428e-26
3.36189e-26
5.71365e-26
1.46772e-25
2.77608e-25
3.32201e-26
4.02392e-23
1.80392e-22
1.00934e-22
4.57578e-23
2.2775e-22
2.30557e-24
6.97722e-24
8.5664e-25
3.20929e-26
2.09016e-27
2.79378e-29
1.75603e-28
2.10074e-28
8.51701e-29
9.37801e-29
1.45128e-28
1.13659e-28
1.20519e-28
1.07082e-28
1.84935e-28
1.43351e-28
1.36909e-28
1.29282e-28
2.05074e-28
1.57507e-28
1.71107e-28
1.56274e-28
2.03487e-28
1.76504e-28
2.38219e-28
2.04271e-28
2.36912e-28
2.21198e-28
2.70221e-28
2.56779e-28
3.76132e-28
3.45435e-28
3.89928e-28
4.22477e-28
5.87957e-28
6.12559e-28
7.91173e-28
1.03959e-27
5.53469e-30
2.38244e-27
3.29563e-27
3.54962e-28
2.45469e-27
1.91924e-27
2.29525e-27
3.57449e-27
6.04781e-27
8.97759e-27
1.45284e-26
2.48812e-26
4.6807e-26
7.86676e-26
1.96624e-25
3.53222e-25
4.50232e-26
5.34265e-23
2.50065e-22
9.7303e-23
7.21478e-23
2.66865e-22
2.55465e-24
8.98171e-24
9.39657e-25
5.30749e-26
1.98884e-27
3.39128e-29
1.96123e-28
2.28007e-28
8.52568e-29
9.79204e-29
1.53972e-28
1.17992e-28
1.26811e-28
1.12953e-28
1.94974e-28
1.48358e-28
1.4319e-28
1.36747e-28
2.16649e-28
1.63956e-28
1.80447e-28
1.65935e-28
2.17446e-28
1.87677e-28
2.53993e-28
2.18007e-28
2.55721e-28
2.40259e-28
2.95746e-28
2.82416e-28
4.14166e-28
3.8295e-28
4.40783e-28
4.90049e-28
7.11769e-28
8.04059e-28
1.13424e-27
1.75044e-27
2.0365e-27
9.49068e-29
3.3893e-29
2.34392e-27
2.23336e-27
2.68195e-27
2.94569e-27
4.8817e-27
8.07755e-27
1.20002e-26
1.95121e-26
3.28848e-26
6.10079e-26
1.00743e-25
2.47306e-25
4.2349e-25
7.02072e-26
7.00038e-23
3.27923e-22
9.02623e-23
1.10715e-22
3.05987e-22
2.57281e-24
1.15759e-23
9.60943e-25
8.25477e-26
1.6949e-27
5.13853e-29
2.26659e-28
2.43374e-28
8.4027e-29
1.03387e-28
1.61946e-28
1.23044e-28
1.32203e-28
1.19465e-28
2.04548e-28
1.53498e-28
1.48955e-28
1.44794e-28
2.2792e-28
1.70625e-28
1.8935e-28
1.76572e-28
2.30829e-28
1.99231e-28
2.70056e-28
2.32109e-28
2.74081e-28
2.60296e-28
3.20251e-28
3.07234e-28
4.48822e-28
4.12703e-28
4.73104e-28
5.20734e-28
7.28058e-28
7.74849e-28
9.46448e-28
1.12551e-27
1.77209e-27
1.24602e-27
2.32149e-28
2.42671e-27
3.31187e-27
2.9596e-27
3.95721e-27
6.16786e-27
1.03613e-26
1.50932e-26
2.46565e-26
4.07256e-26
7.44698e-26
1.2058e-25
2.92382e-25
4.78121e-25
1.12394e-25
8.97339e-23
4.17592e-22
7.84457e-23
1.61914e-22
3.47418e-22
2.41029e-24
1.49466e-23
9.17785e-25
1.20523e-25
1.27989e-27
7.88101e-29
2.68965e-28
2.55866e-28
8.11354e-29
1.10909e-28
1.67656e-28
1.29369e-28
1.36374e-28
1.26721e-28
2.12283e-28
1.59548e-28
1.54061e-28
1.53484e-28
2.37777e-28
1.78037e-28
1.97507e-28
1.87813e-28
2.43203e-28
2.10958e-28
2.85108e-28
2.46784e-28
2.91328e-28
2.80475e-28
3.43451e-28
3.30875e-28
4.8068e-28
4.39722e-28
4.98945e-28
5.42503e-28
7.18015e-28
7.09436e-28
7.24534e-28
5.97477e-28
5.86651e-28
6.53266e-28
1.1327e-27
2.80078e-27
3.97859e-27
3.49449e-27
4.87622e-27
7.54981e-27
1.25389e-26
1.80116e-26
2.93058e-26
4.73276e-26
8.49181e-26
1.34262e-25
3.23306e-25
5.05148e-25
1.84376e-25
1.11936e-22
5.09899e-22
6.49889e-23
2.26968e-22
3.85081e-22
2.14639e-24
1.88693e-23
8.10898e-25
1.63005e-25
9.29768e-28
1.24961e-28
3.40323e-28
2.56229e-28
8.00679e-29
1.16143e-28
1.75301e-28
1.33482e-28
1.41048e-28
1.32392e-28
2.20568e-28
1.6424e-28
1.58929e-28
1.61057e-28
2.47559e-28
1.84181e-28
2.05073e-28
1.98149e-28
2.53967e-28
2.21629e-28
2.98924e-28
2.60364e-28
3.06168e-28
2.99598e-28
3.62902e-28
3.52698e-28
5.09225e-28
4.64588e-28
5.22167e-28
5.69496e-28
7.28394e-28
7.06121e-28
6.98624e-28
5.34409e-28
4.34561e-28
8.69095e-28
1.76163e-27
3.66367e-27
4.16426e-27
4.09732e-27
5.6728e-27
8.82245e-27
1.42837e-26
2.03459e-26
3.23145e-26
5.13836e-26
8.89041e-26
1.37762e-25
3.27483e-25
4.94162e-25
2.97167e-25
1.34995e-22
5.97615e-22
5.00918e-23
3.04398e-22
4.28349e-22
1.94195e-24
2.37929e-23
6.67714e-25
2.0816e-25
6.97756e-28
2.05866e-28
4.66438e-28
2.40727e-28
8.33177e-29
1.15054e-28
1.8993e-28
1.31808e-28
1.51331e-28
1.32899e-28
2.30728e-28
1.65844e-28
1.66415e-28
1.64851e-28
2.57874e-28
1.87804e-28
2.14652e-28
2.05452e-28
2.65293e-28
2.30134e-28
3.09864e-28
2.7262e-28
3.19928e-28
3.15976e-28
3.79416e-28
3.71032e-28
5.26423e-28
4.85608e-28
5.35399e-28
5.85457e-28
7.2073e-28
6.93267e-28
6.74434e-28
5.33406e-28
4.07737e-28
1.0985e-27
2.46625e-27
4.14874e-27
4.3461e-27
4.52076e-27
6.32351e-27
9.78178e-27
1.52096e-26
2.16885e-26
3.29127e-26
5.19969e-26
8.5309e-26
1.31421e-25
3.07891e-25
4.68759e-25
4.41756e-25
1.56133e-22
6.7041e-22
3.93105e-23
3.97228e-22
4.84081e-22
1.87958e-24
3.03283e-23
5.18462e-25
2.65143e-25
5.64928e-28
3.25294e-28
6.86604e-28
2.32548e-28
8.41201e-29
1.22009e-28
2.07333e-28
1.37095e-28
1.61703e-28
1.40571e-28
2.47709e-28
1.74682e-28
1.75364e-28
1.76664e-28
2.74997e-28
1.98608e-28
2.27285e-28
2.20306e-28
2.82064e-28
2.46047e-28
3.29427e-28
2.92918e-28
3.40009e-28
3.41612e-28
4.03168e-28
3.98902e-28
5.58804e-28
5.1552e-28
5.55278e-28
6.09727e-28
7.28245e-28
6.94602e-28
6.82905e-28
5.59656e-28
4.42342e-28
1.35085e-27
3.22405e-27
4.42737e-27
4.59548e-27
4.91321e-27
6.91615e-27
1.04723e-26
1.58339e-26
2.20769e-26
3.24418e-26
5.01611e-26
7.92996e-26
1.20155e-25
2.85722e-25
4.44309e-25
6.15619e-25
1.79104e-22
7.41809e-22
3.28237e-23
1.06284e-28
1.39392e-29
6.77253e-30
3.49002e-28
6.72764e-29
1.99716e-31
3.0311e-29
8.74574e-30
2.04554e-29
1.44715e-29
1.95503e-29
1.52981e-29
2.18229e-29
1.84548e-29
2.06872e-29
1.60788e-29
2.41429e-29
2.41501e-29
2.42712e-29
2.16957e-29
2.74972e-29
2.75716e-29
2.85734e-29
2.70158e-29
2.80226e-29
2.71612e-29
3.14639e-29
3.13823e-29
3.1806e-29
3.12886e-29
2.94762e-29
2.86192e-29
3.34914e-29
3.42095e-29
3.20105e-29
2.96703e-29
2.77437e-29
2.62921e-29
2.58718e-29
2.21971e-29
1.86002e-29
1.4082e-29
1.53346e-29
1.56468e-29
1.16132e-29
1.0968e-29
4.54906e-30
2.70691e-30
6.05295e-31
1.92635e-31
1.44266e-31
1.59653e-30
1.39995e-29
4.10996e-29
2.20681e-28
9.04134e-29
7.63247e-28
5.11591e-26
9.56504e-26
1.00391e-26
4.08832e-26
2.72645e-27
1.46448e-27
3.43999e-27
4.22233e-29
2.84944e-30
5.72212e-29
2.34689e-29
2.88281e-29
4.49753e-29
2.85644e-29
4.26696e-29
3.47184e-29
4.841e-29
3.65483e-29
3.83839e-29
4.18712e-29
5.82401e-29
4.63924e-29
4.74178e-29
5.14227e-29
6.24563e-29
5.49166e-29
5.89482e-29
5.4057e-29
5.80049e-29
6.04765e-29
6.77589e-29
6.22251e-29
6.57739e-29
5.84249e-29
5.81285e-29
6.42608e-29
7.18576e-29
6.35134e-29
5.90073e-29
5.4571e-29
5.09063e-29
5.04032e-29
4.56003e-29
3.79568e-29
3.54039e-29
3.08302e-29
2.55966e-29
2.35656e-29
2.02005e-29
9.44124e-30
3.76595e-30
1.20594e-30
1.587e-31
1.90481e-31
6.11679e-30
2.44887e-29
1.25961e-28
3.83677e-28
4.20714e-28
9.41024e-28
1.17856e-25
5.50694e-25
6.4312e-27
1.33546e-25
1.10888e-26
1.02391e-26
3.32874e-27
1.94002e-28
1.76535e-30
7.95342e-29
3.61689e-29
4.15723e-29
5.81516e-29
4.48904e-29
5.36264e-29
5.394e-29
6.22329e-29
5.43028e-29
5.24066e-29
6.27006e-29
7.68297e-29
6.76955e-29
6.57492e-29
7.45132e-29
8.49477e-29
7.85805e-29
8.16689e-29
7.67874e-29
8.17894e-29
8.59559e-29
9.38673e-29
8.81504e-29
9.18144e-29
8.19006e-29
8.365e-29
9.05072e-29
9.96227e-29
8.90244e-29
8.31759e-29
7.64632e-29
7.30026e-29
7.17386e-29
6.6472e-29
5.85747e-29
5.24882e-29
4.18285e-29
3.61582e-29
3.4035e-29
2.82861e-29
1.27874e-29
5.95612e-30
1.52209e-30
4.31257e-31
4.38268e-31
5.78403e-30
4.24248e-29
1.42929e-28
5.91259e-28
3.51381e-28
3.29158e-27
2.01649e-25
5.7298e-25
4.23718e-26
5.85703e-25
1.24275e-25
4.07078e-26
1.38657e-26
1.9482e-28
2.61674e-30
8.02694e-29
4.15865e-29
4.26917e-29
5.79189e-29
4.66727e-29
5.30429e-29
5.5782e-29
6.20689e-29
5.59966e-29
5.22303e-29
6.39203e-29
7.72621e-29
6.90645e-29
6.57321e-29
7.57495e-29
8.53723e-29
7.98156e-29
8.18309e-29
7.79734e-29
8.23673e-29
8.67276e-29
9.50168e-29
8.91707e-29
9.23088e-29
8.32126e-29
8.4413e-29
9.12508e-29
1.01348e-28
9.01334e-29
8.42055e-29
7.84575e-29
7.48992e-29
7.57095e-29
7.06278e-29
6.46738e-29
5.56357e-29
4.00419e-29
3.71602e-29
3.63566e-29
2.84495e-29
1.40681e-29
6.01553e-30
1.98494e-30
6.60792e-31
2.4677e-31
6.16182e-30
3.59488e-29
1.33707e-28
5.08073e-28
3.03043e-28
4.18603e-27
2.96667e-25
8.36383e-25
2.13578e-25
1.29017e-24
6.56536e-25
7.34539e-26
4.7831e-26
4.32404e-28
5.40423e-30
9.00224e-29
5.06559e-29
4.33972e-29
6.1787e-29
4.58798e-29
5.62413e-29
5.58755e-29
6.49316e-29
5.63377e-29
5.38019e-29
6.45118e-29
8.02505e-29
6.97648e-29
6.67622e-29
7.70883e-29
8.73809e-29
8.07863e-29
8.31603e-29
7.89681e-29
8.38862e-29
8.81539e-29
9.7203e-29
9.01712e-29
9.41493e-29
8.44808e-29
8.59309e-29
9.30803e-29
1.04886e-28
9.15445e-29
8.69668e-29
8.09358e-29
7.88049e-29
8.04395e-29
7.57966e-29
6.97695e-29
5.62793e-29
3.90908e-29
3.9979e-29
3.87926e-29
3.03686e-29
1.54501e-29
6.79734e-30
2.73742e-30
1.26512e-30
1.22408e-31
6.15053e-30
2.91476e-29
1.21961e-28
4.10318e-28
2.30766e-28
6.02387e-27
4.76545e-25
1.14989e-24
9.00529e-25
1.98341e-24
2.09657e-24
8.82675e-26
1.21003e-25
1.18498e-27
1.3778e-29
1.10375e-28
6.29257e-29
4.74365e-29
6.73367e-29
4.60974e-29
6.05882e-29
5.73108e-29
6.9588e-29
5.77611e-29
5.71598e-29
6.72082e-29
8.57311e-29
7.19793e-29
7.00808e-29
8.07507e-29
9.21469e-29
8.40028e-29
8.69297e-29
8.22747e-29
8.80787e-29
9.24297e-29
1.02396e-28
9.40656e-29
9.88575e-29
8.8226e-29
9.05057e-29
9.8567e-29
1.12038e-28
9.60771e-29
9.29671e-29
8.61979e-29
8.59478e-29
8.72396e-29
8.33468e-29
7.63106e-29
6.07177e-29
4.17392e-29
4.45204e-29
4.34381e-29
3.50154e-29
1.77517e-29
8.84525e-30
4.16308e-30
2.69523e-30
9.60143e-32
6.29468e-30
2.22901e-29
1.079e-28
3.03633e-28
1.49822e-28
8.89885e-27
7.72114e-25
1.47295e-24
2.67006e-24
2.47444e-24
5.0468e-24
8.08197e-26
2.50096e-25
3.05056e-27
3.15577e-29
1.39745e-28
7.73224e-29
5.43385e-29
7.28355e-29
4.75952e-29
6.45921e-29
5.9937e-29
7.43905e-29
5.97756e-29
6.12789e-29
7.1309e-29
9.20131e-29
7.48811e-29
7.45642e-29
8.57075e-29
9.79946e-29
8.81201e-29
9.17399e-29
8.66841e-29
9.37629e-29
9.8415e-29
1.08667e-28
9.93172e-29
1.04849e-28
9.33226e-29
9.7038e-29
1.06224e-28
1.20634e-28
1.02064e-28
1.00333e-28
9.28296e-29
9.46869e-29
9.53097e-29
9.28531e-29
8.55847e-29
6.84871e-29
4.72818e-29
5.03099e-29
5.12345e-29
4.22054e-29
2.1464e-29
1.275e-29
7.01012e-30
6.00809e-30
3.75398e-31
7.38413e-30
1.68942e-29
9.10747e-29
2.03153e-28
8.986e-29
1.20439e-26
1.20451e-24
1.89613e-24
6.17279e-24
2.64986e-24
9.95533e-24
5.88976e-26
4.44769e-25
6.94169e-27
5.98147e-29
1.78761e-28
9.32515e-29
6.29962e-29
7.85564e-29
4.98557e-29
6.81738e-29
6.32578e-29
7.91047e-29
6.21767e-29
6.55805e-29
7.60694e-29
9.85256e-29
7.8e-29
7.94214e-29
9.11533e-29
1.04373e-28
9.25211e-29
9.69435e-29
9.1676e-29
1.00113e-28
1.0478e-28
1.15592e-28
1.05273e-28
1.11248e-28
9.91579e-29
1.04354e-28
1.14697e-28
1.29851e-28
1.0859e-28
1.08088e-28
1.0016e-28
1.04274e-28
1.04097e-28
1.05374e-28
9.85195e-29
8.17994e-29
5.58647e-29
5.7108e-29
6.31264e-29
5.26908e-29
2.75148e-29
1.98604e-29
1.27094e-29
1.35566e-29
2.13533e-30
1.20505e-29
1.6464e-29
8.12337e-29
1.40613e-28
1.08654e-28
1.53717e-26
1.79086e-24
2.47357e-24
1.1719e-23
2.57247e-24
1.73051e-23
3.3936e-26
7.15572e-25
1.46105e-26
1.02269e-28
2.3257e-28
1.09548e-28
7.20372e-29
8.51148e-29
5.24965e-29
7.16282e-29
6.72879e-29
8.37364e-29
6.487e-29
7.02025e-29
8.17355e-29
1.05173e-28
8.12652e-29
8.46129e-29
9.74115e-29
1.11039e-28
9.70084e-29
1.02552e-28
9.71144e-29
1.07045e-28
1.11985e-28
1.2287e-28
1.11441e-28
1.18177e-28
1.05564e-28
1.12397e-28
1.24276e-28
1.39395e-28
1.15304e-28
1.16364e-28
1.08384e-28
1.15137e-28
1.14937e-28
1.22456e-28
1.1594e-28
1.01246e-28
6.65189e-29
6.57985e-29
8.11964e-29
6.79736e-29
3.76124e-29
3.25639e-29
2.45125e-29
3.02004e-29
9.35469e-30
2.75806e-29
3.02365e-29
9.93563e-29
1.74073e-28
3.81804e-28
1.7928e-26
2.55271e-24
3.51692e-24
1.96163e-23
2.29571e-24
2.72028e-23
1.86593e-26
1.05296e-24
2.85084e-26
1.63832e-28
3.04579e-28
1.23089e-28
8.17236e-29
9.25366e-29
5.55204e-29
7.50223e-29
7.1976e-29
8.83024e-29
6.8203e-29
7.49131e-29
8.80346e-29
1.11884e-28
8.48853e-29
8.99921e-29
1.04201e-28
1.17926e-28
1.01897e-28
1.08363e-28
1.03231e-28
1.14413e-28
1.1943e-28
1.30671e-28
1.1817e-28
1.25388e-28
1.1271e-28
1.21048e-28
1.34392e-28
1.49551e-28
1.22749e-28
1.25453e-28
1.18211e-28
1.27946e-28
1.28087e-28
1.45624e-28
1.39679e-28
1.2256e-28
8.03851e-29
7.73584e-29
1.07271e-28
9.09582e-29
5.47517e-29
5.51181e-29
4.87516e-29
6.54741e-29
3.28323e-29
7.28396e-29
8.89279e-29
2.01878e-28
4.62372e-28
1.56285e-27
2.01531e-26
3.52123e-24
5.23676e-24
2.95767e-23
2.05417e-24
3.98207e-23
1.67796e-26
1.44847e-24
5.23529e-26
2.58654e-28
3.98424e-28
1.30681e-28
9.16607e-29
1.00828e-28
5.89191e-29
7.82311e-29
7.74932e-29
9.26543e-29
7.20084e-29
7.98177e-29
9.52936e-29
1.18436e-28
8.87801e-29
9.55914e-29
1.11882e-28
1.2472e-28
1.07054e-28
1.14409e-28
1.09912e-28
1.22203e-28
1.27711e-28
1.38607e-28
1.25167e-28
1.33178e-28
1.20537e-28
1.30619e-28
1.45741e-28
1.60332e-28
1.31065e-28
1.35972e-28
1.3012e-28
1.43218e-28
1.44478e-28
1.74827e-28
1.64561e-28
1.5405e-28
1.01657e-28
9.1845e-29
1.45705e-28
1.25341e-28
8.34934e-29
9.44814e-29
9.66654e-29
1.36973e-28
9.69459e-29
1.92962e-28
2.75792e-28
5.40055e-28
1.47218e-27
5.02551e-27
2.12445e-26
4.77908e-24
8.44595e-24
4.13955e-23
1.86436e-24
5.49076e-23
4.44733e-26
1.87911e-24
9.09757e-26
4.19394e-28
5.09486e-28
1.32772e-28
1.01038e-28
1.11172e-28
6.20556e-29
8.18601e-29
8.31285e-29
9.74269e-29
7.60533e-29
8.50061e-29
1.02874e-28
1.2514e-28
9.27586e-29
1.01494e-28
1.19857e-28
1.31671e-28
1.12469e-28
1.20698e-28
1.17252e-28
1.30331e-28
1.3601e-28
1.46972e-28
1.32894e-28
1.41431e-28
1.29303e-28
1.40991e-28
1.57964e-28
1.72269e-28
1.40801e-28
1.48265e-28
1.44698e-28
1.61332e-28
1.64031e-28
2.13598e-28
1.97131e-28
1.85366e-28
1.36753e-28
1.11136e-28
1.99792e-28
1.77445e-28
1.31043e-28
1.62132e-28
1.86323e-28
2.74808e-28
2.50375e-28
4.77118e-28
7.66236e-28
1.44105e-27
4.15951e-27
1.30944e-26
2.23451e-26
6.47733e-24
1.3515e-23
5.41216e-23
2.07007e-24
7.22617e-23
1.23284e-25
2.32306e-24
1.48883e-25
7.27326e-28
6.71972e-28
1.24394e-28
1.11002e-28
1.22796e-28
6.51045e-29
8.56707e-29
8.90373e-29
1.02526e-28
7.99192e-29
9.06383e-29
1.11165e-28
1.31754e-28
9.66133e-29
1.0779e-28
1.28537e-28
1.38597e-28
1.17789e-28
1.27497e-28
1.2496e-28
1.38763e-28
1.45224e-28
1.55574e-28
1.40809e-28
1.50709e-28
1.38896e-28
1.5244e-28
1.72209e-28
1.85403e-28
1.51944e-28
1.63167e-28
1.62458e-28
1.83248e-28
1.89291e-28
2.66906e-28
2.36479e-28
2.36051e-28
1.87059e-28
1.36551e-28
2.75647e-28
2.56177e-28
2.0768e-28
2.77561e-28
3.49125e-28
5.29247e-28
5.7284e-28
1.0808e-27
1.86069e-27
3.46908e-27
9.99288e-27
2.84863e-26
2.2586e-26
8.74407e-24
2.23096e-23
6.69967e-23
2.84222e-24
9.23664e-23
2.95422e-25
2.78967e-24
2.29754e-25
1.35162e-27
8.86348e-28
1.09537e-28
1.20014e-28
1.36386e-28
6.79853e-29
8.96167e-29
9.50621e-29
1.07831e-28
8.40868e-29
9.65195e-29
1.19347e-28
1.38483e-28
1.0057e-28
1.14446e-28
1.37124e-28
1.45738e-28
1.23331e-28
1.34618e-28
1.33271e-28
1.47542e-28
1.54481e-28
1.64865e-28
1.49513e-28
1.60744e-28
1.4983e-28
1.65095e-28
1.87559e-28
2.00479e-28
1.65346e-28
1.80818e-28
1.84093e-28
2.08992e-28
2.19212e-28
3.29835e-28
2.68549e-28
2.68356e-28
2.51717e-28
1.67832e-28
3.80648e-28
3.73299e-28
3.30384e-28
4.67968e-28
6.29113e-28
9.7193e-28
1.19121e-27
2.22745e-27
4.00763e-27
7.41272e-27
2.09537e-26
5.44567e-26
2.27509e-26
1.18307e-23
3.59868e-23
7.95197e-23
4.98243e-24
1.15285e-22
5.44797e-25
3.2739e-24
3.3447e-25
2.60818e-27
1.16328e-27
8.99083e-29
1.2744e-28
1.51856e-28
7.09777e-29
9.30694e-29
1.01961e-28
1.12719e-28
8.85564e-29
1.0252e-28
1.28196e-28
1.44789e-28
1.04658e-28
1.21379e-28
1.46313e-28
1.52668e-28
1.29002e-28
1.4224e-28
1.41997e-28
1.56732e-28
1.64671e-28
1.74537e-28
1.5875e-28
1.72085e-28
1.61899e-28
1.79363e-28
2.05088e-28
2.17287e-28
1.80815e-28
2.01488e-28
2.08936e-28
2.37226e-28
2.52298e-28
3.93603e-28
3.12938e-28
3.74305e-28
3.62182e-28
2.01966e-28
5.34444e-28
5.36919e-28
5.19177e-28
7.56963e-28
1.08672e-27
1.69622e-27
2.26597e-27
4.22197e-27
7.74475e-27
1.42537e-26
3.89707e-26
9.32867e-26
2.24958e-26
1.60315e-23
5.75502e-23
9.00651e-23
8.43383e-24
1.40013e-22
9.55163e-25
3.87244e-24
4.63967e-25
5.2389e-27
1.43393e-27
6.7031e-29
1.33934e-28
1.70484e-28
7.31614e-29
9.69658e-29
1.08734e-28
1.17985e-28
9.32024e-29
1.08759e-28
1.3667e-28
1.51301e-28
1.08766e-28
1.28724e-28
1.55195e-28
1.59882e-28
1.34937e-28
1.50357e-28
1.51334e-28
1.66461e-28
1.74666e-28
1.85109e-28
1.69242e-28
1.84513e-28
1.75545e-28
1.95223e-28
2.24081e-28
2.36868e-28
1.99625e-28
2.26705e-28
2.4058e-28
2.75912e-28
3.04015e-28
5.1063e-28
5.30769e-28
4.26711e-28
4.95804e-28
2.78054e-28
7.27435e-28
7.70742e-28