/*--------------------------------*- C++ -*----------------------------------*\
| =========                 |                                                 |
| \\      /  F ield         | OpenFOAM: The Open Source CFD Toolbox           |
|  \\    /   O peration     | Version:  2312                                  |
|   \\  /    A nd           | Website:  www.openfoam.com                      |
|    \\/     M anipulation  |                                                 |
\*---------------------------------------------------------------------------*/
FoamFile
{
    version     2.0;
    format      ascii;
    arch        "LSB;label=32;scalar=64";
    class       volScalarField;
    location    "640";
    object      p;
}
// * * * * * * * * * * * * * * * * * * * * * * * * * * * * * * * * * * * * * //

dimensions      [0 2 -2 0 0 0 0];

internalField   nonuniform List<scalar> 
144000
(
1.9091e-10
1.60808e-10
-6.1468e-11
-2.36568e-10
-2.44836e-10
-2.0381e-10
-1.4428e-10
-1.12755e-10
-8.11031e-11
-7.45179e-11
-5.72692e-11
-5.8171e-11
-4.47425e-11
-4.82484e-11
-3.50929e-11
-3.86881e-11
-2.76736e-11
-3.37189e-11
-2.07306e-11
-2.49373e-11
-1.29057e-11
-1.95498e-11
-7.49336e-12
-1.37973e-11
-1.74156e-12
-8.06183e-12
3.50006e-12
-4.08248e-12
7.77733e-12
7.8929e-13
1.30464e-11
6.48907e-12
1.73856e-11
8.72355e-12
1.99604e-11
1.24438e-11
2.31765e-11
1.5857e-11
2.53678e-11
1.72475e-11
2.54296e-11
1.88396e-11
2.66523e-11
1.99545e-11
2.77341e-11
2.12003e-11
2.81532e-11
2.50265e-11
2.93038e-11
2.82253e-11
2.9887e-11
3.26141e-11
2.34233e-11
2.3373e-11
-4.0734e-12
-1.75702e-12
-5.71158e-11
-1.25865e-10
-3.70921e-10
-6.3948e-11
2.02326e-10
1.66837e-10
-6.37986e-11
-2.39146e-10
-2.46128e-10
-2.04162e-10
-1.44467e-10
-1.12831e-10
-8.127e-11
-7.46188e-11
-5.74349e-11
-5.82425e-11
-4.48832e-11
-4.82984e-11
-3.52026e-11
-3.87023e-11
-2.77742e-11
-3.37392e-11
-2.08207e-11
-2.49283e-11
-1.29899e-11
-1.95447e-11
-7.57045e-12
-1.37725e-11
-1.81121e-12
-8.03124e-12
3.42862e-12
-4.05535e-12
7.7098e-12
8.29362e-13
1.29875e-11
6.53793e-12
1.73229e-11
8.76057e-12
1.99027e-11
1.24986e-11
2.31287e-11
1.59125e-11
2.53258e-11
1.72865e-11
2.53474e-11
1.87707e-11
2.65373e-11
2.0019e-11
2.77209e-11
2.12832e-11
2.81588e-11
2.51377e-11
2.93427e-11
2.83392e-11
2.99888e-11
3.27614e-11
2.36253e-11
2.35164e-11
-3.69232e-12
-1.34491e-12
-5.53668e-11
-1.24674e-10
-3.78863e-10
-6.93764e-11
2.16332e-10
1.73064e-10
-6.64782e-11
-2.42242e-10
-2.4791e-10
-2.04835e-10
-1.4471e-10
-1.1299e-10
-8.1411e-11
-7.48021e-11
-5.75938e-11
-5.84038e-11
-4.50049e-11
-4.84313e-11
-3.52946e-11
-3.87841e-11
-2.78275e-11
-3.38311e-11
-2.08842e-11
-2.49883e-11
-1.30286e-11
-1.96087e-11
-7.60606e-12
-1.3808e-11
-1.83287e-12
-8.06231e-12
3.41178e-12
-4.09135e-12
7.69445e-12
8.11801e-13
1.29812e-11
6.5288e-12
1.73261e-11
8.73734e-12
1.99006e-11
1.25023e-11
2.31431e-11
1.59177e-11
2.53515e-11
1.72881e-11
2.53108e-11
1.86012e-11
2.64197e-11
2.0011e-11
2.77941e-11
2.13529e-11
2.82339e-11
2.5248e-11
2.94653e-11
2.84587e-11
3.01458e-11
3.29307e-11
2.39084e-11
2.37488e-11
-3.22933e-12
-9.46428e-13
-5.30885e-11
-1.20869e-10
-3.91081e-10
-7.5688e-11
2.32532e-10
1.78645e-10
-6.89649e-11
-2.45567e-10
-2.50489e-10
-2.05868e-10
-1.45026e-10
-1.13142e-10
-8.15281e-11
-7.50127e-11
-5.77795e-11
-5.8606e-11
-4.51473e-11
-4.86053e-11
-3.54092e-11
-3.88917e-11
-2.78713e-11
-3.39527e-11
-2.09647e-11
-2.50748e-11
-1.30603e-11
-1.96972e-11
-7.64402e-12
-1.38607e-11
-1.84654e-12
-8.10946e-12
3.40949e-12
-4.14551e-12
7.68754e-12
7.79513e-13
1.29878e-11
6.50696e-12
1.73575e-11
8.69727e-12
1.99127e-11
1.24937e-11
2.31865e-11
1.59104e-11
2.54188e-11
1.72916e-11
2.52993e-11
1.83646e-11
2.62399e-11
1.99338e-11
2.79331e-11
2.14295e-11
2.83665e-11
2.53589e-11
2.96789e-11
2.85665e-11
3.04037e-11
3.30751e-11
2.4375e-11
2.39332e-11
-2.51367e-12
-7.28104e-13
-4.95781e-11
-1.15101e-10
-4.0679e-10
-8.21419e-11
2.48579e-10
1.81556e-10
-7.04184e-11
-2.47966e-10
-2.53595e-10
-2.07245e-10
-1.45392e-10
-1.13243e-10
-8.16133e-11
-7.52427e-11
-5.80149e-11
-5.88568e-11
-4.53342e-11
-4.88234e-11
-3.55689e-11
-3.90237e-11
-2.79242e-11
-3.40991e-11
-2.10816e-11
-2.51811e-11
-1.31001e-11
-1.98008e-11
-7.70239e-12
-1.39228e-11
-1.86754e-12
-8.16233e-12
3.40781e-12
-4.20667e-12
7.6725e-12
7.41404e-13
1.29934e-11
6.48342e-12
1.74053e-11
8.65118e-12
1.99246e-11
1.24794e-11
2.32496e-11
1.58963e-11
2.55246e-11
1.7306e-11
2.53173e-11
1.80902e-11
2.59583e-11
1.97662e-11
2.8132e-11
2.15138e-11
2.85516e-11
2.54556e-11
2.99889e-11
2.86347e-11
3.07775e-11
3.31461e-11
2.50658e-11
2.39793e-11
-1.46074e-12
-8.59333e-13
-4.46682e-11
-1.0791e-10
-4.24929e-10
-8.70864e-11
2.62918e-10
1.78775e-10
-7.05866e-11
-2.48124e-10
-2.56742e-10
-2.08918e-10
-1.45777e-10
-1.1325e-10
-8.16429e-11
-7.54854e-11
-5.83054e-11
-5.91641e-11
-4.55751e-11
-4.90934e-11
-3.57838e-11
-3.91894e-11
-2.7994e-11
-3.42731e-11
-2.12416e-11
-2.53129e-11
-1.31525e-11
-1.99209e-11
-7.78642e-12
-1.39981e-11
-1.89926e-12
-8.22289e-12
3.40408e-12
-4.27524e-12
7.64591e-12
6.948e-13
1.29959e-11
6.4561e-12
1.74686e-11
8.59873e-12
1.99351e-11
1.24535e-11
2.33343e-11
1.58692e-11
2.56761e-11
1.73312e-11
2.53841e-11
1.77798e-11
2.55393e-11
1.94775e-11
2.83931e-11
2.15987e-11
2.87914e-11
2.55157e-11
3.04032e-11
2.86334e-11
3.12851e-11
3.30932e-11
2.60158e-11
2.38025e-11
7.84367e-15
-1.50908e-12
-3.82637e-11
-9.97669e-11
-4.44922e-10
-8.80177e-11
2.75258e-10
1.67089e-10
-6.99238e-11
-2.44806e-10
-2.59372e-10
-2.10818e-10
-1.46155e-10
-1.13122e-10
-8.15889e-11
-7.57276e-11
-5.86483e-11
-5.95292e-11
-4.5874e-11
-4.94187e-11
-3.60591e-11
-3.93973e-11
-2.80871e-11
-3.44761e-11
-2.14478e-11
-2.5476e-11
-1.32218e-11
-2.00586e-11
-7.89944e-12
-1.40911e-11
-1.94402e-12
-8.29371e-12
3.3959e-12
-4.35195e-12
7.60583e-12
6.36652e-13
1.29945e-11
6.42185e-12
1.7546e-11
8.53937e-12
1.99445e-11
1.24098e-11
2.34433e-11
1.58221e-11
2.58814e-11
1.73642e-11
2.55346e-11
1.74292e-11
2.4932e-11
1.90354e-11
2.87203e-11
2.1676e-11
2.90911e-11
2.55156e-11
3.09311e-11
2.85332e-11
3.19497e-11
3.28639e-11
2.72643e-11
2.33153e-11
1.97881e-12
-2.82752e-12
-3.02953e-11
-9.10556e-11
-4.66822e-10
-8.23046e-11
2.86322e-10
1.43573e-10
-6.94671e-11
-2.36931e-10
-2.60856e-10
-2.12863e-10
-1.46508e-10
-1.12829e-10
-8.14267e-11
-7.59549e-11
-5.90386e-11
-5.99498e-11
-4.62329e-11
-4.97991e-11
-3.63975e-11
-3.96517e-11
-2.82107e-11
-3.47075e-11
-2.17024e-11
-2.56739e-11
-1.33139e-11
-2.02138e-11
-8.04453e-12
-1.42043e-11
-2.00483e-12
-8.37586e-12
3.37933e-12
-4.43663e-12
7.55011e-12
5.65358e-13
1.29878e-11
6.37911e-12
1.76342e-11
8.47343e-12
1.99532e-11
1.23433e-11
2.35777e-11
1.57488e-11
2.6148e-11
1.74003e-11
2.58197e-11
1.70072e-11
2.4063e-11
1.84114e-11
2.91192e-11
2.17372e-11
2.94571e-11
2.54324e-11
3.15821e-11
2.83047e-11
3.27962e-11
3.24099e-11
2.8851e-11
2.24403e-11
4.53079e-12
-4.92151e-12
-2.0778e-11
-8.19938e-11
-4.91107e-10
-6.76979e-11
2.97708e-10
1.05873e-10
-7.07171e-11
-2.23663e-10
-2.60527e-10
-2.14958e-10
-1.46837e-10
-1.12331e-10
-8.11365e-11
-7.61539e-11
-5.94707e-11
-6.04215e-11
-4.66519e-11
-5.02323e-11
-3.67996e-11
-3.99548e-11
-2.83713e-11
-3.49653e-11
-2.20056e-11
-2.59086e-11
-1.34343e-11
-2.0386e-11
-8.22376e-12
-1.43396e-11
-2.08473e-12
-8.46968e-12
3.35041e-12
-4.52875e-12
7.47692e-12
4.79988e-13
1.29743e-11
6.32699e-12
1.7729e-11
8.40139e-12
1.99614e-11
1.22503e-11
2.37379e-11
1.56432e-11
2.64849e-11
1.74323e-11
2.63138e-11
1.64704e-11
2.28329e-11
1.75792e-11
2.95981e-11
2.17734e-11
2.98974e-11
2.52455e-11
3.23655e-11
2.79216e-11
3.38465e-11
3.16844e-11
3.08071e-11
2.11227e-11
7.7124e-12
-7.82972e-12
-9.82272e-12
-7.26332e-11
-5.18542e-10
-4.25566e-11
3.11362e-10
5.24605e-11
-7.53607e-11
-2.04454e-10
-2.57729e-10
-2.17001e-10
-1.47164e-10
-1.11624e-10
-8.07036e-11
-7.63137e-11
-5.99393e-11
-6.09398e-11
-4.71303e-11
-5.07152e-11
-3.7264e-11
-4.03073e-11
-2.85748e-11
-3.52477e-11
-2.23563e-11
-2.61803e-11
-1.35881e-11
-2.05743e-11
-8.4378e-12
-1.44979e-11
-2.1863e-12
-8.57517e-12
3.30537e-12
-4.62788e-12
7.38543e-12
3.80153e-13
1.29524e-11
6.26507e-12
1.78262e-11
8.32354e-12
1.99701e-11
1.21282e-11
2.39233e-11
1.54999e-11
2.69015e-11
1.74551e-11
2.71149e-11
1.57492e-11
2.11213e-11
1.65236e-11
3.01669e-11
2.17759e-11
3.04199e-11
2.49383e-11
3.32871e-11
2.73635e-11
3.51167e-11
3.06612e-11
3.31455e-11
1.93393e-11
1.15297e-11
-1.1522e-11
2.32484e-12
-6.28405e-11
-5.49816e-10
-6.09269e-12
3.29431e-10
-1.71952e-11
-8.51814e-11
-1.79127e-10
-2.51845e-10
-2.18868e-10
-1.47527e-10
-1.10712e-10
-8.01193e-11
-7.64262e-11
-6.04405e-11
-6.1501e-11
-4.76673e-11
-5.12448e-11
-3.77894e-11
-4.07088e-11
-2.88258e-11
-3.5553e-11
-2.27524e-11
-2.64888e-11
-1.37793e-11
-2.07781e-11
-8.68651e-12
-1.46796e-11
-2.3118e-12
-8.69219e-12
3.24131e-12
-4.7336e-12
7.27532e-12
2.6572e-13
1.29208e-11
6.19328e-12
1.79217e-11
8.24021e-12
1.99797e-11
1.19757e-11
2.41319e-11
1.5315e-11
2.74056e-11
1.74655e-11
2.83616e-11
1.46868e-11
1.87641e-11
1.52391e-11
3.0834e-11
2.1736e-11
3.10302e-11
2.45006e-11
3.43479e-11
2.66189e-11
3.66117e-11
2.93328e-11
3.58556e-11
1.71037e-11
1.59397e-11
-1.58903e-11
1.53385e-11
-5.23627e-11
-5.85496e-10
4.16093e-11
3.53807e-10
-1.02683e-10
-1.01813e-10
-1.47874e-10
-2.42338e-10
-2.204e-10
-1.47974e-10
-1.09619e-10
-7.93835e-11
-7.64863e-11
-6.09716e-11
-6.21025e-11
-4.82631e-11
-5.18192e-11
-3.83744e-11
-4.1159e-11
-2.91287e-11
-3.58803e-11
-2.31918e-11
-2.68333e-11
-1.40117e-11
-2.09972e-11
-8.96924e-12
-1.48848e-11
-2.4632e-12
-8.8204e-12
3.15577e-12
-4.84572e-12
7.14678e-12
1.37016e-13
1.28781e-11
6.11203e-12
1.80117e-11
8.1519e-12
1.99905e-11
1.17935e-11
2.43599e-11
1.50854e-11
2.80058e-11
1.74498e-11
3.03065e-11
1.31075e-11
1.55191e-11
1.3723e-11
3.15981e-11
2.16422e-11
3.17278e-11
2.3929e-11
3.55426e-11
2.56875e-11
3.83218e-11
2.7712e-11
3.89009e-11
1.44698e-11
2.08532e-11
-2.07613e-11
2.8811e-11
-4.0924e-11
-6.25766e-10
9.96852e-11
3.86205e-10
-2.02701e-10
-1.26757e-10
-1.11308e-10
-2.28777e-10
-2.21387e-10
-1.48539e-10
-1.08384e-10
-7.8505e-11
-7.64906e-11
-6.15296e-11
-6.27419e-11
-4.89174e-11
-5.24364e-11
-3.90178e-11
-4.16568e-11
-2.94869e-11
-3.62291e-11
-2.36721e-11
-2.72124e-11
-1.42882e-11
-2.12318e-11
-9.28505e-12
-1.5113e-11
-2.64231e-12
-8.95949e-12
3.04717e-12
-4.96412e-12
6.99992e-12
-5.24299e-15
1.28226e-11
6.02204e-12
1.80929e-11
8.05965e-12
2.00015e-11
1.15844e-11
2.4601e-11
1.48106e-11
2.87048e-11
1.73972e-11
3.32504e-11
1.08761e-11
1.11289e-11
1.20133e-11
3.24608e-11
2.14883e-11
3.25075e-11
2.32284e-11
3.68521e-11
2.45845e-11
4.02206e-11
2.58351e-11
4.22185e-11
1.15284e-11
2.61392e-11
-2.59116e-11
4.23585e-11
-2.83414e-11
-6.70583e-10
1.66707e-10
4.27588e-10
-3.15049e-10
-1.61019e-10
-7.04087e-11
-2.10914e-10
-2.21589e-10
-1.49251e-10
-1.07063e-10
-7.7503e-11
-7.64378e-11
-6.21115e-11
-6.34167e-11
-4.96295e-11
-5.30944e-11
-3.97173e-11
-4.22006e-11
-2.9903e-11
-3.65995e-11
-2.41908e-11
-2.76247e-11
-1.46114e-11
-2.14826e-11
-9.63262e-12
-1.53635e-11
-2.85059e-12
-9.10925e-12
2.91398e-12
-5.08872e-12
6.83521e-12
-1.59717e-13
1.27528e-11
5.92445e-12
1.8161e-11
7.96531e-12
2.00101e-11
1.13557e-11
2.48427e-11
1.45049e-11
2.94615e-11
1.7404e-11
3.73291e-11
8.06067e-12
5.44692e-12
1.02618e-11
3.34529e-11
2.12921e-11
3.33665e-11
2.24163e-11
3.82542e-11
2.33387e-11
4.2266e-11
2.3761e-11
4.57209e-11
8.40136e-12
3.16345e-11
-3.10943e-11
5.55785e-11
-1.45096e-11
-7.19367e-10
2.40663e-10
4.78214e-10
-4.36634e-10
-2.05049e-10
-2.65054e-11
-1.88704e-10
-2.20744e-10
-1.50123e-10
-1.05707e-10
-7.64037e-11
-7.63271e-11
-6.27133e-11
-6.41246e-11
-5.03987e-11
-5.37915e-11
-4.04711e-11
-4.27888e-11
-3.03787e-11
-3.69917e-11
-2.47455e-11
-2.80682e-11
-1.4983e-11
-2.17503e-11
-1.00107e-11
-1.56353e-11
-3.08943e-12
-9.26957e-12
2.75524e-12
-5.21925e-12
6.65297e-12
-3.24788e-13
1.26666e-11
5.82078e-12
1.82122e-11
7.87159e-12
2.00119e-11
1.11173e-11
2.5069e-11
1.4192e-11
3.02046e-11
1.75762e-11
4.32592e-11
1.76239e-12
-2.25193e-12
8.45047e-12
3.45421e-11
2.10666e-11
3.42954e-11
2.15182e-11
3.97157e-11
2.19913e-11
4.44003e-11
2.15684e-11
4.92995e-11
5.23428e-12
3.71525e-11
-3.60504e-11
6.81191e-11
5.92903e-13
-7.71142e-10
3.19039e-10
5.37538e-10
-5.6385e-10
-2.58658e-10
1.88432e-11
-1.62311e-10
-2.18571e-10
-1.51153e-10
-1.0445e-10
-7.52413e-11
-7.61591e-11
-6.33308e-11
-6.48636e-11
-5.12245e-11
-5.45268e-11
-4.12777e-11
-4.34193e-11
-3.09151e-11
-3.74064e-11
-2.53342e-11
-2.8541e-11
-1.5404e-11
-2.20359e-11
-1.04184e-11
-1.5927e-11
-3.36003e-12
-9.44034e-12
2.57004e-12
-5.35541e-12
6.45331e-12
-4.98489e-13
1.25619e-11
5.71289e-12
1.82428e-11
7.78063e-12
2.0004e-11
1.08744e-11
2.52748e-11
1.38732e-11
3.09145e-11
1.72199e-11
5.29675e-11
-1.80941e-12
-1.28144e-11
6.1604e-12
3.54799e-11
2.0769e-11
3.52564e-11
2.05594e-11
4.11895e-11
2.05931e-11
4.65521e-11
1.93522e-11
5.28302e-11
2.18967e-12
4.2499e-11
-4.05276e-11
7.966e-11
1.68803e-11
-8.24541e-10
3.99307e-10
6.04884e-10
-6.9318e-10
-3.21413e-10
6.37994e-11
-1.32113e-10
-2.14766e-10
-1.52287e-10
-1.03367e-10
-7.40631e-11
-7.59371e-11
-6.39591e-11
-6.56314e-11
-5.21065e-11
-5.5299e-11
-4.21352e-11
-4.40904e-11
-3.15118e-11
-3.78442e-11
-2.5955e-11
-2.90409e-11
-1.58748e-11
-2.23406e-11
-1.08548e-11
-1.62374e-11
-3.66351e-12
-9.62141e-12
2.35805e-12
-5.49665e-12
6.23574e-12
-6.78682e-13
1.24362e-11
5.60315e-12
1.82489e-11
7.69692e-12
1.99781e-11
1.06446e-11
2.54277e-11
1.36283e-11
3.14117e-11
1.66851e-11
5.95352e-11
-1.35722e-14
-1.94497e-11
4.07432e-12
3.6223e-11
2.04252e-11
3.62364e-11
1.95827e-11
4.26247e-11
1.92048e-11
4.86403e-11
1.72177e-11
5.61803e-11
-5.65039e-13
4.74829e-11
-4.42966e-11
9.00175e-11
3.41081e-11
-8.78246e-10
4.78121e-10
6.7893e-10
-8.18947e-10
-3.92407e-10
1.0638e-10
-9.87379e-11
-2.09055e-10
-1.53441e-10
-1.02556e-10
-7.29327e-11
-7.56696e-11
-6.45928e-11
-6.64253e-11
-5.30436e-11
-5.61069e-11
-4.30414e-11
-4.47993e-11
-3.21685e-11
-3.83054e-11
-2.66059e-11
-2.95656e-11
-1.63955e-11
-2.26652e-11
-1.13192e-11
-1.65648e-11
-4.00054e-12
-9.81258e-12
2.1187e-12
-5.64223e-12
5.99982e-12
-8.62963e-13
1.22869e-11
5.49435e-12
1.82254e-11
7.62669e-12
1.99223e-11
1.04536e-11
2.54802e-11
1.35875e-11
3.14517e-11
1.72398e-11
5.385e-11
-4.96156e-13
-1.27761e-11
4.15008e-12
3.68488e-11
2.01339e-11
3.72409e-11
1.86457e-11
4.39714e-11
1.78957e-11
5.05804e-11
1.52762e-11
5.92163e-11
-2.86639e-12
5.19279e-11
-4.71654e-11
9.90613e-11
5.19104e-11
-9.30569e-10
5.52686e-10
7.57495e-10
-9.37366e-10
-4.70023e-10
1.44644e-10
-6.30044e-11
-2.01198e-10
-1.545e-10
-1.02116e-10
-7.1924e-11
-7.53683e-11
-6.52258e-11
-6.7242e-11
-5.40344e-11
-5.69492e-11
-4.39939e-11
-4.55437e-11
-3.28833e-11
-3.87903e-11
-2.72853e-11
-3.01126e-11
-1.69652e-11
-2.30103e-11
-1.1811e-11
-1.69072e-11
-4.37159e-12
-1.00136e-11
1.85168e-12
-5.79114e-12
5.74509e-12
-1.04799e-12
1.21118e-11
5.38827e-12
1.81695e-11
7.57144e-12
1.98362e-11
1.02972e-11
2.54519e-11
1.36714e-11
3.12076e-11
1.76948e-11
4.45029e-11
4.02425e-12
-4.93449e-13
4.82698e-12
3.71814e-11
1.98139e-11
3.81916e-11
1.77844e-11
4.51703e-11
1.67327e-11
5.2285e-11
1.36362e-11
6.18099e-11
-4.56336e-12
5.56727e-11
-4.89693e-11
1.06713e-10
6.99051e-11
-9.79576e-10
6.20136e-10
8.37694e-10
-1.04398e-09
-5.51992e-10
1.76794e-10
-2.58845e-11
-1.91037e-10
-1.55337e-10
-1.0214e-10
-7.11199e-11
-7.50519e-11
-6.58538e-11
-6.80792e-11
-5.50789e-11
-5.7826e-11
-4.49914e-11
-4.63214e-11
-3.36547e-11
-3.92992e-11
-2.7992e-11
-3.06797e-11
-1.7583e-11
-2.33765e-11
-1.23299e-11
-1.7263e-11
-4.77695e-12
-1.0224e-11
1.55662e-12
-5.94231e-12
5.4709e-12
-1.23147e-12
1.1909e-11
5.28755e-12
1.8079e-11
7.53243e-12
1.97192e-11
1.01685e-11
2.53632e-11
1.37883e-11
3.08738e-11
1.76158e-11
3.84425e-11
1.06762e-11
8.17885e-12
5.21938e-12
3.72576e-11
1.94775e-11
3.90476e-11
1.70481e-11
4.61688e-11
1.57829e-11
5.36732e-11
1.23991e-11
6.38465e-11
-5.51975e-12
5.85783e-11
-4.9567e-11
1.12894e-10
8.77477e-11
-1.02316e-09
6.77519e-10
9.16864e-10
-1.13443e-09
-6.3601e-10
2.0112e-10
1.15517e-11
-1.78428e-10
-1.55796e-10
-1.02697e-10
-7.0605e-11
-7.47439e-11
-6.64736e-11
-6.8934e-11
-5.61766e-11
-5.87376e-11
-4.60332e-11
-4.71305e-11
-3.448e-11
-3.9832e-11
-2.87256e-11
-3.12649e-11
-1.82471e-11
-2.37642e-11
-1.28764e-11
-1.76308e-11
-5.21692e-12
-1.04434e-11
1.23367e-12
-6.09446e-12
5.17593e-12
-1.41099e-12
1.16764e-11
5.1947e-12
1.79515e-11
7.51379e-12
1.95649e-11
1.00823e-11
2.51969e-11
1.39738e-11
3.04166e-11
1.75864e-11
3.45511e-11
1.35419e-11
1.49434e-11
6.16025e-12
3.73318e-11
1.92325e-11
3.97895e-11
1.64887e-11
4.69213e-11
1.5106e-11
5.46729e-11
1.16495e-11
6.5229e-11
-5.62453e-12
6.05323e-11
-4.88472e-11
1.17585e-10
1.05137e-10
-1.05952e-09
7.22023e-10
9.92323e-10
-1.20482e-09
-7.19721e-10
2.16183e-10
4.82026e-11
-1.63379e-10
-1.55721e-10
-1.03831e-10
-7.046e-11
-7.44721e-11
-6.70828e-11
-6.98031e-11
-5.73263e-11
-5.96837e-11
-4.7118e-11
-4.79694e-11
-3.53565e-11
-4.03883e-11
-2.94853e-11
-3.18667e-11
-1.89559e-11
-2.41734e-11
-1.34506e-11
-1.80092e-11
-5.69126e-12
-1.06712e-11
8.82978e-13
-6.24633e-12
4.85932e-12
-1.58428e-12
1.14127e-11
5.11111e-12
1.77864e-11
7.51636e-12
1.93731e-11
1.00344e-11
2.49601e-11
1.41982e-11
2.98916e-11
1.76668e-11
3.18566e-11
1.54187e-11
2.05247e-11
7.50484e-12
3.7372e-11
1.9058e-11
4.03616e-11
1.61349e-11
4.73864e-11
1.47533e-11
5.52274e-11
1.14644e-11
6.58852e-11
-4.78865e-12
6.14576e-11
-4.67187e-11
1.20709e-10
1.21905e-10
-1.0869e-09
7.50992e-10
1.0616e-09
-1.25159e-09
-8.00856e-10
2.20897e-10
8.30265e-11
-1.46006e-10
-1.54983e-10
-1.05569e-10
-7.07599e-11
-7.42688e-11
-6.76814e-11
-7.06841e-11
-5.85264e-11
-6.0664e-11
-4.82441e-11
-4.8838e-11
-3.62813e-11
-4.09672e-11
-3.02702e-11
-3.24848e-11
-1.97076e-11
-2.46038e-11
-1.40524e-11
-1.83971e-11
-6.19931e-12
-1.09075e-11
5.04801e-13
-6.39658e-12
4.52099e-12
-1.74961e-12
1.11179e-11
5.03688e-12
1.75836e-11
7.53992e-12
1.91465e-11
1.00165e-11
2.46706e-11
1.44218e-11
2.93854e-11
1.7731e-11
3.00739e-11
1.65138e-11
2.48942e-11
9.03172e-12
3.73426e-11
1.89625e-11
4.07321e-11
1.60181e-11
4.75373e-11
1.47677e-11
5.53014e-11
1.18849e-11
6.57779e-11
-2.97281e-12
6.13228e-11
-4.31007e-11
1.2204e-10
1.3814e-10
-1.10364e-09
7.61711e-10
1.12253e-09
-1.27152e-09
-8.77395e-10
2.14564e-10
1.15149e-10
-1.2655e-10
-1.53512e-10
-1.07935e-10
-7.15803e-11
-7.41736e-11
-6.82753e-11
-7.15789e-11
-5.97793e-11
-6.16814e-11
-4.9412e-11
-4.97389e-11
-3.72537e-11
-4.15684e-11
-3.10797e-11
-3.31201e-11
-2.05018e-11
-2.50553e-11
-1.46822e-11
-1.8795e-11
-6.74064e-12
-1.1153e-11
9.90466e-14
-6.54397e-12
4.16115e-12
-1.90589e-12
1.07922e-11
4.97151e-12
1.73433e-11
7.58495e-12
1.88868e-11
1.00238e-11
2.43378e-11
1.46356e-11
2.89161e-11
1.77571e-11
2.8961e-11
1.71287e-11
2.82196e-11
1.06754e-11
3.72604e-11
1.89884e-11
4.08864e-11
1.61603e-11
4.73621e-11
1.51689e-11
5.48876e-11
1.29242e-11
6.49134e-11
-1.78233e-13
6.01408e-11
-3.78638e-11
1.21103e-10
1.54289e-10
-1.10821e-09
7.51212e-10
1.17328e-09
-1.2616e-09
-9.4774e-10
1.96723e-10
1.43915e-10
-1.05271e-10
-1.51255e-10
-1.10946e-10
-7.30003e-11
-7.42287e-11
-6.8872e-11
-7.24898e-11
-6.10898e-11
-6.27389e-11
-5.06242e-11
-5.06755e-11
-3.82746e-11
-4.21902e-11
-3.19142e-11
-3.37733e-11
-2.13392e-11
-2.55264e-11
-1.53417e-11
-1.92028e-11
-7.3165e-12
-1.14077e-11
-3.35271e-13
-6.68622e-12
3.77872e-12
-2.05171e-12
1.04349e-11
4.91491e-12
1.70652e-11
7.65318e-12
1.85949e-11
1.00522e-11
2.39662e-11
1.48376e-11
2.84769e-11
1.77622e-11
2.83096e-11
1.74825e-11
3.06829e-11
1.2391e-11
3.71283e-11
1.91643e-11
4.08091e-11
1.65648e-11
4.68546e-11
1.596e-11
5.39912e-11
1.45712e-11
6.33149e-11
3.57634e-12
5.78892e-11
-3.07199e-11
1.171e-10
1.71201e-10
-1.09902e-09
7.16248e-10
1.91136e-10
1.5959e-10
-6.29151e-11
-2.37909e-10
-2.46133e-10
-2.04724e-10
-1.44973e-10
-1.13306e-10
-8.16407e-11
-7.50746e-11
-5.78095e-11
-5.86679e-11
-4.52064e-11
-4.86695e-11
-3.54763e-11
-3.90294e-11
-2.79213e-11
-3.38665e-11
-2.08301e-11
-2.50054e-11
-1.2936e-11
-1.95534e-11
-7.49436e-12
-1.38057e-11
-1.74799e-12
-8.10113e-12
3.49102e-12
-4.10915e-12
7.75482e-12
7.17367e-13
1.30088e-11
6.37881e-12
1.73394e-11
8.5764e-12
1.99469e-11
1.23128e-11
2.32799e-11
1.57613e-11
2.56738e-11
1.72927e-11
2.61362e-11
1.93724e-11
2.70573e-11
2.04653e-11
2.81181e-11
2.1532e-11
2.85337e-11
2.54869e-11
2.98625e-11
2.88783e-11
3.06469e-11
3.34622e-11
2.44868e-11
2.45701e-11
-2.69277e-12
-2.86557e-13
-5.59647e-11
-1.25783e-10
-3.73043e-10
-6.49761e-11
2.02553e-10
1.65626e-10
-6.52577e-11
-2.40482e-10
-2.47423e-10
-2.05074e-10
-1.45158e-10
-1.13382e-10
-8.18092e-11
-7.51785e-11
-5.79781e-11
-5.87432e-11
-4.53505e-11
-4.87238e-11
-3.55901e-11
-3.9049e-11
-2.8024e-11
-3.38893e-11
-2.09216e-11
-2.49991e-11
-1.30198e-11
-1.95486e-11
-7.57169e-12
-1.37821e-11
-1.8179e-12
-8.07166e-12
3.42169e-12
-4.07991e-12
7.68908e-12
7.5893e-13
1.29509e-11
6.42864e-12
1.72773e-11
8.61593e-12
1.98882e-11
1.23711e-11
2.32295e-11
1.58233e-11
2.56286e-11
1.73485e-11
2.60766e-11
1.93711e-11
2.69922e-11
2.05441e-11
2.81076e-11
2.16168e-11
2.85414e-11
2.55995e-11
2.99036e-11
2.89945e-11
3.0751e-11
3.3613e-11
2.46936e-11
2.47194e-11
-2.307e-12
1.30129e-13
-5.42082e-11
-1.24594e-10
-3.80991e-10
-7.04141e-11
2.16544e-10
1.71864e-10
-6.79541e-11
-2.43563e-10
-2.49195e-10
-2.05741e-10
-1.45397e-10
-1.13541e-10
-8.19523e-11
-7.53667e-11
-5.81418e-11
-5.89103e-11
-4.54773e-11
-4.88629e-11
-3.56878e-11
-3.91385e-11
-2.80813e-11
-3.39848e-11
-2.09868e-11
-2.50625e-11
-1.30581e-11
-1.96124e-11
-7.60693e-12
-1.38192e-11
-1.83946e-12
-8.10417e-12
3.40783e-12
-4.11282e-12
7.67709e-12
7.43012e-13
1.29466e-11
6.42027e-12
1.72822e-11
8.59523e-12
1.98862e-11
1.23773e-11
2.32424e-11
1.5834e-11
2.56534e-11
1.73618e-11
2.60736e-11
1.92865e-11
2.69555e-11
2.05748e-11
2.81858e-11
2.16865e-11
2.86182e-11
2.57102e-11
3.00278e-11
2.91153e-11
3.09099e-11
3.37826e-11
2.498e-11
2.49559e-11
-1.8445e-12
5.29003e-13
-5.19289e-11
-1.20764e-10
-3.93195e-10
-7.67595e-11
2.32703e-10
1.77451e-10
-7.04683e-11
-2.46867e-10
-2.51752e-10
-2.06765e-10
-1.45705e-10
-1.13691e-10
-8.20711e-11
-7.55827e-11
-5.83337e-11
-5.91191e-11
-4.5626e-11
-4.90442e-11
-3.58093e-11
-3.92557e-11
-2.81314e-11
-3.41114e-11
-2.10698e-11
-2.51533e-11
-1.30902e-11
-1.97003e-11
-7.64414e-12
-1.38736e-11
-1.85322e-12
-8.15319e-12
3.40811e-12
-4.16291e-12
7.67451e-12
7.13172e-13
1.29556e-11
6.39992e-12
1.73149e-11
8.55895e-12
1.98976e-11
1.23727e-11
2.32825e-11
1.58342e-11
2.5717e-11
1.73707e-11
2.61035e-11
1.91456e-11
2.69044e-11
2.05753e-11
2.83352e-11
2.17615e-11
2.87529e-11
2.58216e-11
3.02424e-11
2.92241e-11
3.11696e-11
3.39277e-11
2.54484e-11
2.51446e-11
-1.13329e-12
7.46032e-13
-4.84138e-11
-1.14955e-10
-4.08854e-10
-8.32588e-11
2.48678e-10
1.80361e-10
-7.19595e-11
-2.49246e-10
-2.54823e-10
-2.08127e-10
-1.4606e-10
-1.13786e-10
-8.21563e-11
-7.58178e-11
-5.85756e-11
-5.93769e-11
-4.58197e-11
-4.92704e-11
-3.59767e-11
-3.93985e-11
-2.81931e-11
-3.42641e-11
-2.119e-11
-2.52647e-11
-1.31314e-11
-1.98031e-11
-7.70141e-12
-1.39374e-11
-1.87475e-12
-8.20821e-12
3.40786e-12
-4.21902e-12
7.66432e-12
6.78927e-13
1.29632e-11
6.37956e-12
1.73626e-11
8.5192e-12
1.99064e-11
1.23663e-11
2.33372e-11
1.58331e-11
2.58107e-11
1.7385e-11
2.61643e-11
1.89573e-11
2.68113e-11
2.05423e-11
2.85526e-11
2.18425e-11
2.89411e-11
2.59195e-11
3.0553e-11
2.92928e-11
3.15446e-11
3.39988e-11
2.61389e-11
2.51951e-11
-8.78231e-14
6.11673e-13
-4.34964e-11
-1.07713e-10
-4.26909e-10
-8.82512e-11
2.62928e-10
1.77579e-10
-7.21726e-11
-2.4939e-10
-2.5793e-10
-2.0978e-10
-1.46429e-10
-1.13786e-10
-8.21833e-11
-7.60641e-11
-5.88722e-11
-5.96907e-11
-4.60671e-11
-4.95483e-11
-3.61992e-11
-3.95755e-11
-2.82736e-11
-3.44457e-11
-2.1354e-11
-2.5402e-11
-1.31864e-11
-1.99223e-11
-7.78398e-12
-1.4014e-11
-1.9075e-12
-8.2709e-12
3.40385e-12
-4.28177e-12
7.64253e-12
6.3799e-13
1.29667e-11
6.35778e-12
1.74231e-11
8.47666e-12
1.99097e-11
1.23545e-11
2.34054e-11
1.58282e-11
2.59359e-11
1.74046e-11
2.62653e-11
1.87171e-11
2.66594e-11
2.04629e-11
2.88418e-11
2.19224e-11
2.91857e-11
2.59821e-11
3.09675e-11
2.92915e-11
3.20524e-11
3.3945e-11
2.70857e-11
2.5022e-11
1.37153e-12
-4.37039e-14
-3.70829e-11
-9.95124e-11
-4.46799e-10
-8.9226e-11
2.75183e-10
1.6589e-10
-7.15631e-11
-2.4607e-10
-2.6052e-10
-2.11657e-10
-1.46787e-10
-1.13649e-10
-8.21243e-11
-7.63078e-11
-5.92202e-11
-6.00613e-11
-4.63715e-11
-4.98806e-11
-3.64815e-11
-3.9794e-11
-2.83788e-11
-3.46572e-11
-2.1565e-11
-2.55708e-11
-1.32597e-11
-2.0059e-11
-7.89535e-12
-1.41074e-11
-1.95387e-12
-8.34352e-12
3.39334e-12
-4.35208e-12
7.60657e-12
5.87661e-13
1.29648e-11
6.33206e-12
1.74945e-11
8.43179e-12
1.99061e-11
1.23332e-11
2.34868e-11
1.58163e-11
2.60942e-11
1.74286e-11
2.64185e-11
1.84176e-11
2.64341e-11
2.03263e-11
2.92068e-11
2.19929e-11
2.94925e-11
2.59866e-11
3.14955e-11
2.91905e-11
3.27161e-11
3.37136e-11
2.83282e-11
2.45371e-11
3.33293e-12
-1.36994e-12
-2.91037e-11
-9.07455e-11
-4.68591e-10
-8.3539e-11
2.86177e-10
1.42367e-10
-7.11666e-11
-2.38208e-10
-2.61969e-10
-2.13677e-10
-1.47118e-10
-1.13339e-10
-8.19544e-11
-7.65341e-11
-5.9614e-11
-6.04859e-11
-4.67347e-11
-5.02666e-11
-3.68259e-11
-4.00576e-11
-2.85151e-11
-3.48976e-11
-2.18251e-11
-2.57744e-11
-1.33571e-11
-2.02135e-11
-8.03883e-12
-1.42201e-11
-2.01693e-12
-8.4268e-12
3.37219e-12
-4.42993e-12
7.55363e-12
5.26591e-13
1.29555e-11
6.30136e-12
1.75723e-11
8.38577e-12
1.98945e-11
1.22995e-11
2.35798e-11
1.57955e-11
2.62854e-11
1.74568e-11
2.66375e-11
1.80488e-11
2.61226e-11
2.01243e-11
2.96498e-11
2.20449e-11
2.98691e-11
2.59109e-11
3.21471e-11
2.89608e-11
3.35603e-11
3.32556e-11
2.99063e-11
2.36625e-11
5.8765e-12
-3.47346e-12
-1.95739e-11
-8.16358e-11
-4.92769e-10
-6.89288e-11
2.9752e-10
1.04655e-10
-7.24831e-11
-2.24967e-10
-2.61613e-10
-2.15748e-10
-1.47423e-10
-1.12826e-10
-8.16536e-11
-7.67292e-11
-6.00478e-11
-6.09599e-11
-4.71563e-11
-5.07038e-11
-3.72328e-11
-4.03683e-11
-2.86884e-11
-3.51648e-11
-2.21345e-11
-2.60145e-11
-1.34841e-11
-2.03853e-11
-8.21681e-12
-1.43537e-11
-2.09978e-12
-8.52081e-12
3.33648e-12
-4.51488e-12
7.4813e-12
4.53978e-13
1.29368e-11
6.26511e-12
1.76522e-11
8.33973e-12
1.98741e-11
1.22512e-11
2.36826e-11
1.57646e-11
2.65087e-11
1.74887e-11
2.69375e-11
1.75983e-11
2.57152e-11
1.98508e-11
3.01729e-11
2.20682e-11
3.03238e-11
2.57347e-11
3.2932e-11
2.85761e-11
3.46076e-11
3.25256e-11
3.18516e-11
2.23427e-11
9.05156e-12
-6.39201e-12
-8.60391e-12
-7.22387e-11
-5.20112e-10
-4.37487e-11
3.11164e-10
5.12272e-11
-7.71939e-11
-2.05794e-10
-2.58801e-10
-2.1777e-10
-1.47727e-10
-1.12102e-10
-8.12074e-11
-7.68821e-11
-6.0516e-11
-6.14786e-11
-4.76355e-11
-5.11886e-11
-3.77006e-11
-4.07263e-11
-2.89039e-11
-3.54564e-11
-2.24919e-11
-2.62915e-11
-1.36455e-11
-2.05735e-11
-8.43025e-12
-1.45091e-11
-2.20501e-12
-8.62536e-12
3.28259e-12
-4.60651e-12
7.38834e-12
3.69386e-13
1.2907e-11
6.22291e-12
1.77293e-11
8.29419e-12
1.98452e-11
1.21864e-11
2.3793e-11
1.57226e-11
2.67618e-11
1.7524e-11
2.73352e-11
1.70528e-11
2.52052e-11
1.95036e-11
3.07768e-11
2.20522e-11
3.08646e-11
2.54417e-11
3.38563e-11
2.80164e-11
3.58742e-11
3.14961e-11
3.41775e-11
2.05541e-11
1.28645e-11
-1.00952e-11
3.56033e-12
-6.24179e-11
-5.51316e-10
-7.21759e-12
3.29264e-10
-1.84364e-11
-8.70773e-11
-1.80512e-10
-2.52915e-10
-2.19619e-10
-1.48068e-10
-1.11174e-10
-8.06086e-11
-7.69854e-11
-6.10148e-11
-6.20383e-11
-4.81717e-11
-5.17181e-11
-3.8228e-11
-4.11314e-11
-2.91657e-11
-3.57704e-11
-2.28952e-11
-2.66048e-11
-1.38453e-11
-2.07777e-11
-8.67929e-12
-1.46868e-11
-2.33489e-12
-8.74019e-12
3.20791e-12
-4.70443e-12
7.27425e-12
2.72439e-13
1.28649e-11
6.17443e-12
1.78e-11
8.24925e-12
1.98085e-11
1.21038e-11
2.39085e-11
1.56687e-11
2.70418e-11
1.75617e-11
2.78459e-11
1.63981e-11
2.45892e-11
1.90843e-11
3.14592e-11
2.19873e-11
3.14968e-11
2.50209e-11
3.49208e-11
2.72702e-11
3.73651e-11
3.01598e-11
3.68739e-11
1.83099e-11
1.72718e-11
-1.4474e-11
1.65929e-11
-5.19159e-11
-5.86955e-10
4.05656e-11
3.53701e-10
-1.0392e-10
-1.03758e-10
-1.49306e-10
-2.4342e-10
-2.21143e-10
-1.48492e-10
-1.10065e-10
-7.98579e-11
-7.70347e-11
-6.15419e-11
-6.26368e-11
-4.8765e-11
-5.22905e-11
-3.88136e-11
-4.15831e-11
-2.9478e-11
-3.61055e-11
-2.33421e-11
-2.69535e-11
-1.4087e-11
-2.09976e-11
-8.96347e-12
-1.48871e-11
-2.49136e-12
-8.865e-12
3.11033e-12
-4.80853e-12
7.13929e-12
1.6303e-13
1.28091e-11
6.11961e-12
1.78613e-11
8.20447e-12
1.97653e-11
1.20025e-11
2.40268e-11
1.56023e-11
2.73444e-11
1.75977e-11
2.84882e-11
1.5635e-11
2.38672e-11
1.85964e-11
3.22136e-11
2.18657e-11
3.22212e-11
2.44688e-11
3.61202e-11
2.63364e-11
3.90709e-11
2.85297e-11
3.99048e-11
1.56642e-11
2.2184e-11
-1.93547e-11
3.00845e-11
-4.04529e-11
-6.2721e-10
9.87223e-11
3.86192e-10
-2.03924e-10
-1.28738e-10
-1.12784e-10
-2.2988e-10
-2.22129e-10
-1.49044e-10
-1.08812e-10
-7.89641e-11
-7.70269e-11
-6.20945e-11
-6.32719e-11
-4.94156e-11
-5.29041e-11
-3.94563e-11
-4.20805e-11
-2.9844e-11
-3.6461e-11
-2.38299e-11
-2.73364e-11
-1.43733e-11
-2.12334e-11
-9.28189e-12
-1.51098e-11
-2.67616e-12
-8.99965e-12
2.98871e-12
-4.91882e-12
6.98389e-12
4.12169e-14
1.27387e-11
6.05835e-12
1.79109e-11
8.15925e-12
1.97169e-11
1.18824e-11
2.41449e-11
1.55234e-11
2.76636e-11
1.76269e-11
2.92724e-11
1.47826e-11
2.30522e-11
1.80471e-11
3.3029e-11
2.16842e-11
3.30333e-11
2.37902e-11
3.74353e-11
2.52314e-11
4.0965e-11
2.66419e-11
4.32073e-11
1.27079e-11
2.74689e-11
-2.45135e-11
4.36526e-11
-2.78478e-11
-6.72042e-10
1.65826e-10
4.2769e-10
-3.16252e-10
-1.63017e-10
-7.192e-11
-2.12044e-10
-2.2234e-10
-1.49747e-10
-1.07474e-10
-7.7946e-11
-7.69609e-11
-6.26699e-11
-6.39415e-11
-5.01231e-11
-5.35571e-11
-4.01541e-11
-4.26224e-11
-3.02664e-11
-3.68368e-11
-2.43559e-11
-2.77517e-11
-1.47065e-11
-2.14856e-11
-9.63316e-12
-1.53545e-11
-2.8906e-12
-9.14416e-12
2.84199e-12
-5.03548e-12
6.80903e-12
-9.24516e-14
1.26529e-11
5.99053e-12
1.79465e-11
8.11289e-12
1.96643e-11
1.17447e-11
2.42591e-11
1.54328e-11
2.79896e-11
1.76422e-11
3.01843e-11
1.38915e-11
2.21918e-11
1.7447e-11
3.38877e-11
2.14451e-11
3.39228e-11
2.29998e-11
3.88428e-11
2.39824e-11
4.3005e-11
2.45555e-11
4.66942e-11
9.56342e-12
3.29628e-11
-2.9704e-11
5.68935e-11
-1.39924e-11
-7.20862e-10
2.39861e-10
4.78436e-10
-4.37796e-10
-2.0704e-10
-2.80402e-11
-1.89868e-10
-2.21511e-10
-1.50614e-10