/*--------------------------------*- C++ -*----------------------------------*\
| =========                 |                                                 |
| \\      /  F ield         | OpenFOAM: The Open Source CFD Toolbox           |
|  \\    /   O peration     | Version:  2312                                  |
|   \\  /    A nd           | Website:  www.openfoam.com                      |
|    \\/     M anipulation  |                                                 |
\*---------------------------------------------------------------------------*/
FoamFile
{
    version     2.0;
    format      ascii;
    arch        "LSB;label=32;scalar=64";
    class       volScalarField;
    location    "640";
    object      pPrime2Mean;
}
// * * * * * * * * * * * * * * * * * * * * * * * * * * * * * * * * * * * * * //

dimensions      [0 4 -4 0 0 0 0];

internalField   nonuniform List<scalar> 
144000
(
4.00656e-18
4.83041e-18
4.50412e-18
3.67888e-18
2.62885e-18
1.8719e-18
1.39691e-18
1.03442e-18
7.68842e-19
6.32315e-19
5.90369e-19
5.33701e-19
4.55228e-19
3.645e-19
3.04761e-19
2.56167e-19
2.35147e-19
2.01284e-19
1.87232e-19
1.66068e-19
1.49872e-19
1.2362e-19
1.25213e-19
9.4184e-20
9.96417e-20
7.81383e-20
7.9163e-20
6.3987e-20
6.34432e-20
4.96715e-20
5.24384e-20
3.81755e-20
4.37368e-20
3.15141e-20
3.35419e-20
3.30281e-20
1.81973e-20
3.68657e-20
1.29724e-20
2.38426e-20
3.04283e-20
3.49036e-21
4.67774e-20
1.14137e-20
3.411e-20
5.15063e-20
2.02563e-20
7.05414e-20
5.50219e-20
5.88823e-20
1.0631e-19
9.33e-20
1.36413e-19
1.96764e-19
2.45542e-19
3.64863e-19
5.86562e-19
1.04957e-18
2.55394e-18
2.65086e-18
4.20377e-18
4.94293e-18
4.62357e-18
3.76796e-18
2.66996e-18
1.89578e-18
1.41259e-18
1.04447e-18
7.74416e-19
6.35647e-19
5.93152e-19
5.36161e-19
4.57012e-19
3.6567e-19
3.05556e-19
2.56791e-19
2.35732e-19
2.01763e-19
1.87564e-19
1.66504e-19
1.50223e-19
1.23761e-19
1.25506e-19
9.44227e-20
9.97511e-20
7.83908e-20
7.92761e-20
6.41777e-20
6.35785e-20
4.97899e-20
5.2612e-20
3.82594e-20
4.39047e-20
3.1677e-20
3.35864e-20
3.34516e-20
1.80737e-20
3.73631e-20
1.31973e-20
2.38384e-20
3.13556e-20
3.23163e-21
4.77065e-20
1.20542e-20
3.42742e-20
5.33356e-20
2.06355e-20
7.224e-20
5.72959e-20
6.0432e-20
1.1004e-19
9.724e-20
1.4136e-19
2.05022e-19
2.56071e-19
3.8044e-19
6.12576e-19
1.08903e-18
2.6679e-18
2.7186e-18
4.34687e-18
5.03061e-18
4.66727e-18
3.79326e-18
2.67801e-18
1.90268e-18
1.42017e-18
1.05064e-18
7.78175e-19
6.38013e-19
5.95654e-19
5.38539e-19
4.58804e-19
3.66748e-19
3.06333e-19
2.57375e-19
2.36465e-19
2.02257e-19
1.87955e-19
1.6702e-19
1.50685e-19
1.23842e-19
1.25991e-19
9.46091e-20
1.0002e-19
7.86461e-20
7.95122e-20
6.43938e-20
6.38415e-20
4.9915e-20
5.29492e-20
3.83433e-20
4.42364e-20
3.19078e-20
3.37197e-20
3.41213e-20
1.79182e-20
3.82192e-20
1.35321e-20
2.39801e-20
3.27978e-20
2.93751e-21
4.92823e-20
1.30374e-20
3.48046e-20
5.61311e-20
2.14539e-20
7.50287e-20
6.08631e-20
6.30861e-20
1.15817e-19
1.03316e-19
1.48804e-19
2.16742e-19
2.70342e-19
3.99368e-19
6.40996e-19
1.13098e-18
2.7799e-18
2.78609e-18
4.32074e-18
4.96888e-18
4.5773e-18
3.6982e-18
2.62838e-18
1.87585e-18
1.4076e-18
1.04485e-18
7.74769e-19
6.35902e-19
5.95026e-19
5.38637e-19
4.58922e-19
3.66699e-19
3.06289e-19
2.57361e-19
2.36778e-19
2.02397e-19
1.88013e-19
1.6733e-19
1.50999e-19
1.23752e-19
1.26378e-19
9.47217e-20
1.00221e-19
7.88835e-20
7.97323e-20
6.4611e-20
6.40998e-20
5.00452e-20
5.33164e-20
3.84256e-20
4.46208e-20
3.21704e-20
3.3866e-20
3.49171e-20
1.77318e-20
3.92482e-20
1.39434e-20
2.41647e-20
3.45145e-20
2.63774e-21
5.11219e-20
1.42708e-20
3.54261e-20
5.94054e-20
2.24949e-20
7.82062e-20
6.50523e-20
6.61105e-20
1.22217e-19
1.10113e-19
1.56523e-19
2.28758e-19
2.83876e-19
4.15006e-19
6.60876e-19
1.14087e-18
2.84478e-18
2.76654e-18
4.13714e-18
4.82084e-18
4.37377e-18
3.48677e-18
2.52511e-18
1.81452e-18
1.37251e-18
1.02447e-18
7.61896e-19
6.27152e-19
5.89127e-19
5.34546e-19
4.56023e-19
3.64616e-19
3.04779e-19
2.56242e-19
2.36177e-19
2.01809e-19
1.8742e-19
1.671e-19
1.50899e-19
1.23349e-19
1.26433e-19
9.46464e-20
1.00242e-19
7.89889e-20
7.98484e-20
6.47522e-20
6.42761e-20
5.01265e-20
5.36383e-20
3.8474e-20
4.4979e-20
3.24161e-20
3.39714e-20
3.57204e-20
1.7522e-20
4.02624e-20
1.43834e-20
2.43227e-20
3.62416e-20
2.37091e-21
5.28681e-20
1.5597e-20
3.59633e-20
6.2614e-20
2.35848e-20
8.1104e-20
6.91589e-20
6.89011e-20
1.27996e-19
1.16389e-19
1.62864e-19
2.38481e-19
2.94008e-19
4.23973e-19
6.71051e-19
1.1186e-18
2.88188e-18
2.6944e-18
3.91019e-18
4.7514e-18
4.12511e-18
3.21116e-18
2.38973e-18
1.73127e-18
1.31952e-18
9.91362e-19
7.40369e-19
6.11878e-19
5.77609e-19
5.25785e-19
4.49623e-19
3.60091e-19
3.01508e-19
2.53769e-19
2.34431e-19
2.00297e-19
1.86004e-19
1.66128e-19
1.50206e-19
1.22531e-19
1.2602e-19
9.42703e-20
1.00008e-19
7.88776e-20
7.98e-20
6.47629e-20
6.43139e-20
5.01195e-20
5.38538e-20
3.84538e-20
4.52472e-20
3.26038e-20
3.39939e-20
3.64393e-20
1.72895e-20
4.11595e-20
1.47993e-20
2.4429e-20
3.77907e-20
2.15516e-21
5.4326e-20
1.68544e-20
3.63555e-20
6.53422e-20
2.4595e-20
8.34186e-20
7.26474e-20
7.1223e-20
1.32475e-19
1.21514e-19
1.67409e-19
2.45352e-19
3.0038e-19
4.27538e-19
6.73798e-19
1.07555e-18
2.93698e-18
2.64848e-18
3.69232e-18
4.85928e-18
3.87159e-18
2.9113e-18
2.23283e-18
1.63233e-18
1.25252e-18
9.4802e-19
7.11668e-19
5.91103e-19
5.6111e-19
5.12674e-19
4.39865e-19
3.53198e-19
2.96516e-19
2.49979e-19
2.31532e-19
1.97842e-19
1.83768e-19
1.6437e-19
1.48878e-19
1.21261e-19
1.2508e-19
9.35259e-20
9.94687e-20
7.85152e-20
7.95284e-20
6.46186e-20
6.41768e-20
5.00017e-20
5.39243e-20
3.83511e-20
4.5384e-20
3.27122e-20
3.39126e-20
3.70216e-20
1.70358e-20
4.18703e-20
1.51536e-20
2.44897e-20
3.90736e-20
1.98795e-21
5.54535e-20
1.79346e-20
3.66256e-20
6.74773e-20
2.54312e-20
8.51508e-20
7.53176e-20
7.30687e-20
1.35659e-19
1.25314e-19
1.7033e-19
2.49514e-19
3.03295e-19
4.27195e-19
6.70395e-19
1.01972e-18
3.02609e-18
2.68581e-18
3.50169e-18
5.16956e-18
3.63033e-18
2.61484e-18
2.05872e-18
1.52119e-18
1.17442e-18
8.96423e-19
6.77294e-19
5.65959e-19
5.40552e-19
4.95994e-19
4.27285e-19
3.44238e-19
2.89999e-19
2.45005e-19
2.27597e-19
1.94555e-19
1.80818e-19
1.61911e-19
1.46973e-19
1.19566e-19
1.23645e-19
9.24213e-20
9.86054e-20
7.79093e-20
7.90159e-20
6.43213e-20
6.38572e-20
4.97732e-20
5.38386e-20
3.81701e-20
4.53742e-20
3.27438e-20
3.37228e-20
3.74565e-20
1.67665e-20
4.23992e-20
1.54454e-20
2.45059e-20
4.01207e-20
1.84976e-21
5.62941e-20
1.88321e-20
3.68024e-20
6.91037e-20
2.60562e-20
8.64933e-20
7.72328e-20
7.45002e-20
1.37849e-19
1.27934e-19
1.71913e-19
2.51502e-19
3.03097e-19
4.24095e-19
6.6106e-19
9.57103e-19
3.14447e-18
2.81585e-18
3.34344e-18
5.62705e-18
3.41002e-18
2.34289e-18
1.87292e-18
1.40172e-18
1.08851e-18
8.38977e-19
6.39051e-19
5.37733e-19
5.17103e-19
4.7666e-19
4.12569e-19
3.33674e-19
2.82254e-19
2.39054e-19
2.22795e-19
1.90584e-19
1.77297e-19
1.58894e-19
1.4461e-19
1.17521e-19
1.21801e-19
9.10139e-20
9.74243e-20
7.7092e-20
7.82653e-20
6.38861e-20
6.33654e-20
4.94522e-20
5.36084e-20
3.79276e-20
4.52247e-20
3.27176e-20
3.34289e-20
3.77687e-20
1.64886e-20
4.27621e-20
1.57099e-20
2.44618e-20
4.10209e-20
1.70926e-21
5.69312e-20
1.96125e-20
3.68446e-20
7.04188e-20
2.64198e-20
8.75158e-20
7.85552e-20
7.5434e-20
1.39235e-19
1.29363e-19
1.72089e-19
2.51518e-19
2.99758e-19
4.18074e-19
6.44961e-19
8.9202e-19
3.27017e-18
2.99643e-18
3.21268e-18
6.12321e-18
3.21726e-18
2.10381e-18
1.68381e-18
1.27811e-18
9.98594e-19
7.78269e-19
5.98692e-19
5.07776e-19
4.91838e-19
4.55588e-19
3.96451e-19
3.22022e-19
2.73646e-19
2.32392e-19
2.17334e-19
1.86081e-19
1.73343e-19
1.55466e-19
1.41942e-19
1.1522e-19
1.1966e-19
8.93985e-20
9.59543e-20
7.61204e-20
7.7297e-20
6.33331e-20
6.2719e-20
4.90625e-20
5.32519e-20
3.76432e-20
4.49479e-20
3.266e-20
3.30317e-20
3.79816e-20
1.62086e-20
4.29541e-20
1.60002e-20
2.43029e-20
4.1866e-20
1.53691e-21
5.73446e-20
2.03677e-20
3.66171e-20
7.15231e-20
2.64562e-20
8.80821e-20
7.93542e-20
7.55804e-20
1.39654e-19
1.29456e-19
1.70414e-19
2.49196e-19
2.92537e-19
4.07902e-19
6.19046e-19
8.24901e-19
3.3707e-18
3.14505e-18
3.09193e-18
6.5063e-18
3.05415e-18
1.89275e-18
1.5005e-18
1.15492e-18
9.08477e-19
7.16798e-19
5.57954e-19
4.77338e-19
4.6579e-19
4.33658e-19
3.79593e-19
3.09776e-19
2.6455e-19
2.25306e-19
2.11431e-19
1.81227e-19
1.6907e-19
1.5175e-19
1.39104e-19
1.12759e-19
1.17319e-19
8.7684e-20
9.42454e-20
7.50401e-20
7.61455e-20
6.26748e-20
6.19423e-20
4.86254e-20
5.27833e-20
3.73351e-20
4.45523e-20
3.25885e-20
3.25312e-20
3.81094e-20
1.59321e-20
4.29457e-20
1.63617e-20
2.39616e-20
4.26905e-20
1.31531e-21
5.74398e-20
2.11479e-20
3.5971e-20
7.23504e-20
2.60969e-20
8.79202e-20
7.95521e-20
7.46421e-20
1.38805e-19
1.27909e-19
1.66302e-19
2.44013e-19
2.80941e-19
3.92412e-19
5.82599e-19
7.55267e-19
3.40513e-18
3.18666e-18
2.9612e-18
6.66752e-18
2.91633e-18
1.70111e-18
1.33016e-18
1.03595e-18
8.21354e-19
6.56606e-19
5.18175e-19
4.47442e-19
4.39818e-19
4.11578e-19
3.6254e-19
2.97352e-19
2.55274e-19
2.18038e-19
2.05291e-19
1.76174e-19
1.64591e-19
1.47848e-19
1.36184e-19
1.10225e-19
1.14853e-19
8.59655e-20
9.2359e-20
7.38987e-20
7.48516e-20
6.19233e-20
6.10548e-20
4.81542e-20
5.22095e-20
3.70171e-20
4.40506e-20
3.2512e-20
3.19247e-20
3.81469e-20
1.56669e-20
4.26927e-20
1.68029e-20
2.33868e-20
4.34721e-20
1.04668e-21
5.71213e-20
2.19438e-20
3.47876e-20
7.2789e-20
2.53175e-20
8.68367e-20
7.90775e-20
7.24873e-20
1.36488e-19
1.24634e-19
1.59677e-19
2.35867e-19
2.65148e-19
3.71398e-19
5.37163e-19
6.83734e-19
3.34798e-18
3.07912e-18
2.80029e-18
6.55121e-18
2.79145e-18
1.5194e-18
1.17697e-18
9.24039e-19
7.39725e-19
5.99188e-19
4.80276e-19
4.18835e-19
4.14594e-19
3.8992e-19
3.45743e-19
2.85049e-19
2.46056e-19
2.10794e-19
1.99094e-19
1.71067e-19
1.60022e-19
1.4385e-19
1.33242e-19
1.07689e-19
1.12318e-19
8.43115e-20
9.03682e-20
7.27358e-20
7.34681e-20
6.10946e-20
6.00786e-20
4.7655e-20
5.15345e-20
3.67005e-20
4.34489e-20
3.2429e-20
3.12254e-20
3.80783e-20
1.54214e-20
4.21686e-20
1.73076e-20
2.25922e-20
4.42171e-20
7.50964e-22
5.63671e-20
2.2722e-20
3.30945e-20
7.27605e-20
2.41617e-20
8.47937e-20
7.79335e-20
6.91588e-20
1.32767e-19
1.19828e-19
1.50832e-19
2.25181e-19
2.46106e-19
3.45919e-19
4.85968e-19
6.1161e-19
3.19048e-18
2.82301e-18
2.59825e-18
6.16585e-18
2.66571e-18
1.34222e-18
1.04229e-18
8.2097e-19
6.65005e-19
5.45545e-19
4.44808e-19
3.92003e-19
3.9058e-19
3.69112e-19
3.29511e-19
2.73123e-19
2.37081e-19
2.03737e-19
1.92981e-19
1.66039e-19
1.55471e-19
1.39836e-19
1.30312e-19
1.05205e-19
1.09753e-19
8.27607e-20
8.83318e-20
7.15833e-20
7.20408e-20
6.02108e-20
5.90368e-20
4.71351e-20
5.07665e-20
3.63938e-20
4.27597e-20
3.23357e-20
3.0457e-20
3.78973e-20
1.52045e-20
4.13882e-20
1.78485e-20
2.16158e-20
4.49862e-20
4.60529e-22
5.52847e-20
2.34647e-20
3.09865e-20
7.22609e-20
2.27365e-20
8.19105e-20
7.62548e-20
6.49147e-20
1.27921e-19
1.13904e-19
1.4041e-19
2.12711e-19
2.25199e-19
3.17713e-19
4.33341e-19
5.40982e-19
2.94541e-18
2.45781e-18
2.35301e-18
5.56973e-18
2.52612e-18
1.16944e-18
9.25126e-19
7.27704e-19
5.97773e-19
4.96257e-19
4.1203e-19
3.67189e-19
3.68077e-19
3.49415e-19
3.14042e-19
2.61732e-19
2.28448e-19
1.96966e-19
1.87055e-19
1.61175e-19
1.51021e-19
1.3588e-19
1.2742e-19
1.02813e-19
1.07189e-19
8.13266e-20
8.62969e-20
7.0464e-20
7.06063e-20
5.92985e-20
5.79558e-20
4.66052e-20
4.9921e-20
3.61039e-20
4.20025e-20
3.22302e-20
2.96528e-20
3.76108e-20
1.50282e-20
4.03903e-20
1.84112e-20
2.04909e-20
4.59744e-20
2.16635e-22
5.41524e-20
2.41836e-20
2.85897e-20
7.13586e-20
2.11803e-20
7.83581e-20
7.42286e-20
6.00777e-20
1.2231e-19
1.07355e-19
1.29129e-19
1.99316e-19
2.0386e-19
2.88632e-19
3.82846e-19
4.73754e-19
2.6367e-18
2.03907e-18
2.07339e-18
4.84809e-18
2.36439e-18
1.00508e-18
8.2318e-19
6.44559e-19
5.38036e-19
4.51554e-19
3.81966e-19
3.44447e-19
3.47199e-19
3.30968e-19
2.99457e-19
2.50947e-19
2.20215e-19
1.90539e-19
1.81378e-19
1.56528e-19
1.46729e-19
1.32043e-19
1.24588e-19
1.00541e-19
1.04652e-19
8.00079e-20
8.42974e-20
6.93918e-20
6.91953e-20
5.83861e-20
5.68596e-20
4.60774e-20
4.90201e-20
3.58339e-20
4.1203e-20
3.21125e-20
2.88469e-20
3.72346e-20
1.49041e-20
3.92294e-20
1.89819e-20
1.92543e-20
4.75005e-20
5.92752e-23
5.34388e-20
2.49018e-20
2.60348e-20
7.01526e-20
1.96247e-20
7.43653e-20
7.2045e-20
5.496e-20
1.16288e-19
1.0063e-19
1.17635e-19
1.85737e-19
1.83272e-19
2.6023e-19
3.36859e-19
4.11167e-19
2.2963e-18
1.62505e-18
1.77485e-18
4.08456e-18
2.17625e-18
8.54222e-19
7.33614e-19
5.71326e-19
4.85364e-19
4.11384e-19
3.54494e-19
3.23695e-19
3.27954e-19
3.13823e-19
2.85795e-19
2.40796e-19
2.12408e-19
1.84488e-19
1.75984e-19
1.52126e-19
1.42631e-19
1.28372e-19
1.21829e-19
9.84059e-20
1.02162e-19
7.87961e-20
8.23536e-20
6.83744e-20
6.78298e-20
5.74955e-20
5.57697e-20
4.55635e-20
4.80881e-20
3.55859e-20
4.03847e-20
3.19876e-20
2.80616e-20
3.67972e-20
1.48208e-20
3.79899e-20
1.94882e-20
1.80465e-20
4.82753e-20
7.92931e-28
5.23082e-20
2.54944e-20
2.34549e-20
6.87292e-20
1.81735e-20
7.01252e-20
6.98544e-20
4.98176e-20
1.10148e-19
9.407e-20
1.06413e-19
1.72564e-19
1.64177e-19
2.33504e-19
2.96547e-19
3.53982e-19
1.95327e-18
1.2566e-18
1.47929e-18
3.34966e-18
1.96433e-18
7.21425e-19
6.53878e-19
5.07469e-19
4.39113e-19
3.75541e-19
3.29432e-19
3.04785e-19
3.10283e-19
2.97968e-19
2.73051e-19
2.31277e-19
2.05027e-19
1.78812e-19
1.70886e-19
1.47978e-19
1.38741e-19
1.24895e-19
1.19154e-19
9.64164e-20
9.97459e-20
7.76808e-20
8.04843e-20
6.74141e-20
6.65222e-20
5.66424e-20
5.47033e-20
4.50731e-20
4.71478e-20
3.53608e-20
3.95682e-20
3.18622e-20
2.73103e-20
3.6329e-20
1.47619e-20
3.67456e-20
1.9865e-20
1.69809e-20
4.65052e-20
5.40717e-23
4.92159e-20
2.58608e-20
2.09531e-20
6.71691e-20
1.68988e-20
6.57876e-20
6.77593e-20
4.48384e-20
1.04087e-19
8.79058e-20
9.57861e-20
1.60139e-19
1.47023e-19
2.08994e-19
2.62012e-19
3.02782e-19
1.63271e-18
9.58556e-19
1.20851e-18
2.69275e-18
1.73621e-18
6.09508e-19
5.82063e-19
4.52213e-19
3.98593e-19
3.43745e-19
3.06583e-19
2.87538e-19
2.94084e-19
2.83348e-19
2.61195e-19
2.22376e-19
1.98058e-19
1.73501e-19
1.66078e-19
1.4408e-19
1.35063e-19
1.21628e-19
1.1657e-19
9.45722e-20
9.74143e-20
7.66513e-20
7.8695e-20
6.65103e-20
6.52793e-20
5.58371e-20
5.36735e-20
4.46126e-20
4.62193e-20
3.51576e-20
3.87721e-20
3.17396e-20
2.66086e-20
3.58453e-20
1.47415e-20
3.55123e-20
2.0176e-20
1.60001e-20
4.42127e-20
2.17593e-22
4.58338e-20
2.61764e-20
1.85758e-20
6.55335e-20
1.58413e-20
6.14658e-20
6.5819e-20
4.0147e-20
9.82403e-20
8.2265e-20
8.59388e-20
1.48633e-19
1.31946e-19
1.86854e-19
2.32821e-19
2.57909e-19
1.35154e-18
7.3972e-19
9.81511e-19
2.13977e-18
1.50285e-18
5.18544e-19
5.17001e-19
4.04675e-19
3.63119e-19
3.15659e-19
2.85752e-19
2.71764e-19
2.79232e-19
2.69885e-19
2.50175e-19
2.14051e-19
1.91475e-19
1.68535e-19
1.61554e-19
1.40419e-19
1.3159e-19
1.18573e-19
1.1408e-19
9.28679e-20
9.5178e-20
7.56981e-20
7.69886e-20
6.56613e-20
6.41041e-20
5.50842e-20
5.26897e-20
4.41852e-20
4.53174e-20
3.4975e-20
3.80097e-20
3.16224e-20
2.59657e-20
3.53586e-20
1.47705e-20
3.43003e-20
2.04862e-20
1.50567e-20
4.26172e-20
5.33798e-22
4.31734e-20
2.65571e-20
1.63571e-20
6.38601e-20
1.50238e-20
5.72379e-20
6.40614e-20
3.58184e-20
9.26605e-20
7.72023e-20
7.69425e-20
1.38089e-19
1.18875e-19
1.6695e-19
2.08229e-19
2.19481e-19
1.11876e-18
5.954e-19
8.10352e-19
1.69549e-18
1.2751e-18
4.4637e-19
4.58101e-19
3.63872e-19
3.3208e-19
2.90916e-19
2.66759e-19
2.57279e-19
2.6559e-19
2.57493e-19
2.39933e-19
2.06257e-19
1.8525e-19
1.6389e-19
1.57302e-19
1.3698e-19
1.28309e-19
1.15727e-19
1.11686e-19
9.12937e-20
9.3043e-20
7.48123e-20
7.53656e-20
6.48646e-20
6.29969e-20
5.43862e-20
5.17574e-20
4.37918e-20
4.44514e-20
3.48122e-20
3.72895e-20
3.15143e-20
2.53816e-20
3.48829e-20
1.48393e-20
3.31373e-20
2.07919e-20
1.41849e-20
4.14434e-20
9.59985e-22
4.08898e-20
2.69857e-20
1.43364e-20
6.21748e-20
1.44436e-20
5.31573e-20
6.24873e-20
3.18893e-20
8.73843e-20
7.27241e-20
6.87979e-20
1.28473e-19
1.07608e-19
1.49085e-19
1.87414e-19
1.87416e-19
9.35175e-19
5.12239e-19
7.01612e-19
1.35128e-18
1.06309e-18
3.89163e-19
4.05135e-19
3.28876e-19
3.04934e-19
2.6916e-19
2.49448e-19
2.43922e-19
2.53029e-19
2.46083e-19
2.30407e-19
1.98948e-19
1.79353e-19
1.59543e-19
1.53301e-19
1.33745e-19
1.25207e-19
1.1308e-19
1.09387e-19
8.98395e-20
9.10122e-20
7.39863e-20
7.38243e-20
6.41166e-20
6.19561e-20
5.37421e-20
5.08803e-20
4.3432e-20
4.3627e-20
3.46678e-20
3.66167e-20
3.14166e-20
2.4857e-20
3.44247e-20
1.49434e-20
3.20359e-20
2.1085e-20
1.34161e-20
4.0479e-20
1.45073e-21
3.88087e-20
2.744e-20
1.25277e-20
6.04968e-20
1.40872e-20
4.92582e-20
6.10835e-20
2.83728e-20
8.2416e-20
6.87964e-20
6.14636e-20
1.19712e-19
9.79171e-20
1.32972e-19
1.69687e-19
1.61371e-19
7.96729e-19
4.72907e-19
6.56125e-19
1.08928e-18
8.7557e-19
3.42469e-19
3.58045e-19
2.98803e-19
2.81214e-19
2.50051e-19
2.33686e-19
2.31555e-19
2.4143e-19
2.35567e-19
2.21542e-19
1.92082e-19
1.73759e-19
1.55467e-19
1.49537e-19
1.30698e-19
1.22272e-19
1.10618e-19
1.0718e-19
8.8494e-20
8.90861e-20
7.32128e-20
7.23622e-20
6.34132e-20
6.09797e-20
5.31498e-20
5.00603e-20
4.31042e-20
4.2848e-20
3.45399e-20
3.59947e-20
3.13287e-20
2.43922e-20
3.39863e-20
1.50826e-20
3.09962e-20
2.13691e-20
1.27551e-20
3.96182e-20
1.99156e-21
3.68745e-20
2.79213e-20
1.09278e-20
5.8837e-20
1.39363e-20
4.55621e-20
5.98284e-20
2.52652e-20
7.77414e-20
6.53741e-20
5.48758e-20
1.11723e-19
8.95804e-20
1.18372e-19
1.54419e-19
1.40818e-19
6.96083e-19
4.59493e-19
6.70218e-19
8.88909e-19
7.18952e-19
3.02147e-19
3.16779e-19
2.7292e-19
2.60538e-19
2.33283e-19
2.19358e-19
2.20065e-19
2.30682e-19
2.25865e-19
2.13283e-19
1.85616e-19
1.68439e-19
1.51639e-19
1.45992e-19
1.27824e-19
1.19489e-19
1.08327e-19
1.05062e-19
8.72458e-20
8.72632e-20
7.24855e-20
7.09761e-20
6.27505e-20
6.00646e-20
5.26068e-20
4.92982e-20
4.28065e-20
4.21152e-20
3.44266e-20
3.54244e-20
3.12501e-20
2.39865e-20
3.35695e-20
1.52545e-20
3.00195e-20
2.16486e-20
1.21956e-20
3.88031e-20
2.57784e-21
3.50653e-20
2.84255e-20
9.53163e-21
5.72024e-20
1.39677e-20
4.20852e-20
5.86966e-20
2.25531e-20
7.33433e-20
6.24041e-20
4.89711e-20
1.04416e-19
8.23993e-20
1.05067e-19
1.41141e-19
1.25272e-19
6.24564e-19
4.55086e-19
7.3619e-19
7.28946e-19
5.96547e-19
2.64947e-19
2.81083e-19
2.50614e-19
2.42581e-19
2.1859e-19
2.06362e-19
2.0936e-19
2.20691e-19
2.169e-19
2.05578e-19
1.79511e-19
1.63369e-19
1.48036e-19
1.42648e-19
1.25106e-19
1.16847e-19
1.06194e-19
1.0303e-19
8.60852e-20
8.55404e-20
7.17997e-20
6.96611e-20
6.21249e-20
5.92075e-20
5.21108e-20
4.85938e-20
4.2537e-20
4.14281e-20
3.43268e-20
3.4906e-20
3.11803e-20
2.36381e-20
3.31761e-20
1.54553e-20
2.91085e-20
2.19237e-20
1.17316e-20
3.80229e-20
3.20452e-21
3.33724e-20
2.89431e-20
8.33236e-21
5.56049e-20
1.41571e-20
3.88404e-20
5.76704e-20
2.02178e-20
6.92141e-20
5.9837e-20
4.3697e-20
9.77304e-20
7.6226e-20
9.28918e-20
1.29485e-19
1.14305e-19
5.72779e-19
4.45493e-19
4.01395e-18
4.84751e-18
4.52128e-18
3.68885e-18
2.63501e-18
1.87517e-18
1.39955e-18
1.03677e-18
7.70716e-19
6.33538e-19
5.91054e-19
5.34051e-19
4.55356e-19
3.64503e-19
3.04677e-19
2.56073e-19
2.35051e-19
2.01251e-19
1.87229e-19
1.66075e-19
1.49893e-19
1.23642e-19
1.25255e-19
9.41952e-20
9.9677e-20
7.81416e-20
7.91951e-20
6.39951e-20
6.34829e-20
4.96642e-20
5.24686e-20
3.81595e-20
4.37484e-20
3.14982e-20
3.35467e-20
3.3019e-20
1.8206e-20
3.68623e-20
1.29877e-20
2.38408e-20
3.04585e-20
3.48317e-21
4.67859e-20
1.1395e-20
3.41403e-20
5.15663e-20
2.02437e-20
7.06269e-20
5.50269e-20
5.89729e-20
1.06345e-19
9.33953e-20
1.36336e-19
1.9681e-19
2.45303e-19
3.64585e-19
5.85984e-19
1.04799e-18
2.56562e-18
2.65851e-18
4.21091e-18
4.96102e-18
4.64085e-18
3.77854e-18
2.67609e-18
1.89905e-18
1.41525e-18
1.04681e-18
7.76291e-19
6.36866e-19
5.9383e-19
5.36505e-19
4.57136e-19
3.65668e-19
3.05467e-19
2.56692e-19
2.35634e-19
2.01727e-19
1.87559e-19
1.66509e-19
1.50243e-19
1.23783e-19
1.25547e-19
9.44329e-20
9.9786e-20
7.83935e-20
7.93084e-20
6.41864e-20
6.36186e-20
4.97831e-20
5.26421e-20
3.82439e-20
4.39158e-20
3.16621e-20
3.35905e-20
3.34434e-20
1.80816e-20
3.73602e-20
1.3212e-20
2.38368e-20
3.13875e-20
3.22438e-21
4.77169e-20
1.20347e-20
3.43054e-20
5.33985e-20
2.06236e-20
7.23273e-20
5.73033e-20
6.05225e-20
1.10078e-19
9.73346e-20
1.41275e-19
2.05058e-19
2.55818e-19
3.80145e-19
6.11873e-19
1.08741e-18
2.67975e-18
2.72625e-18
4.35617e-18
5.04936e-18
4.68434e-18
3.80394e-18
2.68392e-18
1.90567e-18
1.42267e-18
1.05295e-18
7.80025e-19
6.39223e-19
5.96326e-19
5.38871e-19
4.58919e-19
3.66738e-19
3.06235e-19
2.57268e-19
2.36361e-19
2.02219e-19
1.8795e-19
1.67023e-19
1.50705e-19
1.23864e-19
1.26033e-19
9.46182e-20
1.00055e-19
7.86481e-20
7.95449e-20
6.44037e-20
6.38831e-20
4.9909e-20
5.298e-20
3.83285e-20
4.42471e-20
3.18942e-20
3.37235e-20
3.41145e-20
1.79256e-20
3.82182e-20
1.35469e-20
2.39783e-20
3.28325e-20
2.93003e-21
4.92973e-20
1.30152e-20
3.48388e-20
5.61995e-20
2.14439e-20
7.51187e-20
6.08745e-20
6.31802e-20
1.15862e-19
1.03419e-19
1.48729e-19
2.16809e-19
2.70105e-19
3.99096e-19
6.40271e-19
1.13e-18
2.79149e-18
2.79468e-18
4.33063e-18
4.98853e-18
4.5929e-18
3.70818e-18
2.63381e-18
1.87831e-18
1.40995e-18
1.04706e-18
7.76589e-19
6.37083e-19
5.95677e-19
5.38951e-19
4.5902e-19
3.66677e-19
3.06181e-19
2.57243e-19
2.36665e-19
2.02353e-19
1.88006e-19
1.67331e-19
1.51016e-19
1.23773e-19
1.26419e-19
9.473e-20
1.00254e-19
7.88848e-20
7.97642e-20
6.46224e-20
6.41421e-20
5.00407e-20
5.33475e-20
3.84121e-20
4.46305e-20
3.21586e-20
3.38682e-20
3.49124e-20
1.7738e-20
3.92471e-20
1.39583e-20
2.41627e-20
3.45573e-20
2.63051e-21
5.11419e-20
1.42416e-20
3.5466e-20
5.94805e-20
2.24878e-20
7.83041e-20
6.50718e-20
6.62116e-20
1.22281e-19
1.10237e-19
1.56469e-19
2.28864e-19
2.83712e-19
4.14861e-19
6.60343e-19
1.14093e-18
2.85748e-18
2.77591e-18
4.14447e-18
4.83871e-18
4.38686e-18
3.49532e-18
2.5297e-18
1.81686e-18
1.37455e-18
1.02653e-18
7.63632e-19
6.28298e-19
5.89744e-19
5.34844e-19
4.56099e-19
3.64576e-19
3.04659e-19
2.56109e-19
2.36053e-19
2.01757e-19
1.87408e-19
1.67098e-19
1.50913e-19
1.2337e-19
1.26474e-19
9.46545e-20
1.00274e-19
7.89895e-20
7.98777e-20
6.4766e-20
6.43188e-20
5.01248e-20
5.36685e-20
3.84629e-20
4.49864e-20
3.24069e-20
3.39722e-20
3.57179e-20
1.75255e-20
4.02637e-20
1.4398e-20
2.43195e-20
3.62908e-20
2.36478e-21
5.28948e-20
1.55544e-20
3.60108e-20
6.26981e-20
2.35824e-20
8.12091e-20
6.91874e-20
6.90163e-20
1.28084e-19
1.16541e-19
1.62858e-19
2.38655e-19
2.93941e-19
4.24013e-19
6.70829e-19
1.11875e-18
2.89583e-18
2.7035e-18
3.91843e-18
4.76522e-18
4.13582e-18
3.21819e-18
2.39334e-18
1.73321e-18
1.32131e-18
9.93275e-19
7.42087e-19
6.13017e-19
5.78201e-19
5.2605e-19
4.49679e-19
3.60036e-19
3.01375e-19
2.53623e-19
2.34293e-19
2.00238e-19
1.85986e-19
1.66121e-19
1.50214e-19
1.22551e-19
1.26059e-19
9.4279e-20
1.00036e-19
7.88785e-20
7.9825e-20
6.47797e-20
6.43562e-20
5.01215e-20
5.38828e-20
3.84458e-20
4.52504e-20
3.25983e-20
3.39906e-20
3.64409e-20
1.72902e-20
4.11627e-20
1.48129e-20
2.44246e-20
3.78496e-20
2.15134e-21
5.43606e-20
1.67907e-20
3.64115e-20
6.54348e-20
2.45986e-20
8.35299e-20
7.26862e-20
7.13531e-20
1.32583e-19
1.21695e-19
1.6744e-19
2.45592e-19
3.00386e-19
4.27758e-19
6.73793e-19
1.07613e-18
2.95142e-18
2.65598e-18
3.70022e-18
4.86808e-18
3.88005e-18
2.917e-18
2.23582e-18
1.63389e-18
1.25412e-18
9.49875e-19
7.13362e-19
5.92215e-19
5.61668e-19
5.12906e-19
4.39903e-19
3.53129e-19
2.96372e-19
2.49821e-19
2.3138e-19
1.97774e-19
1.83744e-19
1.64358e-19
1.48879e-19
1.2128e-19
1.25116e-19
9.35361e-20
9.94924e-20
7.85169e-20
7.95474e-20
6.46388e-20
6.42167e-20
5.00086e-20
5.39498e-20
3.83474e-20
4.53821e-20
3.27116e-20
3.39037e-20
3.70286e-20
1.70316e-20
4.1875e-20
1.51645e-20
2.44813e-20
3.9142e-20
1.98776e-21
5.54967e-20
1.78408e-20
3.6691e-20
6.75783e-20
2.54412e-20
8.52657e-20
7.53662e-20
7.32113e-20
1.35783e-19
1.25522e-19
1.70389e-19
2.49819e-19
3.03342e-19
4.27569e-19
6.70521e-19
1.02053e-18
3.04028e-18
2.69126e-18
3.50897e-18
5.17364e-18
3.63663e-18
2.61944e-18
2.06122e-18
1.5224e-18
1.17584e-18
8.98235e-19
6.78971e-19
5.67047e-19
5.41099e-19
4.96202e-19
4.27306e-19
3.44157e-19
2.89847e-19
2.44838e-19
2.27431e-19
1.94478e-19
1.80788e-19
1.61896e-19
1.46966e-19
1.19586e-19
1.23679e-19
9.24342e-20
9.86235e-20
7.79124e-20
7.90276e-20
6.43452e-20
6.38931e-20
4.97863e-20
5.38589e-20
3.81722e-20
4.53647e-20
3.27493e-20
3.37066e-20
3.74689e-20
1.67544e-20
4.24079e-20
1.54503e-20
2.44923e-20
4.0194e-20
1.85429e-21
5.63623e-20
1.86963e-20
3.68754e-20
6.92078e-20
2.60719e-20
8.6611e-20
7.72892e-20
7.46536e-20
1.37985e-19
1.28166e-19
1.71992e-19
2.51853e-19
3.03163e-19
4.24586e-19
6.61191e-19
9.5798e-19
3.15778e-18
2.81925e-18
3.3501e-18
5.62753e-18
3.41436e-18
2.34654e-18
1.87497e-18
1.40262e-18
1.08977e-18
8.4073e-19
6.40693e-19
5.38799e-19
5.17631e-19
4.76848e-19
4.12577e-19
3.33584e-19
2.82091e-19
2.38881e-19
2.22618e-19
1.905e-19
1.7726e-19
1.58875e-19
1.44595e-19
1.17541e-19
1.2183e-19
9.10305e-20
9.74367e-20
7.70972e-20
7.82686e-20
6.39145e-20
6.3396e-20
4.94723e-20
5.36224e-20
3.79366e-20
4.52061e-20
3.27311e-20
3.34026e-20
3.77868e-20
1.64656e-20
4.27772e-20
1.5701e-20
2.44408e-20
4.10904e-20
1.7185e-21
5.70225e-20
1.942e-20
3.69217e-20
7.0532e-20
2.64405e-20
8.76337e-20
7.86181e-20
7.55937e-20
1.39377e-19
1.29611e-19
1.72179e-19
2.519e-19
2.99816e-19
4.18636e-19
6.45116e-19
8.92903e-19
3.28226e-18
2.99833e-18
3.21874e-18
6.12171e-18
3.21984e-18
2.10678e-18
1.68547e-18
1.27874e-18
9.99682e-19
7.7995e-19
6.00298e-19
5.08823e-19
4.92351e-19
4.55763e-19
3.96448e-19
3.21926e-19
2.7348e-19
2.32214e-19
2.17148e-19
1.85991e-19
1.733e-19
1.55446e-19
1.41919e-19
1.1524e-19
1.19683e-19
8.94194e-20
9.59607e-20
7.61283e-20
7.72913e-20
6.33662e-20
6.2744e-20
4.90903e-20
5.32581e-20
3.76599e-20
4.49183e-20
3.26823e-20
3.2994e-20
3.80088e-20
1.61708e-20
4.29788e-20
1.59714e-20
2.42821e-20
4.19098e-20
1.5499e-21
5.74833e-20
2.01011e-20
3.66945e-20
7.16425e-20
2.6481e-20
8.81971e-20
7.9421e-20
7.57425e-20
1.39798e-19
1.2971e-19
1.70498e-19
2.49591e-19
2.92582e-19
4.08499e-19
6.19167e-19
8.25746e-19
3.38148e-18
3.14634e-18
3.09752e-18
6.50408e-18
3.05539e-18
1.89521e-18
1.50182e-18
1.15532e-18
9.09401e-19
7.184e-19
5.59525e-19
4.78368e-19
4.66291e-19
4.33822e-19
3.79581e-19
3.09675e-19
2.6438e-19
2.25125e-19
2.11238e-19
1.81133e-19
1.69019e-19
1.5173e-19
1.39073e-19
1.12781e-19
1.17336e-19
8.77089e-20
9.42455e-20
7.50511e-20
7.61309e-20
6.27124e-20
6.19599e-20
4.86615e-20
5.27808e-20
3.73605e-20
4.45116e-20
3.26208e-20
3.24786e-20
3.8149e-20
1.58761e-20
4.29813e-20
1.62968e-20
2.39346e-20
4.26719e-20
1.32998e-21
5.76211e-20
2.07907e-20
3.60431e-20
7.24748e-20
2.61245e-20
8.80295e-20
7.96202e-20
7.48009e-20
1.38946e-19
1.2816e-19
1.66382e-19
2.444e-19
2.80965e-19
3.92976e-19
5.82693e-19
7.56015e-19
3.41448e-18
3.18812e-18
2.96655e-18
6.6656e-18
2.91656e-18
1.70319e-18
1.3312e-18
1.03615e-18
8.22119e-19
6.58125e-19
5.19707e-19
4.48452e-19
4.40309e-19
4.11735e-19
3.62527e-19
2.97248e-19
2.55102e-19
2.17855e-19
2.05092e-19
1.76076e-19
1.64533e-19
1.47827e-19
1.36146e-19
1.10249e-19
1.14864e-19
8.59952e-20
9.2353e-20
7.39129e-20
7.4829e-20
6.19651e-20
6.10643e-20
4.81981e-20
5.2198e-20
3.70515e-20
4.39977e-20
3.25546e-20
3.18576e-20
3.81991e-20
1.55884e-20
4.27456e-20
1.66889e-20
2.33553e-20
4.33372e-20
1.06174e-21
5.73256e-20
2.14818e-20
3.4854e-20
7.29148e-20
2.53464e-20
8.69375e-20
7.91448e-20
7.26379e-20
1.36623e-19
1.24873e-19
1.59748e-19
2.36225e-19
2.65156e-19
3.71886e-19
5.37233e-19
6.84365e-19
3.35593e-18
3.08122e-18
2.80551e-18
6.55011e-18
2.79101e-18
1.52117e-18
1.17778e-18
9.24092e-19
7.40337e-19
6.00615e-19
4.81764e-19
4.19821e-19
4.15075e-19
3.90074e-19
3.45724e-19
2.84947e-19
2.45885e-19
2.10611e-19
1.98892e-19
1.70968e-19
1.59958e-19
1.4383e-19
1.33197e-19
1.07714e-19
1.12324e-19
8.43458e-20
9.03566e-20
7.27529e-20
7.34371e-20
6.11403e-20
6.00802e-20
4.77061e-20
5.15144e-20
3.67435e-20
4.33838e-20
3.24819e-20
3.11426e-20
3.81433e-20
1.53187e-20
4.2243e-20
1.71349e-20
2.25437e-20
4.3841e-20
7.68577e-22
5.65364e-20
2.21477e-20
3.31483e-20
7.2883e-20
2.41915e-20
8.4885e-20
7.79981e-20
6.92968e-20
1.32892e-19
1.20047e-19
1.50895e-19
2.25493e-19
2.46103e-19
3.46294e-19
4.86024e-19
6.12116e-19
3.19714e-18
2.82576e-18
2.60342e-18
6.16571e-18
2.66498e-18
1.34367e-18
1.04289e-18
8.20916e-19
6.65472e-19
5.46873e-19
4.46248e-19
3.92963e-19
3.91044e-19
3.69261e-19
3.29487e-19
2.73025e-19
2.36908e-19
2.03553e-19
1.92776e-19
1.65939e-19
1.55402e-19
1.39816e-19
1.30261e-19
1.05231e-19
1.09754e-19
8.2799e-20
8.8315e-20
7.16029e-20
7.20024e-20
6.02595e-20
5.90308e-20
4.71926e-20
5.07386e-20
3.64449e-20
4.26843e-20
3.23981e-20
3.03609e-20
3.79741e-20
1.508e-20
4.14831e-20
1.76119e-20
2.15424e-20
4.41407e-20
4.86083e-22
5.52879e-20
2.27706e-20
3.10216e-20
7.23788e-20
2.27667e-20
8.19897e-20
7.63153e-20
6.50376e-20
1.28035e-19
1.14098e-19
1.40464e-19
2.12965e-19
2.25188e-19
3.17953e-19
4.33383e-19
5.41356e-19
2.95088e-18
2.46105e-18
2.35809e-18
5.57033e-18
2.52536e-18
1.17058e-18
9.25572e-19
7.27575e-19
5.98111e-19
4.97483e-19
4.13415e-19
3.68122e-19
3.68529e-19
3.49557e-19
3.14015e-19
2.61634e-19
2.28277e-19
1.96784e-19
1.86848e-19
1.61075e-19
1.50947e-19
1.35861e-19
1.27364e-19
1.0284e-19
1.07186e-19
8.13682e-20
8.62758e-20
7.04857e-20
7.05617e-20
5.93495e-20
5.79432e-20
4.6668e-20
4.98866e-20
3.61619e-20
4.19189e-20
3.23001e-20
2.95462e-20
3.76965e-20
1.48833e-20
4.05082e-20
1.80971e-20
2.0415e-20
4.42237e-20
2.5145e-22
5.36516e-20
2.33523e-20
2.86113e-20
7.14689e-20
2.12091e-20
7.84263e-20
7.42843e-20
6.01844e-20
1.22413e-19
1.07521e-19
1.29178e-19
1.99507e-19
2.03851e-19
2.88729e-19
3.82879e-19
4.73999e-19
2.64107e-18
2.04265e-18
2.07831e-18
4.84915e-18
2.36377e-18
1.00589e-18
8.23488e-19
6.44387e-19
5.38266e-19
4.52675e-19
3.83291e-19
3.4535e-19
3.47638e-19
3.31103e-19
2.99426e-19
2.50848e-19
2.20045e-19
1.9036e-19
1.81171e-19
1.56428e-19
1.46652e-19
1.32026e-19
1.24528e-19
1.00569e-19
1.04645e-19
8.0052e-20
8.4273e-20
6.94152e-20
6.91457e-20
5.84384e-20
5.68415e-20
4.61441e-20
4.89805e-20
3.58974e-20
4.11132e-20
3.21886e-20
2.87312e-20
3.73299e-20
1.47362e-20
3.93781e-20
1.85738e-20
1.92309e-20
4.40964e-20
9.57542e-23
5.17442e-20
2.39053e-20
2.60573e-20
7.02479e-20