/*--------------------------------*- C++ -*----------------------------------*\
| =========                 |                                                 |
| \\      /  F ield         | OpenFOAM: The Open Source CFD Toolbox           |
|  \\    /   O peration     | Version:  2312                                  |
|   \\  /    A nd           | Website:  www.openfoam.com                      |
|    \\/     M anipulation  |                                                 |
\*---------------------------------------------------------------------------*/
FoamFile
{
    version     2.0;
    format      ascii;
    arch        "LSB;label=32;scalar=64";
    class       volScalarField;
    location    "120";
    object      nut;
}
// * * * * * * * * * * * * * * * * * * * * * * * * * * * * * * * * * * * * * //

dimensions      [0 2 -1 0 0 0 0];

internalField   nonuniform List<scalar> 
144000
(
1.30634e-24
2.24138e-24
1.23711e-26
1.12164e-29
6.82534e-27
2.55462e-31
1.61817e-27
1.11249e-27
1.36981e-27
3.13766e-28
6.49536e-28
8.99525e-28
2.00126e-27
2.29051e-27
3.33423e-27
3.97642e-27
5.05375e-27
3.55645e-27
1.76777e-27
7.13615e-28
7.64015e-28
1.47952e-27
2.62187e-27
2.55571e-27
1.76817e-27
1.56895e-27
2.92148e-27
5.55633e-27
7.48757e-27
6.49492e-27
4.6835e-27
3.68885e-27
3.4623e-27
2.56188e-27
1.75978e-27
1.86e-27
3.46956e-27
6.39094e-27
8.35555e-27
7.43141e-27
6.15047e-27
5.61478e-27
5.38229e-27
2.71589e-27
1.52078e-27
1.44834e-27
2.36452e-27
3.75282e-27
2.80131e-27
1.84979e-27
4.17685e-28
6.20817e-29
3.55953e-29
2.05029e-27
7.57507e-27
1.13291e-26
9.68512e-25
1.82126e-23
2.60103e-23
1.64087e-24
3.8366e-23
3.00727e-24
1.30891e-24
8.06173e-26
8.01514e-27
3.37955e-30
1.99389e-27
3.39152e-27
1.68354e-27
1.52724e-27
9.81047e-28
2.74536e-27
3.36002e-27
5.58229e-27
6.15743e-27
8.79185e-27
9.71005e-27
8.4704e-27
4.13314e-27
2.19036e-27
2.03676e-27
3.74828e-27
5.49197e-27
5.70247e-27
3.95747e-27
3.81504e-27
6.16383e-27
1.14958e-26
1.45477e-26
1.34784e-26
1.00915e-26
8.46686e-27
7.80957e-27
6.27981e-27
4.33756e-27
4.52512e-27
7.4892e-27
1.27636e-26
1.65914e-26
1.53511e-26
1.30857e-26
1.27354e-26
1.10762e-26
5.95955e-27
3.71949e-27
3.34408e-27
5.01247e-27
6.07967e-27
5.39528e-27
2.7237e-27
7.71635e-28
4.57017e-29
1.55201e-28
5.41527e-27
2.16531e-26
3.95794e-26
1.90425e-24
6.74376e-23
1.34204e-22
3.57853e-24
7.8924e-23
3.73514e-23
5.32217e-24
1.78421e-24
1.98419e-26
1.02469e-29
2.50088e-27
5.65381e-27
2.42903e-27
2.24087e-27
1.67102e-27
3.77558e-27
5.24344e-27
7.50397e-27
9.23953e-27
1.25613e-26
1.44544e-26
1.22375e-26
6.38093e-27
3.22796e-27
3.06462e-27
5.25601e-27
8.11784e-27
8.25923e-27
5.8956e-27
5.56309e-27
8.96921e-27
1.64373e-26
2.11958e-26
1.95655e-26
1.48377e-26
1.25178e-26
1.15209e-26
9.26271e-27
6.46825e-27
6.63071e-27
1.09166e-26
1.86609e-26
2.43444e-26
2.27979e-26
1.95613e-26
1.87458e-26
1.59683e-26
8.88663e-27
5.8045e-27
4.7869e-27
7.44806e-27
9.05332e-27
7.76881e-27
4.22668e-27
1.09669e-27
9.97141e-29
2.54217e-28
6.09449e-27
2.49768e-26
5.58631e-26
4.60039e-24
1.17041e-22
1.64263e-22
5.27046e-23
1.50816e-22
1.93029e-22
1.00997e-23
9.98831e-24
2.36256e-26
4.0051e-29
4.02739e-27
6.16788e-27
3.02141e-27
2.30023e-27
2.01625e-27
3.98716e-27
6.19256e-27
8.35793e-27
1.06844e-26
1.40414e-26
1.60947e-26
1.32519e-26
6.4785e-27
3.04669e-27
2.92697e-27
5.39987e-27
8.72882e-27
8.79647e-27
6.17806e-27
5.75649e-27
9.73086e-27
1.84267e-26
2.38529e-26
2.15699e-26
1.58987e-26
1.29625e-26
1.18203e-26
9.39264e-27
6.42537e-27
6.70681e-27
1.18582e-26
2.08765e-26
2.74157e-26
2.53608e-26
2.09963e-26
2.02289e-26
1.62809e-26
9.02523e-27
5.93792e-27
4.58059e-27
8.2877e-27
1.02379e-26
8.77432e-27
5.07587e-27
1.29753e-27
1.44174e-28
3.13883e-28
5.90436e-27
1.82777e-26
4.88236e-26
6.95008e-24
1.98128e-22
2.02545e-22
2.78739e-22
1.66357e-22
5.85606e-22
8.94793e-24
2.93158e-23
7.04276e-26
8.7913e-29
6.30146e-27
7.46658e-27
3.42178e-27
2.69891e-27
2.21795e-27
4.62045e-27
7.19019e-27
1.01849e-26
1.23486e-26
1.65245e-26
1.80616e-26
1.48785e-26
6.52832e-27
3.13527e-27
2.88163e-27
5.92569e-27
9.3937e-27
9.66188e-27
6.56427e-27
6.25983e-27
1.0931e-26
2.14611e-26
2.73593e-26
2.46055e-26
1.73757e-26
1.38329e-26
1.23508e-26
9.7552e-27
6.52268e-27
7.12431e-27
1.32387e-26
2.39328e-26
3.11765e-26
2.84082e-26
2.27909e-26
2.1152e-26
1.68214e-26
9.65798e-27
5.97794e-27
4.61425e-27
9.29902e-27
1.16942e-26
1.03561e-26
6.1537e-27
1.75995e-27
2.50255e-28
4.79611e-28
5.45983e-27
1.17484e-26
3.78598e-26
1.03037e-23
3.04106e-22
2.48046e-22
7.89302e-22
1.46824e-22
1.23566e-21
5.24177e-24
5.9893e-23
2.70723e-25
1.40042e-28
1.11961e-26
9.11084e-27
3.97071e-27
3.28648e-27
2.47094e-27
5.52508e-27
8.59182e-27
1.26897e-26
1.47151e-26
2.00628e-26
2.09237e-26
1.72098e-26
6.81434e-27
3.38491e-27
2.96054e-27
6.72274e-27
1.04806e-26
1.11323e-26
7.27631e-27
7.21374e-27
1.28376e-26
2.6115e-26
3.26208e-26
2.937e-26
1.97378e-26
1.54254e-26
1.33476e-26
1.05453e-26
6.90642e-27
7.98018e-27
1.5326e-26
2.84101e-26
3.63677e-26
3.25203e-26
2.50369e-26
2.35334e-26
1.83482e-26
1.09118e-26
6.15155e-27
4.8998e-27
1.07686e-26
1.40181e-26
1.30439e-26
8.07056e-27
2.81697e-27
6.55024e-28
9.24123e-28
4.07414e-27
5.26893e-27
1.93501e-26
1.28616e-23
4.15282e-22
3.70651e-22
1.50656e-21
1.50454e-22
2.05189e-21
2.75802e-24
9.64849e-23
8.86343e-25
1.83251e-28
2.29892e-26
1.00951e-26
4.89264e-27
3.93365e-27
2.84806e-27
6.49668e-27
1.05881e-26
1.5832e-26
1.79263e-26
2.4519e-26
2.47508e-26
2.00571e-26
7.31988e-27
3.6832e-27
3.13172e-27
7.68392e-27
1.19816e-26
1.30978e-26
8.3151e-27
8.58039e-27
1.54992e-26
3.24975e-26
3.97548e-26
3.59021e-26
2.28781e-26
1.75392e-26
1.45962e-26
1.15963e-26
7.44212e-27
9.14976e-27
1.80351e-26
3.43198e-26
4.2962e-26
3.78104e-26
2.77498e-26
2.58231e-26
2.03667e-26
1.27962e-26
6.41094e-27
5.32353e-27
1.27619e-26
1.76069e-26
1.7507e-26
1.18002e-26
5.35175e-27
2.2564e-27
2.73483e-27
4.84079e-27
9.0336e-27
4.33119e-26
1.30826e-23
5.29104e-22
7.12746e-22
2.19523e-21
1.68324e-22
2.94425e-21
3.0329e-24
1.33383e-22
2.43387e-24
2.96421e-28
4.63959e-26
1.03696e-26
6.13241e-27
4.78151e-27
3.32608e-27
7.58907e-27
1.32509e-26
1.9839e-26
2.21806e-26
3.00981e-26
2.97757e-26
2.35014e-26
8.0866e-27
4.10491e-27
3.42269e-27
8.91776e-27
1.39278e-26
1.55386e-26
9.7444e-27
1.03628e-26
1.90686e-26
4.08941e-26
4.91384e-26
4.44114e-26
2.69059e-26
2.0092e-26
1.60328e-26
1.28471e-26
8.1108e-27
1.06574e-26
2.14881e-26
4.18989e-26
5.1041e-26
4.42401e-26
3.06906e-26
2.90874e-26
2.28014e-26
1.52772e-26
6.79843e-27
5.9487e-27
1.56382e-26
2.33043e-26
2.50273e-26
1.9107e-26
1.12169e-26
7.47509e-27
9.46499e-27
1.63237e-26
7.44332e-26
3.03338e-25
1.17017e-23
6.49522e-22
1.35678e-21
2.58294e-21
2.89739e-22
3.76087e-21
6.94704e-24
1.6047e-22
5.64824e-24
2.52046e-27
8.62709e-26
1.0068e-26
7.66594e-27
6.08387e-27
3.8855e-27
8.93647e-27
1.6714e-26
2.51907e-26
2.7867e-26
3.74089e-26
3.65745e-26
2.78503e-26
9.21881e-27
4.73022e-27
3.89742e-27
1.05052e-26
1.64782e-26
1.86584e-26
1.16725e-26
1.26872e-26
2.39167e-26
5.1744e-26
6.13084e-26
5.55355e-26
3.21822e-26
2.32039e-26
1.77986e-26
1.4323e-26
8.9655e-27
1.2653e-26
2.60424e-26
5.1765e-26
6.14647e-26
5.28077e-26
3.45809e-26
3.36304e-26
2.50247e-26
1.88189e-26
7.46888e-27
6.97625e-27
1.99422e-26
3.2364e-26
3.76659e-26
3.29897e-26
2.41158e-26
2.20098e-26
3.17897e-26
7.3359e-26
3.88271e-25
1.3872e-24
8.86812e-24
8.12525e-22
2.65687e-21
2.47292e-21
6.2034e-22
4.59794e-21
1.85102e-23
1.85604e-22
1.1291e-23
1.99364e-26
1.48985e-25
9.06785e-27
9.80227e-27
8.11824e-27
4.56423e-27
1.06892e-26
2.12497e-26
3.26602e-26
3.58246e-26
4.73954e-26
4.58557e-26
3.35367e-26
1.0849e-26
5.67034e-27
4.60663e-27
1.25588e-26
1.98029e-26
2.25847e-26
1.42695e-26
1.57482e-26
3.039e-26
6.57681e-26
7.72543e-26
7.02524e-26
3.92553e-26
2.70658e-26
1.99401e-26
1.60219e-26
1.01139e-26
1.53411e-26
3.22914e-26
6.49608e-26
7.58325e-26
6.4917e-26
4.19867e-26
3.54103e-26
2.57108e-26
2.35637e-26
8.65468e-27
8.577e-27
2.62471e-26
4.6308e-26
5.81857e-26
5.87464e-26
5.07981e-26
5.77719e-26
9.59999e-26
2.56235e-25
1.27897e-24
4.05999e-24
5.8755e-24
1.09394e-21
5.03037e-21
2.1835e-21
1.32365e-21
5.45652e-21
4.10733e-23
2.21354e-22
1.91857e-23
9.36965e-26
2.49417e-25
7.057e-27
1.37489e-26
1.09614e-26
5.57731e-27
1.28935e-26
2.75822e-26
4.32748e-26
4.74186e-26
6.1398e-26
5.87507e-26
4.10135e-26
1.31048e-26
7.08752e-27
5.63213e-27
1.51858e-26
2.39777e-26
2.74061e-26
1.77326e-26
1.97848e-26
3.9117e-26
8.39019e-26
9.82994e-26
9.01114e-26
4.88493e-26
3.19104e-26
2.25292e-26
1.78525e-26
1.15812e-26
1.88987e-26
4.07409e-26
8.23976e-26
9.46736e-26
7.97437e-26
5.02814e-26
4.34317e-26
2.63024e-26
2.81438e-26
1.13148e-26
1.04516e-26
3.57134e-26
6.64239e-26
9.0507e-26
1.03444e-25
9.75242e-26
1.33813e-25
2.38063e-25
6.54097e-25
3.13997e-24
8.88291e-24
3.37887e-24
1.58731e-21
8.857e-21
1.8948e-21
2.65855e-21
7.50589e-21
6.13425e-23
2.94411e-22
2.9791e-23
3.82572e-25
3.63502e-25
6.5722e-27
1.92624e-26
1.58766e-26
6.92887e-27
1.60507e-26
3.64921e-26
5.88915e-26
6.46163e-26
8.13039e-26
7.64534e-26
5.07986e-26
1.61306e-26
9.23305e-27
7.05045e-27
1.85459e-26
2.90862e-26
3.33063e-26
2.23427e-26
2.51772e-26
5.08865e-26
1.07766e-25
1.26578e-25
1.17257e-25
6.20682e-26
3.7953e-26
2.54461e-26
1.97538e-26
1.33964e-26
2.36488e-26
5.24274e-26
1.05856e-25
1.19861e-25
1.05267e-25
6.8203e-26
6.03617e-26
2.19808e-26
3.67759e-26
1.48849e-26
1.31535e-26
4.94673e-26
9.48365e-26
1.40262e-25
1.75546e-25
1.73428e-25
2.75081e-25
4.96178e-25
1.3175e-24
6.10028e-24
1.55035e-23
2.11248e-24
2.45264e-21
1.45082e-20
2.05654e-21
4.76182e-21
1.22788e-20
7.34427e-23
4.48282e-22
4.19583e-23
1.26456e-24
4.71246e-25
7.92515e-27
2.80887e-26
2.39872e-26
8.87553e-27
2.06405e-26
4.94103e-26
8.21811e-26
9.0174e-26
1.09776e-25
1.00556e-25
6.33463e-26
2.00828e-26
1.25337e-26
9.04478e-27
2.28139e-26
3.51141e-26
4.05325e-26
2.84898e-26
3.25449e-26
6.73447e-26
1.39722e-25
1.64703e-25
1.55126e-25
8.04983e-26
4.54765e-26
2.86976e-26
2.16772e-26
1.58681e-26
3.08984e-26
7.03791e-26
1.41243e-25
1.65501e-25
1.7617e-25
1.33608e-25
4.51877e-26
1.00011e-26
5.79871e-26
1.65089e-26
1.89449e-26
6.64386e-26
1.36833e-25
2.13041e-25
2.87978e-25
2.9817e-25
4.98517e-25
8.923e-25
2.31973e-24
9.55893e-24
2.20433e-23
2.87724e-24
3.9243e-21
2.20822e-20
3.10281e-21
8.42372e-21
2.11834e-20
7.47676e-23
7.90262e-22
5.05735e-23
3.14169e-24
5.9008e-25
1.20514e-26
4.53974e-26
3.61829e-26
1.21714e-26
2.71422e-26
6.86652e-26
1.16918e-25
1.28534e-25
1.50367e-25
1.32325e-25
7.92786e-26
2.52665e-26
1.77496e-26
1.18342e-26
2.82685e-26
4.21722e-26
4.92982e-26
3.68291e-26
4.28719e-26
9.06024e-26
1.83217e-25
2.16496e-25
2.08704e-25
1.06627e-25
5.46721e-26
3.19642e-26
2.33463e-26
1.89976e-26
4.10864e-26
9.63173e-26
1.95698e-25
2.45889e-25
2.9718e-25
2.18162e-25
3.33544e-27
2.25784e-26
4.82889e-26
2.10596e-26
2.60526e-26
9.00199e-26
1.91304e-25
3.09989e-25
4.5191e-25
4.77945e-25
7.86263e-25
1.36798e-24
3.48454e-24
1.26746e-23
2.6334e-23
7.26321e-24
6.24413e-21
3.20379e-20
6.01415e-21
1.34551e-20
3.56183e-20
6.23575e-23
1.42994e-21
5.48244e-23
6.97561e-24
6.47085e-25
2.26382e-26
7.48536e-26
5.65361e-26
1.74154e-26
3.68764e-26
9.7154e-26
1.6904e-25
1.85695e-25
2.08589e-25
1.73649e-25
9.92374e-26
3.20787e-26
2.62366e-26
1.59168e-26
3.52392e-26
5.04039e-26
5.98975e-26
4.82142e-26
5.76438e-26
1.24189e-25
2.42537e-25
2.86466e-25
2.85956e-25
1.43792e-25
6.5428e-26
3.45743e-26
2.35865e-26
2.14435e-26
5.1412e-26
1.22802e-25
2.41796e-25
2.80804e-25
3.05813e-25
6.30324e-26
4.05327e-25
2.33046e-25
1.21351e-26
5.19598e-26
2.36938e-26
1.36201e-25
2.40145e-25
4.42637e-25
6.61453e-25
7.02401e-25
1.09537e-24
1.80033e-24
4.33418e-24
1.47734e-23
2.69158e-23
1.94531e-23
9.73219e-21
4.26828e-20
1.29751e-20
2.10524e-20
5.91162e-20
2.55241e-23
2.47604e-21
5.25212e-23
1.36296e-23
6.3722e-25
4.30326e-26
1.30628e-25
8.88108e-26
2.61755e-26
5.13339e-26
1.3889e-25
2.48449e-25
2.71049e-25
2.92513e-25
2.2666e-25
1.24278e-25
4.1067e-26
4.04698e-26
2.19713e-26
4.43334e-26
6.0211e-26
7.26142e-26
6.3952e-26
7.92054e-26
1.72598e-25
3.2441e-25
3.82459e-25
4.00227e-25
1.98786e-25
7.8773e-26
3.70434e-26
2.3492e-26
2.58969e-26
7.19109e-26
1.79185e-25
3.48176e-25
4.72973e-25
8.68667e-25
1.02339e-24
7.31358e-25
1.39386e-27
3.79616e-26
4.76014e-26
3.43405e-26
1.82215e-25
3.08481e-25
5.95329e-25
9.19574e-25
9.46322e-25
1.36004e-24
2.06715e-24
4.58439e-24
1.51717e-23
2.37598e-23
4.31652e-23
1.47683e-20
5.50949e-20
2.7619e-20
2.977e-20
9.62475e-20
4.1608e-24
4.10636e-21
4.5137e-23
2.43862e-23
5.38546e-25
7.71207e-26
2.36334e-25
1.40375e-25
4.0939e-26
7.31106e-26
1.9906e-25
3.7145e-25
3.98909e-25
4.14749e-25
2.94782e-25
1.55219e-25
5.28809e-26
6.46992e-26
3.14264e-26
5.63381e-26
7.20111e-26
8.77483e-26
8.56657e-26
1.1124e-25
2.43343e-25
4.38007e-25
5.13976e-25
5.73811e-25
2.81807e-25
9.55944e-26
3.9749e-26
2.25909e-26
3.22918e-26
1.0729e-25
2.83414e-25
5.72407e-25
1.04932e-24
3.18889e-24
1.10642e-23
2.89736e-27
2.06602e-24
1.76784e-25
1.87851e-26
6.49942e-26
2.22027e-25
4.00272e-25
7.36044e-25
1.21747e-24
1.13745e-24
1.4751e-24
1.96281e-24
3.91437e-24
1.27725e-23
1.6357e-23
9.2281e-23
2.1383e-20
6.60004e-20
5.47254e-20
4.09261e-20
1.5133e-19
2.29891e-26
6.38348e-21
3.67764e-23
4.08827e-23
3.59063e-25
1.25679e-25
4.31467e-25
2.25695e-25
6.57012e-26
1.06563e-25
2.83882e-25
5.64292e-25
5.94737e-25
5.94716e-25
3.80823e-25
1.93284e-25
6.85422e-26
1.05984e-25
4.64951e-26
7.24316e-26
8.6763e-26
1.05137e-25
1.15886e-25
1.59486e-25
3.46172e-25
5.9693e-25
6.94417e-25
8.38524e-25
4.07659e-25
1.14239e-25
4.05916e-26
1.76997e-26
3.30053e-26
1.2947e-25
3.43432e-25
6.10787e-25
8.4973e-25
1.78304e-24
2.27674e-24
1.08888e-24
7.65829e-27
1.04933e-26
6.85184e-26
4.25575e-26
3.38619e-25
4.13193e-25
8.98491e-25
1.46915e-24
1.24649e-24
1.33658e-24
1.48524e-24
2.48664e-24
8.3373e-24
7.84588e-24
1.75593e-22
2.95201e-20
7.59354e-20
1.00702e-19
5.00875e-20
2.28307e-19
1.20254e-23
9.58131e-21
3.2032e-23
6.32143e-23
1.79368e-25
1.86419e-25
8.10213e-25
3.61092e-25
1.09381e-25
1.54931e-25
4.04813e-25
8.67979e-25
9.02223e-25
8.62526e-25
4.91632e-25
2.37768e-25
8.87895e-26
1.75637e-25
7.18031e-26
9.36623e-26
1.05746e-25
1.24279e-25
1.58085e-25
2.3316e-25
4.98987e-25
8.22443e-25
9.44786e-25
1.25287e-24
6.08637e-25
1.37578e-25
4.23379e-26
1.17117e-26
3.45925e-26
1.66798e-25
4.45298e-25
6.7415e-25
5.60337e-25
5.50966e-25
8.75506e-27
1.3189e-24
5.67697e-25
9.80089e-27
1.16274e-25
3.26057e-26
4.95404e-25
4.06361e-25
9.84706e-25
1.67254e-24
1.19798e-24
9.72714e-25
8.02683e-25
9.94838e-25
4.01634e-24
2.0149e-24
3.06252e-22
3.91533e-20
8.06388e-20
1.7411e-19
6.20479e-20
3.40239e-19
1.39008e-22
1.33955e-20
3.82801e-23
8.7621e-23
5.91402e-26
2.52804e-25
1.54344e-24
5.79665e-25
1.86804e-25
2.23494e-25
5.74054e-25
1.35751e-24
1.39797e-24
1.26676e-24
6.33062e-25
2.88115e-25
1.14153e-25
2.92248e-25
1.15081e-25
1.21302e-25
1.31152e-25
1.43821e-25
2.17393e-25
3.47111e-25
7.29649e-25
1.14781e-24
1.29863e-24
1.90917e-24
9.45703e-25
1.6782e-25
4.77349e-26
5.73964e-27
4.01171e-26
2.40182e-25
6.80657e-25
9.74927e-25
8.37873e-25
1.02436e-24
3.55879e-25
1.4366e-26
2.00436e-26
1.31229e-25
5.71213e-26
4.81478e-26
6.86894e-25
4.13783e-25
9.23499e-25
1.80405e-24
9.71297e-25
4.92857e-25
2.5572e-25
1.40885e-25
1.46237e-24
1.50409e-25
4.67017e-22
4.97715e-20
8.27486e-20
2.87407e-19
7.27087e-20
4.96288e-19
7.12773e-22
1.72808e-20
7.83162e-23
1.14621e-22
1.28e-26
3.12856e-25
2.87412e-24
9.60764e-25
3.21846e-25
3.19529e-25
8.03111e-25
2.16852e-24
2.21014e-24
1.89298e-24
8.13749e-25
3.40794e-25
1.42918e-25
4.86069e-25
1.9197e-25
1.55797e-25
1.65583e-25
1.61272e-25
2.99485e-25
5.24974e-25
1.09039e-24
1.62038e-24
1.79545e-24
2.95526e-24
1.52983e-24
2.03283e-25
6.16053e-26
9.01136e-28
4.49608e-26
3.12209e-25
9.38077e-25
1.11465e-24
8.36014e-25
1.21297e-24
8.43903e-25
3.61506e-26
1.43869e-27
2.57813e-25
5.12189e-26
4.85445e-26
1.08982e-24
3.73234e-25
7.75309e-25
1.77397e-24
6.28594e-25
1.10478e-25
9.4194e-26
8.10887e-26
1.48093e-24
1.16201e-24
6.60332e-22
6.05721e-20
7.69543e-20
4.50634e-19
7.75141e-20
6.94581e-19
2.2441e-21
2.14618e-20
2.07148e-22
1.38174e-22
5.21402e-26
3.62681e-25
5.26461e-24
1.63388e-24
5.55666e-25
4.42896e-25
1.10624e-24
3.53005e-24
3.56863e-24
2.8744e-24
1.03758e-24
3.87584e-25
1.69894e-25
8.07794e-25
3.29165e-25
1.9595e-25
2.13701e-25
1.71347e-25
4.1107e-25
8.04352e-25
1.67168e-24
2.31046e-24
2.49423e-24
4.62856e-24
2.60937e-24
2.46641e-25
1.02332e-25
9.15033e-29
6.48379e-26
4.14681e-25
1.34714e-24
1.20086e-24
6.11958e-25
8.07994e-25
7.23464e-25
1.4388e-25
6.37795e-27
1.88645e-25
3.91105e-26
6.76719e-26
1.88728e-24
3.81845e-25
5.12692e-25
1.61613e-24
2.7082e-25
9.70035e-28
6.83273e-25
2.02535e-24
7.43912e-24
1.29472e-23
8.51427e-22
7.1503e-20
6.62352e-20
6.86385e-19
6.82758e-20
8.90125e-19
5.15538e-21
2.40495e-20
5.17599e-22
1.49696e-22
3.61896e-25
4.07337e-25
9.04381e-24
2.68097e-24
9.15649e-25
5.43576e-25
1.44573e-24
5.51959e-24
5.61945e-24
4.18299e-24
1.24551e-24
3.90042e-25
1.77238e-25
1.27687e-24
5.48455e-25
2.23686e-25
2.72294e-25
1.58211e-25
5.33324e-25
1.18252e-24
2.51576e-24
3.14892e-24
3.3008e-24
6.95955e-24
4.49552e-24
2.84434e-25
2.10909e-25
1.05485e-26
1.32497e-25
5.48372e-25
1.9865e-24
1.27986e-24
4.80401e-25
5.66196e-25
5.70236e-25
1.47639e-25
2.33438e-26
1.23611e-25
1.63463e-26
1.37928e-25
3.44997e-24
6.03959e-25
1.97795e-25
1.35263e-24
4.29578e-26
1.67115e-25
4.64604e-24
1.2783e-23
3.20445e-23
5.47326e-23
9.73594e-22
7.78142e-20
4.74055e-20
9.57832e-19
3.52834e-20
6.60181e-19
6.53898e-21
1.44448e-20
6.71148e-22
9.03527e-23
8.81928e-25
3.13451e-25
8.89898e-24
2.62682e-24
8.7791e-25
3.53744e-25
1.11816e-24
5.04483e-24
5.34042e-24
3.54974e-24
8.62907e-25
2.08182e-25
9.97589e-26
1.1803e-24
5.41051e-25
1.39679e-25
2.1752e-25
7.35623e-26
4.03284e-25
1.01812e-24
2.28602e-24
2.5086e-24
2.54859e-24
6.15063e-24
4.83388e-24
1.92256e-25
3.03798e-25
6.30147e-26
2.12909e-25
4.37463e-25
1.78791e-24
7.53441e-25
2.3125e-25
3.1247e-25
4.13089e-25
5.12197e-26
2.02843e-26
5.05206e-26
7.17738e-28
1.8943e-25
4.03808e-24
9.21729e-25
1.17305e-26
6.86964e-25
2.73286e-27
1.09171e-24
1.09586e-23
2.68872e-23
5.84869e-23
9.2738e-23
5.75039e-22
4.80699e-20
1.75958e-20
7.64835e-19
5.83194e-21
2.12546e-19
3.2365e-21
3.66914e-21
3.50489e-22
2.18409e-23
7.20069e-25
1.64687e-25
3.8208e-24
1.2064e-24
3.63913e-25
9.90372e-26
3.82402e-25
2.09036e-24
2.30546e-24
1.38827e-24
2.71153e-25
4.85663e-26
2.36118e-26
4.96532e-25
2.45439e-25
3.84422e-26
8.43143e-26
1.2379e-26
1.3393e-25
3.94715e-25
9.62703e-25
8.89944e-25
8.67045e-25
2.44264e-24
2.48009e-24
6.28463e-26
2.01305e-25
8.68699e-26
1.67251e-25
1.63828e-25
7.49846e-25
1.75081e-25
4.63796e-26
7.66383e-26
1.92103e-25
6.90119e-27
9.70819e-27
7.73222e-27
8.70202e-29
1.20836e-25
2.19619e-24
7.61787e-25
9.17297e-28
1.73539e-25
2.93785e-26
1.31139e-24
8.44753e-24
1.9129e-23
3.76083e-23
5.53664e-23
1.38372e-22
1.25954e-20
1.84703e-21
2.57787e-19
1.37819e-24
2.23545e-24
1.34442e-26
8.66929e-30
6.29223e-27
4.62769e-31
1.54242e-27
1.15887e-27
1.33169e-27
3.26513e-28
6.35584e-28
9.10651e-28
1.99458e-27
2.3022e-27
3.34115e-27
3.98045e-27
5.07128e-27
3.55545e-27
1.7855e-27
7.15575e-28
7.74288e-28
1.4875e-27
2.65221e-27
2.57341e-27
1.80298e-27
1.58469e-27
2.97431e-27
5.63217e-27
7.59604e-27
6.6151e-27
4.78506e-27
3.79062e-27
3.56409e-27
2.67292e-27
1.85253e-27
1.9834e-27
3.66875e-27
6.73203e-27
8.73399e-27
7.84337e-27
6.21781e-27
5.66884e-27
4.90857e-27
2.73724e-27
1.55353e-27
1.45768e-27
2.36679e-27
3.77199e-27
2.80743e-27
1.86562e-27
4.23211e-28
6.36741e-29
3.44402e-29
2.03687e-27
7.6399e-27
1.11687e-26
9.59131e-25
1.83667e-23
2.65611e-23
1.60648e-24
3.92259e-23
3.00567e-24
1.33727e-24
8.07665e-26
7.33837e-27
5.70273e-30
1.91374e-27
3.54647e-27
1.62151e-27
1.58318e-27
9.55207e-28
2.7882e-27
3.33865e-27
5.62723e-27
6.14894e-27
8.84995e-27
9.71733e-27
8.53066e-27
4.14917e-27
2.22531e-27
2.05459e-27
3.80666e-27
5.54878e-27
5.79084e-27
4.04088e-27
3.88707e-27
6.30845e-27
1.17216e-26
1.48369e-26
1.38176e-26
1.03821e-26
8.76233e-27
8.11295e-27
6.59237e-27
4.60202e-27
4.84301e-27
7.96857e-27
1.3475e-26
1.7399e-26
1.60793e-26
1.33657e-26
1.29031e-26
1.0019e-26
6.17595e-27
3.77133e-27
3.356e-27
5.04206e-27
6.10172e-27
5.42626e-27
2.73467e-27
7.83084e-28
4.58779e-29
1.51808e-28
5.42554e-27
2.17267e-26
3.9442e-26
1.88865e-24
6.79987e-23
1.36328e-22
3.57458e-24
8.0114e-23
3.74812e-23
5.38424e-24
1.78511e-24
1.85557e-26
1.1769e-29
2.40857e-27
5.9213e-27
2.30987e-27
2.33959e-27
1.62363e-27
3.83987e-27
5.21205e-27
7.55994e-27
9.25622e-27
1.26371e-26
1.45197e-26
1.23314e-26
6.42275e-27
3.2927e-27
3.09924e-27
5.37199e-27
8.20853e-27
8.44519e-27
6.03387e-27
5.71205e-27
9.21543e-27
1.68609e-26
2.16791e-26
2.01827e-26
1.53243e-26
1.30423e-26
1.20319e-26
9.78726e-27
6.89577e-27
7.13206e-27
1.1647e-26
1.97122e-26
2.55652e-26
2.38432e-26
2.00862e-26
1.9001e-26
1.41906e-26
9.48912e-27
5.70653e-27
4.86353e-27
7.45633e-27
9.10289e-27
7.79216e-27
4.23722e-27
1.10894e-27
9.88565e-29
2.49037e-28
6.13036e-27
2.50407e-26
5.56402e-26
4.5831e-24
1.17976e-22
1.66685e-22
5.29318e-23
1.52586e-22
1.93775e-22
1.01945e-23
1.00007e-23
2.2479e-26
3.53746e-29
3.97484e-27
6.3757e-27
2.88915e-27
2.41456e-27
1.95104e-27
4.07975e-27
6.14637e-27
8.44607e-27
1.07328e-26
1.41511e-26
1.62481e-26
1.33364e-26
6.57097e-27
3.12068e-27
2.98375e-27
5.54635e-27
8.85623e-27
9.05631e-27
6.34886e-27
5.9647e-27
1.00396e-26
1.89873e-26
2.44501e-26
2.23698e-26
1.6464e-26
1.36013e-26
1.23841e-26
9.98547e-27
6.87043e-27
7.25247e-27
1.26548e-26
2.20637e-26
2.88321e-26
2.66036e-26
2.18038e-26
1.98782e-26
1.45955e-26
9.69728e-27
5.66308e-27
4.7621e-27
8.19291e-27
1.03834e-26
8.71419e-27
5.12965e-27
1.29301e-27
1.4755e-28
3.12523e-28
5.90664e-27
1.83331e-26
4.85809e-26
6.94778e-24
1.99518e-22
2.05224e-22
2.80036e-22
1.685e-22
5.88104e-22
9.02161e-24
2.93698e-23
6.92541e-26
7.65073e-29
6.31081e-27
7.59615e-27
3.32625e-27
2.81912e-27
2.14895e-27
4.75234e-27
7.13149e-27
1.03397e-26
1.24238e-26
1.67199e-26
1.82896e-26
1.49692e-26
6.68479e-27
3.21936e-27
2.97001e-27
6.09929e-27
9.58257e-27
9.9887e-27
6.7751e-27
6.52133e-27
1.13096e-26
2.21306e-26
2.80852e-26
2.55577e-26
1.7997e-26
1.45489e-26
1.29192e-26
1.03759e-26
6.95602e-27
7.70455e-27
1.40948e-26
2.5309e-26
3.29131e-26
3.00025e-26
2.39378e-26
2.09697e-26
1.53222e-26
1.00019e-26
5.65638e-27
4.87068e-27
9.1137e-27
1.1944e-26
1.02001e-26
6.27528e-27
1.73565e-27
2.62137e-28
4.83111e-28
5.42055e-27
1.18209e-26
3.76154e-26
1.03216e-23
3.06352e-22
2.51571e-22
7.9321e-22
1.48911e-22
1.24131e-21
5.2543e-24
6.00173e-23
2.69311e-25
1.26315e-28
1.12993e-26
9.14437e-27
3.93237e-27
3.40041e-27
2.41127e-27
5.68675e-27
8.54077e-27
1.29246e-26
1.48274e-26
2.03737e-26
2.12172e-26
1.73453e-26
7.0376e-27
3.47561e-27
3.08498e-27
6.91272e-27
1.07572e-26
1.15143e-26
7.53835e-27
7.51999e-27
1.32932e-26
2.68695e-26
3.35019e-26
3.04406e-26
2.04083e-26
1.61853e-26
1.38877e-26
1.11679e-26
7.32021e-27
8.60549e-27
1.62795e-26
3.01038e-26
3.86569e-26
3.4963e-26
2.71717e-26
2.33142e-26
1.66071e-26
1.0693e-26
5.88249e-27
5.19246e-27
1.05417e-26
1.43473e-26
1.28084e-26
8.27297e-27
2.76637e-27
6.89922e-28
9.27232e-28
4.02562e-27
5.30841e-27
1.92223e-26
1.29089e-23
4.18366e-22
3.7572e-22
1.51443e-21
1.53455e-22
2.06195e-21
2.71866e-24
9.67016e-23
8.82281e-25
1.72807e-28
2.32803e-26
1.00283e-26
4.92446e-27
4.03722e-27
2.80181e-27
6.68959e-27
1.05587e-26
1.61736e-26
1.80878e-26
2.49803e-26
2.50931e-26
2.02865e-26
7.59883e-27
3.78405e-27
3.2876e-27
7.88082e-27
1.23547e-26
1.35125e-26
8.63187e-27
8.9152e-27
1.60362e-26
3.32978e-26
4.08104e-26
3.70224e-26
2.35767e-26
1.82694e-26
1.50633e-26
1.21734e-26
7.82116e-27
9.80917e-27
1.90996e-26
3.63947e-26
4.60576e-26
4.15529e-26
3.14182e-26
2.64216e-26
1.81008e-26
1.17037e-26
6.2295e-27
5.63677e-27
1.2536e-26
1.79884e-26
1.72233e-26
1.20846e-26
5.26584e-27
2.35689e-27
2.75019e-27
4.88291e-27
8.84757e-27
4.37388e-26
1.31381e-23
5.33207e-22
7.22434e-22
2.20739e-21
1.70449e-22
2.95929e-21
2.96463e-24
1.33709e-22
2.42514e-24
2.99944e-28
4.69104e-26
1.02366e-26
6.2475e-27
4.87831e-27
3.29808e-27
7.82654e-27
1.32582e-26
2.03264e-26
2.24012e-26
3.07644e-26
3.01555e-26
2.38676e-26
8.40426e-27
4.22767e-27
3.60158e-27
9.12608e-27
1.43834e-26
1.59591e-26
1.01097e-26
1.07082e-26
1.96861e-26
4.16994e-26
5.03553e-26
4.54773e-26
2.75597e-26
2.06884e-26
1.63792e-26
1.33057e-26
8.42386e-27
1.12926e-26
2.26033e-26
4.43058e-26
5.51966e-26
5.00497e-26
3.67134e-26
3.04529e-26
1.98921e-26
1.29683e-26
6.69137e-27
6.29252e-27
1.54303e-26
2.37418e-26
2.46998e-26
1.94915e-26
1.10899e-26
7.72089e-27
9.3245e-27
1.65834e-26
7.32793e-26
3.06223e-25
1.17914e-23
6.54524e-22
1.3679e-21
2.59731e-21
2.93263e-22
3.77829e-21
6.81959e-24
1.60679e-22
5.62865e-24
2.58943e-27
8.71584e-26
9.88556e-27
7.89131e-27
6.17673e-27
3.88622e-27
9.23479e-27
1.67765e-26
2.58682e-26
2.81461e-26
3.83207e-26
3.69622e-26
2.838e-26
9.55707e-27
4.88208e-27
4.08761e-27
1.07314e-26
1.6989e-26
1.90764e-26
1.20652e-26
1.30281e-26
2.45949e-26
5.24896e-26
6.26215e-26
5.63718e-26
3.26635e-26
2.3536e-26
1.79633e-26
1.45597e-26
9.15924e-27
1.313e-26
2.70118e-26
5.42012e-26
6.66999e-26
6.11137e-26
4.34769e-26
3.57144e-26
2.20943e-26
1.45571e-26
7.42665e-27
7.31132e-27
1.98071e-26
3.28205e-26
3.73133e-26
3.34952e-26
2.39465e-26
2.25036e-26
3.12052e-26
7.3966e-26
3.84987e-25
1.39689e-24
8.95889e-24
8.18722e-22
2.6747e-21
2.48497e-21
6.26833e-22
4.61823e-21
1.83008e-23
1.85723e-22
1.12514e-23
2.01238e-26
1.50719e-25
8.84205e-27
1.01903e-26
8.20799e-27
4.60845e-27
1.10564e-26
2.13885e-26
3.35538e-26
3.61485e-26
4.85804e-26
4.62082e-26
3.42473e-26
1.11955e-26
5.85802e-27
4.79533e-27
1.28058e-26
2.03252e-26
2.29953e-26
1.46585e-26
1.60781e-26
3.1076e-26
6.63697e-26
7.84761e-26
7.06169e-26
3.94109e-26
2.70159e-26
1.98455e-26
1.59413e-26
1.0081e-26
1.54152e-26
3.2678e-26
6.65672e-26
8.11672e-26
7.5716e-26
5.25934e-26
4.19225e-26
2.48312e-26
1.66036e-26
8.54696e-27
8.8551e-27
2.63646e-26
4.66851e-26
5.79811e-26
5.93093e-26
5.06712e-26
5.86075e-26
9.52074e-26
2.57362e-25
1.27103e-24
4.08577e-24
5.94963e-24
1.10135e-21
5.05928e-21
2.19605e-21
1.33463e-21
5.47122e-21
4.08145e-23
2.2123e-22
1.9102e-23
9.36751e-26
2.52832e-25
6.81546e-27
1.44028e-26
1.10364e-26
5.68182e-27
1.33144e-26
2.78141e-26
4.4369e-26
4.77701e-26
6.28717e-26
5.90258e-26
4.19212e-26
1.34494e-26
7.31519e-27
5.80381e-27
1.54462e-26
2.44537e-26
2.77957e-26
1.80784e-26
2.00975e-26
3.97135e-26
8.42369e-26
9.91079e-26
8.97405e-26
4.84864e-26
3.13731e-26
2.20669e-26
1.73671e-26
1.11747e-26
1.83007e-26
4.00356e-26
8.20457e-26
9.95209e-26
9.47028e-26
6.39557e-26
5.05047e-26
2.8328e-26
1.91351e-26
1.02621e-26
1.10439e-26
3.59362e-26
6.68584e-26
9.03835e-26
1.04136e-25
9.77374e-26
1.35238e-25
2.37868e-25
6.5907e-25
3.12194e-24
8.94634e-24
3.42907e-24
1.59593e-21
8.90262e-21
1.90482e-21
2.67655e-21
7.53292e-21
6.11407e-23
2.9403e-22
2.96838e-23
3.82757e-25
3.68319e-25
6.33844e-27
2.02407e-26
1.59361e-26
7.09696e-27
1.6505e-26
3.67998e-26
6.01724e-26
6.49753e-26
8.31031e-26
7.66129e-26
5.19396e-26
1.64553e-26
9.50491e-27
7.18257e-27
1.88066e-26
2.94556e-26
3.36661e-26
2.25963e-26
2.54578e-26
5.12412e-26
1.07642e-25
1.26528e-25
1.15841e-25
6.08842e-26
3.67656e-26
2.448e-26
1.87116e-26
1.24743e-26
2.20165e-26
4.97801e-26
1.01781e-25
1.23025e-25
1.20423e-25
7.96978e-26
5.97549e-26
3.27439e-26
2.2442e-26
1.25989e-26
1.40822e-26
4.96223e-26
9.53639e-26
1.394e-25
1.76954e-25
1.7387e-25
2.77337e-25
4.97126e-25
1.33318e-24
6.07894e-24
1.56064e-23
2.15312e-24
2.46339e-21
1.45656e-20
2.06611e-21
4.79283e-21
1.23383e-20
7.33374e-23
4.47615e-22
4.18153e-23
1.26475e-24
4.77577e-25
7.66551e-27
2.94956e-26
2.39996e-26
9.10476e-27
2.10635e-26
4.97711e-26
8.36102e-26
9.05127e-26
1.11994e-25
1.0058e-25
6.47491e-26
2.03646e-26
1.28501e-26
9.10559e-27
2.30522e-26
3.53223e-26
4.08538e-26
2.85888e-26
3.2745e-26
6.7234e-26
1.38815e-25
1.63175e-25
1.52238e-25
7.79897e-26
4.3385e-26
2.698e-26
1.97766e-26
1.39958e-26
2.69518e-26
6.28559e-26
1.27302e-25
1.53733e-25
1.56018e-25
1.00808e-25
7.064e-26
3.80202e-26
2.65018e-26
1.56927e-26
1.80336e-26
6.89969e-26
1.35059e-25
2.12635e-25
2.89597e-25
2.98919e-25
5.01609e-25
8.93026e-25
2.3401e-24
9.54932e-24
2.21971e-23
2.92161e-24
3.93958e-21
2.21505e-20
3.11423e-21
8.48327e-21
2.12967e-20
7.46429e-23
7.89865e-22
5.03665e-23
3.13318e-24
5.99665e-25
1.17282e-26
4.74929e-26
3.60749e-26
1.24499e-26
2.7465e-26
6.91239e-26
1.18404e-25
1.2887e-25
1.5323e-25
1.32108e-25
8.09569e-26
2.54753e-26
1.8104e-26
1.17735e-26
2.84637e-26
4.21757e-26
4.95585e-26
3.66832e-26
4.29025e-26
8.97396e-26
1.8106e-25
2.1277e-25
2.0369e-25
1.02069e-25
5.14099e-26
2.92147e-26
2.0392e-26
1.57559e-26
3.35763e-26
8.06675e-26
1.60575e-25
1.93188e-25
2.03461e-25
1.27172e-25
8.31208e-26
4.47471e-26
3.10171e-26
1.96441e-26
2.28106e-26
9.63239e-26
1.86124e-25
3.13791e-25
4.51667e-25
4.80918e-25
7.90001e-25
1.37062e-24
3.50103e-24
1.26723e-23
2.65368e-23
7.31371e-24
6.26526e-21
3.21451e-20
6.04163e-21
1.35285e-20
3.58311e-20
6.23315e-23
1.43076e-21
5.46159e-23
6.95435e-24
6.58873e-25
2.22161e-26
7.78867e-26
5.6186e-26
1.77228e-26
3.71044e-26
9.78893e-26
1.70502e-25
1.8629e-25
2.11906e-25
1.72405e-25
1.01361e-25
3.21261e-26
2.66151e-26
1.56649e-26
3.53916e-26
5.01665e-26
6.00757e-26
4.76892e-26
5.7385e-26
1.22196e-25
2.38586e-25
2.79852e-25
2.77962e-25
1.36495e-25
6.11027e-26
3.10461e-26
2.02602e-26
1.76463e-26
4.25709e-26
1.05053e-25
2.03633e-25
2.41913e-25
2.63902e-25
1.6173e-25
1.06808e-25
5.19224e-26
3.60836e-26
2.48435e-26
2.78793e-26
1.34349e-25
2.45307e-25
4.41982e-25
6.66526e-25
7.04517e-25
1.10334e-24
1.80416e-24
4.35844e-24
1.47724e-23
2.71395e-23
1.95479e-23
9.76243e-21
4.28113e-20
1.30502e-20
2.11956e-20
5.95113e-20
2.53172e-23
2.4795e-21
5.23136e-23
1.35833e-23
6.50082e-25
4.25052e-26
1.34906e-25
8.8056e-26
2.65098e-26
5.15323e-26
1.39981e-25
2.49969e-25
2.72211e-25
2.96191e-25
2.24814e-25
1.26756e-25
4.07698e-26
4.08837e-26
2.14151e-26
4.44894e-26
5.96933e-26
7.26747e-26
6.28265e-26
7.84682e-26
1.68776e-25
3.17777e-25
3.71668e-25
3.87272e-25
1.8729e-25
7.28027e-26
3.22935e-26
1.92232e-26
1.96986e-26
5.51317e-26
1.39818e-25
2.61469e-25
3.05554e-25
3.53875e-25
2.33051e-25
1.32277e-25
5.43136e-26
4.60127e-26
2.95853e-26
3.35881e-26