/*--------------------------------*- C++ -*----------------------------------*\
| =========                 |                                                 |
| \\      /  F ield         | OpenFOAM: The Open Source CFD Toolbox           |
|  \\    /   O peration     | Version:  2312                                  |
|   \\  /    A nd           | Website:  www.openfoam.com                      |
|    \\/     M anipulation  |                                                 |
\*---------------------------------------------------------------------------*/
FoamFile
{
    version     2.0;
    format      ascii;
    arch        "LSB;label=32;scalar=64";
    class       volScalarField;
    location    "120";
    object      p;
}
// * * * * * * * * * * * * * * * * * * * * * * * * * * * * * * * * * * * * * //

dimensions      [0 2 -2 0 0 0 0];

internalField   nonuniform List<scalar> 
144000
(
1.53282e-09
-1.26856e-10
-1.82648e-09
-2.12114e-09
-1.56086e-09
-1.02058e-09
-4.98371e-10
-2.67295e-10
-4.61676e-11
5.37997e-11
1.41892e-10
1.02034e-10
1.93904e-10
1.16985e-10
1.93468e-10
9.95564e-11
1.72167e-10
9.29614e-11
1.16852e-10
9.71088e-11
1.19795e-10
3.93293e-11
1.23453e-10
4.64706e-11
8.5031e-11
3.91283e-11
1.18789e-10
-6.93848e-12
1.1139e-10
2.59876e-11
8.57527e-11
3.53727e-11
9.89137e-11
3.68095e-11
8.16115e-11
2.44629e-11
1.17204e-10
-7.87028e-12
1.05432e-10
5.1327e-12
7.22044e-11
-7.39603e-12
7.23202e-11
3.36146e-11
7.18677e-11
2.85708e-11
1.08401e-10
-2.93466e-11
1.4848e-11
-7.91042e-11
-7.62748e-11
-8.94694e-11
-8.68778e-11
1.2958e-11
-4.3338e-11
1.16885e-10
3.39286e-11
1.61156e-10
-2.69693e-09
-4.57894e-10
1.61342e-09
-7.84691e-11
-1.84906e-09
-2.1383e-09
-1.56515e-09
-1.02186e-09
-4.98217e-10
-2.67472e-10
-4.76616e-11
5.34436e-11
1.41296e-10
1.00921e-10
1.93709e-10
1.16368e-10
1.93181e-10
9.93786e-11
1.7141e-10
9.36066e-11
1.15475e-10
9.77272e-11
1.19637e-10
3.87673e-11
1.23364e-10
4.68739e-11
8.43195e-11
3.90751e-11
1.1928e-10
-7.54319e-12
1.11097e-10
2.6765e-11
8.46912e-11
3.61521e-11
9.82049e-11
3.74503e-11
8.10928e-11
2.43569e-11
1.17722e-10
-8.14844e-12
1.05173e-10
5.87726e-12
7.13122e-11
-6.90233e-12
7.10466e-11
3.47865e-11
7.10795e-11
2.88814e-11
1.09113e-10
-2.89134e-11
1.46718e-11
-7.79021e-11
-7.71377e-11
-8.83695e-11
-8.80327e-11
1.34037e-11
-4.31543e-11
1.14602e-10
4.24072e-11
1.95528e-10
-2.74471e-09
-5.30436e-10
1.70565e-09
-6.81393e-11
-1.87242e-09
-2.14143e-09
-1.56741e-09
-1.0243e-09
-4.9747e-10
-2.67698e-10
-4.92858e-11
5.30088e-11
1.40744e-10
9.88426e-11
1.94007e-10
1.14908e-10
1.93234e-10
9.85858e-11
1.70871e-10
9.41307e-11
1.13798e-10
9.82357e-11
1.19811e-10
3.74608e-11
1.23751e-10
4.69845e-11
8.37056e-11
3.85097e-11
1.20688e-10
-9.21842e-12
1.11402e-10
2.73304e-11
8.35641e-11
3.68538e-11
9.77383e-11
3.78503e-11
8.08815e-11
2.36203e-11
1.19178e-10
-9.34851e-12
1.0558e-10
6.32083e-12
7.06243e-11
-6.8089e-12
6.97166e-11
3.58311e-11
7.0471e-11
2.87832e-11
1.10916e-10
-2.92779e-11
1.51323e-11
-7.69624e-11
-7.7913e-11
-8.75036e-11
-8.87858e-11
1.40654e-11
-4.20679e-11
1.07914e-10
4.85878e-11
2.54432e-10
-2.81742e-09
-5.82801e-10
1.79178e-09
-1.40383e-10
-1.88929e-09
-2.11385e-09
-1.56541e-09
-1.02836e-09
-4.96591e-10
-2.67444e-10
-5.09224e-11
5.26183e-11
1.39768e-10
9.60576e-11
1.94313e-10
1.12903e-10
1.93089e-10
9.76041e-11
1.70133e-10
9.4755e-11
1.11629e-10
9.88455e-11
1.19928e-10
3.59381e-11
1.24157e-10
4.70389e-11
8.29704e-11
3.78187e-11
1.22449e-10
-1.13475e-11
1.11839e-10
2.79932e-11
8.20443e-11
3.78882e-11
9.71476e-11
3.83127e-11
8.06649e-11
2.26734e-11
1.20954e-10
-1.0869e-11
1.06176e-10
6.86234e-12
6.97415e-11
-6.59991e-12
6.79864e-11
3.6829e-11
6.97184e-11
2.86008e-11
1.13155e-10
-3.02466e-11
1.60226e-11
-7.62963e-11
-7.84645e-11
-8.71019e-11
-8.83436e-11
1.23702e-11
-3.77537e-11
9.2322e-11
6.51387e-11
3.1185e-10
-2.90897e-09
-5.70142e-10
1.86434e-09
-3.49458e-10
-1.8997e-09
-2.02906e-09
-1.55214e-09
-1.03461e-09
-4.96454e-10
-2.66646e-10
-5.25433e-11
5.20478e-11
1.37938e-10
9.25235e-11
1.94211e-10
1.10303e-10
1.92374e-10
9.64842e-11
1.68975e-10
9.53797e-11
1.09032e-10
9.95845e-11
1.19838e-10
3.44091e-11
1.24343e-10
4.70257e-11
8.21227e-11
3.7077e-11
1.24256e-10
-1.36101e-11
1.12191e-10
2.87722e-11
8.0104e-11
3.93018e-11
9.63497e-11
3.88327e-11
8.04209e-11
2.1639e-11
1.22704e-10
-1.23974e-11
1.06737e-10
7.62482e-12
6.8588e-11
-6.01e-12
6.57367e-11
3.75897e-11
6.87086e-11
2.83987e-11
1.15356e-10
-3.1723e-11
1.72759e-11
-7.59241e-11
-7.84834e-11
-8.7397e-11
-8.59475e-11
7.74428e-12
-2.85875e-11
6.5741e-11
9.77295e-11
3.49475e-10
-3.02231e-09
-4.38798e-10
1.93588e-09
-7.2888e-10
-1.91669e-09
-1.87355e-09
-1.51905e-09
-1.04315e-09
-4.97941e-10
-2.65281e-10
-5.39936e-11
5.11236e-11
1.35029e-10
8.82039e-11
1.93441e-10
1.07042e-10
1.90893e-10
9.51778e-11
1.67313e-10
9.58394e-11
1.06137e-10
9.98691e-11
1.1947e-10
3.29823e-11
1.24199e-10
4.68682e-11
8.123e-11
3.6281e-11
1.2591e-10
-1.58149e-11
1.12365e-10
2.9589e-11
7.78241e-11
4.10276e-11
9.5352e-11
3.93385e-11
8.0196e-11
2.05483e-11
1.24208e-10
-1.37636e-11
1.07173e-10
8.61591e-12
6.72248e-11
-4.98155e-12
6.28982e-11
3.78394e-11
6.74233e-11
2.81451e-11
1.17219e-10
-3.37043e-11
1.89162e-11
-7.59586e-11
-7.76042e-11
-8.86979e-11
-8.09155e-11
-7.48727e-14
-1.32011e-11
2.72466e-11
1.48065e-10
3.60908e-10
-3.16821e-09
-1.6171e-10
2.02957e-09
-1.28101e-09
-1.95986e-09
-1.64503e-09
-1.45889e-09
-1.05355e-09
-5.02001e-10
-2.63425e-10
-5.50643e-11
4.97683e-11
1.30956e-10
8.3147e-11
1.91855e-10
1.03099e-10
1.88556e-10
9.36353e-11
1.65113e-10
9.60065e-11
1.0307e-10
9.97419e-11
1.18772e-10
3.17468e-11
1.23643e-10
4.65086e-11
8.03483e-11
3.54322e-11
1.27243e-10
-1.78021e-11
1.12301e-10
3.0363e-11
7.53017e-11
4.29934e-11
9.41495e-11
3.97862e-11
8.00176e-11
1.94314e-11
1.25306e-10
-1.48453e-11
1.07438e-10
9.80715e-12
6.57992e-11
-3.49655e-12
5.92952e-11
3.73171e-11
6.58975e-11
2.7815e-11
1.18546e-10
-3.61948e-11
2.09846e-11
-7.6569e-11
-7.55319e-11
-9.12348e-11
-7.28947e-11
-1.31643e-11
8.74511e-12
-2.21835e-11
2.13787e-10
3.49219e-10
-3.35426e-09
2.57953e-10
2.163e-09
-1.97795e-09
-2.04412e-09
-1.35143e-09
-1.36794e-09
-1.06489e-09
-5.09624e-10
-2.61407e-10
-5.5604e-11
4.79278e-11
1.25701e-10
7.74468e-11
1.89384e-10
9.84647e-11
1.85366e-10
9.18179e-11
1.62361e-10
9.58109e-11
9.99349e-11
9.9115e-11
1.17704e-10
3.07854e-11
1.22605e-10
4.59195e-11
7.95147e-11
3.45444e-11
1.28109e-10
-1.94312e-11
1.11959e-10
3.10136e-11
7.26398e-11
4.51462e-11
9.27064e-11
4.01732e-11
7.98953e-11
1.8314e-11
1.25883e-10
-1.55564e-11
1.07524e-10
1.11507e-11
6.45419e-11
-1.61592e-12
5.46296e-11
3.57988e-11
6.42196e-11
2.74088e-11
1.19203e-10
-3.91544e-11
2.3498e-11
-7.78957e-11
-7.21584e-11
-9.50302e-11
-6.19059e-11
-3.0316e-11
3.62096e-11
-7.88705e-11
2.87251e-10
3.23919e-10
-3.57718e-09
7.93712e-10
2.34636e-09
-2.76384e-09
-2.17769e-09
-1.01205e-09
-1.24559e-09
-1.07547e-09
-5.21509e-10
-2.5979e-10
-5.55531e-11
4.55551e-11
1.1929e-10
7.12141e-11
1.86019e-10
9.31224e-11
1.81385e-10
8.97043e-11
1.59043e-10
9.52371e-11
9.68074e-11
9.79346e-11
1.16242e-10
3.01692e-11
1.21029e-10
4.51134e-11
7.87564e-11
3.36383e-11
1.28391e-10
-2.05922e-11
1.11332e-10
3.14512e-11
6.99413e-11
4.74588e-11
9.09609e-11
4.05234e-11
7.984e-11
1.72021e-11
1.25878e-10
-1.58515e-11
1.07459e-10
1.25779e-11
6.37922e-11
5.62339e-13
4.84793e-11
3.3085e-11
6.25115e-11
2.69665e-11
1.19074e-10
-4.24725e-11
2.64285e-11
-7.99717e-11
-6.75931e-11
-9.98577e-11
-4.8646e-11
-5.01769e-11
6.66757e-11
-1.37271e-10
3.58543e-10
2.96975e-10
-3.82597e-09
1.3791e-09
2.57493e-09
-3.56984e-09
-2.35979e-09
-6.52622e-10
-1.09417e-09
-1.083e-09
-5.37857e-10
-2.59282e-10
-5.4955e-11
4.26222e-11
1.11784e-10
6.4565e-11
1.81806e-10
8.70513e-11
1.76702e-10
8.73076e-11
1.55125e-10
9.43143e-11
9.37393e-11
9.61746e-11
1.14377e-10
2.99582e-11
1.18875e-10
4.41019e-11
7.80989e-11
3.27309e-11
1.28008e-10
-2.12175e-11
1.10453e-10
3.15868e-11
6.72914e-11
4.99403e-11
8.88326e-11
4.08688e-11
7.98774e-11
1.60809e-11
1.25271e-10
-1.57152e-11
1.07285e-10
1.40158e-11
6.39909e-11
2.85724e-12
4.03208e-11
2.90538e-11
6.08954e-11
2.6574e-11
1.1805e-10
-4.59711e-11
2.96859e-11
-8.26764e-11
-6.21415e-11
-1.05175e-10
-3.43003e-11
-7.0695e-11
9.67461e-11
-1.91119e-10
4.17838e-10
2.777e-10
-4.07933e-09
1.95299e-09
2.83046e-09
-4.33265e-09
-2.58207e-09
-3.02003e-10
-9.19699e-10
-1.08503e-09
-5.58343e-10
-2.60648e-10
-5.39894e-11
3.91148e-11
1.03269e-10
5.7616e-11
1.76819e-10
8.02454e-11
1.71398e-10
8.46831e-11
1.50558e-10
9.30995e-11
9.07658e-11
9.38259e-11
1.12113e-10
3.01955e-11
1.16117e-10
4.29013e-11
7.75652e-11
3.18311e-11
1.26916e-10
-2.12808e-11
1.09374e-10
3.13494e-11
6.47392e-11
5.26139e-11
8.62441e-11
4.12342e-11
8.00458e-11
1.4926e-11
1.24071e-10
-1.51439e-11
1.07061e-10
1.53827e-11
6.56735e-11
4.88078e-12
2.9534e-11
2.36989e-11
5.94548e-11
2.63352e-11
1.16017e-10
-4.94271e-11
3.31055e-11
-8.57438e-11
-5.64259e-11
-1.10168e-10
-2.03904e-11
-8.96191e-11
1.22901e-10
-2.34815e-10
4.57877e-10
2.70895e-10
-4.30887e-09
2.46024e-09
3.08708e-09
-4.9773e-09
-2.82994e-09
1.21249e-11
-7.31412e-10
-1.07939e-09
-5.82122e-10
-2.64626e-10
-5.29948e-11
3.50113e-11
9.38402e-11
5.04803e-11
1.71142e-10
7.2729e-11
1.65525e-10
8.19198e-11
1.45287e-10
9.1654e-11
8.79162e-11
9.08905e-11
1.09467e-10
3.09018e-11
1.12752e-10
4.15248e-11
7.71755e-11
3.09387e-11
1.25106e-10
-2.07892e-11
1.0815e-10
3.07009e-11
6.22973e-11
5.55286e-11
8.31396e-11
4.16326e-11
8.03901e-11
1.37148e-11
1.22293e-10
-1.41418e-11
1.06869e-10
1.65889e-11
6.96586e-11
6.2325e-12
1.53275e-11
1.71662e-11
5.82148e-11
2.63365e-11
1.12865e-10
-5.26071e-11
3.64582e-11
-8.88555e-11
-5.11198e-11
-1.13882e-10
-8.37534e-12
-1.04878e-10
1.42021e-10
-2.64229e-10
4.74767e-10
2.77313e-10
-4.48587e-09
2.85451e-09
3.31612e-09
-5.46172e-09
-3.08261e-09
2.68756e-10
-5.39534e-10
-1.0642e-09
-6.07719e-10
-2.71697e-10
-5.23756e-11
3.03119e-11
8.36159e-11
4.32851e-11
1.64851e-10
6.45664e-11
1.59117e-10
7.91195e-11
1.39282e-10
9.00258e-11
8.52195e-11
8.73774e-11
1.06472e-10
3.20758e-11
1.08801e-10
3.99827e-11
7.69455e-11
3.00487e-11
1.22594e-10
-1.97646e-11
1.06819e-10
2.9636e-11
5.99559e-11
5.87152e-11
7.94928e-11
4.20569e-11
8.0947e-11
1.24448e-11
1.19949e-10
-1.2709e-11
1.06712e-10
1.76742e-11
7.68951e-11
6.20591e-12
-3.1895e-12
9.90707e-12
5.72539e-11
2.66867e-11
1.08489e-10
-5.52672e-11
3.94971e-11
-9.1688e-11
-4.68268e-11
-1.15416e-10
5.80178e-13
-1.14713e-10
1.51946e-10
-2.77253e-10
4.67967e-10
2.94784e-10
-4.58445e-09
3.10592e-09
3.47982e-09
-5.76239e-09
-3.31675e-09
4.54874e-10
-3.54036e-10
-1.03822e-09
-6.33232e-10
-2.82046e-10
-5.25699e-11
2.50178e-11
7.27208e-11
3.6171e-11
1.58012e-10
5.58505e-11
1.52205e-10
7.63716e-11
1.32549e-10
8.82411e-11
8.26998e-11
8.33029e-11
1.03173e-10
3.36954e-11
1.04303e-10
3.82871e-11
7.68835e-11
2.91587e-11
1.19408e-10
-1.82353e-11
1.05406e-10
2.81717e-11
5.7704e-11
6.21798e-11
7.53018e-11
4.25022e-11
8.17242e-11
1.11423e-11
1.17042e-10
-1.07789e-11
1.06343e-10
1.88173e-11
8.80986e-11
2.8141e-12
-2.71264e-11
2.43442e-12
5.67718e-11
2.75412e-11
1.02889e-10
-5.71462e-11
4.20093e-11
-9.39006e-11
-4.40887e-11
-1.14113e-10
5.57539e-12
-1.18346e-10
1.51996e-10
-2.74042e-10
4.39766e-10
3.18284e-10
-4.58969e-09
3.20451e-09
3.55819e-09
-5.87323e-09
-3.50579e-09
5.64335e-10
-1.84925e-10
-1.00136e-09
-6.56829e-10
-2.95624e-10
-5.40461e-11
1.90971e-11
6.12616e-11
2.92748e-11
1.50676e-10
4.66789e-11
1.44831e-10
7.37329e-11
1.25135e-10
8.6311e-11
8.0375e-11
7.86903e-11
9.96192e-11
3.57223e-11
9.93085e-11
3.64574e-11
7.69853e-11
2.82723e-11
1.15587e-10
-1.62334e-11
1.03927e-10
2.6332e-11
5.55405e-11
6.59022e-11
7.05845e-11
4.29664e-11
8.27122e-11
9.83434e-12
1.13562e-10
-8.23873e-12
1.05582e-10
1.96948e-11
1.06592e-10
-5.12788e-12
-5.91093e-11
-5.65272e-12
5.62888e-11
2.89075e-11
9.60439e-11
-5.80641e-11
4.38048e-11
-9.5218e-11
-4.3255e-11
-1.09656e-10
6.12545e-12
-1.15725e-10
1.42597e-10
-2.56394e-10
3.94159e-10
3.4092e-10
-4.49831e-09
3.15601e-09
3.54109e-09
-5.80372e-09
-3.63586e-09
5.97155e-10
-4.02097e-11
-9.54552e-10
-6.76852e-10
-3.12112e-10
-5.72121e-11
1.25008e-11
4.9337e-11
2.27255e-11
1.42893e-10
3.71362e-11
1.37049e-10
7.12227e-11
1.17121e-10
8.42429e-11
7.82438e-11
7.35694e-11
9.58622e-11
3.81061e-11
9.38695e-11
3.45211e-11
7.7236e-11
2.73974e-11
1.11182e-10
-1.37973e-11
1.02397e-10
2.41373e-11
5.34821e-11
6.98411e-11
6.53761e-11
4.34412e-11
8.39008e-11
8.52215e-12
1.09562e-10
-5.17076e-12
1.04633e-10
1.92201e-11
1.39073e-10
-6.24518e-12
-9.98958e-11
-1.49398e-11
5.45826e-11
3.05381e-11
8.78705e-11
-5.79691e-11
4.4713e-11
-9.55144e-11
-4.44786e-11
-1.0204e-10
2.25168e-12
-1.07273e-10
1.25065e-10
-2.26957e-10
3.37313e-10
3.57347e-10
-4.31563e-09
2.97917e-09
3.42442e-09
-5.57805e-09
-3.69768e-09
5.63414e-10
7.47305e-11
-8.9958e-10
-6.91963e-10
-3.30948e-10
-6.23808e-11
5.15491e-12
3.70405e-11
1.66349e-11
1.34717e-10
2.72852e-11
1.28944e-10
6.88324e-11
1.08607e-10
8.20495e-11
7.62893e-11
6.79764e-11
9.19518e-11
4.07909e-11
8.80315e-11
3.25122e-11
7.76133e-11
2.65406e-11
1.06255e-10
-1.09686e-11
1.00829e-10
2.16039e-11
5.15542e-11
7.39531e-11
5.97009e-11
4.39588e-11
8.52183e-11
7.27473e-12
1.05002e-10
-1.31377e-12
1.02595e-10
1.86158e-11
1.55272e-10
-2.86231e-14
-1.23414e-10
-2.12523e-11
5.20328e-11
3.26012e-11
7.85292e-11
-5.67482e-11
4.47256e-11
-9.47854e-11
-4.76988e-11
-9.15223e-11
-5.5462e-12
-9.38672e-11
1.01482e-10
-1.88827e-10
2.75118e-10
3.62994e-10
-4.05209e-09
2.69949e-09
3.21289e-09
-5.22908e-09
-3.68776e-09
4.75451e-10
1.57344e-10
-8.38724e-10
-7.01191e-10
-3.51376e-10
-6.97302e-11
-3.03049e-12
2.44514e-11
1.10924e-11
1.2621e-10
1.71697e-11
1.2061e-10
6.65348e-11
9.96954e-11
7.97551e-11
7.44825e-11
6.19538e-11
8.79329e-11
4.37179e-11
8.1835e-11
3.04666e-11
7.8093e-11
2.57016e-11
1.0088e-10
-7.79092e-12
9.92396e-11
1.87457e-11
4.97868e-11
7.81972e-11
5.35746e-11
4.45676e-11
8.6577e-11
6.172e-12
9.97881e-11
3.85368e-12
9.80434e-11
2.03296e-11
1.31837e-10
2.80982e-12
-1.041e-10
-2.03497e-11
4.96744e-11
3.54259e-11
6.8305e-11
-5.43111e-11
4.39591e-11
-9.31482e-11
-5.26431e-11
-7.8584e-11
-1.64695e-11
-7.68102e-11
7.40338e-11
-1.45571e-10
2.1238e-10
3.5517e-10
-3.72351e-09
2.34653e-09
2.91681e-09
-4.79249e-09
-3.6074e-09
3.47587e-10
2.07361e-10
-7.74521e-10
-7.03957e-10
-3.72521e-10
-7.92979e-11
-1.21527e-11
1.16376e-11
6.16414e-12
1.17437e-10
6.81823e-12
1.12155e-10
6.42903e-11
9.04782e-11
7.73975e-11
7.27852e-11
5.55491e-11
8.38492e-11
4.6828e-11
7.53144e-11
2.84174e-11
7.8652e-11
2.48696e-11
9.51365e-11
-4.30673e-12
9.76468e-11
1.55725e-11
4.82173e-11
8.25232e-11
4.70356e-11
4.52729e-11
8.79777e-11
5.11037e-12
9.41653e-11
9.81296e-12
9.21801e-11
2.21644e-11
9.58841e-11
1.19657e-11
-6.63779e-11
-1.63127e-11
4.64962e-11
3.86052e-11
5.71457e-11
-5.08191e-11
4.24911e-11
-9.08634e-11
-5.89277e-11
-6.38823e-11
-2.95336e-11
-5.76283e-11
4.51029e-11
-1.00711e-10
1.52969e-10
3.33098e-10
-3.34743e-09
1.94978e-09
2.55179e-09
-4.30242e-09
-3.46266e-09
1.93793e-10
2.26288e-10
-7.09613e-10
-7.00169e-10
-3.93538e-10
-9.10205e-11
-2.23244e-11
-1.35638e-12
1.88611e-12
1.08458e-10
-3.75768e-12
1.03664e-10
6.20533e-11
8.10335e-11
7.5021e-11
7.11499e-11
4.88128e-11
7.97451e-11
5.00613e-11
6.84995e-11
2.63925e-11
7.92699e-11
2.40245e-11
8.91013e-11
-5.55007e-13
9.60642e-11
1.20966e-11
4.6882e-11
8.68853e-11
4.01162e-11
4.60982e-11
8.94084e-11
3.9943e-12
8.8363e-11
1.59392e-11
8.64641e-11
2.20379e-11
7.08143e-11
2.73183e-11
-3.94059e-11
-1.28489e-11
4.2268e-11
4.18926e-11
4.5106e-11
-4.6434e-11
4.04809e-11
-8.8232e-11
-6.60792e-11
-4.81344e-11
-4.37108e-11
-3.77894e-11
1.68412e-11
-5.72371e-11
1.00073e-10
2.97446e-10
-2.94237e-09
1.53548e-09
2.13215e-09
-3.78697e-09
-3.2603e-09
2.87576e-11
2.16173e-10
-6.46748e-10
-6.90279e-10
-4.13693e-10
-1.04742e-10
-3.36576e-11
-1.45084e-11
-1.72779e-12
9.93215e-11
-1.45553e-11
9.5218e-11
5.97777e-11
7.14247e-11
7.26749e-11
6.95231e-11
4.17929e-11
7.56698e-11
5.33601e-11
6.14155e-11
2.44152e-11
7.99296e-11
2.31388e-11
8.2847e-11
3.43153e-12
9.4496e-11
8.33284e-12
4.58157e-11
9.12414e-11
3.2841e-11
4.70943e-11
9.08208e-11
2.80449e-12
8.24051e-11
2.22821e-11
8.07512e-11
2.08656e-11
5.50678e-11
3.81084e-11
-2.14665e-11
-9.21139e-12
3.83027e-11
4.53777e-11
3.24977e-11
-4.12428e-11
3.81882e-11
-8.55565e-11
-7.35848e-11
-3.20421e-11
-5.80431e-11
-1.85703e-11
-9.00451e-12
-1.73942e-11
5.51531e-11
2.50236e-10
-2.52431e-09
1.12526e-09
1.67223e-09
-3.27908e-09
-3.00865e-09
-1.33288e-10
1.83186e-10
-5.88335e-10
-6.75061e-10
-4.32324e-10
-1.20191e-10
-4.62319e-11
-2.7801e-11
-4.67444e-12
9.00685e-11
-2.55711e-11
8.68921e-11
5.74199e-11
6.17025e-11
7.04103e-11
6.78513e-11
3.45324e-11
7.16757e-11
5.66692e-11
5.40864e-11
2.25064e-11
8.06185e-11
2.21803e-11
7.64383e-11
7.62908e-12
9.29393e-11
4.29479e-12
4.50595e-11
9.55433e-11
2.5242e-11
4.82934e-11
9.22063e-11
1.45772e-12
7.64352e-11
2.87645e-11
7.49358e-11
1.96084e-11
4.47063e-11
4.49323e-11
-9.17941e-12
-4.9992e-12
3.51283e-11
4.89939e-11
1.94774e-11
-3.54016e-11
3.58442e-11
-8.31592e-11
-8.09476e-11
-1.62492e-11
-7.16927e-11
-9.99953e-13
-3.1179e-11
1.73208e-11
1.86687e-11
1.94129e-10
-2.10763e-09
7.37882e-10
1.18682e-09
-2.79977e-09
-2.71843e-09
-2.81734e-10
1.31658e-10
-5.36114e-10
-6.55453e-10
-4.48902e-10
-1.37033e-10
-6.00953e-11
-4.12221e-11
-6.96042e-12
8.0728e-11
-3.68014e-11
7.8752e-11
5.49359e-11
5.19085e-11
6.82777e-11
6.60816e-11
2.70661e-11
6.7817e-11
5.99361e-11
4.65346e-11
2.06853e-11
8.13276e-11
2.11145e-11
6.99303e-11
1.20091e-11
9.13849e-11
-6.47277e-15
4.46601e-11
9.97385e-11
1.7346e-11
4.9729e-11
9.35655e-11
-1.32119e-13
7.06308e-11
3.51378e-11
6.93211e-11
1.83894e-11
3.75201e-11
4.95816e-11
-8.09714e-13
-5.74162e-13
3.27337e-11
5.2622e-11
6.17828e-12
-2.90828e-11
3.36504e-11
-8.13389e-11
-8.77088e-11
-1.2977e-12
-8.39825e-11
1.41665e-11
-4.8868e-11
4.6e-11
-9.54019e-12
1.31236e-10
-1.70355e-09
3.87806e-10
6.91617e-10
-2.36689e-09
-2.40286e-09
-4.09534e-10
6.70017e-11
-4.9092e-10
-6.32413e-10
-4.63074e-10
-1.54927e-10
-7.52771e-11
-5.47755e-11
-8.60675e-12
7.12997e-11
-4.82534e-11
7.08518e-11
5.22731e-11
4.20702e-11
6.63252e-11
6.41573e-11
1.94181e-11
6.4147e-11
6.31114e-11
3.87756e-11
1.89714e-11
8.20488e-11
1.99036e-11
6.33689e-11
1.65633e-11
8.9816e-11
-4.56543e-12
4.46684e-11
1.03772e-10
9.17097e-12
5.1448e-11
9.48897e-11
-2.02218e-12
6.50911e-11
4.12945e-11
6.40909e-11
1.69989e-11
3.25347e-11
5.32796e-11
4.51914e-12
3.57777e-12
3.11365e-11
5.61423e-11
-7.25605e-12
-2.24241e-11
3.17805e-11
-8.03389e-11
-9.34713e-11
1.24076e-11
-9.44207e-11
2.64771e-11
-6.16493e-11
6.82554e-11
-2.96907e-11
6.26816e-11
-1.32106e-09
8.66401e-11
2.01614e-10
-1.99367e-09
-2.0747e-09
-5.11808e-10
-5.33211e-12
-4.53011e-10
-6.06831e-10
-4.74605e-10
-1.73559e-10
-9.17773e-11
-6.84676e-11
-9.62614e-12
6.1765e-11
-5.99388e-11
6.32279e-11
4.93828e-11
3.21959e-11
6.46065e-11
6.20191e-11
1.16055e-11
6.07149e-11
6.61572e-11
3.08139e-11
1.73852e-11
8.27754e-11
1.85108e-11
5.67894e-11
2.12907e-11
8.82045e-11
-9.38034e-12
4.51295e-11
1.07595e-10
7.21935e-13
5.3505e-11
9.61731e-11
-4.26667e-12
5.98834e-11
4.72297e-11
5.92088e-11
1.53481e-11
2.92527e-11
5.65693e-11
7.34231e-12
7.17223e-12
3.03956e-11
5.94645e-11
-2.06726e-11
-1.55386e-11
3.03638e-11
-8.03608e-11
-9.79372e-11
2.4578e-11
-1.02712e-10
3.57325e-11
-6.93766e-11
8.39535e-11
-4.21097e-11
-1.04697e-11
-9.67886e-10
-1.57396e-10
1.54702e-09
-1.2312e-10
-1.82788e-09
-2.1204e-09
-1.55885e-09
-1.01614e-09
-4.92765e-10
-2.6203e-10
-4.22704e-11
5.59175e-11
1.42575e-10
1.01762e-10
1.93077e-10
1.15781e-10
1.92114e-10
9.80888e-11
1.70938e-10
9.20262e-11
1.16218e-10
9.65779e-11
1.19502e-10
3.91496e-11
1.23414e-10
4.63683e-11
8.50185e-11
3.89653e-11
1.18821e-10
-6.96307e-12
1.11534e-10
2.59195e-11
8.58452e-11
3.51494e-11
9.89142e-11
3.63836e-11
8.16106e-11
2.3946e-11
1.1738e-10
-8.3938e-12
1.05831e-10
5.03999e-12
7.34314e-11
-5.72904e-12
7.27245e-11
3.41648e-11
7.19272e-11
2.77556e-11
1.0712e-10
-3.08947e-11
1.31561e-11
-8.1072e-11
-7.84043e-11
-9.1976e-11
-8.92764e-11
1.05377e-11
-4.54581e-11
1.15555e-10
3.44793e-11
1.59837e-10
-2.70702e-09
-4.56025e-10
1.628e-09
-7.43957e-11
-1.85058e-09
-2.13756e-09
-1.56311e-09
-1.01741e-09
-4.92569e-10
-2.62187e-10
-4.37579e-11
5.55553e-11
1.41968e-10
1.00632e-10
1.92867e-10
1.15147e-10
1.91811e-10
9.78901e-11
1.70171e-10
9.26632e-11
1.14835e-10
9.7187e-11
1.19342e-10
3.85873e-11
1.23323e-10
4.67683e-11
8.43044e-11
3.89086e-11
1.19316e-10
-7.55983e-12
1.11244e-10
2.67041e-11
8.47831e-11
3.59338e-11
9.82028e-11
3.70335e-11
8.10853e-11
2.3851e-11
1.17887e-10
-8.65609e-12
1.05562e-10
5.81374e-12
7.26125e-11
-5.13056e-12
7.15654e-11
3.53807e-11
7.11318e-11
2.80551e-11
1.07823e-10
-3.04728e-11
1.29697e-11
-7.98818e-11
-7.92804e-11
-9.08947e-11
-9.04328e-11
1.09744e-11
-4.52733e-11
1.13291e-10
4.30383e-11
1.94379e-10
-2.75503e-09
-5.28924e-10
1.72052e-09
-6.34183e-11
-1.874e-09
-2.14077e-09
-1.56535e-09
-1.01986e-09
-4.91773e-10
-2.62378e-10
-4.53521e-11
5.51234e-11
1.41406e-10
9.85335e-11
1.93146e-10
1.13663e-10
1.91842e-10
9.70662e-11
1.6961e-10
9.31717e-11
1.13149e-10
9.7681e-11
1.19513e-10
3.72812e-11
1.23711e-10
4.68746e-11
8.36884e-11
3.83368e-11
1.20726e-10
-9.22415e-12
1.11558e-10
2.72791e-11
8.36582e-11
3.6642e-11
9.77339e-11
3.74459e-11
8.08676e-11
2.31255e-11
1.19332e-10
-9.84542e-12
1.05963e-10
6.2508e-12
7.20362e-11
-4.92785e-12
7.04188e-11
3.65958e-11
7.0558e-11
2.79377e-11
1.09619e-10
-3.08468e-11
1.34232e-11
-7.89522e-11
-8.00643e-11
-9.005e-11
-9.11934e-11
1.16423e-11
-4.41927e-11
1.06611e-10
4.92888e-11
2.5367e-10
-2.82796e-09
-5.82103e-10
1.80659e-09
-1.34791e-10
-1.89076e-09
-2.11324e-09
-1.56332e-09
-1.02394e-09
-4.90839e-10
-2.62065e-10
-4.69374e-11
5.47507e-11
1.40424e-10
9.57303e-11
1.93432e-10
1.11632e-10
1.9167e-10
9.60444e-11
1.68837e-10
9.3773e-11
1.10969e-10
9.82715e-11
1.1962e-10
3.57595e-11
1.24118e-10
4.69261e-11
8.295e-11
3.76377e-11
1.22485e-10
-1.13389e-11
1.12006e-10
2.79581e-11
8.21399e-11
3.76891e-11
9.71355e-11
3.79281e-11
8.06387e-11
2.21976e-11
1.21091e-10
-1.13568e-11
1.06547e-10
6.7282e-12
7.13188e-11
-4.65075e-12
6.89379e-11
3.79737e-11
6.99054e-11
2.77264e-11
1.11848e-10
-3.18189e-11
1.43111e-11
-7.82923e-11
-8.06214e-11
-8.96714e-11
-9.07633e-11
9.93647e-12
-3.99057e-11
9.10134e-11
6.58883e-11
3.11614e-10
-2.9195e-09
-5.70564e-10
1.87865e-09
-3.42986e-10
-1.90089e-09
-2.02852e-09
-1.55003e-09
-1.03021e-09
-4.90635e-10
-2.61183e-10
-4.84829e-11
5.42161e-11
1.38596e-10
9.21806e-11
1.93311e-10
1.09006e-10
1.90928e-10
9.4882e-11
1.67634e-10
9.4368e-11
1.08356e-10
9.90021e-11
1.19514e-10
3.42326e-11
1.24308e-10
4.69133e-11
8.20964e-11
3.68877e-11
1.2428e-10
-1.35834e-11
1.12367e-10
2.87635e-11
8.01967e-11
3.9127e-11
9.6319e-11
3.84811e-11
8.03695e-11
2.1198e-11
1.22806e-10
-1.28704e-11
1.0708e-10
7.35253e-12
7.03971e-11
-4.11526e-12
6.69999e-11
3.93954e-11
6.9083e-11
2.74819e-11
1.14041e-10
-3.32884e-11
1.55697e-11
-7.79208e-11
-8.06402e-11
-8.99898e-11
-8.83844e-11
5.30268e-12
-3.07781e-11
6.44064e-11
9.84919e-11
3.49819e-10
-3.03256e-09
-4.40386e-10
1.94918e-09
-7.21705e-10
-1.91743e-09
-1.87306e-09
-1.51691e-09
-1.03875e-09
-4.92049e-10
-2.59713e-10
-4.98353e-11
5.33483e-11
1.35699e-10
8.78518e-11
1.92526e-10
1.05725e-10
1.89422e-10
9.35355e-11
1.65921e-10
9.47933e-11
1.0544e-10
9.92645e-11
1.19123e-10
3.28081e-11
1.24167e-10
4.67613e-11
8.11946e-11
3.60856e-11
1.2591e-10
-1.57668e-11
1.12546e-10
2.9619e-11
7.79059e-11
4.08921e-11
9.52872e-11
3.90378e-11
8.00996e-11
2.01664e-11
1.24251e-10
-1.42076e-11
1.07459e-10
8.11701e-12
6.93261e-11
-3.29832e-12
6.45717e-11
4.0664e-11
6.80833e-11
2.71689e-11
1.15896e-10
-3.52472e-11
1.72274e-11
-7.79475e-11
-7.97516e-11
-9.13091e-11
-8.33744e-11
-2.5628e-12
-1.54313e-11
2.58581e-11
1.48784e-10
3.61817e-10
-3.17783e-09
-1.64337e-10
2.04139e-09
-1.27335e-09
-1.95997e-09
-1.64457e-09
-1.45675e-09
-1.04915e-09
-4.96033e-10
-2.57742e-10
-5.07929e-11
5.20675e-11
1.31651e-10
8.27952e-11
1.90933e-10
1.0177e-10
1.87065e-10
9.19594e-11
1.63669e-10
9.49239e-11
1.02348e-10
9.91168e-11
1.18396e-10
3.15751e-11
1.23613e-10
4.64136e-11
8.03e-11
3.52356e-11
1.27208e-10
-1.77289e-11
1.12477e-10
3.04449e-11
7.53615e-11
4.29143e-11
9.40318e-11
3.95586e-11
7.98511e-11
1.91402e-11
1.25255e-10
-1.52326e-11
1.0762e-10
8.99437e-12
6.81778e-11
-2.21936e-12
6.1615e-11
4.16151e-11
6.6937e-11
2.67533e-11
1.1722e-10
-3.76959e-11
1.93287e-11
-7.85386e-11
-7.76585e-11
-9.38488e-11
-7.53779e-11
-1.5652e-11
6.48438e-12
-2.36492e-11
2.14398e-10
3.50638e-10
-3.36293e-09
2.54471e-10
2.17292e-09
-1.97004e-09
-2.0434e-09
-1.35096e-09
-1.36584e-09
-1.06049e-09
-5.03587e-10
-2.55606e-10
-5.12138e-11
5.03147e-11
1.26434e-10
7.71059e-11
1.88462e-10
9.71336e-11
1.83861e-10
9.01177e-11
1.60867e-10
9.46929e-11
9.91844e-11
9.8472e-11
1.17293e-10
3.06161e-11
1.22572e-10
4.58437e-11
7.94493e-11
3.43525e-11
1.2803e-10
-1.93295e-11
1.12119e-10
3.11607e-11
7.26644e-11
4.51407e-11
9.25147e-11
4.00431e-11
7.96284e-11
1.81523e-11
1.25692e-10
-1.58393e-11
1.07519e-10
9.94993e-12
6.70315e-11
-9.25826e-13
5.80805e-11
4.21214e-11
6.57053e-11
2.62219e-11
1.17875e-10
-4.05937e-11
2.18918e-11
-7.98333e-11
-7.42535e-11
-9.7626e-11
-6.44284e-11
-3.28051e-11
3.39341e-11
-8.04209e-11
2.87671e-10
3.25751e-10
-3.58462e-09
7.898e-10
2.35434e-09
-2.75597e-09
-2.17613e-09
-1.01152e-09
-1.24356e-09
-1.07107e-09
-5.15411e-10
-2.53875e-10
-5.10457e-11
4.80367e-11
1.20069e-10
7.08943e-11
1.85105e-10
9.17999e-11
1.79874e-10
8.79904e-11
1.57505e-10
9.40879e-11
9.60266e-11
9.72773e-11
1.15793e-10
3.00024e-11
1.20989e-10
4.50623e-11
7.86696e-11
3.3458e-11
1.28259e-10
-2.04584e-11
1.11463e-10
3.16752e-11
6.99176e-11
4.75425e-11
9.06738e-11
4.05159e-11
7.94384e-11
1.72153e-11
1.25489e-10
-1.59551e-11
1.07139e-10
1.0943e-11
6.59767e-11
5.20785e-13
5.39203e-11
4.20877e-11
6.44598e-11
2.55997e-11
1.17748e-10
-4.38318e-11
2.48879e-11
-8.18643e-11
-6.9645e-11
-1.02425e-10
-5.11855e-11
-5.26616e-11
6.44005e-11
-1.38912e-10
3.58754e-10
2.99091e-10
-3.83219e-09
1.37483e-09
2.58116e-09
-3.5624e-09
-2.35747e-09
-6.51985e-10
-1.09222e-09
-1.07861e-09
-5.31704e-10
-2.5326e-10
-5.0338e-11
4.52e-11
1.12616e-10
6.42746e-11
1.80907e-10
8.57475e-11
1.75192e-10
8.55911e-11
1.53551e-10
9.31404e-11
9.29281e-11
9.55076e-11
1.13887e-10
2.97946e-11
1.18823e-10
4.40805e-11
7.79868e-11
3.25689e-11
1.27817e-10
-2.10484e-11
1.10544e-10
3.18959e-11
6.72078e-11
5.01266e-11
8.84319e-11
4.1008e-11
7.93054e-11
1.63192e-11
1.24613e-10
-1.55354e-11
1.06468e-10
1.19329e-11
6.51051e-11
2.05569e-12
4.9114e-11
4.14601e-11
6.32482e-11
2.49574e-11
1.16728e-10
-4.72351e-11
2.82224e-11
-8.45139e-11
-6.41389e-11
-1.07709e-10
-3.68306e-11
-7.31683e-11
9.44834e-11
-1.92854e-10
4.17848e-10
2.79933e-10
-4.08448e-09
1.94899e-09
2.83522e-09
-4.3262e-09
-2.57915e-09
-3.01226e-10
-9.17834e-10
-1.08066e-09
-5.52147e-10
-2.54535e-10
-4.92759e-11
4.17848e-11
1.04155e-10
5.73607e-11
1.75942e-10
7.89687e-11
1.69895e-10
8.29746e-11
1.48955e-10
9.19088e-11
8.99257e-11
9.31547e-11
1.11583e-10
3.00359e-11
1.16048e-10
4.29128e-11
7.74255e-11
3.16929e-11
1.26663e-10
-2.10744e-11
1.09417e-10
3.1748e-11
6.45872e-11
5.29128e-11
8.57168e-11
4.15401e-11
7.92721e-11
1.54378e-11
1.23068e-10
-1.4556e-11
1.055e-10
1.28827e-11
6.44913e-11
3.61343e-12
4.36769e-11
4.02362e-11
6.20798e-11
2.44028e-11
1.14703e-10
-5.05834e-11
3.17272e-11
-8.75213e-11
-5.83565e-11
-1.12662e-10
-2.28851e-11
-9.20813e-11
1.20659e-10
-2.36633e-10
4.57708e-10
2.73099e-10
-4.31314e-09
2.45686e-09
3.09077e-09
-4.97153e-09
-2.82663e-09
1.30428e-11
-7.29646e-10
-1.07507e-09
-5.75908e-10
-2.58441e-10
-4.82026e-11
3.77644e-11
9.47801e-11
5.02626e-11
1.70287e-10
7.14854e-11
1.64037e-10
8.02282e-11
1.43665e-10
9.04546e-11
8.70499e-11
9.02201e-11
1.08899e-10
3.07475e-11
1.12662e-10
4.15707e-11
7.70067e-11
3.08277e-11
1.24792e-10
-2.05451e-11
1.08139e-10
3.11889e-11
6.20724e-11
5.5944e-11
8.24786e-11
4.2115e-11
7.9392e-11
1.45401e-11
1.20876e-10
-1.30086e-11
1.04223e-10
1.37543e-11
6.41912e-11
5.1778e-12
3.76383e-11
3.84628e-11
6.09231e-11
2.40572e-11
1.11587e-10
-5.36406e-11
3.51746e-11
-9.05678e-11
-5.29855e-11
-1.16327e-10
-1.08232e-11
-1.07337e-10
1.39809e-10
-2.66101e-10
4.74441e-10
2.79382e-10
-4.48942e-09
2.85189e-09
3.31919e-09
-5.45679e-09
-3.07917e-09
2.69809e-10
-5.37856e-10
-1.05994e-09
-6.01509e-10
-2.65463e-10
-4.75243e-11
3.31361e-11
8.46044e-11
4.31054e-11
1.6402e-10
6.33599e-11
1.57647e-10
7.74519e-11
1.37647e-10
8.88248e-11
8.43306e-11
8.67125e-11
1.0587e-10
3.19279e-11
1.08689e-10
4.00623e-11
7.67477e-11
2.99664e-11
1.22221e-10
-1.94844e-11
1.06752e-10
3.02088e-11
5.96586e-11
5.92451e-11
7.86995e-11
4.27173e-11
7.97147e-11
1.36041e-11
1.18074e-10
-1.08938e-11
1.02624e-10
1.452e-11
6.42137e-11
6.75397e-12
3.10757e-11
3.62345e-11
5.97282e-11
2.40414e-11
1.07269e-10
-5.61708e-11
3.83142e-11
-9.33269e-11
-4.86245e-11
-1.17804e-10
-1.82631e-12
-1.17153e-10
1.49787e-10
-2.79153e-10
4.67518e-10
2.96649e-10
-4.58755e-09
3.10415e-09
3.48285e-09
-5.75837e-09
-3.31345e-09
4.56051e-10
-3.52405e-10
-1.03403e-09
-6.27049e-10
-2.75786e-10
-4.76801e-11
2.78995e-11
7.3752e-11
3.60271e-11
1.57203e-10
5.46831e-11
1.50757e-10
7.47337e-11
1.30908e-10
8.70438e-11
8.17917e-11
8.26474e-11
1.0254e-10
3.35546e-11
1.04168e-10
3.83982e-11
7.66583e-11
2.91042e-11
1.18981e-10
-1.7923e-11
1.05285e-10
2.88207e-11
5.73412e-11
6.28145e-11
7.43886e-11
4.3326e-11
8.02755e-11
1.26188e-11
1.14708e-10
-8.21702e-12
1.00678e-10
1.51571e-11
6.45208e-11
8.42173e-12
2.41803e-11
3.36674e-11
5.84197e-11
2.44655e-11
1.01709e-10
-5.79471e-11
4.0911e-11
-9.54646e-11
-4.58173e-11
-1.16441e-10
3.20717e-12
-1.2075e-10
1.49898e-10
-2.75945e-10
4.39241e-10
3.19921e-10
-4.59263e-09
3.20363e-09
3.56153e-09
-5.8701e-09
-3.50277e-09
5.65628e-10
-1.83302e-10
-9.97261e-10
-6.50699e-10
-2.89365e-10
-4.91411e-11
2.20206e-11
6.23288e-11
2.91637e-11
1.49886e-10
4.55499e-11
1.43406e-10
7.21287e-11
1.23497e-10
8.51223e-11
7.9452e-11
7.80463e-11
9.89614e-11
3.55886e-11
9.91525e-11
3.65962e-11
7.67359e-11
2.82428e-11
1.15113e-10
-1.58952e-11
1.03757e-10
2.70446e-11
5.51246e-11
6.66251e-11
6.95755e-11
4.39249e-11
8.10839e-11
1.15817e-11
1.10829e-10
-4.99212e-12
9.8366e-11
1.56225e-11
6.48842e-11
1.03823e-11
1.73528e-11