/*--------------------------------*- C++ -*----------------------------------*\
| =========                 |                                                 |
| \\      /  F ield         | OpenFOAM: The Open Source CFD Toolbox           |
|  \\    /   O peration     | Version:  2312                                  |
|   \\  /    A nd           | Website:  www.openfoam.com                      |
|    \\/     M anipulation  |                                                 |
\*---------------------------------------------------------------------------*/
FoamFile
{
    version     2.0;
    format      ascii;
    arch        "LSB;label=32;scalar=64";
    class       volScalarField;
    location    "120";
    object      pMean;
}
// * * * * * * * * * * * * * * * * * * * * * * * * * * * * * * * * * * * * * //

dimensions      [0 2 -2 0 0 0 0];

internalField   nonuniform List<scalar> 
144000
(
2.10755e-09
1.04744e-09
-9.51479e-10
-1.63096e-09
-1.34397e-09
-9.00761e-10
-5.36865e-10
-3.19121e-10
-1.55372e-10
-9.04308e-11
-2.4116e-11
-1.53235e-11
2.51516e-11
1.42856e-11
4.66301e-11
2.74912e-11
5.49845e-11
2.36538e-11
5.11992e-11
2.0469e-11
5.09883e-11
1.48798e-11
4.80771e-11
1.07555e-11
4.88231e-11
9.50125e-12
5.01061e-11
4.85606e-12
4.94623e-11
1.99912e-12
5.2264e-11
2.54318e-12
5.53659e-11
-2.87763e-12
5.35018e-11
-5.87341e-12
5.64391e-11
-6.93748e-12
5.98072e-11
-1.03627e-11
6.09186e-11
-9.59604e-12
6.85252e-11
-1.02337e-11
6.81599e-11
-1.67873e-11
6.43136e-11
-1.64425e-11
6.96309e-11
-5.00508e-12
8.04167e-11
2.62613e-11
9.91346e-11
8.25014e-11
1.1061e-10
1.83855e-10
2.18617e-10
7.92997e-10
-2.0538e-09
-6.28628e-10
2.16124e-09
1.09025e-09
-9.65054e-10
-1.64173e-09
-1.34512e-09
-9.00413e-10
-5.37352e-10
-3.20156e-10
-1.56606e-10
-9.16466e-11
-2.51998e-11
-1.6233e-11
2.43779e-11
1.36166e-11
4.6044e-11
2.70293e-11
5.45397e-11
2.32521e-11
5.07974e-11
2.02181e-11
5.06747e-11
1.46614e-11
4.77871e-11
1.0619e-11
4.85715e-11
9.4237e-12
4.98873e-11
4.79163e-12
4.92467e-11
1.97807e-12
5.20551e-11
2.58036e-12
5.51602e-11
-2.83489e-12
5.32516e-11
-5.76042e-12
5.61935e-11
-6.78649e-12
5.95446e-11
-1.01944e-11
6.05367e-11
-9.39317e-12
6.81734e-11
-9.86225e-12
6.77649e-11
-1.63616e-11
6.38182e-11
-1.58483e-11
6.9082e-11
-4.27964e-12
7.97322e-11
2.71943e-11
9.82646e-11
8.3554e-11
1.09203e-10
1.82869e-10
2.22144e-10
8.23483e-10
-2.08122e-09
-6.92152e-10
2.24981e-09
1.07783e-09
-1.0001e-09
-1.63415e-09
-1.33681e-09
-8.96064e-10
-5.35767e-10
-3.2029e-10
-1.57401e-10
-9.31717e-11
-2.65636e-11
-1.76662e-11
2.33899e-11
1.24538e-11
4.52898e-11
2.61379e-11
5.40945e-11
2.24567e-11
5.03786e-11
1.95891e-11
5.04609e-11
1.41005e-11
4.76178e-11
1.01339e-11
4.85157e-11
9.01099e-12
4.98912e-11
4.36932e-12
4.9263e-11
1.59271e-12
5.21229e-11
2.27428e-12
5.52946e-11
-3.17974e-12
5.33159e-11
-6.04942e-12
5.63318e-11
-7.05724e-12
5.97028e-11
-1.04801e-11
6.05425e-11
-9.74888e-12
6.82681e-11
-9.94449e-12
6.79122e-11
-1.64294e-11
6.38257e-11
-1.57722e-11
6.91153e-11
-4.10589e-12
7.96114e-11
2.74758e-11
9.81609e-11
8.35756e-11
1.09605e-10
1.77019e-10
2.25786e-10
8.62859e-10
-2.14639e-09
-7.14417e-10
2.34022e-09
9.55436e-10
-1.04386e-09
-1.59263e-09
-1.31614e-09
-8.87631e-10
-5.31315e-10
-3.18294e-10
-1.56959e-10
-9.42854e-11
-2.80507e-11
-1.94061e-11
2.20826e-11
1.09836e-11
4.42112e-11
2.49765e-11
5.34255e-11
2.14179e-11
4.96723e-11
1.87714e-11
5.00746e-11
1.339e-11
4.72547e-11
9.53089e-12
4.83037e-11
8.53748e-12
4.98027e-11
3.88476e-12
4.91564e-11
1.16132e-12
5.20844e-11
1.96023e-12
5.53796e-11
-3.52113e-12
5.32577e-11
-6.3348e-12
5.63772e-11
-7.28566e-12
5.97868e-11
-1.07099e-11
6.03962e-11
-1.01072e-11
6.82042e-11
-9.97651e-12
6.80001e-11
-1.64037e-11
6.36586e-11
-1.55991e-11
6.90878e-11
-3.91935e-12
7.9522e-11
2.74385e-11
9.87945e-11
8.20783e-11
1.13197e-10
1.62671e-10
2.4224e-10
8.79868e-10
-2.23483e-09
-6.36834e-10
2.41327e-09
6.92136e-10
-1.08851e-09
-1.49704e-09
-1.2805e-09
-8.77191e-10
-5.25239e-10
-3.1415e-10
-1.55015e-10
-9.47485e-11
-2.94758e-11
-2.12356e-11
2.05546e-11
9.32636e-12
4.28432e-11
2.36324e-11
5.2525e-11
2.01952e-11
4.86602e-11
1.77808e-11
4.94734e-11
1.25715e-11
4.66313e-11
8.8376e-12
4.78809e-11
8.02342e-12
4.95383e-11
3.38456e-12
4.88347e-11
7.17503e-13
5.18443e-11
1.7069e-12
5.53152e-11
-3.78382e-12
5.29618e-11
-6.53908e-12
5.62171e-11
-7.38694e-12
5.96742e-11
-1.07421e-11
5.99561e-11
-1.02508e-11
6.77579e-11
-9.87363e-12
6.78064e-11
-1.60567e-11
6.3118e-11
-1.52142e-11
6.8796e-11
-3.64573e-12
7.94202e-11
2.69611e-11
1.00405e-10
7.83758e-11
1.2092e-10
1.39464e-10
2.7469e-10
8.65941e-10
-2.33835e-09
-4.34642e-10
2.47531e-09
2.90958e-10
-1.13673e-09
-1.34518e-09
-1.22841e-09
-8.67506e-10
-5.19323e-10
-3.08699e-10
-1.52053e-10
-9.47274e-11
-3.08926e-11
-2.31319e-11
1.88644e-11
7.54126e-12
4.12675e-11
2.21723e-11
5.14564e-11
1.8895e-11
4.74155e-11
1.66837e-11
4.86895e-11
1.16999e-11
4.57963e-11
8.08473e-12
4.72704e-11
7.50261e-12
4.91088e-11
2.90028e-12
4.82989e-11
2.92512e-13
5.14059e-11
1.52775e-12
5.50682e-11
-3.93965e-12
5.24109e-11
-6.64853e-12
5.5814e-11
-7.32113e-12
5.93154e-11
-1.0495e-11
5.91606e-11
-1.01206e-11
6.6834e-11
-9.66348e-12
6.7205e-11
-1.53482e-11
6.21947e-11
-1.45771e-11
6.82495e-11
-3.32748e-12
7.9379e-11
2.58017e-11
1.03304e-10
7.20286e-11
1.33472e-10
1.07762e-10
3.22397e-10
8.24179e-10
-2.46175e-09
-1.13992e-10
2.53781e-09
-2.25391e-10
-1.19691e-09
-1.14231e-09
-1.15866e-09
-8.59601e-10
-5.15092e-10
-3.02795e-10
-1.48549e-10
-9.45873e-11
-3.25258e-11
-2.52421e-11
1.69316e-11
5.61323e-12
3.94964e-11
2.06135e-11
5.02565e-11
1.75724e-11
4.60052e-11
1.5541e-11
4.77806e-11
1.08508e-11
4.4805e-11
7.33219e-12
4.65156e-11
7.02921e-12
4.85313e-11
2.48749e-12
4.75789e-11
-6.66345e-14
5.07794e-11
1.4584e-12
5.46422e-11
-3.94377e-12
5.16206e-11
-6.61944e-12
5.51638e-11
-7.04242e-12
5.8699e-11
-9.92321e-12
5.80575e-11
-9.65512e-12
6.53324e-11
-9.39418e-12
6.62108e-11
-1.42425e-11
6.09015e-11
-1.37319e-11
6.74644e-11
-3.05372e-12
7.95108e-11
2.38568e-11
1.07578e-10
6.30283e-11
1.50301e-10
7.02881e-11
3.79523e-10
7.63323e-10
-2.60123e-09
3.01114e-10
2.60594e-09
-8.09423e-10
-1.27355e-09
-9.02895e-10
-1.07126e-09
-8.5341e-10
-5.13458e-10
-2.97123e-10
-1.44876e-10
-9.46002e-11
-3.45504e-11
-2.77515e-11
1.45996e-11
3.4544e-12
3.74561e-11
1.89118e-11
4.88779e-11
1.6225e-11
4.44512e-11
1.43698e-11
4.67558e-11
1.00551e-11
4.36953e-11
6.62224e-12
4.56453e-11
6.63721e-12
4.78369e-11
2.1897e-12
4.67088e-11
-3.19483e-13
4.99893e-11
1.53341e-12
5.40429e-11
-3.76408e-12
5.06127e-11
-6.43075e-12
5.4286e-11
-6.53443e-12
5.78543e-11
-9.0016e-12
5.67533e-11
-8.85275e-12
6.31377e-11
-9.15411e-12
6.48329e-11
-1.27576e-11
5.92992e-11
-1.27125e-11
6.64919e-11
-2.87317e-12
7.98258e-11
2.11633e-11
1.12938e-10
5.22511e-11
1.69551e-10
3.18199e-11
4.36065e-10
6.9581e-10
-2.74424e-09
7.59209e-10
2.67937e-09
-1.40123e-09
-1.36717e-09
-6.48035e-10
-9.68115e-10
-8.47763e-10
-5.1499e-10
-2.92333e-10
-1.4137e-10
-9.49371e-11
-3.71612e-11
-3.07558e-11
1.17886e-11
9.7193e-13
3.50836e-11
1.69987e-11
4.72485e-11
1.48149e-11
4.27306e-11
1.31576e-11
4.55866e-11
9.30393e-12
4.24673e-11
5.96854e-12
4.46646e-11
6.33092e-12
4.70311e-11
2.03039e-12
4.57065e-11
-4.39547e-13
4.9061e-11
1.76607e-12
5.32832e-11
-3.38399e-12
4.94299e-11
-6.07033e-12
5.32129e-11
-5.81265e-12
5.68411e-11
-7.74219e-12
5.54458e-11
-7.72911e-12
6.00877e-11
-8.98465e-12
6.31373e-11
-1.09211e-11
5.74549e-11
-1.15415e-11
6.53487e-11
-2.71464e-12
8.02345e-11
1.80729e-11
1.18719e-10
4.10462e-11
1.88458e-10
-2.35396e-12
4.81981e-10
6.33389e-10
-2.87334e-09
1.19628e-09
2.74937e-09
-1.94545e-09
-1.4746e-09
-4.00591e-10
-8.53262e-10
-8.41146e-10
-5.19717e-10
-2.88945e-10
-1.38227e-10
-9.56572e-11
-4.03375e-11
-3.42628e-11
8.47235e-12
-1.85826e-12
3.23517e-11
1.48651e-11
4.53276e-11
1.32993e-11
4.08344e-11
1.18838e-11
4.42498e-11
8.5754e-12
4.11167e-11
5.35889e-12
4.35651e-11
6.11698e-12
4.61033e-11
1.98985e-12
4.45804e-11
-4.32551e-13
4.80076e-11
2.15708e-12
5.2365e-11
-2.80261e-12
4.80937e-11
-5.54385e-12
5.19739e-11
-4.88032e-12
5.56908e-11
-6.16779e-12
5.4344e-11
-6.37115e-12
5.59965e-11
-8.9393e-12
6.1201e-11
-8.78631e-12
5.54454e-11
-1.02225e-11
6.40354e-11
-2.47478e-12
8.0551e-11
1.51318e-11
1.24007e-10
3.11348e-11
2.04196e-10
-2.75941e-11
5.10423e-10
5.82662e-10
-2.96775e-09
1.5683e-09
2.80073e-09
-2.39e-09
-1.58908e-09
-1.81826e-10
-7.32321e-10
-8.31879e-10
-5.272e-10
-2.87367e-10
-1.35726e-10
-9.67484e-11
-4.40323e-11
-3.82339e-11
4.67222e-12
-5.02062e-12
2.92761e-11
1.24996e-11
4.31084e-11
1.16697e-11
3.87468e-11
1.05411e-11
4.27348e-11
7.84634e-12
3.96321e-11
4.78369e-12
4.2336e-11
5.96898e-12
4.50449e-11
2.06037e-12
4.3341e-11
-2.9594e-13
4.6832e-11
2.6943e-12
5.12926e-11
-2.04573e-12
4.66351e-11
-4.85119e-12
5.05825e-11
-3.7802e-12
5.448e-11
-4.30241e-12
5.36866e-11
-4.99577e-12
5.06783e-11
-9.07013e-12
5.9099e-11
-6.38142e-12
5.32851e-11
-8.73013e-12
6.24662e-11
-1.99597e-12
8.04793e-11
1.28803e-11
1.27884e-10
2.40072e-11
2.1451e-10
-4.10354e-11
5.18443e-10
5.45226e-10
-3.00739e-09
1.84157e-09
2.81803e-09
-2.70752e-09
-1.69946e-09
-6.06349e-12
-6.11499e-10
-8.1846e-10
-5.36596e-10
-2.87881e-10
-1.34042e-10
-9.81765e-11
-4.81552e-11
-4.25996e-11
4.30488e-13
-8.47785e-12
2.58666e-11
9.92505e-12
4.05928e-11
9.92507e-12
3.64707e-11
9.13572e-12
4.10301e-11
7.09867e-12
3.8008e-11
4.22945e-12
4.09669e-11
5.87722e-12
4.38483e-11
2.22443e-12
4.19896e-11
-4.53501e-14
4.55354e-11
3.35476e-12
5.00872e-11
-1.13629e-12
4.50603e-11
-4.01208e-12
4.90628e-11
-2.56075e-12
5.32549e-11
-2.22244e-12
5.38951e-11
-3.81535e-12
4.38185e-11
-9.32168e-12
5.69308e-11
-3.7627e-12
5.09639e-11
-6.99755e-12
6.06297e-11
-1.11062e-12
7.97285e-11
1.18179e-11
1.2965e-10
2.07801e-11
2.18135e-10
-4.17045e-11
5.06779e-10
5.19656e-10
-2.98157e-09
1.99951e-09
2.78731e-09
-2.88909e-09
-1.79231e-09
1.18748e-10
-4.96772e-10
-7.99861e-10
-5.46742e-10
-2.90608e-10
-1.33406e-10
-9.99048e-11
-5.25978e-11
-4.72732e-11
-4.18627e-12
-1.21941e-11
2.21652e-11
7.15368e-12
3.78005e-11
8.07674e-12
3.40236e-11
7.67824e-12
3.91387e-11
6.3269e-12
3.62494e-11
3.69692e-12
3.94645e-11
5.82447e-12
4.25225e-11
2.46264e-12
4.05306e-11
2.99906e-13
4.41211e-11
4.1156e-12
4.87466e-11
-9.99274e-14
4.33894e-11
-3.05068e-12
4.74297e-11
-1.25208e-12
5.20114e-11
4.69017e-14
5.54474e-11
-3.08459e-12
3.5052e-11
-9.61204e-12
5.47586e-11
-9.64925e-13
4.84905e-11
-4.99587e-12
5.83944e-11
3.65578e-13
7.80644e-11
1.23007e-11
1.28857e-10
2.18888e-11
2.14841e-10
-3.03616e-11
4.78212e-10
5.01589e-10
-2.88637e-09
2.04201e-09
2.70138e-09
-2.93932e-09
-1.85743e-09
1.91186e-10
-3.9332e-10
-7.75696e-10
-5.56466e-10
-2.95482e-10
-1.33969e-10
-1.01913e-10
-5.72612e-11
-5.21579e-11
-9.11435e-12
-1.60975e-11
1.82221e-11
4.2343e-12
3.47603e-11
6.14913e-12
3.14291e-11
6.17872e-12
3.70693e-11
5.53192e-12
3.43662e-11
3.18747e-12
3.78328e-11
5.79892e-12
4.10732e-11
2.75786e-12
3.89701e-11
7.24098e-13
4.26016e-11
4.95333e-12
4.72759e-11
1.03541e-12
4.16342e-11
-1.97649e-12
4.56817e-11
1.47725e-13
5.06873e-11
2.47091e-12
5.8735e-11
-3.45284e-12
2.40941e-11
-9.8617e-12
5.26456e-11
2.00944e-12
4.58967e-11
-2.69454e-12
5.57415e-11
2.52697e-12
7.53772e-11
1.45134e-11
1.25414e-10
2.71956e-11
2.05295e-10
-9.0552e-12
4.37505e-10
4.85715e-10
-2.72705e-09
1.98224e-09
2.55996e-09
-2.87412e-09
-1.88807e-09
2.14912e-10
-3.05064e-10
-7.46294e-10
-5.6475e-10
-3.02275e-10
-1.3585e-10
-1.04206e-10
-6.20542e-11
-5.71693e-11
-1.42912e-11
-2.01419e-11
1.40757e-11
1.1997e-12
3.15002e-11
4.15841e-12
2.87057e-11
4.65044e-12
3.48416e-11
4.71248e-12
3.23715e-11
2.699e-12
3.60832e-11
5.79129e-12
3.95079e-11
3.09603e-12
3.7322e-11
1.21334e-12
4.0991e-11
5.84847e-12
4.56895e-11
2.24911e-12
3.98085e-11
-8.0562e-13
4.38404e-11
1.61256e-12
4.92989e-11
4.75184e-12
6.47078e-11
-4.76155e-12
1.03852e-11
-1.02591e-11
5.04251e-11
5.06314e-12
4.31782e-11
-6.6057e-14
5.26663e-11
5.38166e-12
7.16734e-11
1.83975e-11
1.19545e-10
3.61116e-11
1.90806e-10
1.94166e-11
3.89688e-10
4.67735e-10
-2.51365e-09
1.84081e-09
2.36781e-09
-2.71736e-09
-1.88233e-09
1.97491e-10
-2.34219e-10
-7.12537e-10
-5.7073e-10
-3.10624e-10
-1.39128e-10
-1.06806e-10
-6.69051e-11
-6.2229e-11
-1.96548e-11
-2.42902e-11
9.7644e-12
-1.91797e-12
2.80583e-11
2.11995e-12
2.58738e-11
3.10616e-12
3.2477e-11
3.87229e-12
3.02803e-11
2.23016e-12
3.42299e-11
5.79295e-12
3.78406e-11
3.46825e-12
3.56001e-11
1.75305e-12
3.93054e-11
6.77786e-12
4.40079e-11
3.51185e-12
3.79414e-11
4.1753e-13
4.19552e-11
3.07017e-12
4.79297e-11
6.44461e-12
7.40842e-11
-3.45101e-12
-5.60254e-12
-1.08705e-11
4.76599e-11
8.0137e-12
4.02878e-11
2.82991e-12
4.9178e-11
8.86636e-12
6.70659e-11
2.37298e-11
1.11698e-10
4.77705e-11
1.73065e-10
5.20563e-11
3.39931e-10
4.44597e-10
-2.25942e-09
1.64223e-09
2.13127e-09
-2.49437e-09
-1.83986e-09
1.48668e-10
-1.81644e-10
-6.75754e-10
-5.73835e-10
-3.20104e-10
-1.43826e-10
-1.09751e-10
-7.17614e-11
-6.72699e-11
-2.51569e-11
-2.85095e-11
5.32368e-12
-5.08668e-12
2.44682e-11
4.88087e-14
2.29531e-11
1.5547e-12
3.00001e-11
3.01351e-12
2.81048e-11
1.7778e-12
3.22869e-11
5.79662e-12
3.60898e-11
3.86347e-12
3.38226e-11
2.32901e-12
3.75612e-11
7.72494e-12
4.22528e-11
4.81068e-12
3.60331e-11
1.70855e-12
3.99694e-11
4.68754e-12
4.6162e-11
8.2061e-12
7.73852e-11
-5.68375e-14
-1.41571e-11
-1.00543e-11
4.46424e-11
1.09347e-11
3.73226e-11
5.97331e-12
4.53623e-11
1.2877e-11
6.17449e-11
3.01723e-11
1.02474e-10
6.12065e-11
1.53857e-10
8.60696e-11
2.91909e-10
4.14756e-10
-1.97753e-09
1.40898e-09
1.85989e-09
-2.22983e-09
-1.76317e-09
7.82103e-11
-1.46981e-10
-6.37399e-10
-5.73739e-10
-3.30247e-10
-1.49905e-10
-1.13085e-10
-7.65857e-11
-7.22368e-11
-3.07497e-11
-3.27741e-11
7.85565e-13
-8.28587e-12
2.07598e-11
-2.04162e-12
1.99643e-11
4.2762e-15
2.74311e-11
2.13958e-12
2.58678e-11
1.33916e-12
3.02777e-11
5.79557e-12
3.42717e-11
4.27144e-12
3.20044e-11
2.92926e-12
3.57735e-11
8.67657e-12
4.04351e-11
6.14147e-12
3.40763e-11
3.10308e-12
3.77977e-11
6.64297e-12
4.3559e-11
1.09163e-11
6.8032e-11
1.92369e-12
-9.14284e-12
-6.39481e-12
4.19362e-11
1.39735e-11
3.44355e-11
9.35218e-12
4.13537e-11
1.72797e-11
5.59782e-11
3.73356e-11
9.25423e-11
7.53983e-11
1.34778e-10
1.19085e-10
2.48106e-10
3.7804e-10
-1.6814e-09
1.16114e-09
1.56431e-09
-1.94626e-09
-1.65675e-09
-4.45866e-12
-1.28918e-10
-5.99019e-10
-5.70356e-10
-3.40545e-10
-1.57272e-10
-1.16847e-10
-8.13581e-11
-7.70872e-11
-3.63913e-11
-3.70539e-11
-3.8248e-12
-1.15002e-11
1.69577e-11
-4.14448e-12
1.69249e-11
-1.54065e-12
2.47902e-11
1.2509e-12
2.35814e-11
9.10255e-13
2.8216e-11
5.78297e-12
3.24032e-11
4.68215e-12
3.01618e-11
3.54091e-12
3.39617e-11
9.61516e-12
3.85812e-11
7.46806e-12
3.21125e-11
4.53157e-12
3.55595e-11
8.72196e-12
4.05973e-11
1.36667e-11
5.32777e-11
5.51837e-12
3.01601e-12
-1.30122e-12
3.90679e-11
1.68842e-11
3.15603e-11
1.28351e-11
3.72468e-11
2.18747e-11
5.00264e-11
4.47798e-11
8.25633e-11
8.9393e-11
1.17152e-10
1.49238e-10
2.10022e-10
3.35376e-10
-1.38297e-09
9.1532e-10
1.25563e-09
-1.66172e-09
-1.52657e-09
-9.11425e-11
-1.25363e-10
-5.61962e-10
-5.63861e-10
-3.50582e-10
-1.65791e-10
-1.21079e-10
-8.60792e-11
-8.17935e-11
-4.20481e-11
-4.13368e-11
-8.48846e-12
-1.4718e-11
1.30882e-11
-6.25354e-12
1.38498e-11
-3.07796e-12
2.20951e-11
3.47178e-13
2.12591e-11
4.86784e-13
2.61163e-11
5.75398e-12
3.05006e-11
5.08795e-12
2.83098e-11
4.15226e-12
3.2143e-11
1.05259e-11
3.67143e-11
8.76819e-12
3.01808e-11
5.93387e-12
3.3375e-11
1.06918e-11
3.77655e-11
1.56004e-11
4.23153e-11
1.13311e-11
1.23164e-11
3.40598e-12
3.5811e-11
1.95067e-11
2.86946e-11
1.62979e-11
3.31539e-11
2.64722e-11
4.41813e-11
5.2111e-11
7.31195e-11
1.02391e-10
1.01935e-10
1.7529e-10
1.7848e-10
2.88268e-10
-1.0926e-09
6.84292e-10
9.4295e-10
-1.39055e-09
-1.37825e-09
-1.74717e-10
-1.33739e-10
-5.27438e-10
-5.54646e-10
-3.60005e-10
-1.75297e-10
-1.25816e-10
-9.07664e-11
-8.63398e-11
-4.7693e-11
-4.56125e-11
-1.31897e-11
-1.79329e-11
9.1737e-12
-8.3646e-12
1.07509e-11
-4.60768e-12
1.93619e-11
-5.75461e-13
1.89125e-11
6.32301e-14
2.39917e-11
5.70448e-12
2.85792e-11
5.47975e-12
2.64607e-11
4.75339e-12
3.03298e-11
1.13997e-11
3.48506e-11
1.0038e-11
2.82827e-11
7.31028e-12
3.12299e-11
1.25589e-11
3.50375e-11
1.71011e-11
3.50075e-11
1.59611e-11
1.83315e-11
7.80556e-12
3.26592e-11
2.1949e-11
2.59567e-11
1.96856e-11
2.92287e-11
3.09036e-11
3.86893e-11
5.89827e-11
6.46821e-11
1.13812e-10
8.97579e-11
1.96506e-10
1.53405e-10
2.38705e-10
-8.1777e-10
4.7641e-10
6.33969e-10
-1.14501e-09
-1.21757e-09
-2.49631e-10
-1.51181e-10
-4.96324e-10
-5.43221e-10
-3.68546e-10
-1.85601e-10
-1.31069e-10
-9.54389e-11
-9.07193e-11
-5.33026e-11
-4.98717e-11
-1.7915e-11
-2.11423e-11
5.22971e-12
-1.04764e-11
7.63931e-12
-6.13173e-12
1.66038e-11
-1.51704e-12
1.65528e-11
-3.66094e-13
2.18538e-11
5.6294e-12
2.66521e-11
5.8512e-12
2.4626e-11
5.33477e-12
2.85342e-11
1.2226e-11
3.30079e-11
1.12641e-11
2.6432e-11
8.64416e-12
2.91363e-11
1.43148e-11
3.24139e-11
1.84599e-11
2.98793e-11
1.90402e-11
2.20942e-11
1.21642e-11
2.99046e-11
2.42498e-11
2.34162e-11
2.29207e-11
2.55924e-11
3.50154e-11
3.3762e-11
6.5104e-11
5.75987e-11
1.23275e-10
8.09148e-11
2.12654e-10
1.34245e-10
1.88529e-10
-5.63671e-10
2.97197e-10
3.35469e-10
-9.31996e-10
-1.05052e-09
-3.12086e-10
-1.74864e-10
-4.69178e-10
-5.3016e-10
-3.76025e-10
-1.96497e-10
-1.36834e-10
-1.00121e-10
-9.49346e-11
-5.88587e-11
-5.41084e-11
-2.26526e-11
-2.43465e-11
1.27075e-12
-1.25865e-11
4.52512e-12
-7.65421e-12
1.38318e-11
-2.47889e-12
1.41887e-11
-8.07853e-13
1.97125e-11
5.52357e-12
2.4731e-11
6.19644e-12
2.28162e-11
5.888e-12
2.67704e-11
1.29931e-11
3.12023e-11
1.24313e-11
2.46497e-11
9.90553e-12
2.71324e-11
1.59141e-11
2.997e-11
1.97099e-11
2.60778e-11
2.11486e-11
2.44716e-11
1.64545e-11
2.75733e-11
2.6363e-11
2.10999e-11
2.5914e-11
2.2337e-11
3.86819e-11
2.95687e-11
7.02831e-11
5.2091e-11
1.30587e-10
7.5439e-11
2.23767e-10
1.20194e-10
1.39053e-10
-3.33563e-10
1.50262e-10
5.33157e-11
-7.56498e-10
-8.83082e-10
-3.59864e-10
-2.02012e-10
-4.46194e-10
-5.16016e-10
-3.82357e-10
-2.07813e-10
-1.43105e-10
-1.04847e-10
-9.90047e-11
-6.43549e-11
-5.83244e-11
-2.73967e-11
-2.75541e-11
-2.696e-12
-1.46951e-11
1.41516e-12
-9.18274e-12
1.10523e-11
-3.46304e-12
1.18273e-11
-1.26968e-12
1.75756e-11
5.38102e-12
2.28238e-11
6.51037e-12
2.104e-11
6.40564e-12
2.50481e-11
1.36915e-11
2.94461e-11
1.35307e-11
2.29506e-11
1.10723e-11
2.52441e-11
1.73299e-11
2.77595e-11
2.08138e-11
2.31893e-11
2.27201e-11
2.58803e-11
2.05175e-11
2.56257e-11
2.82501e-11
1.90381e-11
2.86e-11
1.95347e-11
4.18214e-11
2.62265e-11
7.44171e-11
4.8266e-11
1.35729e-10
7.31859e-11
2.30101e-10
1.10599e-10
9.07208e-11
-1.29375e-10
3.83171e-11
-2.073e-10
-6.21354e-10
-7.20452e-10
-3.91909e-10
-2.30274e-10
-4.27279e-10
-5.01264e-10
-3.87514e-10
-2.19392e-10
-1.49871e-10
-1.09657e-10
-1.02953e-10
-6.97929e-11
-6.25239e-11
-3.21478e-11
-3.07751e-11
-6.66836e-12
-1.68018e-11
-1.68653e-12
-1.07228e-11
8.2675e-12
-4.46961e-12
9.47222e-12
-1.75761e-12
1.54461e-11
5.19756e-12
2.09358e-11
6.79045e-12
1.93022e-11
6.88239e-12
2.3373e-11
1.43143e-11
2.77468e-11
1.45599e-11
2.13429e-11
1.21337e-11
2.34775e-11
1.85615e-11
2.57846e-11
2.17576e-11
2.10083e-11
2.39809e-11
2.65727e-11
2.42262e-11
2.40374e-11
2.9902e-11
1.72661e-11
3.09316e-11
1.72339e-11
4.43809e-11
2.37946e-11
7.74613e-11
4.61357e-11
1.38796e-10
7.39538e-11
2.31907e-10
1.05087e-10
4.37693e-11
4.72339e-11
-3.74325e-11
2.10339e-09
1.05432e-09
-9.43555e-10
-1.62691e-09
-1.34096e-09
-8.96536e-10
-5.31976e-10
-3.14683e-10
-1.52027e-10
-8.84892e-11
-2.33735e-11
-1.5485e-11
2.44297e-11
1.31723e-11
4.53273e-11
2.60579e-11
5.36707e-11
2.25575e-11
5.03469e-11
1.97594e-11
5.04708e-11
1.45105e-11
4.78395e-11
1.05488e-11
4.86752e-11
9.32644e-12
5.0023e-11
4.83012e-12
4.9517e-11
2.01729e-12
5.23329e-11
2.51736e-12
5.53782e-11
-2.97527e-12
5.34906e-11
-5.98374e-12
5.64908e-11
-7.02353e-12
5.99838e-11
-1.01911e-11
6.15294e-11
-8.6789e-12
6.89102e-11
-9.77657e-12
6.78969e-11
-1.732e-11
6.31818e-11
-1.75006e-11
6.79027e-11
-6.55733e-12
7.79831e-11
2.40715e-11
9.58273e-11
7.99179e-11
1.06496e-10
1.8117e-10
2.15374e-10
7.89047e-10
-2.05089e-09
-6.33986e-10
2.15708e-09
1.09768e-09
-9.57245e-10
-1.63783e-09
-1.34205e-09
-8.9615e-10
-5.3243e-10
-3.15698e-10
-1.53254e-10
-8.9703e-11
-2.44605e-11
-1.63999e-11
2.36481e-11
1.24942e-11
4.47316e-11
2.55845e-11
5.32188e-11
2.2152e-11
4.99419e-11
1.95039e-11
5.01556e-11
1.42922e-11
4.75482e-11
1.04106e-11
4.84221e-11
9.24634e-12
4.98055e-11
4.76942e-12
4.93033e-11
1.99849e-12
5.21247e-11
2.55486e-12
5.51726e-11
-2.93076e-12
5.32388e-11
-5.8698e-12
5.62449e-11
-6.86983e-12
5.97197e-11
-1.00093e-11
6.11862e-11
-8.43259e-12
6.85901e-11
-9.40722e-12
6.74975e-11
-1.68934e-11
6.26863e-11
-1.69108e-11
6.73499e-11
-5.83605e-12
7.7288e-11
2.49951e-11
9.49535e-11
8.09585e-11
1.05095e-10
1.80204e-10
2.18912e-10
8.19646e-10
-2.07821e-09
-6.97933e-10
2.2462e-09
1.08668e-09
-9.92506e-10
-1.63073e-09
-1.33376e-09
-8.91739e-10
-5.30776e-10
-3.15798e-10
-1.54019e-10
-9.12185e-11
-2.58272e-11
-1.78403e-11
2.26528e-11
1.13232e-11
4.39681e-11
2.46783e-11
5.27611e-11
2.13488e-11
4.95193e-11
1.88682e-11
4.99392e-11
1.37318e-11
4.73796e-11
9.92296e-12
4.83652e-11
8.8289e-12
4.98107e-11
4.35195e-12
4.93267e-11
1.61535e-12
5.21958e-11
2.24755e-12
5.53091e-11
-3.27462e-12
5.33061e-11
-6.1595e-12
5.63813e-11
-7.1389e-12
5.98771e-11
-1.02879e-11
6.12369e-11
-8.70956e-12
6.87606e-11
-9.48051e-12
6.76243e-11
-1.6958e-11
6.26867e-11
-1.68346e-11
6.73718e-11
-5.65956e-12
7.71618e-11
2.52718e-11
9.48477e-11
8.09703e-11
1.05495e-10
1.74309e-10
2.22632e-10
8.59695e-10
-2.14367e-09
-7.21833e-10
2.33725e-09
9.66448e-10
-1.03643e-09
-1.58989e-09
-1.31323e-09
-8.83225e-10
-5.26255e-10
-3.13729e-10
-1.53535e-10
-9.23133e-11
-2.73106e-11
-1.95856e-11
2.13389e-11
9.84417e-12
4.28793e-11
2.34989e-11
5.2074e-11
2.02989e-11
4.8808e-11
1.80417e-11
4.9548e-11
1.30213e-11
4.7019e-11
9.31734e-12
4.81532e-11
8.34814e-12
4.97217e-11
3.87166e-12
4.92292e-11
1.18723e-12
5.21656e-11
1.93014e-12
5.53976e-11
-3.61626e-12
5.32507e-11
-6.44607e-12
5.64244e-11
-7.36611e-12
5.99541e-11
-1.05228e-11
6.11436e-11
-8.96983e-12
6.88268e-11
-9.45279e-12
6.76913e-11
-1.6938e-11
6.2529e-11
-1.66623e-11
6.7341e-11
-5.48095e-12
7.70747e-11
2.51944e-11
9.55171e-11
7.94387e-11
1.09125e-10
1.59895e-10
2.39083e-10
8.7768e-10
-2.23241e-09
-6.46452e-10
2.41013e-09
7.05178e-10
-1.08106e-09
-1.49495e-09
-1.27773e-09
-8.7281e-10
-5.20051e-10
-3.09476e-10
-1.51505e-10
-9.27407e-11
-2.87181e-11
-2.14115e-11
1.98075e-11
8.17896e-12
4.15035e-11
2.21352e-11
5.11505e-11
1.90613e-11
4.77907e-11
1.70405e-11
4.89395e-11
1.22035e-11
4.64e-11
8.62246e-12
4.77298e-11
7.82483e-12
4.94532e-11
3.3753e-12
4.892e-11
7.5012e-13
5.19353e-11
1.67584e-12
5.53342e-11
-3.87613e-12
5.29556e-11
-6.64832e-12
5.62535e-11
-7.46175e-12
5.98202e-11
-1.05859e-11
6.07884e-11
-9.05122e-12
6.85499e-11
-9.19425e-12
6.74932e-11
-1.66035e-11
6.19986e-11
-1.62844e-11
6.70651e-11
-5.21583e-12
7.69895e-11
2.47004e-11
9.71629e-11
7.56717e-11
1.16867e-10
1.36637e-10
2.71513e-10
8.64508e-10
-2.33607e-09
-4.46422e-10
2.47216e-09
3.05503e-10
-1.12914e-09
-1.34366e-09
-1.22577e-09
-8.63105e-10
-5.14019e-10
-3.03897e-10
-1.48468e-10
-9.26829e-11
-3.01159e-11
-2.33016e-11
1.81199e-11
6.39382e-12
3.99231e-11
2.06595e-11
5.0059e-11
1.77457e-11
4.65399e-11
1.59341e-11
4.8146e-11
1.13319e-11
4.55714e-11
7.86964e-12
4.71198e-11
7.2945e-12
4.90158e-11
2.89405e-12
4.8397e-11
3.34105e-13
5.1505e-11
1.49961e-12
5.50839e-11
-4.02412e-12
5.23973e-11
-6.74575e-12
5.58335e-11
-7.38732e-12
5.94275e-11
-1.04058e-11
6.01176e-11
-8.91365e-12
6.78258e-11
-8.69956e-12
6.69368e-11
-1.59199e-11
6.10921e-11
-1.56517e-11
6.65437e-11
-4.9103e-12
7.69875e-11
2.35055e-11
1.00092e-10
6.92608e-11
1.29428e-10
1.0485e-10
3.19149e-10
8.23464e-10
-2.45944e-09
-1.27151e-10
2.53414e-09
-2.10099e-10
-1.18904e-09
-1.1412e-09
-1.1562e-09
-8.55172e-10
-5.09682e-10
-2.97887e-10
-1.44877e-10
-9.24772e-11
-3.17137e-11
-2.53937e-11
1.61959e-11
4.46974e-12
3.81524e-11
1.90898e-11
4.88385e-11
1.64084e-11
4.5123e-11
1.47836e-11
4.72263e-11
1.04821e-11
4.45873e-11
7.11947e-12
4.63649e-11
6.81325e-12
4.84269e-11
2.48411e-12
4.76867e-11
-1.22943e-14
5.08822e-11
1.44031e-12
5.46513e-11
-4.01326e-12
5.15908e-11
-6.68928e-12
5.51515e-11
-7.08987e-12
5.87577e-11
-9.93569e-12
5.91378e-11
-8.52006e-12
6.65766e-11
-7.97076e-12
6.60347e-11
-1.48525e-11
5.98258e-11
-1.48014e-11
6.57928e-11
-4.64095e-12
7.71735e-11
2.15279e-11
1.04406e-10
6.02155e-11
1.46269e-10
6.72734e-11
3.7624e-10
7.63132e-10
-2.59874e-09
2.87307e-10
2.60172e-09
-7.94141e-10
-1.26532e-09
-9.01976e-10
-1.06899e-09
-8.48962e-10
-5.07952e-10
-2.9212e-10
-1.41124e-10
-9.24147e-11
-3.37047e-11
-2.78857e-11
1.38777e-11
2.32035e-12
3.61169e-11
1.73833e-11
4.74434e-11
1.50478e-11
4.35626e-11
1.36048e-11
4.61899e-11
9.68537e-12
4.34835e-11
6.41421e-12
4.54921e-11
6.41549e-12
4.77178e-11
2.18898e-12
4.68215e-11
-2.47003e-13
5.00905e-11
1.53303e-12
5.40332e-11
-3.80739e-12
5.05533e-11
-6.46174e-12
5.42249e-11
-6.55178e-12
5.78296e-11
-9.14931e-12
5.7917e-11
-7.86481e-12
6.48119e-11
-7.05864e-12
6.47909e-11
-1.34189e-11
5.82504e-11
-1.37665e-11
6.48648e-11
-4.46315e-12
7.75457e-11
1.88124e-11
1.09809e-10
4.93856e-11
1.65559e-10
2.86834e-11
4.32831e-10
6.95974e-10
-2.74169e-09
7.45406e-10
2.67475e-09
-1.38673e-09
-1.35866e-09
-6.47079e-10
-9.65987e-10
-8.43311e-10
-5.09407e-10
-2.87234e-10
-1.37523e-10
-9.26757e-11
-3.62747e-11
-3.08678e-11
1.10845e-11
-1.48307e-13
3.37517e-11
1.54728e-11
4.58019e-11
1.3627e-11
4.18367e-11
1.23878e-11
4.5009e-11
8.93305e-12
4.22614e-11
5.768e-12
4.45094e-11
6.10645e-12
4.68933e-11
2.03316e-12
4.58198e-11
-3.43648e-13
4.91548e-11
1.79092e-12
5.32448e-11
-3.39058e-12
4.93262e-11
-6.04505e-12
5.30776e-11
-5.76717e-12
5.66955e-11
-8.05956e-12
5.6521e-11
-6.94615e-12
6.25321e-11
-5.93679e-12
6.32534e-11
-1.16655e-11
5.64362e-11
-1.25711e-11
6.37753e-11
-4.30095e-12
7.8018e-11
1.57076e-11
1.15638e-10
3.81255e-11
1.84513e-10
-5.6386e-12
4.78822e-10
6.33669e-10
-2.87094e-09
1.18326e-09
2.74466e-09
-1.93241e-09
-1.46603e-09
-3.99454e-10
-8.51222e-10
-8.36702e-10
-5.14074e-10
-2.83751e-10
-1.3429e-10
-9.33271e-11
-3.94095e-11
-3.43502e-11
7.7878e-12
-2.9602e-12
3.10343e-11
1.33479e-11
4.38741e-11
1.21047e-11
3.99354e-11
1.11113e-11
4.3661e-11
8.2034e-12
4.09147e-11
5.16844e-12
4.34067e-11
5.89337e-12
4.59445e-11
1.99818e-12
4.46915e-11
-3.08969e-13
4.80875e-11
2.21355e-12
5.22941e-11
-2.76378e-12
4.79351e-11
-5.4379e-12
5.17373e-11
-4.74384e-12
5.53528e-11
-6.66681e-12
5.50218e-11
-5.815e-12
5.97344e-11
-4.63902e-12
6.14739e-11
-9.63849e-12
5.44585e-11
-1.12192e-11
6.25238e-11
-4.04982e-12
7.84111e-11
1.27629e-11
1.20982e-10
2.81595e-11
2.00322e-10
-3.10303e-11
5.07371e-10
5.82872e-10
-2.96578e-09
1.55674e-09
2.79641e-09
-2.37874e-09
-1.58079e-09
-1.804e-10
-7.30302e-10
-8.2745e-10
-5.2152e-10
-2.82093e-10
-1.31712e-10
-9.43573e-11
-4.30646e-11
-3.82953e-11
4.00849e-12
-6.10054e-12
2.79769e-11
1.09954e-11
4.16539e-11
1.04733e-11
3.78447e-11
9.76857e-12
4.21356e-11
7.4743e-12
3.94312e-11
4.60408e-12
4.21723e-11
5.74955e-12
4.48643e-11
2.07531e-12
4.3442e-11
-1.43148e-13
4.68922e-11
2.78865e-12
5.11825e-11
-1.95235e-12
4.64085e-11
-4.64456e-12
5.02286e-11
-3.5047e-12
5.38474e-11
-4.9996e-12
5.3486e-11
-4.53049e-12
5.64768e-11
-3.2151e-12
5.95006e-11
-7.36465e-12
5.23321e-11
-9.68753e-12
6.10233e-11
-3.55127e-12
7.84181e-11
1.05144e-11
1.24926e-10
2.09847e-11
2.10734e-10
-4.46108e-11
5.15528e-10
5.45235e-10
-3.00607e-09
1.83191e-09
2.8145e-09
-2.6983e-09
-1.69173e-09
-4.28478e-12
-6.09434e-10
-8.14045e-10
-5.30893e-10
-2.82548e-10
-1.2997e-10
-9.57331e-11
-4.71497e-11
-4.2635e-11
-2.0786e-13
-9.53228e-12
2.45892e-11
8.43804e-12
3.91424e-11
8.7307e-12
3.5567e-11
8.36529e-12
4.04216e-11
6.72777e-12
3.78071e-11
4.06377e-12
4.07975e-11
5.66397e-12
4.36466e-11
2.24664e-12
4.20763e-11
1.37463e-13
4.55729e-11
3.48982e-12
4.99314e-11
-9.82901e-13
4.47563e-11
-3.69623e-12
4.85616e-11
-2.09121e-12
5.22103e-11
-3.12277e-12
5.19955e-11
-3.13132e-12
5.28063e-11
-1.65734e-12
5.73882e-11
-4.88666e-12
5.00566e-11
-7.90658e-12
5.92623e-11
-2.63958e-12
7.77483e-11
9.45626e-12
1.26763e-10
1.77215e-11
2.1447e-10
-4.53903e-11
5.0401e-10
5.19383e-10
-2.9811e-09
1.99193e-09
2.78484e-09
-2.88193e-09
-1.78534e-09
1.20903e-10
-4.94608e-10
-7.95474e-10
-5.4104e-10
-2.85239e-10
-1.29292e-10
-9.74181e-11
-5.15573e-11
-4.72807e-11
-4.80079e-12
-1.32187e-11
2.09132e-11
5.68854e-12
3.63587e-11
6.89037e-12
3.31199e-11
6.91263e-12
3.85233e-11
5.95843e-12
3.60471e-11
3.54497e-12
3.9289e-11
5.61905e-12
4.22989e-11
2.49255e-12
4.06006e-11
5.11805e-13
4.41352e-11
4.29172e-12
4.85436e-11
1.15778e-13
4.30024e-11
-2.61937e-12
4.67661e-11
-5.4047e-13
5.04545e-11
-1.09442e-12
5.05914e-11
-1.64596e-12
4.88012e-11
1.62798e-14
5.51465e-11
-2.24264e-12
4.76353e-11
-5.84987e-12
5.71074e-11
-1.1333e-12
7.61672e-11
9.95333e-12
1.26042e-10
1.88055e-11
2.1129e-10
-3.41275e-11
4.75571e-10
5.01003e-10
-2.88685e-09
2.03651e-09
2.70015e-09
-2.9341e-09
-1.8514e-09
1.9368e-10
-3.9101e-10
-7.71339e-10
-5.50785e-10
-2.90096e-10
-1.29829e-10
-9.93928e-11
-5.61909e-11
-5.21397e-11
-9.70538e-12
-1.7091e-11
1.69937e-11
2.79305e-12
3.33316e-11
4.97349e-12
3.0528e-11
5.42058e-12
3.64492e-11
5.16662e-12
3.41614e-11
3.04869e-12
3.76512e-11
5.60218e-12
4.08303e-11
2.7946e-12
3.90225e-11
9.62934e-13
4.25936e-11
5.16889e-12
4.70313e-11
1.3085e-12
4.11726e-11
-1.43751e-12
4.48658e-11
1.10876e-12
4.85993e-11
1.02456e-12
4.92781e-11
-6.28405e-14
4.45809e-11
1.78975e-12
5.27829e-11
5.41221e-13
4.50741e-11
-3.50081e-12
5.45282e-11
1.05782e-12
7.35629e-11
1.21875e-11
1.22676e-10
2.4101e-11
2.0186e-10
-1.28647e-11
4.34978e-10
4.84799e-10
-2.72852e-09
1.97869e-09
2.56012e-09
-2.87065e-09
-1.88309e-09
2.17693e-10
-3.02573e-10
-7.41966e-10
-5.59115e-10
-2.96896e-10
-1.31701e-10
-1.01663e-10
-6.09571e-11
-5.71261e-11
-1.48586e-11
-2.11076e-11
1.28735e-11
-2.14386e-13
3.00877e-11
2.99672e-12
2.781e-11
3.90228e-12
3.42185e-11
4.35143e-12
3.21635e-11
2.57257e-12
3.58962e-11
5.6033e-12
3.92488e-11
3.13805e-12
3.73571e-11
1.47507e-12
4.09649e-11
6.09751e-12
4.54109e-11
2.56927e-12
3.92877e-11
-1.7647e-13
4.28855e-11