/*--------------------------------*- C++ -*----------------------------------*\
| =========                 |                                                 |
| \\      /  F ield         | OpenFOAM: The Open Source CFD Toolbox           |
|  \\    /   O peration     | Version:  2312                                  |
|   \\  /    A nd           | Website:  www.openfoam.com                      |
|    \\/     M anipulation  |                                                 |
\*---------------------------------------------------------------------------*/
FoamFile
{
    version     2.0;
    format      ascii;
    arch        "LSB;label=32;scalar=64";
    class       volScalarField;
    location    "760";
    object      pMean;
}
// * * * * * * * * * * * * * * * * * * * * * * * * * * * * * * * * * * * * * //

dimensions      [0 2 -2 0 0 0 0];

internalField   nonuniform List<scalar> 
144000
(
7.21794e-10
3.59112e-10
-3.83683e-10
-7.23948e-10
-6.13134e-10
-4.21041e-10
-2.39301e-10
-1.41303e-10
-5.634e-11
-3.37998e-11
4.81837e-12
1.23463e-12
2.69993e-11
1.46742e-11
3.76449e-11
2.30687e-11
4.22559e-11
2.16629e-11
4.27819e-11
2.4643e-11
4.59634e-11
2.38755e-11
4.5885e-11
2.43182e-11
4.7626e-11
2.54747e-11
4.88071e-11
2.38832e-11
4.83498e-11
2.39624e-11
5.01949e-11
2.57352e-11
5.09543e-11
2.21853e-11
4.85248e-11
2.12532e-11
4.85736e-11
2.08263e-11
4.74956e-11
1.75833e-11
4.37309e-11
1.59176e-11
4.28456e-11
1.27013e-11
3.86853e-11
8.37709e-12
3.38785e-11
9.55924e-12
3.24041e-11
1.28582e-11
3.13997e-11
2.31368e-11
2.59202e-11
2.69576e-11
-2.89249e-12
2.92195e-11
-2.36758e-11
1.36402e-11
-1.02527e-09
-2.36323e-10
7.51941e-10
3.77245e-10
-3.91222e-10
-7.30139e-10
-6.15198e-10
-4.21223e-10
-2.39514e-10
-1.41525e-10
-5.6765e-11
-3.41566e-11
4.38832e-12
9.6833e-13
2.66625e-11
1.44895e-11
3.73842e-11
2.29741e-11
4.2039e-11
2.15709e-11
4.25836e-11
2.46185e-11
4.57951e-11
2.38541e-11
4.57247e-11
2.43396e-11
4.74844e-11
2.55163e-11
4.86689e-11
2.39246e-11
4.82115e-11
2.40293e-11
5.00695e-11
2.58262e-11
5.08253e-11
2.22607e-11
4.83879e-11
2.1366e-11
4.84489e-11
2.09515e-11
4.73701e-11
1.76959e-11
4.35319e-11
1.59426e-11
4.26187e-11
1.28742e-11
3.85602e-11
8.58674e-12
3.3749e-11
9.83571e-12
3.23039e-11
1.31542e-11
3.13434e-11
2.34967e-11
2.59559e-11
2.72664e-11
-2.78511e-12
2.91879e-11
-2.01994e-11
2.39011e-11
-1.04399e-09
-2.60181e-10
7.92349e-10
3.83174e-10
-4.02994e-10
-7.32801e-10
-6.15993e-10
-4.20996e-10
-2.39345e-10
-1.41664e-10
-5.70288e-11
-3.46809e-11
3.92882e-12
4.70324e-13
2.63249e-11
1.40806e-11
3.71307e-11
2.2693e-11
4.19046e-11
2.12945e-11
4.2434e-11
2.44167e-11
4.57283e-11
2.36614e-11
4.56578e-11
2.41971e-11
4.74615e-11
2.53963e-11
4.86667e-11
2.37984e-11
4.82019e-11
2.39311e-11
5.00839e-11
2.57575e-11
5.08702e-11
2.21638e-11
4.84004e-11
2.13115e-11
4.8497e-11
2.09102e-11
4.7432e-11
1.76539e-11
4.34793e-11
1.57259e-11
4.25019e-11
1.28305e-11
3.8662e-11
8.6569e-12
3.38168e-11
9.97535e-12
3.24352e-11
1.33085e-11
3.14833e-11
2.36981e-11
2.62572e-11
2.74171e-11
-2.25496e-12
2.77714e-11
-1.65431e-11
4.16103e-11
-1.07613e-09
-2.77233e-10
8.35129e-10
3.63011e-10
-4.15701e-10
-7.27562e-10
-6.15195e-10
-4.20404e-10
-2.38696e-10
-1.41369e-10
-5.70045e-11
-3.51649e-11
3.39231e-12
-1.59401e-13
2.58876e-11
1.35559e-11
3.67772e-11
2.23273e-11
4.1741e-11
2.0935e-11
4.22038e-11
2.41443e-11
4.56416e-11
2.34105e-11
4.55479e-11
2.40071e-11
4.74197e-11
2.52449e-11
4.86687e-11
2.36374e-11
4.81762e-11
2.3801e-11
5.00943e-11
2.56709e-11
5.09475e-11
2.20432e-11
4.84049e-11
2.12337e-11
4.85653e-11
2.0857e-11
4.75344e-11
1.76231e-11
4.3422e-11
1.54369e-11
4.2305e-11
1.26766e-11
3.88353e-11
8.73118e-12
3.39328e-11
1.00899e-11
3.26891e-11
1.33864e-11
3.1794e-11
2.37063e-11
2.70249e-11
2.70061e-11
-6.90104e-13
2.37723e-11
-8.71107e-12
5.87984e-11
-1.1176e-09
-2.73104e-10
8.73297e-10
3.03579e-10
-4.27103e-10
-7.07184e-10
-6.11275e-10
-4.19796e-10
-2.37809e-10
-1.40586e-10
-5.66483e-11
-3.5567e-11
2.74895e-12
-9.11897e-13
2.53085e-11
1.29148e-11
3.6279e-11
2.18843e-11
4.1506e-11
2.05072e-11
4.18508e-11
2.38118e-11
4.54953e-11
2.31237e-11
4.53494e-11
2.37878e-11
4.73194e-11
2.50848e-11
4.86327e-11
2.34709e-11
4.80882e-11
2.36634e-11
5.00567e-11
2.56002e-11
5.10148e-11
2.19355e-11
4.83529e-11
2.11626e-11
4.86116e-11
2.08247e-11
4.76397e-11
1.76545e-11
4.33243e-11
1.51651e-11
4.19358e-11
1.24048e-11
3.90211e-11
8.85858e-12
3.40497e-11
1.01805e-11
3.30359e-11
1.33575e-11
3.23018e-11
2.34075e-11
2.83925e-11
2.57411e-11
2.34205e-12
1.67444e-11
4.52684e-12
7.14088e-11
-1.16587e-09
-2.36041e-10
9.07156e-10
1.96894e-10
-4.38622e-10
-6.67845e-10
-6.02447e-10
-4.19584e-10
-2.37021e-10
-1.39409e-10
-5.60065e-11
-3.59085e-11
1.96907e-12
-1.80843e-12
2.45691e-11
1.21466e-11
3.56255e-11
2.135e-11
4.11885e-11
2.00187e-11
4.13717e-11
2.34172e-11
4.52804e-11
2.28064e-11
4.50585e-11
2.35372e-11
4.71547e-11
2.49181e-11
4.85513e-11
2.33042e-11
4.79302e-11
2.35206e-11
4.99655e-11
2.55457e-11
5.10605e-11
2.18478e-11
4.82368e-11
2.10954e-11
4.86276e-11
2.08156e-11
4.77431e-11
1.77685e-11
4.31925e-11
1.49289e-11
4.13339e-11
1.19693e-11
3.91955e-11
9.03947e-12
3.41698e-11
1.02191e-11
3.34915e-11
1.31639e-11
3.30632e-11
2.26636e-11
3.05158e-11
2.33573e-11
7.23053e-12
6.43132e-12
2.34517e-11
7.82321e-11
-1.22219e-09
-1.59635e-10
9.4102e-10
4.07319e-11
-4.54415e-10
-6.08015e-10
-5.86891e-10
-4.19861e-10
-2.3666e-10
-1.37946e-10
-5.51171e-11
-3.62291e-11
1.01543e-12
-2.88061e-12
2.36435e-11
1.12407e-11
3.48066e-11
2.07126e-11
4.07773e-11
1.94741e-11
4.07696e-11
2.29596e-11
4.49932e-11
2.24676e-11
4.46767e-11
2.32576e-11
4.69252e-11
2.47495e-11
4.84195e-11
2.31455e-11
4.77022e-11
2.33769e-11
4.98182e-11
2.55099e-11
5.10784e-11
2.17889e-11
4.80581e-11
2.10324e-11
4.86119e-11
2.08299e-11
4.78488e-11
1.79722e-11
4.30774e-11
1.47396e-11
4.04127e-11
1.13171e-11
3.93633e-11
9.269e-12
3.43061e-11
1.01618e-11
3.40771e-11
1.27402e-11
3.41473e-11
2.13626e-11
3.3503e-11
1.96844e-11
1.40946e-11
-6.86664e-12
4.71741e-11
8.00678e-11
-1.28748e-09
-4.33061e-11
9.7937e-10
-1.5985e-10
-4.78637e-10
-5.2883e-10
-5.63147e-10
-4.20499e-10
-2.37001e-10
-1.36304e-10
-5.40125e-11
-3.65524e-11
-1.35424e-13
-4.15655e-12
2.25012e-11
1.01825e-11
3.38055e-11
1.9958e-11
4.02496e-11
1.88731e-11
4.00444e-11
2.24367e-11
4.46224e-11
2.21117e-11
4.42044e-11
2.29526e-11
4.6628e-11
2.45833e-11
4.82327e-11
2.30024e-11
4.74055e-11
2.32382e-11
4.96141e-11
2.54975e-11
5.10603e-11
2.17654e-11
4.78195e-11
2.09729e-11
4.85662e-11
2.08629e-11
4.79695e-11
1.82651e-11
4.30674e-11
1.45682e-11
3.90486e-11
1.03922e-11
3.95337e-11
9.53233e-12
3.44819e-11
9.96971e-12
3.48182e-11
1.20345e-11
3.55996e-11
1.94411e-11
3.73625e-11
1.47925e-11
2.27092e-11
-2.22413e-11
7.35758e-11
7.92194e-11
-1.36093e-09
1.05775e-10
1.02634e-09
-3.94306e-10
-5.14978e-10
-4.33886e-10
-5.30288e-10
-4.21102e-10
-2.38279e-10
-1.34621e-10
-5.27349e-11
-3.68897e-11
-1.50821e-12
-5.64618e-12
2.1128e-11
8.96124e-12
3.26122e-11
1.90729e-11
3.95822e-11
1.82115e-11
3.91926e-11
2.18458e-11
4.41529e-11
2.17379e-11
4.3639e-11
2.26233e-11
4.62576e-11
2.44201e-11
4.79842e-11
2.28796e-11
4.704e-11
2.31087e-11
4.93534e-11
2.55102e-11
5.09998e-11
2.17812e-11
4.75285e-11
2.09153e-11
4.84945e-11
2.09035e-11
4.81271e-11
1.8634e-11
4.33028e-11
1.43692e-11
3.70705e-11
9.14783e-12
3.97309e-11
9.81328e-12
3.47207e-11
9.61537e-12
3.57266e-11
1.10322e-11
3.74251e-11
1.6923e-11
4.19789e-11
8.93622e-12
3.25235e-11
-3.84175e-11
1.00154e-10
7.84522e-11
-1.44038e-09
2.75527e-10
1.08358e-09
-6.49424e-10
-5.65675e-10
-3.28373e-10
-4.88131e-10
-4.21133e-10
-2.40636e-10
-1.33052e-10
-5.13217e-11
-3.72399e-11
-3.0925e-12
-7.34396e-12
1.95209e-11
7.57833e-12
3.12251e-11
1.80567e-11
3.876e-11
1.74849e-11
3.82161e-11
2.11849e-11
4.35734e-11
2.13436e-11
4.29801e-11
2.22683e-11
4.58089e-11
2.42611e-11
4.76663e-11
2.27742e-11
4.66067e-11
2.29888e-11
4.90354e-11
2.55482e-11
5.089e-11
2.18361e-11
4.7191e-11
2.08568e-11
4.84009e-11
2.09415e-11
4.83413e-11
1.90632e-11
4.39614e-11
1.40547e-11
3.42679e-11
7.55061e-12
3.99834e-11
1.00943e-11
3.50422e-11
9.08956e-12
3.67973e-11
9.74885e-12
3.95786e-11
1.3925e-11
4.71205e-11
2.55401e-12
4.27973e-11
-5.39898e-11
1.24563e-10
7.99504e-11
-1.52184e-09
4.5357e-10
1.15024e-09
-9.09866e-10
-6.31324e-10
-2.18375e-10
-4.37232e-10
-4.19949e-10
-2.44108e-10
-1.31768e-10
-4.98444e-11
-3.75963e-11
-4.87296e-12
-9.23645e-12
1.76857e-11
6.04151e-12
2.9651e-11
1.69101e-11
3.77761e-11
1.66937e-11
3.71175e-11
2.04555e-11
4.2877e-11
2.09252e-11
4.22282e-11
2.18871e-11
4.52776e-11
2.41021e-11
4.72743e-11
2.26853e-11
4.61086e-11
2.28798e-11
4.86591e-11
2.5609e-11
5.07259e-11
2.19257e-11
4.68144e-11
2.07972e-11
4.82857e-11
2.09615e-11
4.86405e-11
1.95365e-11
4.52714e-11
1.34243e-11
3.03822e-11
5.58894e-12
4.03158e-11
1.03644e-11
3.54457e-11
8.40581e-12
3.79953e-11
8.23615e-12
4.19598e-11
1.0625e-11
5.24804e-11
-3.85484e-12
5.27444e-11
-6.77014e-11
1.45023e-10
8.50535e-11
-1.60028e-09
6.27546e-10
1.22342e-09
-1.16257e-09
-7.10463e-10
-1.09667e-10
-3.78787e-10
-4.16894e-10
-2.48612e-10
-1.30948e-10
-4.83802e-11
-3.79545e-11
-6.82672e-12
-1.1305e-11
1.56323e-11
4.36129e-12
2.78961e-11
1.56402e-11
3.66275e-11
1.58388e-11
3.59029e-11
1.96618e-11
4.2059e-11
2.04795e-11
4.13857e-11
2.14792e-11
4.46612e-11
2.39414e-11
4.68051e-11
2.26095e-11
4.55481e-11
2.27807e-11
4.8224e-11
2.56891e-11
5.05066e-11
2.20459e-11
4.64016e-11
2.07358e-11
4.81492e-11
2.09485e-11
4.9049e-11
2.00204e-11
4.76272e-11
1.22848e-11
2.50401e-11
3.28758e-12
4.07416e-11
1.06077e-11
3.59116e-11
7.59958e-12
3.92792e-11
6.57437e-12
4.44328e-11
7.24401e-12
5.7728e-11
-9.77552e-12
6.16651e-11
-7.85761e-11
1.60436e-10
9.42407e-11
-1.67082e-09
7.87076e-10
1.29922e-09
-1.39626e-09
-8.00293e-10
-7.50492e-12
-3.14462e-10
-4.11334e-10
-2.5392e-10
-1.30752e-10
-4.70344e-11
-3.83137e-11
-8.92513e-12
-1.35264e-11
1.33765e-11
2.5485e-12
2.5973e-11
1.42533e-11
3.53167e-11
1.49227e-11
3.45814e-11
1.88095e-11
4.11189e-11
2.00045e-11
4.04572e-11
2.10467e-11
4.39606e-11
2.37761e-11
4.62601e-11
2.25432e-11
4.49282e-11
2.26902e-11
4.77299e-11
2.5785e-11
5.02284e-11
2.21934e-11
4.59558e-11
2.06749e-11
4.79863e-11
2.08981e-11
4.95648e-11
2.05108e-11
5.14732e-11
1.04222e-11
1.78621e-11
7.54221e-13
4.12776e-11
1.08253e-11
3.64146e-11
6.71579e-12
4.05597e-11
4.87757e-12
4.68466e-11
4.01385e-12
6.25384e-11
-1.47798e-11
6.90251e-11
-8.60144e-11
1.70426e-10
1.07022e-10
-1.72936e-09
9.24749e-10
1.37331e-09
-1.60281e-09
-8.97205e-10
8.39382e-11
-2.46259e-10
-4.02743e-10
-2.59708e-10
-1.31307e-10
-4.5916e-11
-3.86792e-11
-1.11373e-11
-1.58733e-11
1.09356e-11
6.20355e-13
2.38972e-11
1.27628e-11
3.38496e-11
1.39498e-11
3.31635e-11
1.79045e-11
4.00588e-11
1.94993e-11
3.94489e-11
2.05921e-11
4.31773e-11
2.36037e-11
4.56405e-11
2.24833e-11
4.42525e-11
2.2608e-11
4.71786e-11
2.5894e-11
4.98876e-11
2.23661e-11
4.54748e-11
2.0627e-11
4.77771e-11
2.0836e-11
5.01123e-11
2.1095e-11
5.70956e-11
7.26547e-12
8.55521e-12
-1.78881e-12
4.19693e-11
1.10556e-11
3.69392e-11
5.82013e-12
4.17679e-11
3.26353e-12
4.9051e-11
1.15761e-12
6.66389e-11
-1.85459e-11
7.44922e-11
-8.97874e-11
1.75234e-10
1.22319e-10
-1.77284e-09
1.03627e-09
1.44109e-09
-1.77652e-09
-9.96934e-10
1.61605e-10
-1.76381e-10
-3.90783e-10
-2.65599e-10
-1.32702e-10
-4.51469e-11
-3.90671e-11
-1.34325e-11
-1.83191e-11
8.32799e-12
-1.4101e-12
2.16827e-11
1.11798e-11
3.22345e-11
1.29235e-11
3.16587e-11
1.69535e-11
3.88843e-11
1.89627e-11
3.8367e-11
2.01178e-11
4.23146e-11
2.34224e-11
4.4949e-11
2.24273e-11
4.3526e-11
2.25345e-11
4.65715e-11
2.60144e-11
4.94827e-11
2.25645e-11
4.49554e-11
2.06055e-11
4.75043e-11
2.07912e-11
5.06088e-11
2.17453e-11
6.56052e-11
1.02031e-12
-3.90796e-12
-4.38746e-12
4.27221e-11
1.13041e-11
3.74551e-11
4.98608e-12
4.28273e-11
1.84304e-12
5.09084e-11
-1.14623e-12
6.98264e-11
-2.08717e-11
7.79284e-11
-8.99801e-11
1.75445e-10
1.38875e-10
-1.79913e-09
1.11948e-09
1.49833e-09
-1.91421e-09
-1.09505e-09
2.23578e-10
-1.07077e-10
-3.7532e-10
-2.71182e-10
-1.34987e-10
-4.48557e-11
-3.9505e-11
-1.57842e-11
-2.08389e-11
5.57146e-12
-3.53241e-12
1.93431e-11
9.51514e-12
3.04824e-11
1.1847e-11
3.00762e-11
1.5963e-11
3.76023e-11
1.83942e-11
3.7218e-11
1.96261e-11
4.13768e-11
2.32304e-11
4.41895e-11
2.23739e-11
4.27531e-11
2.24698e-11
4.59111e-11
2.61437e-11
4.90149e-11
2.27855e-11
4.44003e-11
2.061e-11
4.71742e-11
2.07554e-11
5.10567e-11
2.18327e-11
7.95451e-11
-2.14772e-12
-2.04459e-11
-7.36041e-12
4.3086e-11
1.14905e-11
3.78727e-11
4.26046e-12
4.36512e-11
7.09383e-13
5.23028e-11
-2.76175e-12
7.19716e-11
-2.16661e-11
7.93707e-11
-8.6903e-11
1.71936e-10
1.55404e-10
-1.80708e-09
1.17419e-09
1.54131e-09
-2.01458e-09
-1.18733e-09
2.68898e-10
-4.04465e-11
-3.56409e-10
-2.76043e-10
-1.38164e-10
-4.51657e-11
-4.00293e-11
-1.81683e-11
-2.34078e-11
2.68282e-12
-5.73667e-12
1.68915e-11
7.78e-12
2.86052e-11
1.0724e-11
2.8425e-11
1.4939e-11
3.62212e-11
1.77938e-11
3.60073e-11
1.91189e-11
4.03685e-11
2.30262e-11
4.33673e-11
2.23217e-11
4.19384e-11
2.24143e-11
4.51992e-11
2.62818e-11
4.8484e-11
2.30336e-11
4.37978e-11
2.06703e-11
4.6729e-11
2.08771e-11
5.11145e-11
2.18181e-11
8.83177e-11
-2.3726e-14
-3.08157e-11
-9.41089e-12
4.3068e-11
1.16801e-11
3.81902e-11
3.7192e-12
4.41797e-11
-5.56561e-14
5.31485e-11
-3.60063e-12
7.30175e-11
-2.0934e-11
7.90024e-11
-8.10106e-11
1.65706e-10
1.70692e-10
-1.79633e-09
1.20152e-09
1.56738e-09
-2.078e-09
-1.27014e-09
2.97477e-10
2.16227e-11
-3.34276e-10
-2.79786e-10
-1.42186e-10
-4.6185e-11
-4.06818e-11
-2.05634e-11
-2.6002e-11
-3.20162e-13
-8.01368e-12
1.43411e-11
5.98393e-12
2.66144e-11
9.55823e-12
2.67142e-11
1.3887e-11
3.47495e-11
1.71618e-11
3.47422e-11
1.85986e-11
3.92962e-11
2.28087e-11
4.24871e-11
2.22697e-11
4.10858e-11
2.23691e-11
4.44376e-11
2.64299e-11
4.78867e-11
2.33174e-11
4.31293e-11
2.08305e-11
4.60821e-11
2.13565e-11
5.0328e-11
2.29332e-11
7.84642e-11
3.79149e-13
-2.07999e-11
-8.42505e-12
4.29117e-11
1.20208e-11
3.84412e-11
3.44734e-12
4.43779e-11
-3.85468e-13
5.34006e-11
-3.61776e-12
7.29773e-11
-1.8769e-11
7.70983e-11
-7.2845e-11
1.57653e-10
1.83709e-10
-1.7674e-09
1.20362e-09
1.57435e-09
-2.10626e-09
-1.34024e-09
3.09951e-10
7.75197e-11
-3.09323e-10
-2.82075e-10
-1.46962e-10
-4.80054e-11
-4.15109e-11
-2.29538e-11
-2.8599e-11
-3.42007e-12
-1.03537e-11
1.17038e-11
4.13548e-12
2.4522e-11
8.35303e-12
2.49517e-11
1.28121e-11
3.3196e-11
1.64986e-11
3.3428e-11
1.8067e-11
3.81652e-11
2.25769e-11
4.15542e-11
2.2217e-11
4.01997e-11
2.23346e-11
4.36301e-11
2.65856e-11
4.72281e-11
2.36292e-11
4.2408e-11
2.10643e-11
4.5298e-11
2.20383e-11
4.90713e-11
2.40165e-11
6.31782e-11
5.42662e-12
-3.20746e-12
-6.11459e-12
4.22886e-11
1.23906e-11
3.85163e-11
3.45153e-12
4.42011e-11
-2.5433e-13
5.30364e-11
-2.82212e-12
7.1921e-11
-1.53298e-11
7.39587e-11
-6.29695e-11
1.48598e-10
1.93756e-10
-1.72116e-09
1.18311e-09
1.5609e-09
-2.10152e-09
-1.39509e-09
3.07464e-10
1.25987e-10
-2.82079e-10
-2.82663e-10
-1.52383e-10
-5.07014e-11
-4.25724e-11
-2.53335e-11
-3.11819e-11
-6.60216e-12
-1.27517e-11
8.9886e-12
2.24169e-12
2.23398e-11
7.11128e-12
2.31441e-11
1.1718e-11
3.15693e-11
1.58048e-11
3.20694e-11
1.75252e-11
3.69811e-11
2.23303e-11
4.05736e-11
2.21633e-11
3.9284e-11
2.23107e-11
4.27806e-11
2.67476e-11
4.65135e-11
2.39634e-11
4.16462e-11
2.13454e-11
4.44398e-11
2.27506e-11
4.77416e-11
2.44641e-11
5.315e-11
1.30705e-11
9.16026e-12
-3.90446e-12
4.12031e-11
1.27584e-11
3.83649e-11
3.74807e-12
4.36322e-11
3.46774e-13
5.20729e-11
-1.25347e-12
6.99592e-11
-1.08092e-11
6.99125e-11
-5.19058e-11
1.39221e-10
2.00495e-10
-1.65887e-09
1.14254e-09
1.52625e-09
-2.06632e-09
-1.43271e-09
2.91577e-10
1.66107e-10
-2.53179e-10
-2.81398e-10
-1.58314e-10
-5.43199e-11
-4.39233e-11
-2.77046e-11
-3.37368e-11
-9.8531e-12
-1.52031e-11
6.20265e-12
3.07838e-13
2.00792e-11
5.83598e-12
2.12967e-11
1.06074e-11
2.98782e-11
1.50804e-11
3.06703e-11
1.69738e-11
3.57487e-11
2.20688e-11
3.95508e-11
2.21079e-11
3.83413e-11
2.22971e-11
4.18913e-11
2.69164e-11
4.57461e-11
2.43232e-11
4.0839e-11
2.16859e-11
4.34899e-11
2.35172e-11
4.62983e-11
2.48481e-11
4.66508e-11
1.69066e-11
1.82799e-11
-1.14905e-12
4.01063e-11
1.32527e-11
3.80062e-11
4.36666e-12
4.26887e-11
1.40949e-12
5.05506e-11
1.01781e-12
6.72285e-11
-5.41105e-12
6.5259e-11
-4.0112e-11
1.29932e-10
2.03936e-10
-1.58183e-09
1.08413e-09
1.4705e-09
-2.00371e-09
-1.4521e-09
2.64097e-10
1.97428e-10
-2.23279e-10
-2.78225e-10
-1.64609e-10
-5.88744e-11
-4.5614e-11
-3.00726e-11
-3.62526e-11
-1.31591e-11
-1.77025e-11
3.3534e-12
-1.66204e-12
1.77507e-11
4.53003e-12
1.94148e-11
9.48187e-12
2.81305e-11
1.43266e-11
2.92345e-11
1.64129e-11
3.44734e-11
2.17917e-11
3.84909e-11
2.20507e-11
3.73751e-11
2.22932e-11
4.09665e-11
2.70896e-11
4.49321e-11
2.47039e-11
3.99936e-11
2.2072e-11
4.24682e-11
2.43016e-11
4.48126e-11
2.52924e-11
4.20934e-11
1.92213e-11
2.5172e-11
2.0466e-12
3.90649e-11
1.38747e-11
3.74211e-11
5.29584e-12
4.13928e-11
2.90272e-12
4.85301e-11
3.8998e-12
6.38863e-11
6.60118e-13
6.02745e-11
-2.79491e-11
1.20918e-10
2.04306e-10
-1.49147e-09
1.01004e-09
1.39434e-09
-1.91705e-09
-1.45314e-09
2.27051e-10
2.19972e-10
-1.9303e-10
-2.73199e-10
-1.71124e-10
-6.4347e-11
-4.76868e-11
-3.24471e-11
-3.87224e-11
-1.65075e-11
-2.02451e-11
4.48574e-13
-3.66629e-12
1.53638e-11
3.19702e-12
1.75039e-11
8.3411e-12
2.63333e-11
1.35446e-11
2.77661e-11
1.58417e-11
3.31601e-11
2.14979e-11
3.73987e-11
2.19913e-11
3.63895e-11
2.22975e-11
4.00115e-11
2.72629e-11
4.40787e-11
2.5099e-11
3.9123e-11
2.24811e-11
4.14117e-11
2.50412e-11
4.34049e-11
2.56977e-11
3.88979e-11
2.0609e-11
3.0224e-11
5.44371e-12
3.8062e-11
1.46173e-11
3.66011e-11
6.50995e-12
3.97803e-11
4.78113e-12
4.60992e-11
7.28183e-12
6.00988e-11
7.19993e-12
5.5202e-11
-1.56773e-11
1.12087e-10
2.01986e-10
-1.38915e-09
9.22398e-10
1.29939e-09
-1.81013e-09
-1.43678e-09
1.82533e-10
2.34269e-10
-1.63004e-10
-2.66458e-10
-1.77751e-10
-7.07161e-11
-5.01835e-11
-3.48464e-11
-4.11487e-11
-1.98926e-11
-2.2831e-11
-2.5079e-12
-5.70855e-12
1.29239e-11
1.83933e-12
1.55683e-11
7.18232e-12
2.44905e-11
1.27352e-11
2.62681e-11
1.52578e-11
3.18133e-11
2.11852e-11
3.62777e-11
2.19293e-11
3.53886e-11
2.23079e-11
3.90317e-11
2.7432e-11
4.31919e-11
2.55044e-11
3.82367e-11
2.28985e-11
4.03405e-11
2.57193e-11
4.2103e-11
2.60371e-11
3.66876e-11
2.15128e-11
3.37818e-11
8.8791e-12
3.70962e-11
1.54917e-11
3.55645e-11
7.9787e-12
3.79052e-11
6.98828e-12
4.33613e-11
1.10462e-11
5.6042e-11
1.40248e-11
5.02421e-11
-3.39495e-12
1.03135e-10
1.97476e-10
-1.27623e-09
8.23335e-10
1.18804e-09
-1.68597e-09
-1.40475e-09
1.32315e-10
2.41144e-10
-1.33654e-10
-2.58168e-10
-1.84402e-10
-7.79638e-11
-5.31455e-11
-3.72933e-11
-4.35358e-11
-2.33146e-11
-2.54618e-11
-5.51698e-12
-7.79374e-12
1.0432e-11
4.60636e-13
1.36104e-11
6.00386e-12
2.26036e-11
1.19014e-11
2.47411e-11
1.46595e-11
3.04336e-11
2.08525e-11
3.51295e-11
2.18662e-11
3.43742e-11
2.2323e-11
3.803e-11
2.75932e-11
4.22757e-11
2.59193e-11
3.73413e-11
2.33142e-11
3.92623e-11
2.63358e-11
4.0898e-11
2.63281e-11
3.5166e-11
2.21893e-11
3.61348e-11
1.22497e-11
3.61664e-11
1.65061e-11
3.43384e-11
9.66072e-12
3.58216e-11
9.45756e-12
4.04191e-11
1.50724e-11
5.18677e-11
2.09895e-11
4.55114e-11
8.97399e-12
9.3508e-11
1.91347e-10
-1.15393e-09
7.14319e-10
7.23469e-10
3.59825e-10
-3.83567e-10
-7.24013e-10
-6.13182e-10
-4.20236e-10
-2.38068e-10
-1.40129e-10
-5.55741e-11
-3.3579e-11
4.62969e-12
7.81573e-13
2.6394e-11
1.39714e-11
3.69148e-11
2.23278e-11
4.16486e-11
2.12154e-11
4.24592e-11
2.43826e-11
4.58051e-11
2.37807e-11
4.58367e-11
2.42563e-11
4.75906e-11
2.53855e-11
4.87935e-11
2.38628e-11
4.83745e-11
2.3907e-11
5.02006e-11
2.56119e-11
5.09227e-11
2.19877e-11
4.85053e-11
2.10498e-11
4.86723e-11
2.06538e-11
4.78061e-11
1.76462e-11
4.45537e-11
1.67699e-11
4.32593e-11
1.32018e-11
3.88891e-11
8.36073e-12
3.3738e-11
9.45482e-12
3.22574e-11
1.2784e-11
3.12613e-11
2.30734e-11
2.59014e-11
2.71978e-11
-2.65824e-12
2.99362e-11
-2.30037e-11
1.30146e-11
-1.02783e-09
-2.37505e-10
7.53657e-10
3.78087e-10
-3.91145e-10
-7.30217e-10
-6.15226e-10
-4.20406e-10
-2.38265e-10
-1.40344e-10
-5.59971e-11
-3.39387e-11
4.195e-12
5.08878e-13
2.60508e-11
1.37791e-11
3.66465e-11
2.22238e-11
4.14271e-11
2.11194e-11
4.22583e-11
2.43538e-11
4.56365e-11
2.3759e-11
4.56756e-11
2.42759e-11
4.74481e-11
2.54253e-11
4.86576e-11
2.39079e-11
4.82386e-11
2.39766e-11
5.00761e-11
2.57045e-11
5.07938e-11
2.2067e-11
4.83662e-11
2.11672e-11
4.85436e-11
2.07869e-11
4.76768e-11
1.77781e-11
4.439e-11
1.68631e-11
4.30914e-11
1.33929e-11
3.8765e-11
8.5705e-12
3.36089e-11
9.72986e-12
3.2157e-11
1.30795e-11
3.12032e-11
2.34315e-11
2.59394e-11
2.75078e-11
-2.54474e-12
2.99147e-11
-1.95104e-11
2.33125e-11
-1.04657e-09
-2.61472e-10
7.94162e-10
3.84309e-10
-4.02971e-10
-7.32935e-10
-6.16006e-10
-4.20166e-10
-2.38075e-10
-1.40473e-10
-5.62535e-11
-3.44649e-11
3.72934e-12
1.82047e-15
2.57048e-11
1.33602e-11
3.63834e-11
2.19291e-11
4.1284e-11
2.08364e-11
4.21053e-11
2.41461e-11
4.55688e-11
2.35666e-11
4.56093e-11
2.4131e-11
4.74248e-11
2.53025e-11
4.86585e-11
2.37868e-11
4.82343e-11
2.38815e-11
5.00933e-11
2.56371e-11
5.08402e-11
2.19741e-11
4.83784e-11
2.11162e-11
4.85888e-11
2.07516e-11
4.77374e-11
1.77452e-11
4.43886e-11
1.67331e-11
4.30757e-11
1.3405e-11
3.88723e-11
8.63864e-12
3.36756e-11
9.86817e-12
3.22864e-11
1.32335e-11
3.13423e-11
2.36293e-11
2.62426e-11
2.76593e-11
-2.01545e-12
2.84923e-11
-1.58265e-11
4.11952e-11
-1.07876e-09
-2.78896e-10
8.36993e-10
3.64567e-10
-4.15721e-10
-7.27779e-10
-6.15196e-10
-4.19555e-10
-2.374e-10
-1.40157e-10
-5.6217e-11
-3.4948e-11
3.18705e-12
-6.37513e-13
2.5258e-11
1.2824e-11
3.60187e-11
2.1547e-11
4.11071e-11
2.04676e-11
4.18703e-11
2.38659e-11
4.54794e-11
2.33163e-11
4.55008e-11
2.39387e-11
4.73824e-11
2.51472e-11
4.8662e-11
2.3632e-11
4.82156e-11
2.37562e-11
5.01076e-11
2.55529e-11
5.09182e-11
2.18593e-11
4.83812e-11
2.1044e-11
4.86518e-11
2.07053e-11
4.7835e-11
1.77081e-11
4.43987e-11
1.65355e-11
4.30306e-11
1.33731e-11
3.90643e-11
8.70715e-12
3.37935e-11
9.98193e-12
3.25396e-11
1.33095e-11
3.16538e-11
2.36281e-11
2.70158e-11
2.72452e-11
-4.50156e-13
2.44808e-11
-7.97692e-12
5.86369e-11
-1.12023e-09
-2.75269e-10
8.7502e-10
3.05532e-10
-4.27138e-10
-7.07483e-10
-6.1125e-10
-4.1894e-10
-2.36473e-10
-1.3934e-10
-5.58369e-11
-3.53436e-11
2.5408e-12
-1.39811e-12
2.46698e-11
1.21712e-11
3.55092e-11
2.10857e-11
4.08543e-11
2.00277e-11
4.15111e-11
2.35243e-11
4.53282e-11
2.30303e-11
4.53046e-11
2.37178e-11
4.72807e-11
2.49825e-11
4.86244e-11
2.34728e-11
4.81353e-11
2.36265e-11
5.00734e-11
2.54879e-11
5.09831e-11
2.17618e-11
4.83235e-11
2.09847e-11
4.86851e-11
2.06858e-11
4.79251e-11
1.77134e-11
4.43859e-11
1.63218e-11
4.28694e-11
1.33213e-11
3.92906e-11
8.82541e-12
3.39138e-11
1.0073e-11
3.28895e-11
1.32787e-11
3.21648e-11
2.3323e-11
2.83862e-11
2.5973e-11
2.57619e-12
1.7439e-11
5.27518e-12
7.14828e-11
-1.16843e-09
-2.3871e-10
9.08703e-10
1.99142e-10
-4.38648e-10
-6.68221e-10
-6.0239e-10
-4.18707e-10
-2.35642e-10
-1.38122e-10
-5.51675e-11
-3.56743e-11
1.76031e-12
-2.30093e-12
2.39231e-11
1.13937e-11
3.48452e-11
2.0534e-11
4.05165e-11
1.95252e-11
4.10244e-11
2.31202e-11
4.51057e-11
2.27138e-11
4.50166e-11
2.34667e-11
4.71139e-11
2.48114e-11
4.85378e-11
2.33144e-11
4.79843e-11
2.34952e-11
4.99833e-11
2.54438e-11
5.10214e-11
2.16907e-11
4.81943e-11
2.09393e-11
4.8677e-11
2.0699e-11
4.7997e-11
1.77774e-11
4.435e-11
1.60957e-11
4.25479e-11
1.32341e-11
3.95368e-11
8.99318e-12
3.40411e-11
1.0116e-11
3.33509e-11
1.30833e-11
3.29334e-11
2.25696e-11
3.05089e-11
2.35817e-11
7.4566e-12
7.10225e-12
2.42009e-11
7.85402e-11
-1.22458e-09
-1.62662e-10
9.42271e-10
4.31383e-11
-4.54406e-10
-6.08462e-10
-5.86811e-10
-4.18957e-10
-2.35237e-10
-1.36616e-10
-5.42434e-11
-3.59747e-11
8.11581e-13
-3.37514e-12
2.29932e-11
1.04809e-11
3.40181e-11
1.98814e-11
4.00839e-11
1.89657e-11
4.04134e-11
2.26531e-11
4.48085e-11
2.23755e-11
4.46377e-11
2.31888e-11
4.68811e-11
2.46396e-11
4.83966e-11
2.31646e-11
4.7761e-11
2.33673e-11
4.98336e-11
2.54246e-11
5.10257e-11
2.16563e-11
4.79924e-11
2.09123e-11
4.86212e-11
2.07513e-11
4.80463e-11
1.79096e-11
4.43076e-11
1.58542e-11
4.20292e-11
1.30971e-11
3.98076e-11
9.20498e-12
3.41902e-11
1.00698e-11
3.39462e-11
1.26599e-11
3.40273e-11
2.12598e-11
3.34948e-11
1.99038e-11
1.43141e-11
-6.22609e-12
4.79226e-11
8.05751e-11
-1.28966e-09
-4.65441e-11
9.80288e-10
-1.57425e-10
-4.78566e-10
-5.29332e-10
-5.63062e-10
-4.19568e-10
-2.35535e-10
-1.34931e-10
-5.31014e-11
-3.62716e-11
-3.31315e-13
-4.65033e-12
2.18497e-11
9.41934e-12
3.30113e-11
1.9115e-11
3.95353e-11
1.83495e-11
3.96781e-11
2.21212e-11
4.44256e-11
2.20196e-11
4.41675e-11
2.28876e-11
4.6579e-11
2.44719e-11
4.81964e-11
2.30312e-11
4.74652e-11
2.32491e-11
4.96226e-11
2.54355e-11
5.09856e-11
2.16675e-11
4.77178e-11
2.09046e-11
4.85151e-11
2.08449e-11
4.80734e-11
1.81153e-11
4.42888e-11
1.55835e-11
4.1291e-11
1.28932e-11
4.01071e-11
9.44405e-12
3.43837e-11
9.89667e-12
3.47017e-11
1.19564e-11
3.54908e-11
1.93311e-11
3.73517e-11
1.50044e-11
2.29299e-11
-2.16361e-11
7.43263e-11
7.98846e-11
-1.36288e-09
1.02477e-10
1.02697e-09
-3.92016e-10
-5.14861e-10
-4.34424e-10
-5.30207e-10
-4.20146e-10
-2.36773e-10
-1.33202e-10
-5.17813e-11
-3.65784e-11
-1.69163e-12
-6.13526e-12
2.04787e-11
8.19855e-12
3.18146e-11
1.82224e-11
3.88487e-11
1.76735e-11
3.88155e-11
2.15221e-11
4.39423e-11
2.16455e-11
4.36031e-11
2.25644e-11
4.62026e-11
2.43095e-11
4.79307e-11
2.29187e-11
4.70964e-11
2.3145e-11
4.93497e-11
2.54788e-11
5.08944e-11
2.17285e-11
4.73765e-11
2.09181e-11
4.83578e-11
2.09795e-11
4.80847e-11
1.83918e-11
4.4328e-11
1.52665e-11
4.03124e-11
1.26213e-11
4.04463e-11
9.68806e-12
3.4646e-11
9.56935e-12
3.56299e-11
1.0959e-11
3.73293e-11
1.68083e-11
4.19655e-11
9.13848e-12
3.27503e-11
-3.78526e-11
1.0091e-10
7.92126e-11
-1.44214e-09
2.72357e-10
1.08402e-09
-6.47415e-10
-5.65553e-10
-3.28933e-10
-4.88065e-10
-4.20158e-10
-2.39094e-10
-1.31587e-10
-5.03257e-11
-3.68962e-11
-3.26029e-12
-7.82485e-12
1.88767e-11
6.82012e-12
3.04277e-11
1.7203e-11
3.80099e-11
1.69342e-11
3.78279e-11
2.08544e-11
4.33478e-11
2.12505e-11
4.29435e-11
2.22178e-11
4.57465e-11
2.41538e-11
4.75924e-11
2.28249e-11
4.66555e-11
2.30546e-11
4.90144e-11
2.55537e-11
5.07459e-11
2.18391e-11
4.69743e-11
2.09523e-11
4.81501e-11
2.11523e-11
4.80775e-11
1.87373e-11
4.44638e-11
1.48777e-11
3.908e-11
1.22765e-11
4.08333e-11
9.91681e-12
3.49962e-11
9.07798e-12
3.67257e-11
9.68363e-12
3.94993e-11
1.38074e-11
4.71059e-11
2.74464e-12
4.30383e-11
-5.34657e-11
1.25331e-10
8.07516e-11
-1.5235e-09
4.50716e-10
1.15063e-09
-9.08209e-10
-6.31248e-10
-2.18947e-10
-4.37192e-10
-4.18967e-10
-2.42536e-10
-1.30262e-10
-4.88081e-11
-3.72195e-11
-5.02304e-12
-9.70623e-12
1.70492e-11
5.29153e-12
2.88566e-11
1.60573e-11
3.70128e-11
1.61329e-11
3.67183e-11
2.01198e-11
4.26357e-11
2.08314e-11
4.21888e-11
2.18465e-11
4.52064e-11
2.40006e-11
4.71779e-11
2.27481e-11
4.61446e-11
2.29781e-11
4.86159e-11
2.56573e-11
5.05359e-11
2.19941e-11
4.6519e-11
2.10058e-11
4.78933e-11
2.13577e-11
4.80553e-11
1.91442e-11
4.4731e-11
1.43901e-11
3.75987e-11
1.18593e-11
4.12691e-11
1.01188e-11
3.54333e-11
8.43439e-12
3.79532e-11
8.18204e-12
4.18983e-11
1.05059e-11
5.24668e-11
-3.67715e-12
5.30067e-11
-6.72142e-11
1.45808e-10
8.58602e-11
-1.60191e-09
6.25108e-10
1.22385e-09
-1.16129e-09
-7.10456e-10
-1.10238e-10
-3.78786e-10
-4.1592e-10
-2.47019e-10
-1.29407e-10
-4.73089e-11
-3.7546e-11
-6.95809e-12
-1.17618e-11
1.50062e-11
3.6228e-12
2.71074e-11
1.4792e-11
3.58542e-11
1.52706e-11
3.54931e-11
1.93226e-11
4.18018e-11
2.0385e-11
4.13417e-11
2.14502e-11
4.45802e-11
2.38479e-11
4.66849e-11
2.26849e-11
4.55675e-11
2.29134e-11
4.8155e-11
2.57843e-11
5.02648e-11
2.2187e-11
4.6016e-11
2.10739e-11
4.75863e-11
2.15878e-11
4.80173e-11
1.95953e-11
4.51632e-11
1.38018e-11
3.58785e-11
1.1386e-11
4.17468e-11
1.02871e-11
3.59423e-11
7.67412e-12
3.92694e-11
6.5337e-12
4.43904e-11
7.12383e-12
5.77168e-11
-9.61127e-12
6.19526e-11
-7.8118e-11
1.61237e-10
9.50341e-11
-1.67247e-09
7.85083e-10
1.29981e-09
-1.39535e-09
-8.00387e-10
-8.06354e-12
-3.14503e-10
-4.10381e-10
-2.52316e-10
-1.29183e-10
-4.59336e-11
-3.78756e-11
-9.03764e-12
-1.39686e-11
1.27616e-11
1.82433e-12
2.51923e-11
1.34132e-11
3.45368e-11
1.43502e-11
3.4162e-11
1.84687e-11
4.08463e-11
1.99095e-11
4.04069e-11
2.10297e-11
4.3869e-11
2.3692e-11
4.61154e-11
2.26313e-11
4.49282e-11
2.28577e-11
4.76332e-11
2.59292e-11
4.9932e-11
2.24109e-11
4.54726e-11
2.1154e-11
4.7231e-11
2.18362e-11
4.79564e-11
2.00729e-11
4.57717e-11
1.31297e-11
3.3954e-11
1.0879e-11
4.22442e-11
1.04257e-11
3.64983e-11
6.84111e-12
4.05856e-11
4.85162e-12
4.68241e-11
3.89405e-12
6.25304e-11
-1.46288e-11
6.93392e-11
-8.55773e-11
1.71243e-10
1.07789e-10
-1.73111e-09
9.23205e-10
1.37414e-09
-1.60226e-09
-8.97432e-10
8.34008e-11
-2.46339e-10
-4.01824e-10
-2.58104e-10
-1.29718e-10
-4.47922e-11
-3.82152e-11
-1.12322e-11
-1.63008e-11
1.03324e-11
-8.78796e-14
2.31256e-11
1.19332e-11
3.30662e-11
1.33757e-11
3.27357e-11
1.75638e-11
3.97718e-11
1.94039e-11
3.93909e-11
2.05872e-11
4.30749e-11
2.35299e-11
4.54721e-11
2.25832e-11
4.42319e-11
2.2809e-11
4.70541e-11
2.60866e-11
4.95384e-11
2.26582e-11
4.48961e-11
2.12455e-11
4.68278e-11
2.20984e-11
4.78607e-11
2.05579e-11
4.65322e-11
1.24364e-11
3.1908e-11
1.03679e-11
4.27281e-11
1.05493e-11
3.70679e-11
5.99236e-12
4.18274e-11
3.25174e-12
4.90482e-11
1.03914e-12
6.66353e-11
-1.84077e-11
7.48324e-11
-8.93628e-11
1.76071e-10
1.2305e-10
-1.77474e-09
1.03517e-09
1.44222e-09
-1.77629e-09
-9.97296e-10
1.61101e-10
-1.76494e-10
-3.89906e-10
-2.64008e-10
-1.31103e-10
-4.40078e-11
-3.85816e-11
-1.35114e-11
-1.87324e-11
7.73654e-12
-2.10225e-12
2.09216e-11
1.03627e-11
3.14503e-11
1.23502e-11
3.1224e-11
1.66145e-11
3.85842e-11
1.8867e-11
3.83007e-11
2.01243e-11
4.22017e-11
2.33588e-11
4.47585e-11
2.25377e-11
4.34846e-11
2.27661e-11
4.64217e-11
2.62515e-11
4.90864e-11
2.29233e-11
4.42916e-11
2.13482e-11
4.63771e-11
2.23717e-11
4.77127e-11
2.1024e-11
4.73472e-11
1.18389e-11
2.99099e-11
9.88922e-12
4.31517e-11
1.06768e-11
3.76104e-11
5.19591e-12
4.29155e-11
1.84307e-12
5.09228e-11
-1.2635e-12
6.98268e-11
-2.07453e-11
7.82911e-11
-8.95585e-11
1.76302e-10
1.39568e-10
-1.80121e-09