/*--------------------------------*- C++ -*----------------------------------*\
| =========                 |                                                 |
| \\      /  F ield         | OpenFOAM: The Open Source CFD Toolbox           |
|  \\    /   O peration     | Version:  2312                                  |
|   \\  /    A nd           | Website:  www.openfoam.com                      |
|    \\/     M anipulation  |                                                 |
\*---------------------------------------------------------------------------*/
FoamFile
{
    version     2.0;
    format      ascii;
    arch        "LSB;label=32;scalar=64";
    class       volScalarField;
    location    "760";
    object      pPrime2Mean;
}
// * * * * * * * * * * * * * * * * * * * * * * * * * * * * * * * * * * * * * //

dimensions      [0 4 -4 0 0 0 0];

internalField   nonuniform List<scalar> 
144000
(
3.43122e-18
4.07625e-18
3.81401e-18
3.14836e-18
2.24306e-18
1.58675e-18
1.17839e-18
8.71297e-19
6.47557e-19
5.32796e-19
4.97938e-19
4.50151e-19
3.84422e-19
3.0777e-19
2.5776e-19
2.16525e-19
1.99062e-19
1.70155e-19
1.58536e-19
1.40375e-19
1.26957e-19
1.04508e-19
1.0606e-19
7.96285e-20
8.44384e-20
6.60461e-20
6.71096e-20
5.40549e-20
5.3784e-20
4.19475e-20
4.44599e-20
3.22309e-20
3.70765e-20
2.65792e-20
2.84231e-20
2.78313e-20
1.54635e-20
3.10508e-20
1.10283e-20
2.00781e-20
2.56931e-20
2.94098e-21
3.94436e-20
9.62367e-21
2.8745e-20
4.34127e-20
1.70618e-20
5.94602e-20
4.63347e-20
4.96425e-20
8.95248e-20
7.85926e-20
1.14875e-19
1.65696e-19
2.06774e-19
3.07413e-19
4.94102e-19
8.87022e-19
2.2422e-18
2.23868e-18
3.60153e-18
4.17205e-18
3.9153e-18
3.22413e-18
2.27781e-18
1.60684e-18
1.1916e-18
8.79759e-19
6.52249e-19
5.35598e-19
5.00275e-19
4.52218e-19
3.85919e-19
3.08753e-19
2.58425e-19
2.17049e-19
1.99552e-19
1.70556e-19
1.58812e-19
1.40742e-19
1.27251e-19
1.04626e-19
1.06305e-19
7.98294e-20
8.4529e-20
6.62589e-20
6.72035e-20
5.42156e-20
5.38967e-20
4.20475e-20
4.4605e-20
3.23019e-20
3.7217e-20
2.67166e-20
2.84596e-20
2.81882e-20
1.53586e-20
3.14698e-20
1.12168e-20
2.00745e-20
2.64731e-20
2.723e-21
4.02253e-20
1.01627e-20
2.88828e-20
4.49525e-20
1.7381e-20
6.08895e-20
4.82496e-20
5.09463e-20
9.26656e-20
8.19096e-20
1.1904e-19
1.72651e-19
2.15641e-19
3.20526e-19
5.1603e-19
9.20724e-19
2.34126e-18
2.29712e-18
3.7282e-18
4.24591e-18
3.95334e-18
3.24542e-18
2.28447e-18
1.61257e-18
1.19796e-18
8.84957e-19
6.55412e-19
5.37585e-19
5.02375e-19
4.54213e-19
3.87421e-19
3.09653e-19
2.59074e-19
2.17535e-19
2.00166e-19
1.70968e-19
1.5914e-19
1.41173e-19
1.27639e-19
1.04693e-19
1.06713e-19
7.99847e-20
8.47556e-20
6.64727e-20
6.74025e-20
5.43966e-20
5.41182e-20
4.2152e-20
4.48893e-20
3.23721e-20
3.74969e-20
2.69105e-20
2.8572e-20
2.87519e-20
1.5228e-20
3.21907e-20
1.14991e-20
2.01939e-20
2.76875e-20
2.47537e-21
4.15523e-20
1.09908e-20
2.93296e-20
4.73066e-20
1.80701e-20
6.32377e-20
5.12535e-20
5.31811e-20
9.75301e-20
8.70261e-20
1.25309e-19
1.8252e-19
2.27658e-19
3.36446e-19
5.39982e-19
9.56849e-19
2.44134e-18
2.35487e-18
3.71277e-18
4.19189e-18
3.87899e-18
3.16376e-18
2.24221e-18
1.58984e-18
1.18734e-18
8.80079e-19
6.52545e-19
5.35803e-19
5.01836e-19
4.54285e-19
3.87512e-19
3.09602e-19
2.5903e-19
2.17518e-19
2.00426e-19
1.7108e-19
1.59185e-19
1.41431e-19
1.27902e-19
1.04613e-19
1.07037e-19
8.00773e-20
8.49241e-20
6.66711e-20
6.75881e-20
5.45782e-20
5.43354e-20
4.22608e-20
4.51985e-20
3.24409e-20
3.78213e-20
2.71312e-20
2.86951e-20
2.94218e-20
1.50713e-20
3.30571e-20
1.18459e-20
2.03493e-20
2.91327e-20
2.223e-21
4.31013e-20
1.20297e-20
2.98531e-20
5.00639e-20
1.89467e-20
6.59134e-20
5.47814e-20
5.57282e-20
1.0292e-19
9.27503e-20
1.31809e-19
1.92639e-19
2.39054e-19
3.49575e-19
5.56783e-19
9.65924e-19
2.50367e-18
2.33764e-18
3.56391e-18
4.06325e-18
3.70902e-18
2.98144e-18
2.15425e-18
1.53802e-18
1.15775e-18
8.62903e-19
6.41709e-19
5.28432e-19
4.96859e-19
4.50828e-19
3.85059e-19
3.07838e-19
2.57748e-19
2.16567e-19
1.99916e-19
1.70579e-19
1.58679e-19
1.41233e-19
1.27815e-19
1.04271e-19
1.0708e-19
8.00114e-20
8.49405e-20
6.67583e-20
6.76851e-20
5.46959e-20
5.44826e-20
4.23282e-20
4.5469e-20
3.24812e-20
3.81233e-20
2.73377e-20
2.87832e-20
3.0098e-20
1.48945e-20
3.39112e-20
1.22164e-20
2.04823e-20
3.05863e-20
1.9983e-21
4.45712e-20
1.31469e-20
3.03055e-20
5.27657e-20
1.98644e-20
6.83537e-20
5.82395e-20
5.80789e-20
1.07786e-19
9.80374e-20
1.37149e-19
2.00827e-19
2.47586e-19
3.57076e-19
5.65489e-19
9.4758e-19
2.54424e-18
2.274e-18
3.37805e-18
4.00139e-18
3.50126e-18
2.74231e-18
2.03856e-18
1.46776e-18
1.11307e-18
8.35009e-19
6.23588e-19
5.15568e-19
4.87148e-19
4.43437e-19
3.79656e-19
3.04015e-19
2.5498e-19
2.14476e-19
1.98438e-19
1.69298e-19
1.57478e-19
1.40408e-19
1.27228e-19
1.03578e-19
1.06727e-19
7.96919e-20
8.47407e-20
6.66631e-20
6.7643e-20
5.47037e-20
5.45122e-20
4.23214e-20
4.5649e-20
3.2464e-20
3.8349e-20
2.74955e-20
2.88006e-20
3.07032e-20
1.46981e-20
3.46666e-20
1.25663e-20
2.05719e-20
3.18894e-20
1.81653e-21
4.57977e-20
1.42063e-20
3.06354e-20
5.50626e-20
2.07149e-20
7.03031e-20
6.11773e-20
6.00356e-20
1.11558e-19
1.02356e-19
1.40977e-19
2.06614e-19
2.52954e-19
3.60038e-19
5.6806e-19
9.11316e-19
2.60235e-18
2.23169e-18
3.20048e-18
4.0945e-18
3.29024e-18
2.4807e-18
1.90394e-18
1.3843e-18
1.05662e-18
7.98494e-19
5.99427e-19
4.98072e-19
4.73239e-19
4.3238e-19
3.7142e-19
2.98196e-19
2.5076e-19
2.11273e-19
1.95988e-19
1.67224e-19
1.55585e-19
1.38922e-19
1.26104e-19
1.02505e-19
1.0593e-19
7.90621e-20
8.42824e-20
6.63566e-20
6.7412e-20
5.45812e-20
5.43936e-20
4.22212e-20
4.57062e-20
3.23775e-20
3.84635e-20
2.75869e-20
2.873e-20
3.11935e-20
1.44832e-20
3.52653e-20
1.28639e-20
2.0623e-20
3.29679e-20
1.67555e-21
4.67453e-20
1.51167e-20
3.08624e-20
5.68599e-20
2.14189e-20
7.17623e-20
6.34259e-20
6.15923e-20
1.14239e-19
1.05562e-19
1.43439e-19
2.10123e-19
2.55422e-19
3.59752e-19
5.65613e-19
8.63939e-19
2.69204e-18
2.26187e-18
3.04762e-18
4.36983e-18
3.09099e-18
2.22128e-18
1.75405e-18
1.29059e-18
9.90852e-19
7.55028e-19
5.7049e-19
4.76896e-19
4.55908e-19
4.18314e-19
3.60804e-19
2.90633e-19
2.45253e-19
2.07072e-19
1.92662e-19
1.64448e-19
1.53089e-19
1.36845e-19
1.24494e-19
1.01075e-19
1.04715e-19
7.81288e-20
8.35506e-20
6.5845e-20
6.69773e-20
5.43301e-20
5.41204e-20
4.20281e-20
4.56311e-20
3.22252e-20
3.84539e-20
2.76136e-20
2.85673e-20
3.15597e-20
1.42547e-20
3.57109e-20
1.31084e-20
2.06368e-20
3.38476e-20
1.55891e-21
4.74503e-20
1.58737e-20
3.10105e-20
5.82285e-20
2.1945e-20
7.28938e-20
6.50388e-20
6.28014e-20
1.16083e-19
1.07776e-19
1.44777e-19
2.1181e-19
2.55284e-19
3.57212e-19
5.58318e-19
8.10676e-19
2.80929e-18
2.37629e-18
2.9248e-18
4.78558e-18
2.91148e-18
1.98346e-18
1.59368e-18
1.18986e-18
9.18542e-19
7.0664e-19
5.38297e-19
4.53126e-19
4.3614e-19
4.0201e-19
3.48385e-19
2.81718e-19
2.38708e-19
2.02047e-19
1.88604e-19
1.61094e-19
1.50109e-19
1.34297e-19
1.22496e-19
9.93488e-20
1.03153e-19
7.69405e-20
8.25501e-20
6.51558e-20
6.63412e-20
5.39632e-20
5.37014e-20
4.17573e-20
4.54335e-20
3.20215e-20
3.8326e-20
2.7592e-20
2.83165e-20
3.18227e-20
1.40185e-20
3.60168e-20
1.33297e-20
2.05998e-20
3.4604e-20
1.44028e-21
4.79824e-20
1.65326e-20
3.1045e-20
5.93348e-20
2.22509e-20
7.37564e-20
6.61526e-20
6.35928e-20
1.17251e-19
1.08991e-19
1.44934e-19
2.11845e-19
2.5252e-19
3.52285e-19
5.45399e-19
7.5535e-19
2.93496e-18
2.54175e-18
2.82826e-18
5.25145e-18
2.75788e-18
1.77568e-18
1.43023e-18
1.08559e-18
8.42897e-19
6.55508e-19
5.04323e-19
4.27896e-19
4.14838e-19
3.84239e-19
3.34781e-19
2.71883e-19
2.31432e-19
1.9642e-19
1.83988e-19
1.57292e-19
1.46764e-19
1.31402e-19
1.20239e-19
9.74071e-20
1.0134e-19
7.55769e-20
8.13051e-20
6.43368e-20
6.55208e-20
5.34973e-20
5.31514e-20
4.14288e-20
4.51288e-20
3.17828e-20
3.80902e-20
2.75442e-20
2.79781e-20
3.20021e-20
1.378e-20
3.61788e-20
1.35727e-20
2.04662e-20
3.5315e-20
1.29483e-21
4.83246e-20
1.71709e-20
3.08524e-20
6.02635e-20
2.22814e-20
7.42351e-20
6.68255e-20
6.37223e-20
1.17605e-19
1.09084e-19
1.43536e-19
2.09922e-19
2.46505e-19
3.43912e-19
5.24167e-19
6.98436e-19
3.0401e-18
2.68842e-18
2.74286e-18
5.63585e-18
2.6324e-18
1.59454e-18
1.27179e-18
9.81582e-19
7.67129e-19
6.03737e-19
4.70028e-19
4.02261e-19
3.92874e-19
3.65742e-19
3.20549e-19
2.61547e-19
2.23743e-19
1.90435e-19
1.78997e-19
1.53194e-19
1.43147e-19
1.28264e-19
1.17836e-19
9.53309e-20
9.9358e-20
7.41299e-20
7.98579e-20
6.34263e-20
6.45451e-20
5.2943e-20
5.2491e-20
4.10606e-20
4.47292e-20
3.15242e-20
3.77537e-20
2.74849e-20
2.75523e-20
3.21101e-20
1.35441e-20
3.61722e-20
1.38755e-20
2.01791e-20
3.60101e-20
1.10796e-21
4.8397e-20
1.78312e-20
3.03072e-20
6.09588e-20
2.19786e-20
7.41011e-20
6.69924e-20
6.2939e-20
1.16891e-19
1.07798e-19
1.40088e-19
2.05595e-19
2.36812e-19
3.31066e-19
4.93892e-19
6.39575e-19
3.0879e-18
2.7501e-18
2.65055e-18
5.83985e-18
2.53137e-18
1.43264e-18
1.12481e-18
8.81013e-19
6.93925e-19
5.5305e-19
4.3654e-19
3.77081e-19
3.70971e-19
3.47117e-19
3.0615e-19
2.51059e-19
2.15898e-19
1.84295e-19
1.73803e-19
1.48928e-19
1.39355e-19
1.24969e-19
1.15364e-19
9.31928e-20
9.72694e-20
7.26793e-20
7.82601e-20
6.24645e-20
6.34484e-20
5.23104e-20
5.17366e-20
4.0664e-20
4.42402e-20
3.12577e-20
3.73272e-20
2.74216e-20
2.7037e-20
3.2142e-20
1.33173e-20
3.59596e-20
1.42457e-20
1.96956e-20
3.66719e-20
8.81564e-22
4.81197e-20
1.85054e-20
2.93097e-20
6.13268e-20
2.1322e-20
7.3191e-20
6.65929e-20
6.11315e-20
1.14942e-19
1.05057e-19
1.34525e-19
1.98771e-19
2.23576e-19
3.13526e-19
4.55789e-19
5.79284e-19
3.05441e-18
2.68659e-18
2.53239e-18
5.80732e-18
2.44388e-18
1.28122e-18
9.93171e-19
7.86224e-19
6.25386e-19
5.04707e-19
4.04632e-19
3.52986e-19
3.49696e-19
3.28847e-19
2.91964e-19
2.4067e-19
2.081e-19
1.78173e-19
1.68559e-19
1.44615e-19
1.35487e-19
1.21593e-19
1.1287e-19
9.10526e-20
9.51216e-20
7.12832e-20
7.65733e-20
6.14847e-20
6.22754e-20
5.1613e-20
5.09069e-20
4.02439e-20
4.36653e-20
3.09925e-20
3.68159e-20
2.7353e-20
2.64432e-20
3.20847e-20
1.31069e-20
3.55187e-20
1.46696e-20
1.9027e-20
3.73071e-20
6.32441e-22
4.74753e-20
1.91654e-20
2.7883e-20
6.13013e-20
2.03485e-20
7.14727e-20
6.56296e-20
5.8335e-20
1.1181e-19
1.01025e-19
1.27089e-19
1.898e-19
2.0758e-19
2.92147e-19
4.12555e-19
5.18628e-19
2.92998e-18
2.49356e-18
2.37694e-18
5.53677e-18
2.35727e-18
1.13464e-18
8.78189e-19
6.98723e-19
5.6269e-19
4.59551e-19
3.74768e-19
3.30385e-19
3.29439e-19
3.11292e-19
2.7825e-19
2.30599e-19
2.00506e-19
1.72208e-19
1.63383e-19
1.40368e-19
1.31633e-19
1.18203e-19
1.10386e-19
8.89563e-20
9.29476e-20
6.99739e-20
7.48471e-20
6.05136e-20
6.10647e-20
5.08693e-20
5.00215e-20
3.98065e-20
4.30116e-20
3.07358e-20
3.62302e-20
2.7276e-20
2.5791e-20
3.19328e-20
1.29201e-20
3.48622e-20
1.51237e-20
1.82056e-20
3.79686e-20
3.87937e-22
4.6557e-20
1.97957e-20
2.6107e-20
6.08788e-20
1.9148e-20
6.90462e-20
6.42158e-20
5.47657e-20
1.0773e-19
9.60467e-20
1.1832e-19
1.79311e-19
1.89981e-19
2.68379e-19
3.67877e-19
4.59306e-19
2.7239e-18
2.20068e-18
2.18007e-18
5.07081e-18
2.25902e-18
9.91719e-19
7.79059e-19
6.19334e-19
5.0631e-19
4.18074e-19
3.47163e-19
3.09483e-19
3.10455e-19
2.94671e-19
2.65178e-19
2.20978e-19
1.93198e-19
1.66483e-19
1.58362e-19
1.36258e-19
1.27862e-19
1.14862e-19
1.07932e-19
8.69372e-20
9.07736e-20
6.87629e-20
7.31214e-20
5.95706e-20
5.98471e-20
5.01018e-20
4.91026e-20
3.9361e-20
4.22921e-20
3.04934e-20
3.55867e-20
2.71888e-20
2.51083e-20
3.16923e-20
1.27671e-20
3.40224e-20
1.55958e-20
1.72589e-20
3.88258e-20
1.82619e-22
4.56032e-20
2.04062e-20
2.40878e-20
6.01171e-20
1.78372e-20
6.60553e-20
6.25094e-20
5.06948e-20
1.03004e-19
9.05359e-20
1.0882e-19
1.68026e-19
1.71986e-19
2.43792e-19
3.24837e-19
4.02856e-19
2.45572e-18
1.85295e-18
1.94728e-18
4.47787e-18
2.14024e-18
8.55036e-19
6.93671e-19
5.48363e-19
4.5623e-19
3.80471e-19
3.21837e-19
2.90323e-19
2.92839e-19
2.79104e-19
2.5285e-19
2.11865e-19
1.86225e-19
1.61048e-19
1.5355e-19
1.32331e-19
1.24224e-19
1.11621e-19
1.05527e-19
8.50189e-20
8.8622e-20
6.76491e-20
7.14247e-20
5.86672e-20
5.86488e-20
4.93342e-20
4.81705e-20
3.89173e-20
4.15256e-20
3.02679e-20
3.4907e-20
2.70916e-20
2.44241e-20
3.13764e-20
1.26578e-20
3.30455e-20
1.60745e-20
1.62183e-20
4.01589e-20
5.00007e-23
4.50163e-20
2.10161e-20
2.19348e-20
5.90998e-20
1.65268e-20
6.26922e-20
6.06701e-20
4.63846e-20
9.7932e-20
8.48688e-20
9.91326e-20
1.5657e-19
1.54598e-19
2.1972e-19
2.85531e-19
3.50256e-19
2.15274e-18
1.4995e-18
1.69018e-18
3.82777e-18
1.99533e-18
7.28485e-19
6.19346e-19
4.85694e-19
4.12068e-19
3.46701e-19
2.98687e-19
2.72838e-19
2.76599e-19
2.64635e-19
2.41298e-19
2.03287e-19
1.7961e-19
1.55928e-19
1.48975e-19
1.28609e-19
1.20749e-19
1.08519e-19
1.03183e-19
8.3216e-20
8.65099e-20
6.66253e-20
6.97745e-20
5.78098e-20
5.74881e-20
4.8585e-20
4.72436e-20
3.84855e-20
4.07326e-20
3.0061e-20
3.42112e-20
2.69883e-20
2.3757e-20
3.1009e-20
1.25823e-20
3.20027e-20
1.64975e-20
1.5202e-20
4.08409e-20
6.89961e-28
4.40812e-20
2.1516e-20
1.97603e-20
5.78993e-20
1.53044e-20
5.91194e-20
5.88249e-20
4.20502e-20
9.27598e-20
7.93348e-20
8.96685e-20
1.45444e-19
1.38452e-19
1.97038e-19
2.51026e-19
3.02089e-19
1.84066e-18
1.17622e-18
1.4269e-18
3.18344e-18
1.82478e-18
6.15919e-19
5.53584e-19
4.30936e-19
3.7326e-19
3.16592e-19
2.7756e-19
2.56903e-19
2.61686e-19
2.51253e-19
2.30521e-19
1.95242e-19
1.73354e-19
1.51125e-19
1.44648e-19
1.25102e-19
1.17449e-19
1.05581e-19
1.0091e-19
8.15352e-20
8.44589e-20
6.56829e-20
6.81865e-20
5.70005e-20
5.63759e-20
4.78676e-20
4.63363e-20
3.80737e-20
3.99323e-20
2.98736e-20
3.35165e-20
2.68849e-20
2.31183e-20
3.06161e-20
1.25266e-20
3.09564e-20
1.68082e-20
1.43059e-20
3.92999e-20
4.56029e-23
4.14611e-20
2.18191e-20
1.76517e-20
5.65832e-20
1.42307e-20
5.54629e-20
5.70605e-20
3.78502e-20
8.76536e-20
7.41284e-20
8.07021e-20
1.34943e-19
1.23939e-19
1.76232e-19
2.21468e-19
2.58807e-19
1.54253e-18
9.06804e-19
1.17659e-18
2.59079e-18
1.63377e-18
5.20032e-19
4.94434e-19
3.83497e-19
3.3921e-19
2.89907e-19
2.58292e-19
2.42364e-19
2.48014e-19
2.38912e-19
2.20491e-19
1.87716e-19
1.67445e-19
1.46629e-19
1.40565e-19
1.21805e-19
1.14328e-19
1.0282e-19
9.87126e-20
7.99766e-20
8.24793e-20
6.48128e-20
6.66657e-20
5.62387e-20
5.53178e-20
4.71903e-20
4.54597e-20
3.76872e-20
3.91418e-20
2.97047e-20
3.28386e-20
2.6784e-20
2.25212e-20
3.02104e-20
1.2503e-20
2.99198e-20
1.70621e-20
1.34815e-20
3.73109e-20
1.83535e-22
3.85987e-20
2.2076e-20
1.56478e-20
5.52035e-20
1.33401e-20
5.18183e-20
5.54269e-20
3.38902e-20
8.27287e-20
6.93591e-20
7.23927e-20
1.25218e-19
1.11184e-19
1.5746e-19
1.96522e-19
2.20688e-19
1.27489e-18
7.01447e-19
9.57283e-19
2.07703e-18
1.4312e-18
4.41362e-19
4.40639e-19
3.42681e-19
3.09331e-19
2.66364e-19
2.40719e-19
2.29063e-19
2.35478e-19
2.27548e-19
2.11167e-19
1.80676e-19
1.61861e-19
1.42424e-19
1.36722e-19
1.18707e-19
1.11378e-19
1.00238e-19
9.65946e-20
7.85356e-20
8.05798e-20
6.40069e-20
6.52146e-20
5.5523e-20
5.43166e-20
4.65572e-20
4.46218e-20
3.73285e-20
3.83737e-20
2.95531e-20
3.2189e-20
2.66877e-20
2.19738e-20
2.98024e-20
1.2521e-20
2.89012e-20
1.73159e-20
1.26884e-20
3.59373e-20
4.50517e-22
3.63568e-20
2.23878e-20
1.37775e-20
5.3792e-20
1.26519e-20
4.82518e-20
5.3948e-20
3.02339e-20
7.80304e-20
6.50758e-20
6.48033e-20
1.1631e-19
1.00135e-19
1.4062e-19
1.75565e-19
1.87852e-19
1.04775e-18
5.58847e-19
7.81728e-19
1.65152e-18
1.22655e-18
3.78581e-19
3.91529e-19
3.07688e-19
2.83108e-19
2.45648e-19
2.24694e-19
2.16845e-19
2.23962e-19
2.17088e-19
2.02499e-19
1.74084e-19
1.5658e-19
1.3849e-19
1.33106e-19
1.15797e-19
1.08591e-19
9.78314e-20
9.45568e-20
7.72042e-20
7.87657e-20
6.3258e-20
6.38335e-20
5.48513e-20
5.33725e-20
4.59704e-20
4.38274e-20
3.69987e-20
3.76358e-20
2.94182e-20
3.15748e-20
2.65993e-20
2.14759e-20
2.94037e-20
1.25726e-20
2.7924e-20
1.75663e-20
1.19554e-20
3.4933e-20
8.10348e-22
3.44363e-20
2.27411e-20
1.20743e-20
5.23705e-20
1.21638e-20
4.48087e-20
5.26248e-20
2.69133e-20
7.35901e-20
6.12857e-20
5.79368e-20
1.08195e-19
9.06235e-20
1.25549e-19
1.57894e-19
1.60278e-19
8.6386e-19
4.69824e-19
6.58625e-19
1.31175e-18
1.02948e-18
3.28854e-19
3.46867e-19
2.77742e-19
2.6009e-19
2.27457e-19
2.1009e-19
2.05574e-19
2.13357e-19
2.07456e-19
1.94436e-19
1.67902e-19
1.51576e-19
1.34806e-19
1.29704e-19
1.13058e-19
1.05955e-19
9.55922e-20
9.2599e-20
7.59736e-20
7.70395e-20
6.25594e-20
6.25215e-20
5.42204e-20
5.24845e-20
4.54288e-20
4.30796e-20
3.66972e-20
3.6933e-20
2.92988e-20
3.10007e-20
2.65196e-20
2.10282e-20
2.90199e-20
1.26541e-20
2.69988e-20
1.78067e-20
1.1309e-20
3.41116e-20
1.22405e-21
3.26865e-20
2.31174e-20
1.05502e-20
5.09551e-20
1.18649e-20
4.15182e-20
5.14464e-20
2.39404e-20
6.94116e-20
5.79621e-20
5.17592e-20
1.00811e-19
8.24566e-20
1.11999e-19
1.42904e-19
1.37733e-19
7.21561e-19
4.21206e-19
5.91936e-19
1.04631e-18
8.49115e-19
2.88644e-19
3.06668e-19
2.52087e-19
2.39898e-19
2.11498e-19
1.96797e-19
1.95135e-19
2.03563e-19
1.98579e-19
1.86932e-19
1.62093e-19
1.46827e-19
1.31352e-19
1.26502e-19
1.10478e-19
1.0346e-19
9.35096e-20
9.07193e-20
7.48345e-20
7.54016e-20
6.1905e-20
6.12763e-20
5.36271e-20
5.16507e-20
4.49309e-20
4.238e-20
3.64227e-20
3.62686e-20
2.91932e-20
3.04693e-20
2.64482e-20
2.06311e-20
2.86528e-20
1.27655e-20
2.61255e-20
1.80403e-20
1.07534e-20
3.33806e-20
1.67977e-21
3.10595e-20
2.35179e-20
9.20251e-21
4.95551e-20
1.17396e-20
3.83988e-20
5.03945e-20
2.13127e-20
6.54832e-20
5.50678e-20
4.62161e-20
9.40884e-20
7.5442e-20
9.9755e-20
1.30043e-19
1.19825e-19
6.15902e-19
3.98633e-19
5.81658e-19
8.40259e-19
6.93004e-19
2.54479e-19
2.71038e-19
2.30078e-19
2.22225e-19
1.97508e-19
1.84723e-19
1.85434e-19
1.94487e-19
1.90388e-19
1.7994e-19
1.56622e-19
1.42311e-19
1.28106e-19
1.23484e-19
1.08043e-19
1.01094e-19
9.15713e-20
8.89153e-20
7.37773e-20
7.38509e-20
6.12895e-20
6.00953e-20
5.30677e-20
5.08686e-20
4.44745e-20
4.17294e-20
3.61734e-20
3.56433e-20
2.91e-20
2.99817e-20
2.63846e-20
2.02841e-20
2.83039e-20
1.2905e-20
2.5305e-20
1.82707e-20
1.02832e-20
3.26902e-20
2.17379e-21
2.95366e-20
2.39393e-20
8.02664e-21
4.81767e-20
1.17684e-20
3.54646e-20
4.94476e-20
1.90196e-20
6.17895e-20
5.25584e-20
4.12526e-20
8.79478e-20
6.94068e-20
8.86191e-20
1.1889e-19
1.06201e-19
5.40317e-19
3.87885e-19
6.23832e-19
6.76563e-19
5.66115e-19
2.2348e-19
2.39938e-19
2.1117e-19
2.06815e-19
1.85257e-19
1.73783e-19
1.76393e-19
1.86049e-19
1.82821e-19
1.73417e-19
1.51455e-19
1.38006e-19
1.2505e-19
1.20637e-19
1.05741e-19
9.88462e-20
8.97659e-20
8.71838e-20
7.27938e-20
7.23847e-20
6.07088e-20
5.89744e-20
5.25396e-20
5.01356e-20
4.40576e-20
4.11277e-20
3.5948e-20
3.50568e-20
2.90179e-20
2.9538e-20
2.63285e-20
1.99857e-20
2.79747e-20
1.30691e-20
2.45397e-20
1.8498e-20
9.89335e-21
3.20305e-20
2.70194e-21
2.81108e-20
2.43736e-20
7.01687e-21
4.68296e-20
1.19309e-20
3.27267e-20
4.85904e-20
1.70454e-20
5.83235e-20
5.03919e-20
3.68222e-20
8.23331e-20
6.42207e-20
7.84353e-20
1.09115e-19
9.65441e-20
4.87108e-19
3.76344e-19
3.43779e-18
4.0908e-18
3.82826e-18
3.15649e-18
2.24806e-18
1.58934e-18
1.18054e-18
8.73255e-19
6.49148e-19
5.33839e-19
4.98523e-19
4.50447e-19
3.84525e-19
3.07765e-19
2.57677e-19
2.16435e-19
1.9897e-19
1.7012e-19
1.58527e-19
1.40377e-19
1.26971e-19
1.04525e-19
1.06094e-19
7.96368e-20
8.44673e-20
6.6048e-20
6.71366e-20
5.40618e-20
5.38183e-20
4.19415e-20
4.44861e-20
3.22172e-20
3.70865e-20
2.65655e-20
2.84271e-20
2.78233e-20
1.54708e-20
3.10478e-20
1.10413e-20
2.00766e-20
2.57197e-20
2.93453e-21
3.94508e-20
9.60801e-21
2.87698e-20
4.34653e-20
1.70503e-20
5.9536e-20
4.63387e-20
4.97236e-20
8.95546e-20
7.86768e-20
1.1481e-19
1.65735e-19
2.06574e-19
3.07172e-19
4.93612e-19
8.85659e-19
2.25218e-18
2.24514e-18
3.60792e-18
4.18747e-18
3.92965e-18
3.23278e-18
2.28278e-18
1.60943e-18
1.19376e-18
8.81708e-19
6.5384e-19
5.36637e-19
5.00854e-19
4.52508e-19
3.86017e-19
3.08743e-19
2.58338e-19
2.16954e-19
1.99457e-19
1.70519e-19
1.58802e-19
1.40742e-19
1.27264e-19
1.04643e-19
1.06338e-19
7.9837e-20
8.45575e-20
6.62604e-20
6.72306e-20
5.42231e-20
5.39313e-20
4.20419e-20
4.46311e-20
3.22887e-20
3.72265e-20
2.67037e-20
2.8463e-20
2.8181e-20
1.53652e-20
3.14673e-20
1.12294e-20
2.00732e-20
2.65012e-20
2.7165e-21
4.02341e-20
1.01463e-20
2.89083e-20
4.50074e-20
1.73701e-20
6.09668e-20
4.82556e-20
5.10273e-20
9.26977e-20
8.19931e-20
1.18969e-19
1.7268e-19
2.15429e-19
3.20271e-19
5.15434e-19
9.19329e-19
2.35139e-18
2.30358e-18
3.73646e-18
4.26191e-18
3.96751e-18
3.25417e-18
2.28924e-18
1.61493e-18
1.19999e-18
8.86884e-19
6.56983e-19
5.38617e-19
5.02948e-19
4.54492e-19
3.87513e-19
3.09637e-19
2.5898e-19
2.17434e-19
2.00067e-19
1.70928e-19
1.59129e-19
1.41172e-19
1.27652e-19
1.04709e-19
1.06747e-19
7.99914e-20
8.47836e-20
6.64735e-20
6.743e-20
5.4405e-20
5.41541e-20
4.21471e-20
4.49159e-20
3.23595e-20
3.75061e-20
2.68988e-20
2.85751e-20
2.87459e-20
1.52341e-20
3.21897e-20
1.15117e-20
2.01923e-20
2.7718e-20
2.46867e-21
4.15651e-20
1.09721e-20
2.93577e-20
4.73662e-20
1.80609e-20
6.33172e-20
5.1263e-20
5.32652e-20
9.75689e-20
8.71164e-20
1.25246e-19
1.82576e-19
2.2746e-19
3.36211e-19
5.39368e-19
9.56004e-19
2.45128e-18
2.36214e-18
3.72156e-18
4.20866e-18
3.89192e-18
3.17194e-18
2.24659e-18
1.59175e-18
1.18924e-18
8.81913e-19
6.54091e-19
5.3681e-19
5.02393e-19
4.5455e-19
3.8759e-19
3.09576e-19
2.58927e-19
2.17407e-19
2.0032e-19
1.71036e-19
1.59172e-19
1.41427e-19
1.27913e-19
1.04629e-19
1.0707e-19
8.00833e-20
8.49513e-20
6.66713e-20
6.76148e-20
5.4588e-20
5.4372e-20
4.22571e-20
4.52255e-20
3.24294e-20
3.78296e-20
2.71209e-20
2.86969e-20
2.94176e-20
1.50764e-20
3.3056e-20
1.18585e-20
2.03476e-20
2.91703e-20
2.2165e-21
4.31184e-20
1.2005e-20
2.9886e-20
5.01292e-20
1.89399e-20
6.59996e-20
5.47975e-20
5.58182e-20
1.02974e-19
9.28584e-20
1.31764e-19
1.92728e-19
2.38917e-19
3.49447e-19
5.56331e-19
9.65962e-19
2.51455e-18
2.3456e-18
3.57054e-18
4.07846e-18
3.71982e-18
2.98844e-18
2.15792e-18
1.53983e-18
1.15938e-18
8.64613e-19
6.43185e-19
5.2941e-19
4.97387e-19
4.5108e-19
3.85118e-19
3.07796e-19
2.57635e-19
2.16443e-19
1.99799e-19
1.70528e-19
1.58662e-19
1.41226e-19
1.27823e-19
1.04287e-19
1.07113e-19
8.00172e-20
8.49658e-20
6.6758e-20
6.77097e-20
5.47077e-20
5.45196e-20
4.2327e-20
4.54952e-20
3.24717e-20
3.81296e-20
2.73297e-20
2.87836e-20
3.00957e-20
1.48973e-20
3.39121e-20
1.22289e-20
2.04797e-20
3.06297e-20
1.99277e-21
4.45941e-20
1.31106e-20
3.03449e-20
5.28385e-20
1.98616e-20
6.8446e-20
5.82633e-20
5.81808e-20
1.07861e-19
9.81694e-20
1.37143e-19
2.00973e-19
2.47529e-19
3.57105e-19
5.65297e-19
9.4771e-19
2.55619e-18
2.28175e-18
3.38544e-18
4.01308e-18
3.51005e-18
2.74807e-18
2.04141e-18
1.46923e-18
1.1145e-18
8.36598e-19
6.25049e-19
5.16539e-19
4.87654e-19
4.4366e-19
3.79697e-19
3.0396e-19
2.54857e-19
2.14341e-19
1.98309e-19
1.69241e-19
1.57456e-19
1.40398e-19
1.27231e-19
1.03593e-19
1.06759e-19
7.96982e-20
8.47634e-20
6.66629e-20
6.76638e-20
5.4718e-20
5.45489e-20
4.23234e-20
4.56742e-20
3.24571e-20
3.83517e-20
2.74907e-20
2.87976e-20
3.07043e-20
1.46985e-20
3.46691e-20
1.25778e-20
2.05682e-20
3.19413e-20
1.81303e-21
4.58274e-20
1.41518e-20
3.06823e-20
5.51426e-20
2.07172e-20
7.04006e-20
6.12097e-20
6.015e-20
1.11649e-19
1.02513e-19
1.41003e-19
2.06816e-19
2.52958e-19
3.60222e-19
5.6805e-19
9.11818e-19
2.61469e-18
2.23807e-18
3.20754e-18
4.10175e-18
3.29712e-18
2.48537e-18
1.90629e-18
1.38546e-18
1.05789e-18
8.00036e-19
6.00868e-19
4.99022e-19
4.73717e-19
4.32574e-19
3.71447e-19
2.98129e-19
2.50627e-19
2.11128e-19
1.95847e-19
1.67158e-19
1.55558e-19
1.38908e-19
1.26101e-19
1.0252e-19
1.0596e-19
7.90697e-20
8.43015e-20
6.63569e-20
6.74276e-20
5.45984e-20
5.44282e-20
4.22275e-20
4.57284e-20
3.23744e-20
3.84618e-20
2.75861e-20
2.87221e-20
3.11992e-20
1.44793e-20
3.52691e-20
1.2873e-20
2.06159e-20
3.30284e-20
1.67525e-21
4.67822e-20
1.50361e-20
3.09174e-20
5.69469e-20
2.14266e-20
7.18628e-20
6.34665e-20
6.17174e-20
1.14344e-19
1.05742e-19
1.43488e-19
2.10382e-19
2.55458e-19
3.60069e-19
5.6571e-19
8.64644e-19
2.70415e-18
2.26644e-18
3.0541e-18
4.37285e-18
3.09601e-18
2.22505e-18
1.75599e-18
1.29145e-18
9.91967e-19
7.56534e-19
5.71919e-19
4.77826e-19
4.56377e-19
4.18489e-19
3.60816e-19
2.90557e-19
2.45113e-19
2.0692e-19
1.9251e-19
1.64375e-19
1.53056e-19
1.36827e-19
1.24484e-19
1.01089e-19
1.04742e-19
7.81387e-20
8.3565e-20
6.58467e-20
6.69866e-20
5.43505e-20
5.41517e-20
4.20397e-20
4.56488e-20
3.22271e-20
3.84457e-20
2.76182e-20
2.85531e-20
3.15701e-20
1.4244e-20
3.57181e-20
1.31124e-20
2.06252e-20
3.39127e-20
1.56278e-21
4.75085e-20
1.57566e-20
3.10723e-20
5.83182e-20
2.19575e-20
7.29965e-20
6.5086e-20
6.29358e-20
1.16198e-19
1.07977e-19
1.44841e-19
2.12109e-19
2.55333e-19
3.57631e-19
5.58417e-19
8.1144e-19
2.82062e-18
2.37903e-18
2.93069e-18
4.78532e-18
2.9148e-18
1.98647e-18
1.59526e-18
1.19046e-18
9.19514e-19
7.08097e-19
5.39696e-19
4.54037e-19
4.36592e-19
4.02168e-19
3.48386e-19
2.81634e-19
2.38559e-19
2.01888e-19
1.88443e-19
1.61015e-19
1.50071e-19
1.34276e-19
1.22478e-19
9.93634e-20
1.03177e-19
7.69536e-20
8.25596e-20
6.51592e-20
6.63432e-20
5.39873e-20
5.37281e-20
4.17748e-20
4.54458e-20
3.20293e-20
3.83098e-20
2.76034e-20
2.82935e-20
3.1838e-20
1.39982e-20
3.60294e-20
1.33218e-20
2.0582e-20
3.46659e-20
1.44834e-21
4.8061e-20
1.63661e-20
3.11108e-20
5.94322e-20
2.22677e-20
7.38592e-20
6.62051e-20
6.37325e-20
1.17371e-19
1.09207e-19
1.45006e-19
2.12173e-19
2.52561e-19
3.52768e-19
5.45517e-19
7.5612e-19
2.94523e-18
2.54312e-18
2.83361e-18
5.2493e-18
2.75968e-18
1.77814e-18
1.4315e-18
1.08597e-18
8.43727e-19
6.56904e-19
5.05692e-19
4.28791e-19
4.15278e-19
3.84386e-19
3.34773e-19
2.71795e-19
2.31281e-19
1.96259e-19
1.83819e-19
1.57208e-19
1.4672e-19
1.31381e-19
1.20215e-19
9.74224e-20
1.01359e-19
7.55938e-20
8.13095e-20
6.43424e-20
6.55149e-20
5.35255e-20
5.31733e-20
4.14529e-20
4.51344e-20
3.17972e-20
3.80645e-20
2.75631e-20
2.79452e-20
3.20252e-20
1.37468e-20
3.61996e-20
1.35475e-20
2.04485e-20
3.53543e-20
1.30627e-21
4.84449e-20
1.69398e-20
3.09188e-20
6.03662e-20
2.23016e-20
7.43355e-20
6.68814e-20
6.38641e-20
1.17726e-19
1.09305e-19
1.43602e-19
2.10262e-19
2.46532e-19
3.44428e-19
5.24254e-19
6.99174e-19
3.04925e-18
2.68922e-18
2.74782e-18
5.63295e-18
2.63302e-18
1.59659e-18
1.2728e-18
9.81774e-19
7.67819e-19
6.05067e-19
4.7137e-19
4.03142e-19
3.93304e-19
3.65881e-19
3.20535e-19
2.61455e-19
2.23589e-19
1.90271e-19
1.78822e-19
1.53106e-19
1.43097e-19
1.28243e-19
1.17805e-19
9.53475e-20
9.93712e-20
7.41502e-20
7.98569e-20
6.34347e-20
6.45315e-20
5.29751e-20
5.25064e-20
4.1092e-20
4.47272e-20
3.15463e-20
3.77184e-20
2.75125e-20
2.75065e-20
3.21438e-20
1.34951e-20
3.62023e-20
1.38191e-20
2.01561e-20
3.59947e-20
1.12099e-21
4.85562e-20
1.75207e-20
3.03696e-20
6.10659e-20
2.20013e-20
7.41964e-20
6.70492e-20
6.30782e-20
1.17009e-19
1.08017e-19
1.4015e-19
2.05929e-19
2.3682e-19
3.31559e-19
4.93955e-19
6.40229e-19
3.09586e-18
2.75103e-18
2.6553e-18
5.83715e-18
2.53109e-18
1.4344e-18
1.12562e-18
8.81027e-19
6.94478e-19
5.5431e-19
4.37849e-19
3.77946e-19
3.71393e-19
3.47251e-19
3.06135e-19
2.50964e-19
2.15743e-19
1.8413e-19
1.73623e-19
1.48836e-19
1.393e-19
1.24947e-19
1.15326e-19
9.32109e-20
9.72778e-20
7.27038e-20
7.82538e-20
6.24756e-20
6.34278e-20
5.23461e-20
5.1745e-20
4.0702e-20
4.42304e-20
3.12874e-20
3.72813e-20
2.7458e-20
2.69785e-20
3.21865e-20
1.32487e-20
3.60045e-20
1.41466e-20
1.96686e-20
3.65538e-20
8.95032e-22
4.83022e-20
1.81029e-20
2.93676e-20
6.14351e-20
2.13458e-20
7.3279e-20
6.66491e-20
6.1264e-20
1.15054e-19
1.05266e-19
1.34579e-19
1.99083e-19
2.23569e-19
3.13957e-19
4.55831e-19
5.79838e-19
3.06121e-18
2.6881e-18
2.53708e-18
5.80535e-18
2.44301e-18
1.28274e-18
9.93804e-19
7.86127e-19
6.25805e-19
5.05888e-19
4.05905e-19
3.53831e-19
3.5011e-19
3.28978e-19
2.91944e-19
2.40578e-19
2.07947e-19
1.78009e-19
1.68376e-19
1.44523e-19
1.35426e-19
1.21572e-19
1.12827e-19
9.10721e-20
9.51254e-20
7.13117e-20
7.65622e-20
6.14983e-20
6.22476e-20
5.1652e-20
5.09084e-20
4.02882e-20
4.36481e-20
3.10297e-20
3.67593e-20
2.73984e-20
2.6371e-20
3.21402e-20
1.30172e-20
3.55822e-20
1.45192e-20
1.89855e-20
3.69773e-20
6.48098e-22
4.76325e-20
1.86636e-20
2.79304e-20
6.14069e-20
2.03732e-20
7.15525e-20
6.56835e-20
5.84568e-20
1.11913e-19
1.01218e-19
1.27135e-19
1.90073e-19
2.07563e-19
2.92484e-19
4.12585e-19
5.19075e-19
2.93574e-18
2.49569e-18
2.38164e-18
5.5357e-18
2.35613e-18
1.13592e-18
8.78681e-19
6.98545e-19
5.62984e-19
4.60648e-19
3.76e-19
3.31209e-19
3.29839e-19
3.11418e-19
2.78226e-19
2.3051e-19
2.0035e-19
1.72044e-19
1.63198e-19
1.40275e-19
1.31568e-19
1.18182e-19
1.10338e-19
8.89769e-20
9.29472e-20
7.00058e-20
7.48315e-20
6.05295e-20
6.10304e-20
5.0911e-20
5.00164e-20
3.98564e-20
4.29876e-20
3.078e-20
3.61646e-20
2.73295e-20
2.57072e-20
3.19986e-20
1.28113e-20
3.49431e-20
1.49177e-20
1.81428e-20
3.72291e-20
4.10144e-22
4.65763e-20
1.91881e-20
2.61384e-20
6.09808e-20
1.91731e-20
6.91157e-20
6.42663e-20
5.48748e-20
1.07824e-19
9.62185e-20
1.18359e-19
1.79536e-19
1.89958e-19
2.68602e-19
3.67897e-19
4.5964e-19
2.72871e-18
2.20333e-18
2.18477e-18
5.0705e-18
2.25785e-18
9.92759e-19
7.79436e-19
6.19102e-19
5.06491e-19
4.19083e-19
3.48349e-19
3.10283e-19
3.10845e-19
2.94792e-19
2.65153e-19
2.20889e-19
1.93044e-19
1.6632e-19
1.58176e-19
1.36166e-19
1.27793e-19
1.14842e-19
1.0788e-19
8.69587e-20
9.07695e-20
6.87977e-20
7.31021e-20
5.95883e-20
5.98075e-20
5.01453e-20
4.90918e-20
3.94153e-20
4.22625e-20
3.05436e-20
3.5514e-20
2.72488e-20
2.50155e-20
3.17657e-20
1.26406e-20
3.41231e-20
1.53226e-20
1.7194e-20
3.72983e-20
2.12459e-22
4.51941e-20
1.96777e-20
2.41075e-20
6.02129e-20
1.78612e-20
6.61153e-20
6.25559e-20
5.07901e-20
1.03089e-19
9.06836e-20
1.08855e-19
1.68198e-19
1.71966e-19
2.43893e-19
3.2485e-19
4.03078e-19
2.45964e-18
1.85599e-18
1.95192e-18
4.47811e-18
2.13922e-18
8.5581e-19
6.93951e-19
5.48107e-19
4.56317e-19
3.81389e-19
3.22972e-19
2.91099e-19
2.93218e-19
2.7922e-19
2.52821e-19
2.11776e-19
1.86073e-19
1.60888e-19
1.53364e-19
1.32239e-19
1.24152e-19
1.11602e-19
1.05472e-19
8.50411e-20
8.86148e-20
6.76861e-20
7.14026e-20
5.86863e-20
5.86048e-20
4.93789e-20
4.8155e-20
3.89751e-20
4.14915e-20
3.03228e-20
3.4829e-20
2.71569e-20
2.43234e-20
3.1458e-20
1.25115e-20
3.31726e-20
1.57201e-20
1.61976e-20
3.71897e-20
8.11893e-23
4.35845e-20
2.01428e-20
2.19553e-20
5.91827e-20
1.65487e-20