/*--------------------------------*- C++ -*----------------------------------*\
| =========                 |                                                 |
| \\      /  F ield         | OpenFOAM: The Open Source CFD Toolbox           |
|  \\    /   O peration     | Version:  2312                                  |
|   \\  /    A nd           | Website:  www.openfoam.com                      |
|    \\/     M anipulation  |                                                 |
\*---------------------------------------------------------------------------*/
FoamFile
{
    version     2.0;
    format      ascii;
    arch        "LSB;label=32;scalar=64";
    class       volScalarField;
    location    "500";
    object      pMean;
}
// * * * * * * * * * * * * * * * * * * * * * * * * * * * * * * * * * * * * * //

dimensions      [0 2 -2 0 0 0 0];

internalField   nonuniform List<scalar> 
144000
(
1.75129e-09
1.61986e-09
3.86491e-10
-4.0308e-10
-3.84289e-10
-1.33697e-10
1.38521e-10
2.96987e-10
4.3502e-10
4.83713e-10
5.5221e-10
5.60206e-10
6.07257e-10
6.00152e-10
6.40583e-10
6.28037e-10
6.60847e-10
6.37679e-10
6.70986e-10
6.49919e-10
6.82531e-10
6.55352e-10
6.88208e-10
6.61489e-10
6.95655e-10
6.67748e-10
7.01414e-10
6.69501e-10
7.04332e-10
6.73168e-10
7.10156e-10
6.78857e-10
7.14251e-10
6.77118e-10
7.13851e-10
6.79081e-10
7.17439e-10
6.82425e-10
7.19884e-10
6.8233e-10
7.20452e-10
6.85672e-10
7.23983e-10
6.89867e-10
7.21075e-10
6.82077e-10
7.12516e-10
6.85035e-10
7.1258e-10
6.93759e-10
7.15138e-10
7.14845e-10
7.15889e-10
7.34598e-10
6.92394e-10
7.60537e-10
7.09211e-10
8.35168e-10
-7.51098e-10
3.46417e-11
1.78788e-09
1.64276e-09
3.76702e-10
-4.10607e-10
-3.86256e-10
-1.33339e-10
1.38647e-10
2.96974e-10
4.34582e-10
4.83285e-10
5.51622e-10
5.59827e-10
6.06764e-10
5.99866e-10
6.40176e-10
6.27867e-10
6.605e-10
6.37512e-10
6.7066e-10
6.49844e-10
6.82252e-10
6.55287e-10
6.87941e-10
6.61482e-10
6.95419e-10
6.67775e-10
7.01184e-10
6.69529e-10
7.04101e-10
6.73236e-10
7.09946e-10
6.78962e-10
7.14038e-10
6.77202e-10
7.13626e-10
6.79222e-10
7.1723e-10
6.82593e-10
7.19672e-10
6.82504e-10
7.20237e-10
6.85895e-10
7.23802e-10
6.90151e-10
7.20889e-10
6.8234e-10
7.12314e-10
6.85396e-10
7.1242e-10
6.94148e-10
7.15037e-10
7.15297e-10
7.15927e-10
7.34908e-10
6.92527e-10
7.59938e-10
7.13312e-10
8.5034e-10
-7.72618e-10
2.25631e-12
1.85757e-09
1.65567e-09
3.49834e-10
-4.18643e-10
-3.85503e-10
-1.31278e-10
1.3983e-10
2.97384e-10
4.34641e-10
4.8282e-10
5.51115e-10
5.59192e-10
6.06309e-10
5.99299e-10
6.39796e-10
6.27447e-10
6.60267e-10
6.37087e-10
6.70396e-10
6.49521e-10
6.82103e-10
6.54973e-10
6.87789e-10
6.61247e-10
6.95329e-10
6.67575e-10
7.01128e-10
6.69325e-10
7.04037e-10
6.73074e-10
7.09913e-10
6.78844e-10
7.14049e-10
6.77052e-10
7.13589e-10
6.79137e-10
7.1724e-10
6.8254e-10
7.19702e-10
6.82454e-10
7.20242e-10
6.85902e-10
7.23849e-10
6.90253e-10
7.21004e-10
6.8242e-10
7.1236e-10
6.85577e-10
7.12577e-10
6.94311e-10
7.15244e-10
7.15465e-10
7.16415e-10
7.34866e-10
6.93575e-10
7.56679e-10
7.18761e-10
8.80083e-10
-8.23442e-10
-2.7587e-11
1.94947e-09
1.63541e-09
3.09666e-10
-4.20525e-10
-3.81195e-10
-1.26896e-10
1.42573e-10
2.98965e-10
4.35515e-10
4.82714e-10
5.5069e-10
5.58498e-10
6.05801e-10
5.98622e-10
6.39312e-10
6.26932e-10
6.60009e-10
6.36551e-10
6.70022e-10
6.49093e-10
6.81921e-10
6.54576e-10
6.8757e-10
6.60932e-10
6.95208e-10
6.67319e-10
7.01071e-10
6.69059e-10
7.03944e-10
6.72853e-10
7.09872e-10
6.78693e-10
7.14103e-10
6.76859e-10
7.13536e-10
6.79009e-10
7.17273e-10
6.8246e-10
7.19779e-10
6.82364e-10
7.20269e-10
6.8586e-10
7.23962e-10
6.9033e-10
7.2129e-10
6.82434e-10
7.12517e-10
6.85651e-10
7.12964e-10
6.9429e-10
7.15768e-10
7.1523e-10
7.17691e-10
7.33761e-10
6.96392e-10
7.48912e-10
7.30802e-10
9.12217e-10
-8.98539e-10
-3.00587e-11
2.04612e-09
1.55795e-09
2.61411e-10
-4.04762e-10
-3.70512e-10
-1.2029e-10
1.46692e-10
3.01856e-10
4.37407e-10
4.83167e-10
5.50396e-10
5.57807e-10
6.05209e-10
5.97869e-10
6.38678e-10
6.26342e-10
6.59675e-10
6.35933e-10
6.69474e-10
6.48578e-10
6.8165e-10
6.54117e-10
6.87216e-10
6.60563e-10
6.94994e-10
6.67037e-10
7.00948e-10
6.68773e-10
7.03749e-10
6.72608e-10
7.09751e-10
6.78546e-10
7.14129e-10
6.76671e-10
7.1339e-10
6.78878e-10
7.17255e-10
6.824e-10
7.19833e-10
6.82282e-10
7.20247e-10
6.85806e-10
7.24074e-10
6.90433e-10
7.21671e-10
6.82429e-10
7.12708e-10
6.85603e-10
7.13552e-10
6.93974e-10
7.16675e-10
7.14372e-10
7.19963e-10
7.31249e-10
7.01371e-10
7.36615e-10
7.50039e-10
9.38676e-10
-9.88941e-10
1.62672e-11
2.14097e-09
1.40659e-09
2.06582e-10
-3.62766e-10
-3.50807e-10
-1.12232e-10
1.51621e-10
3.0586e-10
4.40261e-10
4.84163e-10
5.50246e-10
5.57119e-10
6.04541e-10
5.97055e-10
6.37911e-10
6.25683e-10
6.59265e-10
6.35254e-10
6.68761e-10
6.47982e-10
6.81285e-10
6.53615e-10
6.86724e-10
6.60138e-10
6.94678e-10
6.66732e-10
7.00748e-10
6.68472e-10
7.03442e-10
6.72341e-10
7.0954e-10
6.7841e-10
7.14114e-10
6.76502e-10
7.13138e-10
6.78744e-10
7.17173e-10
6.82363e-10
7.19844e-10
6.82214e-10
7.20154e-10
6.8574e-10
7.24162e-10
6.90545e-10
7.22133e-10
6.82391e-10
7.12951e-10
6.85372e-10
7.14379e-10
6.93278e-10
7.18044e-10
7.12695e-10
7.2343e-10
7.26943e-10
7.0899e-10
7.19736e-10
7.7675e-10
9.56501e-10
-1.09239e-09
1.23455e-10
2.23745e-09
1.17396e-09
1.40891e-10
-2.89611e-10
-3.19106e-10
-1.03233e-10
1.56653e-10
3.10718e-10
4.43941e-10
4.85629e-10
5.5015e-10
5.56413e-10
6.03764e-10
5.96161e-10
6.36989e-10
6.24947e-10
6.58769e-10
6.34535e-10
6.67897e-10
6.47316e-10
6.8083e-10
6.5309e-10
6.86102e-10
6.5967e-10
6.94266e-10
6.6642e-10
7.00473e-10
6.68176e-10
7.03029e-10
6.72061e-10
7.09238e-10
6.78291e-10
7.14046e-10
6.76367e-10
7.12776e-10
6.78611e-10
7.17015e-10
6.82348e-10
7.19801e-10
6.82169e-10
7.19986e-10
6.85657e-10
7.24217e-10
6.90652e-10
7.22673e-10
6.82299e-10
7.13261e-10
6.84906e-10
7.15466e-10
6.92114e-10
7.19982e-10
7.10029e-10
7.28267e-10
7.2058e-10
7.19523e-10
6.98443e-10
8.10154e-10
9.66256e-10
-1.21031e-09
2.95299e-10
2.34103e-09
8.60893e-10
5.91136e-11
-1.83938e-10
-2.72946e-10
-9.35392e-11
1.61143e-10
3.16137e-10
4.48273e-10
4.87421e-10
5.50023e-10
5.55602e-10
6.02806e-10
5.95154e-10
6.3589e-10
6.24112e-10
6.58155e-10
6.33778e-10
6.66883e-10
6.4658e-10
6.80271e-10
6.52557e-10
6.8536e-10
6.59172e-10
6.93758e-10
6.66116e-10
7.00119e-10
6.67901e-10
7.02511e-10
6.71784e-10
7.08848e-10
6.78204e-10
7.13919e-10
6.76285e-10
7.1231e-10
6.7849e-10
7.1678e-10
6.8237e-10
7.19696e-10
6.82154e-10
7.19745e-10
6.85557e-10
7.2425e-10
6.90741e-10
7.23283e-10
6.82136e-10
7.13677e-10
6.84136e-10
7.16858e-10
6.90404e-10
7.22565e-10
7.06279e-10
7.34508e-10
7.1221e-10
7.32755e-10
6.73757e-10
8.4794e-10
9.70132e-10
-1.3419e-09
5.27467e-10
2.45746e-09
4.78434e-10
-4.41048e-11
-4.84864e-11
-2.10406e-10
-8.29389e-11
1.64535e-10
3.21816e-10
4.53116e-10
4.89466e-10
5.49783e-10
5.54623e-10
6.01609e-10
5.93993e-10
6.34578e-10
6.23146e-10
6.57383e-10
6.32972e-10
6.65712e-10
6.45768e-10
6.79589e-10
6.52016e-10
6.84494e-10
6.58648e-10
6.93151e-10
6.65824e-10
6.9968e-10
6.67659e-10
7.01894e-10
6.7152e-10
7.08371e-10
6.78159e-10
7.13724e-10
6.76268e-10
7.11749e-10
6.78385e-10
7.16466e-10
6.82433e-10
7.1953e-10
6.8217e-10
7.19444e-10
6.85438e-10
7.24272e-10
6.90793e-10
7.23972e-10
6.81879e-10
7.1423e-10
6.83035e-10
7.18568e-10
6.88133e-10
7.2577e-10
7.0148e-10
7.41986e-10
7.02207e-10
7.47977e-10
6.47338e-10
8.8695e-10
9.71362e-10
-1.48435e-09
8.06133e-10
2.58894e-09
4.54141e-11
-1.71723e-10
1.10452e-10
-1.30851e-10
-7.09049e-11
1.66406e-10
3.27427e-10
4.58328e-10
4.9169e-10
5.49375e-10
5.53419e-10
6.00129e-10
5.92651e-10
6.3303e-10
6.22022e-10
6.56412e-10
6.32098e-10
6.64377e-10
6.44871e-10
6.78761e-10
6.5146e-10
6.83503e-10
6.58094e-10
6.92436e-10
6.65544e-10
6.99147e-10
6.67449e-10
7.01182e-10
6.71274e-10
7.07809e-10
6.78156e-10
7.13454e-10
6.76318e-10
7.11107e-10
6.783e-10
7.16079e-10
6.82534e-10
7.19307e-10
6.82213e-10
7.19099e-10
6.85293e-10
7.24295e-10
6.90794e-10
7.24737e-10
6.81516e-10
7.1494e-10
6.81619e-10
7.20565e-10
6.85347e-10
7.29503e-10
6.95855e-10
7.50335e-10
6.91242e-10
7.64104e-10
6.21313e-10
9.2361e-10
9.73178e-10
-1.63197e-09
1.11265e-09
2.73433e-09
-4.1457e-10
-3.2407e-10
2.83563e-10
-3.49707e-11
-5.67012e-11
1.66516e-10
3.32626e-10
4.63751e-10
4.94033e-10
5.48761e-10
5.5198e-10
5.98348e-10
5.91116e-10
6.31233e-10
6.20725e-10
6.55216e-10
6.31142e-10
6.62877e-10
6.43881e-10
6.77771e-10
6.50879e-10
6.82383e-10
6.57506e-10
6.91606e-10
6.65271e-10
6.98513e-10
6.67268e-10
7.00377e-10
6.71044e-10
7.07163e-10
6.78192e-10
7.13105e-10
6.7643e-10
7.10396e-10
6.7823e-10
7.15624e-10
6.82666e-10
7.19031e-10
6.82273e-10
7.18725e-10
6.85118e-10
7.24323e-10
6.90738e-10
7.25564e-10
6.81054e-10
7.15793e-10
6.79928e-10
7.22772e-10
6.82168e-10
7.33591e-10
6.89723e-10
7.59035e-10
6.80148e-10
7.79863e-10
5.97809e-10
9.54802e-10
9.78053e-10
-1.77672e-09
1.42551e-09
2.88831e-09
-8.74364e-10
-4.98346e-10
4.60453e-10
7.50101e-11
-3.95274e-11
1.64835e-10
3.37046e-10
4.69191e-10
4.96433e-10
5.47934e-10
5.50307e-10
5.96263e-10
5.89383e-10
6.29182e-10
6.19252e-10
6.5378e-10
6.30097e-10
6.61214e-10
6.42801e-10
6.76604e-10
6.50263e-10
6.81139e-10
6.56881e-10
6.90655e-10
6.64997e-10
6.97773e-10
6.67111e-10
6.99484e-10
6.7083e-10
7.06433e-10
6.7826e-10
7.12674e-10
6.76594e-10
7.09627e-10
6.78176e-10
7.15105e-10
6.82821e-10
7.18703e-10
6.82348e-10
7.18329e-10
6.84921e-10
7.24348e-10
6.9063e-10
7.26425e-10
6.8052e-10
7.16751e-10
6.78041e-10
7.2507e-10
6.78763e-10
7.3778e-10
6.83499e-10
7.67493e-10
6.69817e-10
7.94023e-10
5.78647e-10
9.78228e-10
9.87372e-10
-1.90912e-09
1.72403e-09
3.04337e-09
-1.30922e-09
-6.89444e-10
6.30519e-10
1.95731e-10
-1.84996e-11
1.61628e-10
3.40377e-10
4.74433e-10
4.98839e-10
5.46911e-10
5.48418e-10
5.93882e-10
5.87455e-10
6.26885e-10
6.17608e-10
6.52104e-10
6.28961e-10
6.59397e-10
6.41632e-10
6.75259e-10
6.49603e-10
6.79776e-10
6.56219e-10
6.89584e-10
6.64715e-10
6.96927e-10
6.66964e-10
6.98511e-10
6.70629e-10
7.05623e-10
6.78352e-10
7.1216e-10
6.76801e-10
7.08809e-10
6.78134e-10
7.14521e-10
6.82993e-10
7.18323e-10
6.82435e-10
7.17911e-10
6.84708e-10
7.24361e-10
6.90485e-10
7.27282e-10
6.79954e-10
7.17758e-10
6.76059e-10
7.27314e-10
6.75363e-10
7.41777e-10
6.77614e-10
7.75115e-10
6.61064e-10
8.05529e-10
5.65154e-10
9.92803e-10
1.00114e-09
-2.02003e-09
1.991e-09
3.18981e-09
-1.69947e-09
-8.89503e-10
7.84505e-10
3.22972e-10
7.15189e-12
1.57408e-10
3.42362e-10
4.79245e-10
5.01207e-10
5.45719e-10
5.46338e-10
5.91221e-10
5.85341e-10
6.24358e-10
6.15804e-10
6.50197e-10
6.27731e-10
6.5744e-10
6.4038e-10
6.73737e-10
6.48893e-10
6.783e-10
6.55522e-10
6.88393e-10
6.64423e-10
6.95974e-10
6.66825e-10
6.97462e-10
6.70437e-10
7.04735e-10
6.7846e-10
7.11562e-10
6.77039e-10
7.07949e-10
6.78104e-10
7.13868e-10
6.83178e-10
7.1789e-10
6.82537e-10
7.17468e-10
6.84496e-10
7.24342e-10
6.90328e-10
7.28085e-10
6.79409e-10
7.18734e-10
6.74113e-10
7.29348e-10
6.72187e-10
7.45292e-10
6.72487e-10
7.81381e-10
6.54538e-10
8.13677e-10
5.58006e-10
9.98477e-10
1.01823e-09
-2.10223e-09
2.21391e-09
3.31768e-09
-2.02937e-09
-1.08913e-09
9.14997e-10
4.52e-10
3.78877e-11
1.52841e-10
3.42816e-10
4.83364e-10
5.03475e-10
5.44391e-10
5.441e-10
5.88304e-10
5.83057e-10
6.21618e-10
6.13854e-10
6.48065e-10
6.26408e-10
6.55354e-10
6.39056e-10
6.72048e-10
6.4813e-10
6.7672e-10
6.54792e-10
6.87087e-10
6.64112e-10
6.94919e-10
6.66688e-10
6.96346e-10
6.70254e-10
7.03771e-10
6.7858e-10
7.10883e-10
6.77301e-10
7.07054e-10
6.78089e-10
7.13151e-10
6.83374e-10
7.174e-10
6.82658e-10
7.16991e-10
6.84304e-10
7.24259e-10
6.90192e-10
7.28782e-10
6.78947e-10
7.19586e-10
6.72337e-10
7.31016e-10
6.69455e-10
7.48066e-10
6.68464e-10
7.85897e-10
6.50659e-10
8.18112e-10
5.57301e-10
9.95939e-10
1.03673e-09
-2.15008e-09
2.3846e-09
3.41755e-09
-2.28855e-09
-1.27876e-09
1.01695e-09
5.77976e-10
7.38055e-11
1.48678e-10
3.41645e-10
4.86536e-10
5.05564e-10
5.42955e-10
5.41739e-10
5.85154e-10
5.80618e-10
6.18684e-10
6.11774e-10
6.45724e-10
6.24998e-10
6.53153e-10
6.37669e-10
6.702e-10
6.47313e-10
6.75045e-10
6.54033e-10
6.85674e-10
6.63781e-10
6.9377e-10
6.6655e-10
6.95169e-10
6.7008e-10
7.02735e-10
6.78706e-10
7.10126e-10
6.77582e-10
7.06126e-10
6.78093e-10
7.12366e-10
6.83582e-10
7.16845e-10
6.82808e-10
7.16466e-10
6.84156e-10
7.24086e-10
6.90113e-10
7.29318e-10
6.78629e-10
7.20229e-10
6.70856e-10
7.3218e-10
6.67351e-10
7.49885e-10
6.65799e-10
7.88425e-10
6.49617e-10
8.18824e-10
5.62636e-10
9.86542e-10
1.05473e-09
-2.16017e-09
2.49962e-09
3.48127e-09
-2.47268e-09
-1.4491e-09
1.08769e-09
6.96315e-10
1.1465e-10
1.45711e-10
3.38872e-10
4.88523e-10
5.07383e-10
5.41439e-10
5.39293e-10
5.81798e-10
5.78038e-10
6.15576e-10
6.09577e-10
6.43193e-10
6.23506e-10
6.50849e-10
6.36229e-10
6.68206e-10
6.46441e-10
6.73283e-10
6.5325e-10
6.84161e-10
6.63425e-10
6.92532e-10
6.66408e-10
6.93937e-10
6.69915e-10
7.01635e-10
6.78834e-10
7.09291e-10
6.77877e-10
7.05167e-10
6.7812e-10
7.11512e-10
6.83805e-10
7.16217e-10
6.82998e-10
7.15878e-10
6.84077e-10
7.23792e-10
6.90128e-10
7.29641e-10
6.78518e-10
7.20588e-10
6.69779e-10
7.32728e-10
6.66011e-10
7.5061e-10
6.64631e-10
7.8888e-10
6.51375e-10
8.1611e-10
5.73261e-10
9.71937e-10
1.07019e-09
-2.13114e-09
2.5596e-09
3.50346e-09
-2.58166e-09
-1.5927e-09
1.12673e-09
8.03139e-10
1.5981e-10
1.44691e-10
3.34636e-10
4.89128e-10
5.08836e-10
5.39869e-10
5.36803e-10
5.78267e-10
5.75336e-10
6.12312e-10
6.07278e-10
6.40489e-10
6.2194e-10
6.48458e-10
6.34745e-10
6.6608e-10
6.45515e-10
6.71444e-10
6.52447e-10
6.82556e-10
6.63046e-10
6.91214e-10
6.6626e-10
6.92656e-10
6.69761e-10
7.00474e-10
6.78961e-10
7.08383e-10
6.78184e-10
7.04177e-10
6.78174e-10
7.10586e-10
6.84049e-10
7.15511e-10
6.83241e-10
7.15213e-10
6.8409e-10
7.23352e-10
6.90268e-10
7.29705e-10
6.78665e-10
7.20602e-10
6.69188e-10
7.32585e-10
6.6552e-10
7.50179e-10
6.65009e-10
7.87322e-10
6.55714e-10
8.10503e-10
5.88173e-10
9.53962e-10
1.08123e-09
-2.06408e-09
2.56816e-09
3.48054e-09
-2.61921e-09
-1.70336e-09
1.13568e-09
8.95254e-10
2.08342e-10
1.4623e-10
3.29152e-10
4.88193e-10
5.09819e-10
5.3826e-10
5.34309e-10
5.74591e-10
5.72524e-10
6.08912e-10
6.04894e-10
6.37634e-10
6.20306e-10
6.45991e-10
6.33226e-10
6.63838e-10
6.44537e-10
6.69535e-10
6.51627e-10
6.80869e-10
6.6264e-10
6.89822e-10
6.66106e-10
6.91332e-10
6.69617e-10
6.99257e-10
6.79087e-10
7.07406e-10
6.78502e-10
7.03156e-10
6.78262e-10
7.09586e-10
6.84317e-10
7.14719e-10
6.83547e-10
7.14457e-10
6.84217e-10
7.22742e-10
6.90563e-10
7.29483e-10
6.7911e-10
7.20229e-10
6.69134e-10
7.31719e-10
6.65919e-10
7.486e-10
6.66868e-10
7.83943e-10
6.62286e-10
8.02675e-10
6.06274e-10
9.34223e-10
1.08661e-09
-1.96128e-09
2.53076e-09
3.41133e-09
-2.59139e-09
-1.77685e-09
1.11735e-09
9.70375e-10
2.59059e-10
1.50764e-10
3.227e-10
4.85612e-10
5.10224e-10
5.36614e-10
5.3184e-10
5.70799e-10
5.69614e-10
6.0539e-10
6.02435e-10
6.34646e-10
6.1861e-10
6.43459e-10
6.31678e-10
6.61493e-10
6.43511e-10
6.67565e-10
6.50794e-10
6.7911e-10
6.6221e-10
6.88365e-10
6.65946e-10
6.89972e-10
6.69485e-10
6.97988e-10
6.7921e-10
7.06364e-10
6.78832e-10
7.02103e-10
6.78387e-10
7.08513e-10
6.84617e-10
7.13836e-10
6.83926e-10
7.13599e-10
6.84473e-10
7.21947e-10
6.91034e-10
7.28953e-10
6.79876e-10
7.19447e-10
6.69636e-10
7.30141e-10
6.67183e-10
7.45957e-10
6.70076e-10
7.79022e-10
6.70658e-10
7.93307e-10
6.26481e-10
9.14167e-10
1.08575e-09
-1.82642e-09
2.45371e-09
3.29606e-09
-2.50564e-09
-1.8105e-09
1.07564e-09
1.02711e-09
3.10622e-10
1.58511e-10
3.15594e-10
4.81343e-10
5.09948e-10
5.34921e-10
5.29423e-10
5.66915e-10
5.66618e-10
6.01758e-10
5.99912e-10
6.31545e-10
6.1686e-10
6.40871e-10
6.30109e-10
6.5906e-10
6.42437e-10
6.65538e-10
6.49949e-10
6.77286e-10
6.61754e-10
6.8685e-10
6.6578e-10
6.88578e-10
6.69365e-10
6.96673e-10
6.79332e-10
7.05263e-10
6.79174e-10
7.01016e-10
6.78552e-10
7.07366e-10
6.84951e-10
7.1286e-10
6.84387e-10
7.12632e-10
6.8487e-10
7.20959e-10
6.91693e-10
7.28113e-10
6.80966e-10
7.18256e-10
6.70685e-10
7.27892e-10
6.6924e-10
7.42377e-10
6.74428e-10
7.72888e-10
6.80356e-10
7.83131e-10
6.478e-10
8.94676e-10
1.0787e-09
-1.66333e-09
2.34326e-09
3.13707e-09
-2.37038e-09
-1.80394e-09
1.0151e-09
1.06512e-09
3.61686e-10
1.69483e-10
3.08161e-10
4.75409e-10
5.08905e-10
5.3316e-10
5.27076e-10
5.62966e-10
5.63546e-10
5.98031e-10
5.97332e-10
6.28348e-10
6.15064e-10
6.38236e-10
6.28521e-10
6.56552e-10
6.41319e-10
6.63462e-10
6.49092e-10
6.75407e-10
6.61275e-10
6.85284e-10
6.65609e-10
6.87157e-10
6.69256e-10
6.95316e-10
6.79451e-10
7.04107e-10
6.79529e-10
6.99895e-10
6.7876e-10
7.06146e-10
6.85323e-10
7.11791e-10
6.84935e-10
7.11553e-10
6.85411e-10
7.1978e-10
6.9254e-10
7.26973e-10
6.82374e-10
7.16681e-10
6.72243e-10
7.25049e-10
6.71991e-10
7.38031e-10
6.7969e-10
7.65914e-10
6.90909e-10
7.72776e-10
6.6939e-10
8.76257e-10
1.06592e-09
-1.47635e-09
2.20586e-09
2.93793e-09
-2.19557e-09
-1.75862e-09
9.40641e-10
1.08522e-09
4.11014e-10
1.83483e-10
3.007e-10
4.67897e-10
5.07035e-10
5.31311e-10
5.24811e-10
5.58975e-10
5.60409e-10
5.9422e-10
5.947e-10
6.25071e-10
6.13228e-10
6.35563e-10
6.26914e-10
6.5398e-10
6.40161e-10
6.61343e-10
6.48224e-10
6.73479e-10
6.6077e-10
6.83676e-10
6.65433e-10
6.85713e-10
6.69158e-10
6.93923e-10
6.79565e-10
7.02902e-10
6.79898e-10
6.98743e-10
6.79008e-10
7.04859e-10
6.85734e-10
7.10634e-10
6.8557e-10
7.10369e-10
6.86095e-10
7.1842e-10
6.93563e-10
7.25557e-10
6.84076e-10
7.14768e-10
6.7425e-10
7.21719e-10
6.75311e-10
7.33119e-10
6.85609e-10
7.58469e-10
7.01868e-10
7.62783e-10
6.90616e-10
8.58975e-10
1.04806e-09
-1.26975e-09
2.04815e-09
2.70401e-09
-1.99165e-09
-1.67807e-09
8.57181e-10
1.08915e-09
4.57635e-10
2.00162e-10
2.93438e-10
4.58903e-10
5.04278e-10
5.29338e-10
5.22625e-10
5.54955e-10
5.57212e-10
5.90335e-10
5.92013e-10
6.21723e-10
6.11358e-10
6.3286e-10
6.25287e-10
6.51351e-10
6.38967e-10
6.59186e-10
6.47341e-10
6.7151e-10
6.60238e-10
6.8203e-10
6.65253e-10
6.84251e-10
6.6907e-10
6.92501e-10
6.79672e-10
7.0165e-10
6.80283e-10
6.97562e-10
6.79295e-10
7.03508e-10
6.86181e-10
7.09394e-10
6.86291e-10
7.09089e-10
6.86912e-10
7.16898e-10
6.94743e-10
7.23898e-10
6.8604e-10
7.1258e-10
6.76631e-10
7.18026e-10
6.79063e-10
7.27871e-10
6.91931e-10
7.50925e-10
7.12851e-10
7.5358e-10
7.11138e-10
8.42606e-10
1.02575e-09
-1.04802e-09
1.87701e-09
2.44203e-09
-1.76752e-09
-1.56718e-09
7.68882e-10
1.07916e-09
5.00839e-10
2.19125e-10
2.86549e-10
4.48514e-10
5.0058e-10
5.27196e-10
5.20511e-10
5.50911e-10
5.53954e-10
5.86374e-10
5.89264e-10
6.18308e-10
6.09461e-10
6.30131e-10
6.23638e-10
6.48668e-10
6.3774e-10
6.56994e-10
6.46441e-10
6.69502e-10
6.5968e-10
6.80348e-10
6.65071e-10
6.82774e-10
6.6899e-10
6.91051e-10
6.79769e-10
7.00356e-10
6.8069e-10
6.96354e-10
6.79615e-10
7.02098e-10
6.86659e-10
7.08078e-10
6.87092e-10
7.07723e-10
6.87848e-10
7.15235e-10
6.96051e-10
7.22031e-10
6.88227e-10
7.10183e-10
6.79294e-10
7.1409e-10
6.83103e-10
7.22493e-10
6.9842e-10
7.43586e-10
7.23559e-10
7.45441e-10
7.30864e-10
8.26606e-10
9.99617e-10
-8.15328e-10
1.69796e-09
1.75131e-09
1.62086e-09
3.8914e-10
-4.00964e-10
-3.8289e-10
-1.31562e-10
1.41038e-10
2.99222e-10
4.36519e-10
4.84313e-10
5.52132e-10
5.59658e-10
6.06423e-10
5.99132e-10
6.3949e-10
6.26913e-10
6.59893e-10
6.3696e-10
6.70433e-10
6.49481e-10
6.82225e-10
6.55177e-10
6.88074e-10
6.61388e-10
6.95549e-10
6.67633e-10
7.01337e-10
6.695e-10
7.04312e-10
6.73154e-10
7.101e-10
6.78778e-10
7.141e-10
6.76942e-10
7.13641e-10
6.78939e-10
7.1729e-10
6.82316e-10
7.19779e-10
6.8232e-10
7.20409e-10
6.85699e-10
7.23896e-10
6.89742e-10
7.20762e-10
6.81785e-10
7.12e-10
6.8459e-10
7.11934e-10
6.93279e-10
7.14396e-10
7.14295e-10
7.15202e-10
7.344e-10
6.91964e-10
7.60913e-10
7.09604e-10
8.3346e-10
-7.5239e-10
3.35915e-11
1.78794e-09
1.6438e-09
3.79241e-10
-4.08463e-10
-3.84812e-10
-1.3118e-10
1.4119e-10
2.99221e-10
4.36085e-10
4.83883e-10
5.51539e-10
5.59271e-10
6.05922e-10
5.98837e-10
6.39073e-10
6.26731e-10
6.5954e-10
6.36787e-10
6.70103e-10
6.494e-10
6.81945e-10
6.55111e-10
6.87806e-10
6.61379e-10
6.95312e-10
6.67657e-10
7.01109e-10
6.69532e-10
7.04086e-10
6.73224e-10
7.09892e-10
6.78882e-10
7.13889e-10
6.77027e-10
7.13416e-10
6.79078e-10
7.1708e-10
6.82482e-10
7.19568e-10
6.82497e-10
7.20195e-10
6.85921e-10
7.23714e-10
6.90021e-10
7.20573e-10
6.82044e-10
7.11795e-10
6.84947e-10
7.11771e-10
6.93662e-10
7.1429e-10
7.1474e-10
7.15241e-10
7.34705e-10
6.92104e-10
7.60318e-10
7.13728e-10
8.48666e-10
-7.73923e-10
1.14088e-12
1.85774e-09
1.65735e-09
3.52335e-10
-4.1663e-10
-3.8405e-10
-1.29106e-10
1.42405e-10
2.99656e-10
4.36157e-10
4.83419e-10
5.51027e-10
5.58626e-10
6.05456e-10
5.98257e-10
6.3868e-10
6.26293e-10
6.59295e-10
6.36353e-10
6.69834e-10
6.4907e-10
6.81794e-10
6.54798e-10
6.87654e-10
6.6114e-10
6.9522e-10
6.67453e-10
7.01058e-10
6.69335e-10
7.04028e-10
6.73065e-10
7.09863e-10
6.78765e-10
7.13902e-10
6.76879e-10
7.1338e-10
6.78992e-10
7.1709e-10
6.82426e-10
7.196e-10
6.8245e-10
7.20204e-10
6.85927e-10
7.2376e-10
6.90118e-10
7.20684e-10
6.82123e-10
7.11836e-10
6.85119e-10
7.11924e-10
6.93826e-10
7.14494e-10
7.149e-10
7.15735e-10
7.34666e-10
6.93151e-10
7.57056e-10
7.19159e-10
8.78701e-10
-8.24725e-10
-2.94379e-11
1.94961e-09
1.63808e-09
3.12113e-10
-4.18756e-10
-3.79749e-10
-1.24704e-10
1.45179e-10
3.01261e-10
4.37056e-10
4.8332e-10
5.50599e-10
5.57922e-10
6.04938e-10
5.97565e-10
6.38181e-10
6.25757e-10
6.59019e-10
6.35805e-10
6.69454e-10
6.48631e-10
6.81609e-10
6.54402e-10
6.87436e-10
6.60822e-10
6.95098e-10
6.67191e-10
7.01002e-10
6.69078e-10
7.03944e-10
6.7285e-10
7.09827e-10
6.78615e-10
7.13959e-10
6.76688e-10
7.13328e-10
6.78864e-10
7.17123e-10
6.82342e-10
7.19677e-10
6.82364e-10
7.20235e-10
6.85887e-10
7.23874e-10
6.90189e-10
7.20965e-10
6.82135e-10
7.11993e-10
6.85184e-10
7.12307e-10
6.93796e-10
7.15017e-10
7.14644e-10
7.17011e-10
7.33561e-10
6.95959e-10
7.49322e-10
7.31173e-10
9.11284e-10
-8.9968e-10
-3.30116e-11
2.04617e-09
1.56174e-09
2.63811e-10
-4.03336e-10
-3.69064e-10
-1.18073e-10
1.49365e-10
3.04199e-10
4.38979e-10
4.83792e-10
5.50308e-10
5.57226e-10
6.04335e-10
5.96799e-10
6.37532e-10
6.25142e-10
6.58662e-10
6.3517e-10
6.68897e-10
6.48104e-10
6.81332e-10
6.53944e-10
6.87087e-10
6.6045e-10
6.94883e-10
6.66901e-10
7.00879e-10
6.688e-10
7.03761e-10
6.72612e-10
7.09714e-10
6.78471e-10
7.13988e-10
6.76504e-10
7.13186e-10
6.78732e-10
7.17106e-10
6.82276e-10
7.1973e-10
6.82287e-10
7.20219e-10
6.85836e-10
7.23992e-10
6.90289e-10
7.21342e-10
6.82127e-10
7.12185e-10
6.8513e-10
7.12895e-10
6.93475e-10
7.15934e-10
7.13765e-10
7.19276e-10
7.31038e-10
7.00923e-10
7.3706e-10
7.50378e-10
9.38237e-10
-9.89894e-10
1.21038e-11
2.14086e-09
1.41125e-09
2.08884e-10
-3.61673e-10
-3.49341e-10
-1.09961e-10
1.54366e-10
3.0826e-10
4.4188e-10
4.84809e-10
5.5016e-10
5.56536e-10
6.0366e-10
5.95972e-10
6.36753e-10
6.2446e-10
6.58225e-10
6.34472e-10
6.68174e-10
6.47494e-10
6.80958e-10
6.53442e-10
6.866e-10
6.60022e-10
6.94567e-10
6.66588e-10
7.00675e-10
6.68506e-10
7.03469e-10
6.72353e-10
7.09512e-10
6.78337e-10
7.13977e-10
6.76339e-10
7.12937e-10
6.78597e-10
7.17026e-10
6.82233e-10
7.19739e-10
6.82223e-10
7.20136e-10
6.85776e-10
7.24088e-10
6.90398e-10
7.21803e-10
6.82084e-10
7.12433e-10
6.8489e-10
7.13722e-10
6.92767e-10
7.17306e-10
7.12068e-10
7.22742e-10
7.26716e-10
7.08508e-10
7.20149e-10
7.77027e-10
9.56535e-10
-1.09308e-09
1.18301e-10
2.23703e-09
1.17931e-09
1.43207e-10
-2.88824e-10
-3.17656e-10
-1.00915e-10
1.59468e-10
3.13184e-10
4.45612e-10
4.86306e-10
5.50084e-10
5.55831e-10
6.02882e-10
5.95071e-10
6.35822e-10
6.23705e-10
6.577e-10
6.3373e-10
6.67299e-10
6.46813e-10
6.80491e-10
6.52916e-10
6.85986e-10
6.59554e-10
6.94154e-10
6.66267e-10
7.00393e-10
6.68216e-10
7.03071e-10
6.72085e-10
7.0922e-10
6.78223e-10
7.13914e-10
6.76206e-10
7.12581e-10
6.78464e-10
7.16871e-10
6.82213e-10
7.19693e-10
6.8218e-10
7.1998e-10
6.857e-10
7.24155e-10
6.90505e-10
7.22344e-10
6.81986e-10
7.12751e-10
6.84413e-10
7.14813e-10
6.91593e-10
7.19254e-10
7.09384e-10
7.27573e-10
7.2034e-10
7.19015e-10
6.98813e-10
8.10395e-10
9.66697e-10
-1.21071e-09
2.89429e-10
2.34018e-09
8.66673e-10
6.15216e-11
-1.83416e-10
-2.71555e-10
-9.11829e-11
1.6403e-10
3.18674e-10
4.50006e-10
4.88144e-10
5.49978e-10
5.55026e-10
6.01932e-10
5.94061e-10
6.34718e-10
6.22854e-10
6.57061e-10
6.32951e-10
6.66274e-10
6.46063e-10
6.79919e-10
6.5238e-10
6.85251e-10
6.59058e-10
6.93646e-10
6.65954e-10
7.00028e-10
6.67944e-10
7.02568e-10
6.71819e-10
7.08841e-10
6.78142e-10
7.13791e-10
6.76127e-10
7.1212e-10
6.78344e-10
7.16641e-10
6.82231e-10
7.19583e-10
6.82165e-10
7.19751e-10
6.85609e-10
7.24202e-10
6.90596e-10
7.22955e-10
6.81819e-10
7.13178e-10
6.83635e-10
7.1621e-10
6.89875e-10
7.2185e-10
7.0561e-10
7.33804e-10
7.11953e-10
7.32234e-10
6.74077e-10
8.48175e-10
9.70881e-10
-1.342e-09
5.21203e-10
2.45634e-09
4.84315e-10
-4.1634e-11
-4.81858e-11
-2.09104e-10
-8.05556e-11
1.67486e-10
3.24423e-10
4.54917e-10
4.90239e-10
5.49761e-10
5.54057e-10
6.00741e-10
5.92903e-10
6.33407e-10
6.2188e-10
6.56265e-10
6.32122e-10
6.65091e-10
6.45237e-10
6.79222e-10
6.51835e-10
6.84393e-10
6.58537e-10
6.93039e-10
6.65653e-10
6.99577e-10
6.67701e-10
7.01964e-10
6.71567e-10
7.08377e-10
6.78103e-10
7.13602e-10
6.76113e-10
7.11566e-10
6.78242e-10
7.16331e-10
6.8229e-10
7.19412e-10
6.8218e-10
7.19462e-10
6.855e-10
7.2424e-10
6.90652e-10
7.23649e-10
6.81559e-10
7.13743e-10
6.8253e-10
7.17929e-10
6.87596e-10
7.2507e-10
7.00793e-10
7.41274e-10
7.01927e-10
7.47458e-10
6.47581e-10
8.87194e-10
9.72312e-10
-1.48429e-09
7.99861e-10
2.58771e-09
5.10553e-11
-1.69258e-10
1.10587e-10
-1.2966e-10
-6.85071e-11
1.69418e-10
3.30107e-10
4.60199e-10
4.92516e-10
5.49383e-10
5.5287e-10
5.99276e-10
5.9157e-10
6.31864e-10
6.20751e-10
6.55275e-10
6.31228e-10
6.63744e-10
6.44327e-10
6.78377e-10
6.51272e-10
6.83409e-10
6.57986e-10
6.92325e-10
6.65366e-10
6.99031e-10
6.67487e-10
7.01263e-10
6.71333e-10
7.07828e-10
6.78106e-10
7.13337e-10
6.76166e-10
7.10929e-10
6.78159e-10
7.1595e-10
6.82388e-10
7.19184e-10
6.8222e-10
7.1913e-10
6.85366e-10
7.24282e-10
6.90659e-10
7.24421e-10
6.81193e-10
7.14468e-10
6.81111e-10
7.19937e-10
6.84801e-10
7.28818e-10
6.95151e-10
7.49617e-10
6.90929e-10
7.63608e-10
6.21477e-10
9.23886e-10
9.74227e-10
-1.63191e-09
1.10676e-09
2.73318e-09
-4.09405e-10
-3.21684e-10
2.83589e-10
-3.39023e-11
-5.43113e-11
1.69579e-10
3.35376e-10
4.65686e-10
4.94913e-10
5.48803e-10
5.51451e-10
5.97513e-10
5.9005e-10
6.30077e-10
6.19456e-10
6.54067e-10
6.30256e-10
6.62235e-10
6.43326e-10
6.77372e-10
6.50682e-10
6.82296e-10
6.57403e-10
6.91496e-10
6.65087e-10
6.98383e-10
6.673e-10
7.00467e-10
6.71115e-10
7.07195e-10
6.78149e-10
7.12994e-10
6.7628e-10
7.10224e-10
6.78092e-10
7.15501e-10
6.82518e-10
7.18904e-10
6.82275e-10
7.18767e-10
6.85201e-10
7.2433e-10
6.9061e-10
7.25258e-10
6.80731e-10
7.15337e-10
6.79419e-10
7.22157e-10
6.81615e-10
7.32925e-10
6.89001e-10
7.58314e-10
6.79795e-10
7.79407e-10
5.97891e-10
9.5513e-10
9.79129e-10
-1.77683e-09
1.42027e-09
2.8874e-09
-8.69804e-10
-4.96076e-10
4.60432e-10
7.59431e-11
-3.71732e-11
1.67934e-10
3.39854e-10
4.71184e-10
4.97364e-10
5.48012e-10
5.49802e-10
5.95449e-10
5.88335e-10
6.2804e-10
6.1799e-10
6.52623e-10
6.29198e-10
6.60564e-10
6.42235e-10
6.7619e-10
6.50056e-10
6.81056e-10
6.56784e-10
6.90547e-10
6.64807e-10
6.9763e-10
6.67135e-10
6.99581e-10
6.70911e-10
7.06478e-10
6.78225e-10
7.12569e-10
6.76447e-10
7.0946e-10
6.7804e-10
7.14988e-10
6.82673e-10
7.18572e-10
6.82346e-10
7.18382e-10
6.85013e-10
7.24374e-10
6.90513e-10
7.26132e-10
6.80197e-10
7.16312e-10
6.77532e-10
7.24471e-10
6.78204e-10
7.37134e-10
6.82757e-10
7.66771e-10
6.69422e-10
7.93616e-10
5.78655e-10
9.78616e-10
9.8844e-10
-1.9095e-09
1.71955e-09
3.0429e-09
-1.30536e-09
-6.8737e-10
6.30501e-10
1.96538e-10
-1.62026e-11
1.64745e-10
3.43233e-10
4.76475e-10
4.99818e-10
5.47025e-10
5.47937e-10
5.93091e-10
5.86428e-10
6.25761e-10
6.16357e-10
6.50946e-10
6.28054e-10
6.58741e-10
6.41058e-10
6.74831e-10
6.49387e-10
6.79695e-10
6.56127e-10
6.89477e-10
6.6452e-10
6.96772e-10
6.66978e-10
6.98611e-10
6.70718e-10
7.05679e-10
6.78325e-10
7.12061e-10
6.76656e-10
7.08645e-10
6.78e-10
7.1441e-10
6.82844e-10
7.1819e-10
6.82428e-10
7.17973e-10
6.84809e-10
7.24408e-10
6.90379e-10
7.27003e-10
6.79633e-10
7.17337e-10
6.75553e-10
7.26732e-10
6.74799e-10
7.41153e-10
6.76853e-10
7.74398e-10
6.60625e-10
8.05175e-10
5.65094e-10
9.93249e-10
1.00218e-09
-2.02083e-09
1.98737e-09
3.18996e-09
-1.69639e-09
-8.8772e-10
7.84531e-10
3.23673e-10
9.37588e-12
1.60525e-10
3.45252e-10
4.81326e-10
5.02227e-10
5.45867e-10
5.45882e-10
5.90453e-10
5.84338e-10
6.23254e-10
6.14567e-10
6.49041e-10
6.26819e-10
6.5678e-10
6.39801e-10
6.73298e-10
6.48667e-10
6.78221e-10
6.55434e-10
6.88287e-10
6.64225e-10
6.95807e-10
6.66828e-10
6.97565e-10
6.70534e-10
7.04803e-10
6.78441e-10
7.1147e-10
6.76897e-10
7.0779e-10
6.77971e-10
7.13763e-10
6.83029e-10
7.17756e-10
6.82524e-10
7.17538e-10
6.84604e-10
7.24409e-10
6.90233e-10
7.27821e-10
6.79091e-10
7.18332e-10
6.7361e-10
7.28785e-10
6.7162e-10
7.4469e-10
6.71707e-10
7.80672e-10
6.54054e-10
8.13376e-10
5.57889e-10
9.98985e-10
1.01922e-09
-2.10354e-09
2.21117e-09
3.31855e-09
-2.02703e-09
-1.08767e-09
9.15103e-10
4.52622e-10
4.00228e-11
1.55938e-10
3.45725e-10
4.85475e-10
5.0453e-10
5.44569e-10
5.43666e-10
5.87558e-10
5.82078e-10
6.20536e-10
6.12635e-10
6.46917e-10
6.25495e-10
6.54692e-10
6.38475e-10
6.716e-10
6.47895e-10
6.7664e-10
6.54708e-10
6.86984e-10
6.63912e-10
6.94743e-10
6.66679e-10
6.9645e-10
6.70357e-10
7.0385e-10
6.78569e-10
7.10798e-10
6.77162e-10
7.06898e-10
6.77957e-10
7.13051e-10
6.83226e-10
7.17265e-10
6.8264e-10
7.17068e-10
6.84418e-10
7.24346e-10
6.90109e-10
7.28534e-10
6.78633e-10
7.19203e-10
6.71838e-10
7.30473e-10
6.68885e-10
7.47484e-10
6.6767e-10
7.85196e-10
6.50135e-10
8.17859e-10
5.57141e-10
9.9651e-10
1.03766e-09
-2.15195e-09
2.38271e-09
3.41912e-09
-2.28688e-09
-1.27761e-09
1.01717e-09
5.78543e-10
7.58382e-11
1.51732e-10
3.44554e-10
4.88663e-10
5.06645e-10
5.43159e-10
5.41326e-10
5.84429e-10
5.79663e-10
6.17624e-10
6.10574e-10
6.44585e-10
6.24088e-10
6.52492e-10
6.37088e-10
6.69745e-10
6.47069e-10
6.74963e-10
6.53952e-10
6.85571e-10
6.63578e-10
6.93585e-10
6.6653e-10
6.95272e-10
6.70188e-10
7.02824e-10
6.78703e-10
7.10047e-10
6.77446e-10
7.05974e-10
6.77961e-10
7.12271e-10
6.83436e-10