/*--------------------------------*- C++ -*----------------------------------*\
| =========                 |                                                 |
| \\      /  F ield         | OpenFOAM: The Open Source CFD Toolbox           |
|  \\    /   O peration     | Version:  2312                                  |
|   \\  /    A nd           | Website:  www.openfoam.com                      |
|    \\/     M anipulation  |                                                 |
\*---------------------------------------------------------------------------*/
FoamFile
{
    version     2.0;
    format      ascii;
    arch        "LSB;label=32;scalar=64";
    class       volScalarField;
    location    "900";
    object      nut;
}
// * * * * * * * * * * * * * * * * * * * * * * * * * * * * * * * * * * * * * //

dimensions      [0 2 -1 0 0 0 0];

internalField   nonuniform List<scalar> 
144000
(
1.84096e-29
1.34699e-30
2.8549e-30
1.98257e-28
2.06816e-29
2.04321e-31
1.43725e-29
4.55602e-30
8.20302e-30
8.44143e-30
7.44348e-30
9.42431e-30
8.34766e-30
1.13713e-29
7.28984e-30
9.47883e-30
8.81994e-30
1.50815e-29
8.88465e-30
1.29145e-29
1.0316e-29
1.65664e-29
1.08566e-29
1.57961e-29
9.95066e-30
1.55202e-29
1.17578e-29
1.7859e-29
1.21565e-29
1.7329e-29
1.05846e-29
1.5448e-29
1.26327e-29
1.87938e-29
1.2055e-29
1.64771e-29
1.00757e-29
1.45193e-29
9.72647e-30
1.40373e-29
7.65396e-30
1.07655e-29
4.27341e-30
5.778e-30
3.22846e-30
5.44497e-30
9.69774e-31
1.17246e-30
3.04683e-32
8.96897e-32
5.36205e-31
9.16375e-31
1.16334e-29
1.96922e-29
1.36524e-28
4.17846e-29
2.35213e-28
1.91114e-26
3.97661e-26
4.25198e-27
1.52304e-26
1.67886e-27
5.79944e-28
2.025e-27
3.45763e-30
4.64824e-30
2.04725e-29
1.77866e-29
7.68033e-30
3.25926e-29
7.30799e-30
3.22181e-29
9.33842e-30
3.63535e-29
9.39486e-30
2.78584e-29
1.11218e-29
4.36113e-29
1.3022e-29
3.40242e-29
1.4643e-29
4.5027e-29
1.59774e-29
4.18864e-29
1.45111e-29
4.03379e-29
1.71972e-29
4.68079e-29
1.8191e-29
4.46765e-29
1.59993e-29
3.84758e-29
1.86877e-29
4.81022e-29
1.86473e-29
4.05756e-29
1.52195e-29
3.49816e-29
1.45893e-29
3.41145e-29
1.16347e-29
2.52381e-29
6.53327e-30
1.28745e-29
4.17753e-30
1.33989e-29
1.26974e-30
2.50157e-30
1.0757e-32
2.12426e-31
1.24437e-30
2.41946e-30
2.32243e-29
5.43865e-29
2.49492e-28
1.88629e-28
3.04779e-28
4.02559e-26
2.42333e-25
2.53253e-27
5.32619e-26
3.90828e-27
4.44772e-27
1.80992e-27
3.66656e-29
3.49651e-30
2.54283e-29
3.26701e-29
8.33797e-30
5.08937e-29
8.70297e-30
4.88773e-29
1.12454e-29
5.66202e-29
1.0586e-29
4.6659e-29
1.29239e-29
6.83057e-29
1.47466e-29
5.66499e-29
1.66161e-29
7.21711e-29
1.79414e-29
6.86159e-29
1.60027e-29
6.74835e-29
1.91803e-29
7.63744e-29
2.02717e-29
7.36565e-29
1.73799e-29
6.61672e-29
2.06775e-29
7.86947e-29
2.04954e-29
6.78645e-29
1.6402e-29
5.99076e-29
1.57201e-29
5.73499e-29
1.21774e-29
4.39479e-29
6.12609e-30
2.50365e-29
3.86162e-30
2.42341e-29
8.43675e-31
6.03798e-30
1.08984e-33
1.07277e-30
3.86467e-30
1.06649e-30
4.98388e-29
4.81363e-29
4.40566e-28
1.2177e-28
1.20978e-27
7.12705e-26
2.49127e-25
1.53428e-26
2.49358e-25
4.6104e-26
1.82728e-26
6.58096e-27
2.86793e-29
6.5067e-30
2.00555e-29
4.69184e-29
5.65984e-30
6.35356e-29
5.9511e-30
6.02775e-29
8.00645e-30
6.94341e-29
7.50336e-30
5.76759e-29
9.13152e-30
8.30614e-29
1.071e-29
6.89547e-29
1.21954e-29
8.68193e-29
1.33608e-29
8.23777e-29
1.17163e-29
8.14322e-29
1.41517e-29
9.22145e-29
1.51771e-29
8.84386e-29
1.28478e-29
8.02817e-29
1.53236e-29
9.51768e-29
1.52864e-29
8.21107e-29
1.20383e-29
7.31944e-29
1.13907e-29
7.05311e-29
8.73949e-30
5.43881e-29
4.08841e-30
3.23681e-29
2.47466e-30
3.16954e-29
3.96582e-31
9.01769e-30
1.75463e-32
2.3572e-30
4.96735e-30
6.51575e-31
5.36016e-29
3.66811e-29
4.27471e-28
8.77561e-29
1.6104e-27
1.03779e-25
3.71417e-25
7.56186e-26
5.7611e-25
2.55451e-25
3.37397e-26
2.13834e-26
9.34674e-29
1.08281e-29
2.04043e-29
6.57841e-29
4.14805e-30
8.04742e-29
3.65193e-30
7.61312e-29
5.36965e-30
8.52753e-29
5.07242e-30
7.03972e-29
6.27141e-30
1.0077e-28
7.5916e-30
8.26292e-29
8.86711e-30
1.03463e-28
9.79958e-30
9.74417e-29
8.43393e-30
9.6562e-29
1.04575e-29
1.09617e-28
1.12185e-29
1.04827e-28
9.35484e-30
9.54295e-29
1.14168e-29
1.13648e-28
1.12451e-29
9.79738e-29
8.66766e-30
8.81174e-29
8.2105e-30
8.57535e-29
6.10373e-30
6.69712e-29
2.6172e-30
4.13233e-29
1.574e-30
4.16429e-29
1.58037e-31
1.35035e-29
6.86863e-32
4.92641e-30
5.90287e-30
5.85475e-31
5.52364e-29
2.73055e-29
3.97333e-28
5.35592e-29
2.36447e-27
1.67496e-25
5.22546e-25
3.30199e-25
9.25199e-25
8.45127e-25
4.13477e-26
5.30008e-26
3.80659e-28
1.92675e-29
2.56795e-29
8.9985e-29
3.99551e-30
1.00281e-28
2.20893e-30
9.42516e-29
3.65232e-30
1.04146e-28
3.44885e-30
8.57875e-29
4.46007e-30
1.22258e-28
5.45573e-30
9.95004e-29
6.64051e-30
1.23938e-28
7.37152e-30
1.1549e-28
6.2453e-30
1.14853e-28
8.03275e-30
1.30713e-28
8.59808e-30
1.24341e-28
7.02065e-30
1.13824e-28
8.9396e-30
1.36072e-28
8.57495e-30
1.17223e-28
6.47081e-30
1.06733e-28
6.17575e-30
1.05037e-28
4.43171e-30
8.30499e-29
1.71742e-30
5.33638e-29
1.09611e-30
5.53567e-29
5.96552e-32
2.04868e-29
1.36454e-31
9.8336e-30
6.33377e-30
1.27781e-30
5.3404e-29
2.1166e-29
3.44997e-28
2.85192e-29
3.49456e-27
2.76895e-25
6.84723e-25
1.01934e-24
1.19753e-24
2.09442e-24
3.83001e-26
1.08544e-25
1.20588e-27
3.5355e-29
3.44745e-29
1.1927e-28
4.7904e-30
1.21165e-28
1.35207e-30
1.1306e-28
2.53453e-30
1.24164e-28
2.34353e-30
1.03202e-28
3.27565e-30
1.45908e-28
3.93183e-30
1.18854e-28
5.05385e-30
1.4696e-28
5.54897e-30
1.356e-28
4.65927e-30
1.3578e-28
6.32334e-30
1.54143e-28
6.66439e-30
1.461e-28
5.34581e-30
1.35265e-28
7.24296e-30
1.61092e-28
6.65159e-30
1.38954e-28
4.95566e-30
1.28635e-28
4.83919e-30
1.27444e-28
3.30787e-30
1.02445e-28
1.17116e-30
6.9133e-29
8.68151e-31
7.32388e-29
2.46989e-32
3.11006e-29
1.7368e-31
1.89255e-29
5.84733e-30
4.21135e-30
4.66294e-29
1.92554e-29
2.67641e-28
2.16681e-29
4.74441e-27
4.43907e-25
8.85564e-25
2.44822e-24
1.33578e-24
4.23704e-24
2.80525e-26
1.92537e-25
3.04318e-27
6.03802e-29
4.57727e-29
1.52494e-28
6.34315e-30
1.43351e-28
8.25764e-31
1.32253e-28
1.76647e-30
1.45e-28
1.58271e-30
1.21732e-28
2.43612e-30
1.7082e-28
2.81771e-30
1.3966e-28
3.84686e-30
1.71838e-28
4.13264e-30
1.57144e-28
3.46969e-30
1.5853e-28
4.97314e-30
1.79509e-28
5.18739e-30
1.6937e-28
4.10168e-30
1.58807e-28
5.93919e-30
1.88224e-28
5.20886e-30
1.62641e-28
3.88465e-30
1.53292e-28
3.87421e-30
1.53015e-28
2.56088e-30
1.25148e-28
8.50288e-31
8.90069e-29
7.86688e-31
9.66965e-29
1.68496e-32
4.74223e-29
1.67885e-31
3.57171e-29
4.40748e-30
1.35248e-29
3.56599e-29
2.66184e-29
1.80806e-28
6.10047e-29
6.04441e-27
6.78515e-25
1.1501e-24
4.80969e-24
1.34585e-24
7.55968e-24
1.55637e-26
3.11145e-25
6.76868e-27
9.87193e-29
5.97331e-29
1.86891e-28
8.48918e-30
1.67417e-28
4.97571e-31
1.51892e-28
1.24764e-30
1.66326e-28
1.06246e-30
1.41356e-28
1.86839e-30
1.96559e-28
2.01194e-30
1.61665e-28
2.97688e-30
1.98012e-28
3.03485e-30
1.80031e-28
2.57645e-30
1.83042e-28
3.96939e-30
2.0643e-28
4.02044e-30
1.94439e-28
3.17061e-30
1.84677e-28
4.9908e-30
2.17303e-28
4.10327e-30
1.88565e-28
3.13267e-30
1.80934e-28
3.25604e-30
1.81841e-28
2.06854e-30
1.52098e-28
6.89765e-31
1.14256e-28
8.66175e-31
1.27661e-28
2.9604e-32
7.26125e-29
1.53366e-31
6.62e-29
2.62328e-30
3.85785e-29
2.44918e-29
5.82334e-29
1.17045e-28
2.63873e-28
7.04551e-27
9.94809e-25
1.59467e-24
8.33565e-24
1.24169e-24
1.21792e-23
6.72497e-27
4.61609e-25
1.36113e-26
1.59498e-28
7.63606e-29
2.19974e-28
1.12429e-29
1.93553e-28
2.96048e-31
1.71893e-28
8.95012e-31
1.87963e-28
7.26211e-31
1.61591e-28
1.46572e-30
2.22773e-28
1.44577e-30
1.84419e-28
2.33174e-30
2.25123e-28
2.2241e-30
2.0384e-28
1.92907e-30
2.09022e-28
3.17473e-30
2.35074e-28
3.1421e-30
2.20977e-28
2.4899e-30
2.12709e-28
4.24465e-30
2.48639e-28
3.28907e-30
2.16877e-28
2.63169e-30
2.11967e-28
2.85113e-30
2.14902e-28
1.80353e-30
1.84094e-28
6.58086e-31
1.46493e-28
1.12455e-30
1.69374e-28
9.75557e-32
1.11624e-28
2.6725e-31
1.20353e-28
1.47285e-30
9.82445e-29
1.92545e-29
1.56806e-28
1.10181e-28
9.79306e-28
7.95752e-27
1.41089e-24
2.29543e-24
1.29863e-23
1.11047e-24
1.82813e-23
3.67577e-27
6.4243e-25
2.54937e-26
2.60373e-28
9.64969e-29
2.48463e-28
1.44928e-29
2.22027e-28
1.72676e-31
1.92097e-28
6.6145e-31
2.09591e-28
5.06776e-31
1.82599e-28
1.1949e-30
2.4901e-28
1.04797e-30
2.07855e-28
1.87972e-30
2.52484e-28
1.62624e-30
2.28467e-28
1.45846e-30
2.36396e-28
2.59772e-30
2.6477e-28
2.4668e-30
2.49273e-28
1.98827e-30
2.4325e-28
3.71057e-30
2.81979e-28
2.68364e-30
2.4812e-28
2.31483e-30
2.47058e-28
2.67572e-30
2.52569e-28
1.71115e-30
2.22846e-28
7.54374e-31
1.88196e-28
1.71033e-30
2.25629e-28
3.55601e-31
1.71624e-28
9.85964e-31
2.13887e-28
2.12769e-30
2.27993e-28
2.92225e-29
4.18919e-28
2.28202e-28
2.84702e-27
8.46244e-27
1.96582e-24
3.55062e-24
1.88107e-23
9.80992e-25
2.57957e-23
9.56576e-27
8.42447e-25
4.47754e-26
4.37766e-28
1.19758e-28
2.71071e-28
1.82858e-29
2.54481e-28
9.24118e-32
2.13559e-28
4.80101e-31
2.32188e-28
3.58307e-31
2.04407e-28
9.86191e-31
2.75553e-28
7.62696e-31
2.31895e-28
1.53581e-30
2.80197e-28
1.18824e-30
2.53801e-28
1.12092e-30
2.64954e-28
2.12936e-30
2.95854e-28
1.97031e-30
2.79042e-28
1.62605e-30
2.7588e-28
3.30015e-30
3.17714e-28
2.25365e-30
2.8263e-28
2.15585e-30
2.8684e-28
2.64679e-30
2.9628e-28
1.81506e-30
2.69784e-28
1.02783e-30
2.41935e-28
2.8715e-30
3.02141e-28
1.19489e-30
2.6323e-28
3.96214e-30
3.71292e-28
8.611e-30
4.86718e-28
8.04473e-29
1.02251e-27
6.69403e-28
6.94545e-27
9.05294e-27
2.72156e-24
5.53257e-24
2.5443e-23
9.88032e-25
3.47888e-23
3.32477e-26
1.05476e-24
7.40722e-26
7.47467e-28
1.51408e-28
2.80699e-28
2.24237e-29
2.90938e-28
4.55248e-32
2.36352e-28
3.38633e-31
2.55975e-28
2.51652e-31
2.27572e-28
8.33216e-31
3.02468e-28
5.48335e-31
2.57076e-28
1.28252e-30
3.082e-28
8.51442e-31
2.80304e-28
8.64633e-31
2.94671e-28
1.79165e-30
3.27921e-28
1.57429e-30
3.10898e-28
1.3549e-30
3.10735e-28
3.05666e-30
3.55545e-28
1.94341e-30
3.2128e-28
2.12266e-30
3.31971e-28
2.83415e-30
3.4693e-28
2.10522e-30
3.27729e-28
1.58299e-30
3.11748e-28
5.22915e-30
4.0505e-28
3.4962e-30
4.0136e-28
1.32859e-29
6.28329e-28
3.37625e-29
9.68537e-28
2.39869e-28
2.2498e-27
1.84371e-27
1.45017e-26
9.35454e-27
3.73649e-24
8.94255e-24
3.27117e-23
1.18272e-24
4.53508e-23
9.54262e-26
1.27612e-24
1.15718e-25
1.3054e-27
1.91957e-28
2.75756e-28
2.66913e-29
3.31286e-28
2.44024e-32
2.60115e-28
2.31976e-31
2.80645e-28
1.84626e-31
2.51714e-28
7.00005e-31
3.30376e-28
3.9156e-31
2.83716e-28
1.05838e-30
3.37167e-28
6.00815e-31
3.07691e-28
6.76253e-31
3.25409e-28
1.50887e-30
3.61378e-28
1.28288e-30
3.44177e-28
1.17063e-30
3.47742e-28
2.88011e-30
3.96268e-28
1.75684e-30
3.6411e-28
2.23298e-30
3.83214e-28
3.20434e-30
4.06315e-28
2.69005e-30
3.98189e-28
2.65069e-30
4.01111e-28
9.37639e-30
5.43705e-28
9.11595e-30
6.03856e-28
3.70069e-29
1.02946e-27
1.04916e-28
1.8001e-27
6.31658e-28
4.48217e-27
4.40247e-27
2.71982e-26
9.83163e-27
5.11569e-24
1.42019e-23
4.02185e-23
1.8701e-24
5.75977e-23
2.02437e-25
1.50644e-24
1.71182e-25
2.29857e-27
2.44423e-28
2.53996e-28
3.04733e-29
3.73344e-28
2.00259e-32
2.83006e-28
1.66519e-31
3.04577e-28
1.47571e-31
2.7622e-28
6.09227e-31
3.57741e-28
2.84504e-31
3.11177e-28
8.92591e-31
3.65775e-28
4.19272e-31
3.3584e-28
5.36636e-31
3.56887e-28
1.30858e-30
3.95337e-28
1.06277e-30
3.79387e-28
1.04394e-30
3.87286e-28
2.811e-30
4.39464e-28
1.66395e-30
4.1204e-28
2.48496e-30
4.41449e-28
3.86367e-30
4.75311e-28
3.65683e-30
4.84479e-28
4.53576e-30
5.1472e-28
1.63007e-29
7.28229e-28
2.11028e-29
8.93983e-28
8.82504e-29
1.63231e-27
2.65837e-28
3.15784e-27
1.42605e-27
8.19465e-27
9.08286e-27
4.61304e-26
1.03073e-26
7.01537e-24
2.2668e-23
4.76171e-23
3.0969e-24
7.12657e-23
3.84517e-25
1.77012e-24
2.4159e-25
4.1379e-27
2.95193e-28
2.23444e-28
3.33836e-29
4.19618e-28
2.69931e-32
3.06647e-28
1.1692e-31
3.28889e-28
1.29685e-31
3.0097e-28
5.31689e-31
3.8495e-28
2.13395e-31
3.39057e-28
7.54888e-31
3.94164e-28
2.93199e-31
3.64368e-28
4.38992e-31
3.88958e-28
1.13489e-30
4.30367e-28
9.16725e-31
4.15896e-28
9.72947e-31
4.28926e-28
2.78696e-30
4.86003e-28
1.67342e-30
4.65093e-28
2.92773e-30
5.07275e-28
4.81648e-30
5.55519e-28
5.26616e-30
5.87541e-28
7.77849e-30
6.57845e-28
2.82068e-29
9.66917e-28
4.43964e-29
1.2952e-27
1.86313e-28
2.49886e-27
5.83529e-28
5.2247e-27
2.8202e-27
1.38332e-26
1.66602e-26
7.2259e-26
1.18375e-26
9.68563e-24
3.4293e-23
5.40296e-23
5.47399e-24
8.53279e-23
6.27561e-25
2.07622e-24
3.2154e-25
7.23254e-27
3.55226e-28
1.81282e-28
3.48545e-29
4.6774e-28
4.81408e-32
3.30079e-28
8.37553e-32
3.53172e-28
1.2567e-31
3.25962e-28
4.8353e-31
4.10982e-28
1.66585e-31
3.67128e-28
6.61338e-31
4.21565e-28
2.01976e-31
3.93737e-28
3.64081e-31
4.21198e-28
1.02268e-30
4.65766e-28
8.04381e-31
4.5465e-28
9.31629e-31
4.72509e-28
2.89259e-30
5.3507e-28
1.7581e-30
5.24494e-28
3.57397e-30
5.80988e-28
6.24867e-30
6.47519e-28
7.61746e-30
7.11895e-28
1.29394e-29
8.3546e-28
4.78045e-29
1.26906e-27
8.44988e-29
1.83458e-27
3.51495e-28
3.68428e-27
1.10834e-27
8.05257e-27
5.0299e-27
2.1755e-26
2.7624e-26
1.05388e-25
1.40907e-26
1.32342e-23
5.09707e-23
5.84744e-23
9.66041e-24
1.01272e-22
9.08092e-25
2.48212e-24
4.06852e-25
1.23345e-26
4.07308e-28
1.3464e-28
3.44567e-29
5.21496e-28
9.44673e-32
3.54339e-28
5.91345e-32
3.77499e-28
1.3415e-31
3.50848e-28
4.39085e-31
4.36831e-28
1.37865e-31
3.95482e-28
5.77468e-31
4.48725e-28
1.40051e-31
4.23146e-28
3.11524e-31
4.53462e-28
9.29448e-31
5.02221e-28
7.32107e-31
4.94442e-28
9.33608e-31
5.17686e-28
3.04761e-30
5.8762e-28
1.94799e-30
5.89089e-28
4.48684e-30
6.62558e-28
8.19818e-30
7.5213e-28
1.10703e-29
8.56828e-28
2.10098e-29
1.04738e-27
7.66745e-29
1.64141e-27
1.48716e-28
2.52055e-27
6.04981e-28
5.19447e-27
1.8857e-27
1.15487e-26
8.25914e-27
3.19459e-26
4.21631e-26
1.45122e-25
1.85273e-26
1.79418e-23
7.31508e-23
6.14609e-23
1.73793e-23
1.19272e-22
1.15164e-24
2.99876e-24
4.88222e-25
2.02005e-26
4.49687e-28
8.93727e-29
3.16028e-29
5.71825e-28
1.685e-31
3.75973e-28
4.74259e-32
3.98867e-28
1.52871e-31
3.74327e-28
4.19555e-31
4.60229e-28
1.22653e-31
4.23189e-28
5.23065e-31
4.73828e-28
9.8999e-32
4.52304e-28
2.73656e-31
4.852e-28
8.78657e-31
5.38341e-28
6.85068e-31
5.35648e-28
9.61594e-31
5.64485e-28
3.31258e-30
6.42138e-28
2.2371e-30
6.59235e-28
5.67577e-30
7.52149e-28
1.08889e-29
8.69152e-28
1.59008e-29
1.02381e-27
3.26381e-29
1.29661e-27
1.17281e-28
2.08426e-27
2.42088e-28
3.3645e-27
9.60827e-28
7.0597e-27
2.95196e-27
1.5963e-26
1.22336e-26
4.37326e-26
5.96708e-26
1.88926e-25
2.54177e-26
2.4004e-23
1.03197e-22
6.23236e-23
2.82503e-23
1.39172e-22
1.3944e-24
3.75796e-24
5.57728e-25
3.23035e-26
4.43145e-28
5.49465e-29
2.66844e-29
6.20995e-28
2.90259e-31
3.98277e-28
3.89153e-32
4.19094e-28
1.78734e-31
3.968e-28
4.04147e-31
4.82721e-28
1.15664e-31
4.50549e-28
4.7324e-31
4.97713e-28
7.33559e-32
4.80631e-28
2.51395e-31
5.16402e-28
8.35144e-31
5.74408e-28
6.79587e-31
5.76864e-28
1.03405e-30
6.12266e-28
3.6174e-30
6.9924e-28
2.67962e-30
7.3369e-28
7.31971e-30
8.48455e-28
1.43588e-29
9.96761e-28
2.27178e-29
1.20732e-27
4.88664e-29
1.57741e-27
1.70654e-28
2.58685e-27
3.69597e-28
4.33394e-27
1.42253e-27
9.1717e-27
4.29555e-27
2.09798e-26
1.65985e-26
5.55957e-26
7.90667e-26
2.32652e-25
3.87247e-26
3.18021e-23
1.37427e-22
6.06095e-23
4.50254e-23
1.58396e-22
1.55865e-24
4.73565e-24
5.98909e-25
4.88085e-26
4.17386e-28
3.01084e-29
2.0749e-29
6.63649e-28
4.76222e-31
4.21274e-28
3.26597e-32
4.38579e-28
2.16897e-31
4.1828e-28
4.01515e-31
5.03088e-28
1.14155e-31
4.77063e-28
4.37583e-31
5.19493e-28
5.54253e-32
5.08541e-28
2.34715e-31
5.46147e-28
8.23106e-31
6.09239e-28
6.90434e-31
6.18648e-28
1.12956e-30
6.5965e-28
4.04941e-30
7.56881e-28
3.25197e-30
8.1266e-28
9.38534e-30
9.49715e-28
1.87855e-29
1.13252e-27
3.13003e-29
1.40762e-27
6.94006e-29
1.88378e-27
2.36574e-28
3.13354e-27
5.25547e-28
5.3978e-27
1.95719e-27
1.1406e-26
5.75725e-27
2.60925e-26
2.11257e-26
6.75186e-26
9.793e-26
2.72283e-25
5.81658e-26
4.12561e-23
1.78369e-22
5.53427e-23
6.80639e-23
1.77706e-22
1.65978e-24
6.03493e-24
6.07279e-25
6.96528e-26
3.84734e-28
1.42326e-29
1.46949e-29
7.00447e-28
7.64679e-31
4.46507e-28
2.71696e-32
4.58017e-28
2.7018e-31
4.39073e-28
4.00411e-31
5.22529e-28
1.15898e-31
5.02442e-28
4.05215e-31
5.39808e-28
4.30553e-32
5.34933e-28
2.22544e-31
5.73766e-28
8.25577e-31
6.42875e-28
7.16432e-31
6.59238e-28
1.25497e-30
7.04848e-28
4.57678e-30
8.14404e-28
3.98219e-30
8.9259e-28
1.18625e-29
1.05238e-27
2.40903e-29
1.27233e-27
4.15714e-29
1.61417e-27
9.40094e-29
2.19802e-27
3.12014e-28
3.692e-27
7.0134e-28
6.47072e-27
2.51742e-27
1.35341e-26
7.16739e-27
3.05638e-26
2.50692e-26
7.73554e-26
1.13094e-25
3.00955e-25
9.28413e-26
5.20286e-23
2.21708e-22
4.77874e-23
9.89029e-23
1.94222e-22
1.72981e-24
7.5947e-24
5.76901e-25
9.262e-26
3.90082e-28
5.26148e-30
9.97491e-30
7.14904e-28
1.05437e-30
4.64082e-28
2.6673e-32
4.69992e-28
3.19026e-31
4.54662e-28
4.19262e-31
5.36429e-28
1.18632e-31
5.22843e-28
3.94602e-31
5.54454e-28
3.57964e-32
5.56733e-28
2.14357e-31
5.96955e-28
8.50952e-31
6.7227e-28
7.49718e-31
6.96574e-28
1.37677e-30
7.46184e-28
5.17654e-30
8.68359e-28
4.79934e-30
9.70199e-28
1.44992e-29
1.15251e-27
2.98316e-29
1.40982e-27
5.22202e-29
1.81898e-27
1.18976e-28
2.50566e-27
3.86343e-28
4.2243e-27
8.65774e-28
7.46039e-27
2.99003e-27
1.52967e-26
8.14372e-27
3.35939e-26
2.69385e-26
8.19184e-26
1.18445e-25
3.06886e-25
1.51895e-25
6.32848e-23
2.64947e-22
3.78093e-23
1.35272e-22
2.13747e-22
1.85055e-24
9.74515e-24
5.1559e-25
1.17296e-25
4.46048e-28
1.3185e-30
7.79578e-30
6.96806e-28
1.15582e-30
4.64337e-28
3.53215e-32
4.66713e-28
3.07563e-31
4.56532e-28
4.68148e-31
5.4111e-28
1.14282e-31
5.3251e-28
4.12469e-31
5.60642e-28
3.64114e-32
5.69717e-28
2.27671e-31
6.13472e-28
8.81742e-31
6.96574e-28
8.24137e-31
7.27766e-28
1.5324e-30
7.81718e-28
5.60521e-30
9.20397e-28
5.71442e-30
1.04256e-27
1.71082e-29
1.24925e-27
3.47576e-29
1.5447e-27
6.17499e-29
2.01511e-27
1.39894e-28
2.79572e-27
4.38637e-28
4.71798e-27
9.80892e-28
8.29408e-27
3.25118e-27
1.65279e-26
8.4372e-27
3.48922e-26
2.62953e-26
8.15085e-26
1.13954e-25
3.04791e-25
2.33624e-25
7.44143e-23
3.02004e-22
2.84703e-23
1.87976e-22
2.35253e-22
2.06057e-24
1.25964e-23
4.43938e-25
1.50955e-25
5.66631e-28
3.76954e-31
9.06241e-30
6.87199e-28
1.36485e-30
4.7795e-28
5.47901e-32
4.72213e-28
2.96941e-31
4.6575e-28
5.89747e-31
5.53525e-28
1.07394e-31
5.52031e-28
5.16696e-31
5.74161e-28
4.50207e-32
5.90021e-28
2.9447e-31
6.36762e-28
1.1072e-30
7.27635e-28
1.05898e-30
7.67178e-28
1.935e-30
8.25468e-28
6.95561e-30
9.81373e-28
7.34451e-30
1.12394e-27
2.15585e-29
1.35252e-27
4.32616e-29
1.68248e-27
7.5699e-29
2.2094e-27
1.68167e-28
3.06514e-27
5.10392e-28
5.13314e-27
1.10673e-27
8.91693e-27
3.50923e-27
1.71613e-26
8.56285e-27
3.47226e-26
2.50534e-26
7.73994e-26
1.08047e-25
3.0583e-25
3.24978e-25
8.71716e-23
3.46358e-22
1.93034e-23
2.80003e-29
1.1538e-30
2.43771e-30
1.9469e-28
1.92409e-29
2.66562e-31
1.32864e-29
5.04884e-30
7.80518e-30
8.64076e-30
7.47781e-30
9.2762e-30
8.52024e-30
1.10177e-29
7.65419e-30
9.02221e-30
9.1926e-30
1.4396e-29
9.23971e-30
1.2331e-29
1.06158e-29
1.60019e-29
1.10997e-29
1.52159e-29
1.03429e-29
1.48498e-29
1.20101e-29
1.75462e-29
1.21112e-29
1.72468e-29
1.05924e-29
1.53516e-29
1.25571e-29
1.87713e-29
1.19735e-29
1.64139e-29
1.01465e-29
1.43813e-29
9.72664e-30
1.40885e-29
7.58817e-30
1.08773e-29
4.30031e-30
5.85897e-30
3.20721e-30
5.4454e-30
9.84836e-31
1.17664e-30
3.3564e-32
9.00197e-32
4.91268e-31
8.77821e-31
1.1542e-29
1.87454e-29
1.3707e-28
4.50591e-29
2.21078e-28
1.94753e-26
4.15271e-26
4.09404e-27
1.62595e-26
1.76911e-27
5.56118e-28
1.97677e-27
3.00843e-30
5.0588e-30
1.94107e-29
1.89391e-29
7.40797e-30
3.27855e-29
7.42466e-30
3.17238e-29
9.55299e-30
3.54254e-29
9.83208e-30
2.67796e-29
1.16256e-29
4.20088e-29
1.34655e-29
3.27948e-29
1.51312e-29
4.3635e-29
1.64635e-29
4.03124e-29
1.53024e-29
3.85045e-29
1.79618e-29
4.54796e-29
1.85388e-29
4.38557e-29
1.63873e-29
3.77646e-29
1.89722e-29
4.74488e-29
1.89072e-29
3.99536e-29
1.56181e-29
3.43547e-29
1.48897e-29
3.38357e-29
1.17742e-29
2.51693e-29
6.71087e-30
1.28815e-29
4.23975e-30
1.32977e-29
1.30912e-30
2.49688e-30
1.28073e-32
2.09756e-31
1.17603e-30
2.33017e-30
2.31864e-29
5.28072e-29
2.4949e-28
2.00291e-28
2.83914e-28
4.09975e-26
2.49948e-25
2.41307e-27
5.37942e-26
3.95168e-27
4.35134e-27
1.73973e-27
3.52252e-29
3.7221e-30
2.46903e-29
3.33276e-29
8.36069e-30
5.01004e-29
9.09476e-30
4.74007e-29
1.17205e-29
5.46384e-29
1.12601e-29
4.452e-29
1.37387e-29
6.54635e-29
1.53976e-29
5.45583e-29
1.72962e-29
6.99905e-29
1.86152e-29
6.59796e-29
1.70856e-29
6.43199e-29
2.03462e-29
7.38591e-29
2.10135e-29
7.17232e-29
1.81556e-29
6.43972e-29
2.13804e-29
7.69639e-29
2.11727e-29
6.62501e-29
1.71535e-29
5.83993e-29
1.63347e-29
5.6476e-29
1.25359e-29
4.34424e-29
6.43147e-30
2.4737e-29
4.01507e-30
2.38503e-29
8.96775e-31
5.96123e-30
7.02254e-34
1.04869e-30
3.73268e-30
1.03033e-30
5.0016e-29
4.64626e-29
4.42984e-28
1.28321e-28
1.16359e-27
7.25484e-26
2.5541e-25
1.50131e-26
2.50246e-25
4.60458e-26
1.80554e-26
6.41224e-27
2.78123e-29
6.61235e-30
1.98664e-29
4.60412e-29
5.97856e-30
6.13779e-29
6.47516e-30
5.77047e-29
8.57993e-30
6.64297e-29
8.18694e-30
5.4861e-29
1.00052e-29
7.91259e-29
1.14232e-29
6.63686e-29
1.28839e-29
8.42173e-29
1.39817e-29
7.93006e-29
1.27153e-29
7.77544e-29
1.52988e-29
8.89949e-29
1.59855e-29
8.5772e-29
1.37176e-29
7.77866e-29
1.61863e-29
9.254e-29
1.61133e-29
7.96303e-29
1.29043e-29
7.09313e-29
1.21439e-29
6.89174e-29
9.20379e-30
5.32824e-29
4.43661e-30
3.16407e-29
2.68578e-30
3.07526e-29
4.53667e-31
8.73561e-30
1.19161e-32
2.23557e-30
4.73397e-30
6.64258e-31
5.31945e-29
3.55879e-29
4.27988e-28
9.18895e-29
1.56887e-27
1.05105e-25
3.77889e-25
7.52482e-26
5.76841e-25
2.55259e-25
3.35081e-26
2.10389e-26
9.15428e-29
1.05506e-29
2.05853e-29
6.37769e-29
4.5867e-30
7.6793e-29
4.17985e-30
7.22792e-29
5.94653e-30
8.11151e-29
5.70964e-30
6.69039e-29
7.10871e-30
9.55057e-29
8.33966e-30
7.93665e-29
9.56918e-30
1.00213e-28
1.03731e-29
9.40426e-29
9.31531e-30
9.24656e-29
1.15388e-29
1.05585e-28
1.20143e-29
1.01513e-28
1.02081e-29
9.22169e-29
1.23143e-29
1.10054e-28
1.20982e-29
9.46759e-29
9.53571e-30
8.50523e-29
9.00444e-30
8.3208e-29
6.59418e-30
6.52053e-29
2.94583e-30
4.01102e-29
1.78354e-30
3.99699e-29
2.03404e-31
1.29172e-29
4.86939e-32
4.59678e-30
5.50144e-30
6.19864e-31
5.395e-29
2.68646e-29
3.9595e-28
5.60265e-29
2.32511e-27
1.68928e-25
5.29851e-25
3.30363e-25
9.24968e-25
8.44611e-25
4.12185e-26
5.24031e-26
3.73243e-28
1.8433e-29
2.60429e-29
8.69494e-29
4.49514e-30
9.50854e-29
2.68207e-30
8.89349e-29
4.20885e-30
9.86529e-29
4.03943e-30
8.14524e-29
5.25552e-30
1.15335e-28
6.23272e-30
9.52048e-29
7.38173e-30
1.19601e-28
7.95101e-30
1.11643e-28
7.04247e-30
1.1027e-28
9.04813e-30
1.25707e-28
9.3687e-30
1.20457e-28
7.81458e-30
1.09945e-28
9.82336e-30
1.31486e-28
9.40982e-30
1.13164e-28
7.297e-30
1.02843e-28
6.96205e-30
1.01389e-28
4.92216e-30
8.05676e-29
2.01186e-30
5.15981e-29
1.29292e-30
5.27855e-29
9.23497e-32
1.94681e-29
9.68387e-32
9.13291e-30
5.73291e-30
1.31505e-30
5.12402e-29
2.13263e-29
3.42419e-28
2.94411e-29
3.46521e-27
2.78815e-25
6.92769e-25
1.02055e-24
1.19622e-24
2.0947e-24
3.82692e-26
1.07674e-25
1.18428e-27
3.36808e-29
3.49413e-29
1.15007e-28
5.33232e-30
1.14939e-28
1.73417e-30
1.06541e-28
3.02976e-30
1.17581e-28
2.85555e-30
9.80551e-29
3.99782e-30
1.37293e-28
4.68783e-30
1.13284e-28
5.81625e-30
1.41161e-28
6.15093e-30
1.31127e-28
5.38545e-30
1.30548e-28
7.28112e-30
1.47917e-28
7.42282e-30
1.41555e-28
6.07088e-30
1.30645e-28
8.09088e-30
1.5548e-28
7.45282e-30
1.3417e-28
5.71749e-30
1.23889e-28
5.59497e-30
1.22555e-28
3.78979e-30
9.91507e-29
1.43023e-30
6.66936e-29
1.0554e-30
6.96523e-29
4.92096e-32
2.94862e-29
1.21961e-31
1.76355e-29
5.12174e-30
4.16381e-30
4.39661e-29
1.98788e-29
2.65387e-28
2.10661e-29
4.72333e-27
4.46793e-25
8.94777e-25
2.45332e-24
1.33343e-24
4.23866e-24
2.80922e-26
1.914e-25
2.989e-27
5.73568e-29
4.64706e-29
1.46912e-28
6.93539e-30
1.36465e-28
1.11535e-30
1.24926e-28
2.18042e-30
1.37645e-28
1.99793e-30
1.1597e-28
3.06735e-30
1.60734e-28
3.507e-30
1.32801e-28
4.59938e-30
1.64393e-28
4.74433e-30
1.51846e-28
4.13175e-30
1.52542e-28
5.86754e-30
1.71923e-28
5.93143e-30
1.64024e-28
4.76041e-30
1.53391e-28
6.75453e-30
1.81589e-28
5.96911e-30
1.57127e-28
4.58041e-30
1.47724e-28
4.58729e-30
1.46847e-28
3.02998e-30
1.20938e-28
1.08239e-30
8.57972e-29
9.79063e-31
9.20114e-29
4.04951e-32
4.50199e-29
1.20956e-31
3.35134e-29
3.74626e-30
1.31068e-29
3.31568e-29
2.7401e-29
1.79308e-28
5.72673e-29
6.03832e-27
6.82439e-25
1.16009e-24
4.81999e-24
1.34334e-24
7.56707e-24
1.55773e-26
3.0991e-25
6.65791e-27
9.37568e-29
6.09494e-29
1.79795e-28
9.12879e-30
1.60084e-28
7.08267e-31
1.44165e-28
1.57928e-30
1.58625e-28
1.37965e-30
1.35254e-28
2.40104e-30
1.85415e-28
2.60419e-30
1.53667e-28
3.68979e-30
1.8893e-28
3.62939e-30
1.73788e-28
3.17456e-30
1.76182e-28
4.80247e-30
1.97365e-28
4.74341e-30
1.88086e-28
3.77291e-30
1.7831e-28
5.78386e-30
2.09604e-28
4.82187e-30
1.82255e-28
3.77313e-30
1.74525e-28
3.93482e-30
1.74365e-28
2.52744e-30
1.46833e-28
9.10326e-31
1.10127e-28
1.08727e-30
1.21752e-28
6.54189e-32
6.91412e-29
1.31134e-31
6.25436e-29
2.18103e-30
3.71405e-29
2.27406e-29
5.83656e-29
1.17093e-28
2.5199e-28
7.05067e-27
9.99638e-25
1.60638e-24
8.35763e-24
1.23925e-24
1.21952e-23
6.65662e-27
4.60378e-25
1.34066e-26
1.5171e-28
7.83103e-29
2.11193e-28
1.19184e-29
1.85711e-28
4.49872e-31
1.64016e-28
1.15796e-30
1.80237e-28
9.62726e-31
1.55446e-28
1.90422e-30
2.11093e-28
1.93478e-30
1.75594e-28
2.98433e-30
2.1461e-28
2.77936e-30
1.96639e-28
2.46631e-30
2.01268e-28
3.94425e-30
2.24502e-28
3.83838e-30
2.13452e-28
3.04871e-30
2.05291e-28
5.02362e-30
2.39809e-28
3.97338e-30
2.09653e-28
3.23731e-30
2.04681e-28
3.50856e-30
2.06066e-28
2.26797e-30
1.77606e-28
8.89766e-31
1.41292e-28
1.40671e-30
1.62024e-28
1.74399e-31
1.06651e-28
3.02599e-31
1.14411e-28
1.30381e-30
9.45431e-29
1.84858e-29
1.54311e-28
1.12631e-28
9.53828e-28
7.98173e-27
1.41661e-24
2.30812e-24
1.3021e-23
1.11091e-24
1.83159e-23
3.46867e-27
6.41527e-25
2.51638e-26
2.48376e-28
9.9607e-29
2.37924e-28
1.51799e-29
2.13327e-28
2.90298e-31
1.84042e-28
8.76379e-31
2.01965e-28
6.83707e-31
1.76546e-28
1.55849e-30
2.37267e-28
1.44157e-30
1.98547e-28
2.46849e-30
2.40868e-28
2.12724e-30
2.20389e-28
1.93726e-30
2.2777e-28
3.30925e-30
2.5277e-28
3.12666e-30
2.4048e-28
2.51197e-30
2.34692e-28
4.48775e-30
2.71957e-28
3.34081e-30
2.39846e-28
2.9069e-30
2.38796e-28
3.3375e-30
2.42322e-28
2.20054e-30
2.14971e-28
1.02531e-30
1.81759e-28
2.10644e-30
2.16579e-28
5.35851e-31
1.64618e-28
1.19943e-30
2.04671e-28
2.29826e-30
2.20119e-28
2.98414e-29
4.10246e-28
2.36477e-28
2.80316e-27
8.4878e-27
1.9725e-24
3.57221e-24
1.88693e-23
9.84275e-25
2.58551e-23
8.96826e-27
8.42062e-25
4.42964e-26
4.19162e-28
1.24262e-28
2.59013e-28
1.89299e-29
2.4444e-28
1.84174e-31
2.05139e-28
6.6197e-31
2.24667e-28
4.93321e-31
1.98544e-28
1.29097e-30
2.64272e-28
1.07316e-30
2.22546e-28
2.05769e-30
2.67965e-28
1.6295e-30
2.44963e-28
1.54952e-30
2.55498e-28
2.78434e-30
2.82493e-28
2.59726e-30
2.68875e-28
2.12763e-30
2.66135e-28
4.08209e-30
3.06493e-28
2.89672e-30
2.73133e-28
2.7614e-30
2.77476e-28
3.33594e-30
2.84532e-28
2.36468e-30
2.60286e-28
1.38037e-30
2.34081e-28
3.45252e-30
2.91067e-28
1.60181e-30
2.53563e-28
4.6402e-30
3.57537e-28
9.68754e-30
4.7217e-28
8.41842e-29
1.00244e-27
6.92427e-28
6.89018e-27
9.08688e-27
2.731e-24
5.56496e-24
2.55276e-23
9.96696e-25
3.48855e-23
3.17016e-26
1.05496e-24
7.34607e-26
7.19161e-28
1.58069e-28
2.67602e-28
2.29679e-29
2.78735e-28
1.19357e-31
2.26974e-28
5.06304e-31
2.48093e-28
3.60729e-31
2.2161e-28
1.10593e-30
2.91566e-28
7.97702e-31
2.47646e-28
1.75739e-30
2.9545e-28
1.23819e-30
2.70652e-28
1.2545e-30
2.84278e-28
2.4078e-30
3.13205e-28
2.17195e-30
2.99277e-28
1.84564e-30
2.99787e-28
3.85966e-30
3.43122e-28
2.5825e-30
3.10416e-28
2.76756e-30
3.21344e-28
3.58809e-30
3.33587e-28
2.75004e-30
3.16352e-28
2.07499e-30
3.02065e-28
6.06229e-30
3.9177e-28
4.33379e-30
3.88287e-28
1.49258e-29
6.08655e-28
3.70088e-29
9.44344e-28
2.50237e-28
2.21285e-27
1.89714e-27
1.44338e-26
9.38895e-27
3.74838e-24
8.99935e-24
3.28358e-23
1.19945e-24
4.5507e-23
9.20699e-26
1.27693e-24
1.14998e-25
1.26294e-27
2.0111e-28
2.62524e-28
2.70887e-29
3.1659e-28
8.56093e-32
2.49381e-28
3.90488e-31
2.71946e-28
2.79225e-31
2.45301e-28
9.54846e-31
3.1931e-28
6.01357e-31
2.73708e-28
1.50548e-30
3.23517e-28
9.45571e-31
2.97033e-28
1.04049e-30
3.13995e-28
2.09503e-30
3.45384e-28
1.85933e-30
3.31106e-28
1.66327e-30
3.35565e-28
3.70932e-30
3.82603e-28
2.40952e-30
3.51716e-28
2.94852e-30
3.71123e-28
4.05869e-30
3.91173e-28
3.48831e-30
3.84604e-28
3.3764e-30
3.89307e-28
1.06611e-29
5.27485e-28
1.07312e-29
5.86205e-28
4.04338e-29
1.002e-27
1.12462e-28
1.76108e-27
6.54802e-28
4.42292e-27
4.51081e-27
2.71467e-26
9.85716e-27
5.13035e-24
1.4294e-23
4.03919e-23
1.90768e-24
5.78363e-23
1.96253e-25
1.50767e-24
1.70469e-25
2.23733e-27
2.56426e-28
2.41619e-28
3.07353e-29
3.56272e-28
7.66232e-32
2.70868e-28
3.22019e-31
2.94919e-28
2.35066e-31
2.69226e-28
8.60722e-31
3.46341e-28
4.67049e-31
3.00433e-28
1.32668e-30
3.51206e-28
7.2772e-31
3.24203e-28
8.8222e-31
3.44525e-28
1.87845e-30
3.78302e-28
1.62034e-30
3.64983e-28
1.54633e-30
3.73851e-28
3.68951e-30
4.24512e-28
2.34566e-30
3.97996e-28
3.30419e-30
4.27704e-28
4.87306e-30
4.58211e-28
4.68203e-30
4.68507e-28
5.62677e-30
5.00752e-28
1.85243e-29
7.07889e-28
2.39955e-29
8.7059e-28
9.46336e-29
1.59462e-27
2.80087e-28
3.10295e-27
1.47176e-27
8.10865e-27
9.27517e-27
4.60988e-26
1.03011e-26
7.03398e-24
2.28367e-23
4.78535e-23
3.15535e-24
7.15825e-23
3.75599e-25
1.77193e-24
2.41121e-25
4.0583e-27
3.0849e-28
2.12741e-28
3.35292e-29
4.00802e-28
8.34614e-32
2.93312e-28
2.68754e-31
3.18424e-28
2.15408e-31
2.93486e-28
7.82019e-31
3.73556e-28
3.75533e-31
3.27918e-28
1.17262e-30
3.79123e-28
5.70137e-31
3.51967e-28
7.72906e-31
3.75823e-28
1.68867e-30
4.12551e-28
1.46648e-30
4.00308e-28
1.49755e-30
4.14181e-28
3.72642e-30
4.69687e-28
2.40864e-30
4.49281e-28
3.89657e-30
4.91694e-28
6.03563e-30
5.36434e-28
6.65679e-30
5.68631e-28
9.41141e-30
6.40613e-28
3.15467e-29
9.42315e-28
4.92356e-29
1.26464e-27