/*--------------------------------*- C++ -*----------------------------------*\
| =========                 |                                                 |
| \\      /  F ield         | OpenFOAM: The Open Source CFD Toolbox           |
|  \\    /   O peration     | Version:  2312                                  |
|   \\  /    A nd           | Website:  www.openfoam.com                      |
|    \\/     M anipulation  |                                                 |
\*---------------------------------------------------------------------------*/
FoamFile
{
    version     2.0;
    format      ascii;
    arch        "LSB;label=32;scalar=64";
    class       volScalarField;
    location    "900";
    object      pPrime2Mean;
}
// * * * * * * * * * * * * * * * * * * * * * * * * * * * * * * * * * * * * * //

dimensions      [0 4 -4 0 0 0 0];

internalField   nonuniform List<scalar> 
144000
(
5.45951e-18
4.74724e-18
6.06373e-18
6.92824e-18
5.15098e-18
3.37577e-18
2.62912e-18
2.3029e-18
2.10631e-18
1.95807e-18
1.85084e-18
1.68451e-18
1.56285e-18
1.44118e-18
1.36823e-18
1.28895e-18
1.26248e-18
1.18553e-18
1.15946e-18
1.10613e-18
1.08374e-18
1.02386e-18
1.01417e-18
9.64228e-19
9.68617e-19
9.16656e-19
9.27849e-19
8.8181e-19
8.79157e-19
8.49314e-19
8.43431e-19
8.17613e-19
8.17893e-19
7.79318e-19
7.95303e-19
7.54547e-19
7.61047e-19
7.45643e-19
7.27893e-19
7.20297e-19
7.26201e-19
6.79028e-19
7.25315e-19
6.76401e-19
6.79485e-19
7.00553e-19
6.42799e-19
6.69908e-19
7.1414e-19
5.7764e-19
7.74137e-19
6.66858e-19
6.25244e-19
9.53013e-19
6.57374e-19
8.43132e-19
1.64962e-18
1.02232e-18
2.58373e-18
5.47088e-18
5.74085e-18
4.83666e-18
6.21419e-18
7.0441e-18
5.20046e-18
3.39837e-18
2.64289e-18
2.3123e-18
2.11211e-18
1.96233e-18
1.85422e-18
1.6869e-18
1.56425e-18
1.44243e-18
1.36901e-18
1.28963e-18
1.26326e-18
1.18614e-18
1.15982e-18
1.10671e-18
1.08409e-18
1.02424e-18
1.01433e-18
9.64598e-19
9.6889e-19
9.16884e-19
9.28074e-19
8.82202e-19
8.79137e-19
8.4976e-19
8.43474e-19
8.17901e-19
8.18186e-19
7.79338e-19
7.95659e-19
7.54848e-19
7.6096e-19
7.46403e-19
7.27799e-19
7.20619e-19
7.26971e-19
6.78836e-19
7.26143e-19
6.77269e-19
6.79227e-19
7.02542e-19
6.43182e-19
6.70475e-19
7.17929e-19
5.77141e-19
7.78156e-19
6.7256e-19
6.25587e-19
9.65456e-19
6.68144e-19
8.49783e-19
1.68949e-18
1.06698e-18
2.68858e-18
5.53331e-18
5.96337e-18
4.90512e-18
6.23285e-18
7.09444e-18
5.18975e-18
3.38649e-18
2.64043e-18
2.31398e-18
2.11428e-18
1.96484e-18
1.85686e-18
1.68878e-18
1.56546e-18
1.44342e-18
1.36976e-18
1.29012e-18
1.26439e-18
1.18671e-18
1.16032e-18
1.10734e-18
1.08465e-18
1.02455e-18
1.01469e-18
9.64858e-19
9.69466e-19
9.16966e-19
9.28605e-19
8.82585e-19
8.79234e-19
8.50272e-19
8.43634e-19
8.18184e-19
8.1878e-19
7.79222e-19
7.96357e-19
7.55163e-19
7.60983e-19
7.47469e-19
7.27829e-19
7.20996e-19
7.2837e-19
6.78371e-19
7.27705e-19
6.78444e-19
6.79151e-19
7.05548e-19
6.43991e-19
6.71382e-19
7.23657e-19
5.7686e-19
7.83491e-19
6.81457e-19
6.26095e-19
9.80506e-19
6.84867e-19
8.50873e-19
1.72457e-18
1.12229e-18
2.78204e-18
5.61576e-18
5.98041e-18
4.76402e-18
6.03029e-18
6.96498e-18
5.07618e-18
3.31511e-18
2.60576e-18
2.2975e-18
2.10634e-18
1.96087e-18
1.855e-18
1.68759e-18
1.56461e-18
1.44295e-18
1.36941e-18
1.28981e-18
1.26509e-18
1.18687e-18
1.16049e-18
1.10779e-18
1.08505e-18
1.02473e-18
1.01491e-18
9.65012e-19
9.7003e-19
9.16967e-19
9.2919e-19
8.82969e-19
8.79257e-19
8.50866e-19
8.43766e-19
8.18494e-19
8.19524e-19
7.79046e-19
7.97187e-19
7.55534e-19
7.60984e-19
7.48792e-19
7.27906e-19
7.21413e-19
7.30172e-19
6.77734e-19
7.29698e-19
6.7989e-19
6.79144e-19
7.09147e-19
6.45115e-19
6.7233e-19
7.3026e-19
5.77163e-19
7.87899e-19
6.92867e-19
6.24903e-19
9.92186e-19
7.05866e-19
8.34121e-19
1.74611e-18
1.15918e-18
2.75944e-18
5.56195e-18
5.78639e-18
4.38149e-18
5.63093e-18
6.63492e-18
4.86026e-18
3.18715e-18
2.53968e-18
2.26232e-18
2.08606e-18
1.94771e-18
1.84622e-18
1.68151e-18
1.5603e-18
1.43996e-18
1.36712e-18
1.28808e-18
1.26469e-18
1.18613e-18
1.15989e-18
1.1077e-18
1.08498e-18
1.0246e-18
1.01477e-18
9.64925e-19
9.70384e-19
9.16813e-19
9.29667e-19
8.83276e-19
8.7912e-19
8.51452e-19
8.43786e-19
8.18776e-19
8.20315e-19
7.78819e-19
7.98003e-19
7.55957e-19
7.60899e-19
7.50271e-19
7.28014e-19
7.21806e-19
7.32165e-19
6.77013e-19
7.31821e-19
6.81522e-19
6.79137e-19
7.12907e-19
6.46452e-19
6.73024e-19
7.36977e-19
5.77842e-19
7.90468e-19
7.05259e-19
6.21742e-19
9.98273e-19
7.28736e-19
7.99594e-19
1.75893e-18
1.16953e-18
2.64022e-18
5.36701e-18
5.49582e-18
3.91132e-18
5.1467e-18
6.2048e-18
4.5972e-18
3.03101e-18
2.45393e-18
2.21429e-18
2.05605e-18
1.92644e-18
1.83052e-18
1.67035e-18
1.55213e-18
1.43402e-18
1.36256e-18
1.28459e-18
1.26279e-18
1.1842e-18
1.15827e-18
1.10679e-18
1.08418e-18
1.02402e-18
1.01411e-18
9.6444e-19
9.70389e-19
9.16404e-19
9.29907e-19
8.83403e-19
8.78764e-19
8.51928e-19
8.43649e-19
8.18962e-19
8.21058e-19
7.78541e-19
7.98679e-19
7.56398e-19
7.60692e-19
7.51781e-19
7.28134e-19
7.22108e-19
7.34173e-19
6.76244e-19
7.33856e-19
6.83239e-19
6.7902e-19
7.16555e-19
6.47798e-19
6.73313e-19
7.43222e-19
5.78502e-19
7.91414e-19
7.16753e-19
6.17706e-19
9.9865e-19
7.51276e-19
7.55722e-19
1.76701e-18
1.16024e-18
2.51416e-18
5.15077e-18
5.21598e-18
3.53156e-18
4.68165e-18
5.75567e-18
4.32251e-18
2.86616e-18
2.35939e-18
2.15845e-18
2.01924e-18
1.89898e-18
1.80943e-18
1.65482e-18
1.54049e-18
1.42533e-18
1.35581e-18
1.27936e-18
1.25931e-18
1.18101e-18
1.15554e-18
1.10494e-18
1.08253e-18
1.0229e-18
1.01283e-18
9.63475e-19
9.69949e-19
9.15685e-19
9.29803e-19
8.83281e-19
8.78137e-19
8.52214e-19
8.43303e-19
8.18998e-19
8.21661e-19
7.782e-19
7.99126e-19
7.56811e-19
7.60331e-19
7.53217e-19
7.28232e-19
7.2227e-19
7.3604e-19
6.75467e-19
7.35622e-19
6.8493e-19
6.78758e-19
7.1984e-19
6.49006e-19
6.7319e-19
7.48652e-19
5.78968e-19
7.91217e-19
7.26188e-19
6.14061e-19
9.9406e-19
7.71824e-19
7.10563e-19
1.76946e-18
1.13448e-18
2.44416e-18
5.01243e-18
4.98942e-18
3.35248e-18
4.27426e-18
5.33103e-18
4.05181e-18
2.70234e-18
2.26051e-18
2.09763e-18
1.97783e-18
1.86738e-18
1.78438e-18
1.63602e-18
1.52611e-18
1.41434e-18
1.34713e-18
1.27255e-18
1.25435e-18
1.17666e-18
1.15178e-18
1.10217e-18
1.08002e-18
1.02121e-18
1.01092e-18
9.62003e-19
9.69027e-19
9.14651e-19
9.2929e-19
8.82882e-19
8.77204e-19
8.52263e-19
8.42717e-19
8.18857e-19
8.22053e-19
7.77795e-19
7.99287e-19
7.57153e-19
7.59812e-19
7.54481e-19
7.28285e-19
7.22273e-19
7.3765e-19
6.7471e-19
7.37021e-19
6.86485e-19
6.78385e-19
7.22623e-19
6.50025e-19
6.72717e-19
7.53093e-19
5.79194e-19
7.90329e-19
7.33113e-19
6.11457e-19
9.85617e-19
7.89893e-19
6.67556e-19
1.76498e-18
1.09658e-18
2.44494e-18
4.99966e-18
4.83864e-18
3.43041e-18
3.93378e-18
4.95385e-18
3.79039e-18
2.54272e-18
2.15977e-18
2.03349e-18
1.93322e-18
1.8328e-18
1.75652e-18
1.61487e-18
1.50967e-18
1.40154e-18
1.33679e-18
1.26437e-18
1.24806e-18
1.17134e-18
1.14714e-18
1.09859e-18
1.07673e-18
1.01899e-18
1.00843e-18
9.60048e-19
9.67622e-19
9.1334e-19
9.28346e-19
8.82218e-19
8.75979e-19
8.52061e-19
8.41886e-19
8.18538e-19
8.22193e-19
7.77339e-19
7.99145e-19
7.57394e-19
7.59149e-19
7.55524e-19
7.2828e-19
7.22131e-19
7.38938e-19
6.74011e-19
7.38048e-19
6.87838e-19
6.77963e-19
7.24859e-19
6.50852e-19
6.72035e-19
7.56587e-19
5.79222e-19
7.89131e-19
7.37686e-19
6.1006e-19
9.74679e-19
8.0543e-19
6.28665e-19
1.75431e-18
1.05416e-18
2.51259e-18
5.11709e-18
4.7763e-18
3.76129e-18
3.66227e-18
4.6325e-18
3.54386e-18
2.38916e-18
2.05898e-18
1.96732e-18
1.88652e-18
1.79619e-18
1.72666e-18
1.59209e-18
1.49177e-18
1.38735e-18
1.32513e-18
1.25507e-18
1.24063e-18
1.16521e-18
1.14178e-18
1.09434e-18
1.07279e-18
1.01631e-18
1.00546e-18
9.57665e-19
9.65759e-19
9.11819e-19
9.26985e-19
8.81325e-19
8.74501e-19
8.51619e-19
8.40835e-19
8.18058e-19
8.2207e-19
7.76851e-19
7.98721e-19
7.57523e-19
7.58377e-19
7.56336e-19
7.28225e-19
7.21875e-19
7.39901e-19
6.734e-19
7.38747e-19
6.88985e-19
6.77547e-19
7.26625e-19
6.51534e-19
6.71226e-19
7.5931e-19
5.79102e-19
7.87809e-19
7.40378e-19
6.0968e-19
9.62225e-19
8.18378e-19
5.95317e-19
1.73622e-18
1.01475e-18
2.62986e-18
5.32698e-18
4.80116e-18
4.27351e-18
3.46102e-18
4.36759e-18
3.31731e-18
2.24331e-18
1.95989e-18
1.90023e-18
1.83867e-18
1.7583e-18
1.69536e-18
1.56814e-18
1.4729e-18
1.37223e-18
1.31253e-18
1.24489e-18
1.23222e-18
1.15842e-18
1.13584e-18
1.08956e-18
1.06837e-18
1.01326e-18
1.00209e-18
9.54939e-19
9.63468e-19
9.10156e-19
9.25242e-19
8.80248e-19
8.72827e-19
8.50969e-19
8.39597e-19
8.17444e-19
8.21697e-19
7.76348e-19
7.98057e-19
7.5755e-19
7.57531e-19
7.56929e-19
7.28132e-19
7.21533e-19
7.40575e-19
6.72898e-19
7.39165e-19
6.89971e-19
6.77139e-19
7.28005e-19
6.5214e-19
6.70266e-19
7.61451e-19
5.78895e-19
7.86243e-19
7.41742e-19
6.09855e-19
9.48718e-19
8.28578e-19
5.67186e-19
1.70828e-18
9.82246e-19
2.76691e-18
5.55938e-18
4.88939e-18
4.83202e-18
3.32689e-18
4.14406e-18
3.11555e-18
2.10667e-18
1.86415e-18
1.8333e-18
1.79058e-18
1.71979e-18
1.6631e-18
1.5434e-18
1.45344e-18
1.35659e-18
1.29935e-18
1.23412e-18
1.22302e-18
1.1511e-18
1.12945e-18
1.08437e-18
1.06359e-18
1.00996e-18
9.98433e-19
9.51969e-19
9.60792e-19
9.08404e-19
9.23166e-19
8.79024e-19
8.7102e-19
8.50154e-19
8.38213e-19
8.16726e-19
8.21099e-19
7.75843e-19
7.97189e-19
7.57492e-19
7.56636e-19
7.57322e-19
7.2802e-19
7.21118e-19
7.40994e-19
6.7252e-19
7.39291e-19
6.90855e-19
6.76696e-19
7.29015e-19
6.52736e-19
6.69037e-19
7.6306e-19
5.78659e-19
7.84045e-19
7.42206e-19
6.09982e-19
9.34151e-19
8.35594e-19
5.4347e-19
1.66797e-18
9.58332e-19
2.88253e-18
5.72665e-18
5.00212e-18
5.29694e-18
3.24904e-18
3.94148e-18
2.94118e-18
1.98042e-18
1.77314e-18
1.76745e-18
1.74299e-18
1.68129e-18
1.6303e-18
1.51817e-18
1.43368e-18
1.34073e-18
1.2859e-18
1.22303e-18
1.21323e-18
1.1434e-18
1.12269e-18
1.07885e-18
1.05857e-18
1.00649e-18
9.94583e-19
9.48864e-19
9.57782e-19
9.06606e-19
9.20807e-19
8.77677e-19
8.69129e-19
8.49214e-19
8.36726e-19
8.15928e-19
8.2031e-19
7.75351e-19
7.96142e-19
7.57369e-19
7.55705e-19
7.57528e-19
7.27907e-19
7.20617e-19
7.41169e-19
6.72274e-19
7.3909e-19
6.91666e-19
6.76164e-19
7.29592e-19
6.53358e-19
6.67419e-19
7.64016e-19
5.78476e-19
7.80741e-19
7.41916e-19
6.09541e-19
9.18405e-19
8.38759e-19
5.23589e-19
1.61412e-18
9.42475e-19
2.93738e-18
5.75435e-18
5.08808e-18
5.56168e-18
3.20671e-18
3.73945e-18
2.79326e-18
1.86548e-18
1.68801e-18
1.70348e-18
1.69651e-18
1.64342e-18
1.59741e-18
1.49274e-18
1.41384e-18
1.32489e-18
1.27245e-18
1.2119e-18
1.20309e-18
1.13544e-18
1.11567e-18
1.07307e-18
1.05339e-18
1.00292e-18
9.90619e-19
9.45716e-19
9.54506e-19
9.04808e-19
9.18211e-19
8.7622e-19
8.67196e-19
8.48181e-19
8.3517e-19
8.1508e-19
8.1936e-19
7.74876e-19
7.9493e-19
7.57188e-19
7.5475e-19
7.57536e-19
7.27801e-19
7.20026e-19
7.41084e-19
6.72168e-19
7.38495e-19
6.92394e-19
6.75506e-19
7.29649e-19
6.53983e-19
6.65348e-19
7.64129e-19
5.78421e-19
7.76005e-19
7.4091e-19
6.08207e-19
9.01451e-19
8.37673e-19
5.07324e-19
1.54813e-18
9.32742e-19
2.90736e-18
5.60481e-18
5.10225e-18
5.56841e-18
3.17362e-18
3.52369e-18
2.66858e-18
1.76255e-18
1.60954e-18
1.64202e-18
1.6516e-18
1.60668e-18
1.5649e-18
1.46741e-18
1.39411e-18
1.30922e-18
1.25918e-18
1.20092e-18
1.19278e-18
1.12736e-18
1.1085e-18
1.0671e-18
1.04809e-18
9.99324e-19
9.86601e-19
9.42604e-19
9.51039e-19
9.03035e-19
9.15434e-19
8.74661e-19
8.65254e-19
8.47072e-19
8.33566e-19
8.14208e-19
8.18272e-19
7.74431e-19
7.9357e-19
7.56948e-19
7.53774e-19
7.57339e-19
7.27696e-19
7.19356e-19
7.40717e-19
6.72212e-19
7.3748e-19
6.93005e-19
6.74723e-19
7.29137e-19
6.54553e-19
6.62878e-19
7.63254e-19
5.78577e-19
7.69755e-19
7.39229e-19
6.05867e-19
8.8357e-19
8.32323e-19
4.94783e-19
1.4727e-18
9.26726e-19
2.78471e-18
5.27989e-18
5.01398e-18
5.31795e-18
3.12489e-18
3.28852e-18
2.56137e-18
1.6721e-18
1.53824e-18
1.58352e-18
1.60846e-18
1.5714e-18
1.53313e-18
1.44244e-18
1.37461e-18
1.2938e-18
1.24618e-18
1.19025e-18
1.18247e-18
1.11931e-18
1.10127e-18
1.06102e-18
1.04273e-18
9.95734e-19
9.82569e-19
9.39584e-19
9.47449e-19
9.01314e-19
9.12529e-19
8.73009e-19
8.63327e-19
8.45902e-19
8.31928e-19
8.13341e-19
8.17072e-19
7.74025e-19
7.92085e-19
7.56646e-19
7.52791e-19
7.56942e-19
7.27577e-19
7.18637e-19
7.40052e-19
6.72413e-19
7.36067e-19
6.9347e-19
6.73838e-19
7.28082e-19
6.55005e-19
6.60156e-19
7.61343e-19
5.79019e-19
7.62126e-19
7.36972e-19
6.0261e-19
8.65302e-19
8.23143e-19
4.86221e-19
1.39151e-18
9.21854e-19
2.57925e-18
4.81281e-18
4.80757e-18
4.85552e-18
3.0389e-18
3.03649e-18
2.465e-18
1.59419e-18
1.47422e-18
1.52827e-18
1.56715e-18
1.53779e-18
1.50242e-18
1.41807e-18
1.35549e-18
1.27872e-18
1.23354e-18
1.17996e-18
1.17227e-18
1.11138e-18
1.09409e-18
1.05488e-18
1.03732e-18
9.92183e-19
9.78547e-19
9.36686e-19
9.43795e-19
8.99666e-19
9.09555e-19
8.7128e-19
8.61436e-19
8.44684e-19
8.30265e-19
8.12503e-19
8.15778e-19
7.73669e-19
7.9051e-19
7.56281e-19
7.51814e-19
7.56366e-19
7.27423e-19
7.17913e-19
7.39097e-19
6.72772e-19
7.34319e-19
6.93778e-19
6.72888e-19
7.2658e-19
6.55285e-19
6.57355e-19
7.58464e-19
5.79805e-19
7.53429e-19
7.34314e-19
5.98644e-19
8.473e-19
8.10899e-19
4.81901e-19
1.30835e-18
9.15928e-19
2.31212e-18
4.258e-18
4.49025e-18
4.25332e-18
2.90371e-18
2.77571e-18
2.37329e-18
1.52842e-18
1.41736e-18
1.47648e-18
1.52763e-18
1.50587e-18
1.47297e-18
1.39449e-18
1.33684e-18
1.26402e-18
1.22127e-18
1.17009e-18
1.16228e-18
1.10366e-18
1.08703e-18
1.04877e-18
1.03191e-18
9.88694e-19
9.74551e-19
9.33925e-19
9.40126e-19
8.98104e-19
9.06563e-19
8.69494e-19
8.59599e-19
8.43434e-19
8.28577e-19
8.11714e-19
8.14411e-19
7.73368e-19
7.88887e-19
7.55864e-19
7.50852e-19
7.55651e-19
7.27219e-19
7.17224e-19
7.37884e-19
6.73285e-19
7.32324e-19
6.93942e-19
6.71908e-19
7.24768e-19
6.55363e-19
6.54653e-19
7.54752e-19
5.80965e-19
7.44032e-19
7.31441e-19
5.9425e-19
8.30152e-19
7.96505e-19
4.81754e-19
1.22659e-18
9.07454e-19
2.01266e-18
3.67044e-18
4.08415e-18
3.59284e-18
2.71666e-18
2.51646e-18
2.28132e-18
1.47396e-18
1.36739e-18
1.42824e-18
1.4898e-18
1.47561e-18
1.44489e-18
1.37184e-18
1.31876e-18
1.24974e-18
1.20936e-18
1.16066e-18
1.15255e-18
1.09618e-18
1.08017e-18
1.04274e-18
1.02652e-18
9.85288e-19
9.70595e-19
9.31298e-19
9.36481e-19
8.9663e-19
9.03597e-19
8.67675e-19
8.57832e-19
8.42172e-19
8.26869e-19
8.10985e-19
8.12992e-19
7.73126e-19
7.87253e-19
7.55407e-19
7.49917e-19
7.54846e-19
7.26954e-19
7.16608e-19
7.3646e-19
6.7394e-19
7.30174e-19
6.93993e-19
6.70925e-19
7.22793e-19
6.5523e-19
6.52186e-19
7.50401e-19
5.825e-19
7.34298e-19
7.28531e-19
5.89701e-19
8.14312e-19
7.80872e-19
4.85416e-19
1.14873e-18
8.95615e-19
1.7109e-18
3.09884e-18
3.62315e-18
2.94384e-18
2.48489e-18
2.26841e-18
2.18588e-18
1.42957e-18
1.32389e-18
1.38357e-18
1.45358e-18
1.44688e-18
1.41822e-18
1.3502e-18
1.3013e-18
1.23589e-18
1.19782e-18
1.15165e-18
1.1431e-18
1.08896e-18
1.07352e-18
1.03684e-18
1.02118e-18
9.81982e-19
9.66688e-19
9.28798e-19
9.32888e-19
8.95241e-19
9.00688e-19
8.65848e-19
8.56144e-19
8.40916e-19
8.25146e-19
8.10324e-19
8.11541e-19
7.72943e-19
7.85638e-19
7.5493e-19
7.49014e-19
7.53998e-19
7.26627e-19
7.16087e-19
7.34877e-19
6.74725e-19
7.27946e-19
6.93968e-19
6.69961e-19
7.20784e-19
6.54896e-19
6.50048e-19
7.45606e-19
5.84382e-19
7.24562e-19
7.25711e-19
5.85255e-19
8.00036e-19
7.64769e-19
4.9226e-19
1.07649e-18
8.80195e-19
1.43283e-18
2.57803e-18
3.14191e-18
2.35658e-18
2.22139e-18
2.03985e-18
2.08566e-18
1.39373e-18
1.28642e-18
1.34242e-18
1.41886e-18
1.4195e-18
1.39291e-18
1.32961e-18
1.28447e-18
1.22247e-18
1.18663e-18
1.14303e-18
1.13394e-18
1.08202e-18
1.06712e-18
1.03111e-18
1.01591e-18
9.78784e-19
9.62839e-19
9.26413e-19
9.29366e-19
8.9393e-19
8.97859e-19
8.64033e-19
8.54544e-19
8.39686e-19
8.23416e-19
8.09732e-19
8.1008e-19
7.72816e-19
7.84064e-19
7.54448e-19
7.48147e-19
7.53148e-19
7.26242e-19
7.15674e-19
7.33185e-19
6.75623e-19
7.25703e-19
6.93901e-19
6.69034e-19
7.18845e-19
6.54383e-19
6.48288e-19
7.40552e-19
5.86558e-19
7.15092e-19
7.23061e-19
5.81115e-19
7.87379e-19
7.4882e-19
5.01502e-19
1.01073e-18
8.61637e-19
1.19585e-18
2.12742e-18
2.67506e-18
1.86092e-18
1.9445e-18
1.83443e-18
1.98116e-18
1.36476e-18
1.25447e-18
1.30466e-18
1.38558e-18
1.39332e-18
1.36889e-18
1.31007e-18
1.26831e-18
1.20947e-18
1.17578e-18
1.13478e-18
1.12509e-18
1.07535e-18
1.06095e-18
1.02557e-18
1.01074e-18
9.75703e-19
9.59063e-19
9.24127e-19
9.25931e-19
8.92686e-19
8.95123e-19
8.62248e-19
8.53035e-19
8.38496e-19
8.21687e-19
8.09207e-19
8.08625e-19
7.72743e-19
7.82546e-19
7.53978e-19
7.4732e-19
7.52328e-19
7.25809e-19
7.15374e-19
7.3143e-19
6.76617e-19
7.23494e-19
6.93819e-19
6.68157e-19
7.17047e-19
6.53723e-19
6.46917e-19
7.35401e-19
5.88957e-19
7.06091e-19
7.20607e-19
5.77442e-19
7.76279e-19
7.33486e-19
5.12308e-19
9.51813e-19
8.40652e-19
1.01038e-18
1.75321e-18
2.25216e-18
1.46985e-18
1.67442e-18
1.65364e-18
1.87431e-18
1.34109e-18
1.22756e-18
1.27017e-18
1.35375e-18
1.36819e-18
1.34607e-18
1.29155e-18
1.2528e-18
1.1969e-18
1.16525e-18
1.12685e-18
1.11652e-18
1.06895e-18
1.05504e-18
1.02022e-18
1.00568e-18
9.72742e-19
9.55365e-19
9.21928e-19
9.22592e-19
8.91502e-19
8.92484e-19
8.60507e-19
8.5162e-19
8.37357e-19
8.19968e-19
8.08744e-19
8.07188e-19
7.7272e-19
7.81093e-19
7.53526e-19
7.46536e-19
7.5156e-19
7.25336e-19
7.15185e-19
7.29651e-19
6.77693e-19
7.21355e-19
6.93738e-19
6.67345e-19
7.15433e-19
6.52954e-19
6.45924e-19
7.30286e-19
5.91506e-19
6.97709e-19
7.18325e-19
5.74345e-19
7.66579e-19
7.19086e-19
5.23927e-19
8.99688e-19
8.17927e-19
8.79746e-19
1.45302e-18
1.89679e-18
1.18042e-18
1.43106e-18
1.49659e-18
1.76782e-18
1.32144e-18
1.20527e-18
1.23884e-18
1.32338e-18
1.344e-18
1.32432e-18
1.27401e-18
1.23792e-18
1.18474e-18
1.15503e-18
1.11923e-18
1.10822e-18
1.06281e-18
1.04935e-18
1.01506e-18
1.00072e-18
9.699e-19
9.51753e-19
9.19801e-19
9.19355e-19
8.90368e-19
8.89943e-19
8.58819e-19
8.50302e-19
8.36275e-19
8.18268e-19
8.08336e-19
8.05778e-19
7.72745e-19
7.79707e-19
7.53101e-19
7.45796e-19
7.50856e-19
7.24836e-19
7.15101e-19
7.27879e-19
6.78834e-19
7.19311e-19
6.93661e-19
6.66609e-19
7.14022e-19
6.52112e-19
6.45278e-19
7.25312e-19
5.9413e-19
6.90063e-19
7.16167e-19
5.71897e-19
7.58097e-19
7.05819e-19
5.35722e-19
8.54118e-19
7.93909e-19
8.01843e-19
1.21766e-18
1.62486e-18
9.77743e-19
1.23088e-18
1.36096e-18
1.66428e-18
1.30474e-18
1.1872e-18
1.21052e-18
1.29449e-18
1.32065e-18
1.30356e-18
1.2574e-18
1.22366e-18
1.17295e-18
1.1451e-18
1.11186e-18
1.10018e-18
1.05691e-18
1.04389e-18
1.01009e-18
9.95886e-19
9.67174e-19
9.48228e-19
9.17736e-19
9.16219e-19
8.89275e-19
8.87493e-19
8.57193e-19
8.4908e-19
8.35253e-19
8.16592e-19
8.07978e-19
8.04404e-19
7.72818e-19
7.78392e-19
7.52701e-19
7.45104e-19
7.50223e-19
7.24317e-19
7.15116e-19
7.2614e-19
6.80027e-19
7.17384e-19
6.93589e-19
6.65964e-19
7.12822e-19
6.51233e-19
6.44941e-19
7.20562e-19
5.96759e-19
6.83216e-19
7.14083e-19
5.70129e-19
7.50653e-19
6.93825e-19
5.47177e-19
8.14755e-19
7.69042e-19
7.69993e-19
1.03419e-18
5.48378e-18
4.76055e-18
6.07309e-18
6.93897e-18
5.15929e-18
3.37912e-18
2.63093e-18
2.30467e-18
2.10814e-18
1.95939e-18
1.85169e-18
1.68507e-18
1.56314e-18
1.44124e-18
1.36811e-18
1.28874e-18
1.26236e-18
1.18562e-18
1.15964e-18
1.10634e-18
1.08396e-18
1.02411e-18
1.01441e-18
9.64384e-19
9.68775e-19
9.16711e-19
9.27943e-19
8.81892e-19
8.79235e-19
8.49314e-19
8.43426e-19
8.17526e-19
8.17791e-19
7.79136e-19
7.95131e-19
7.54375e-19
7.60922e-19
7.45498e-19
7.27781e-19
7.20189e-19
7.26149e-19
6.78906e-19
7.25331e-19
6.7623e-19
6.79378e-19
7.00405e-19
6.42585e-19
6.69712e-19
7.14214e-19
5.77195e-19
7.7459e-19
6.66782e-19
6.25223e-19
9.54151e-19
6.58633e-19
8.4272e-19
1.6568e-18
1.02367e-18
2.5839e-18
5.49656e-18
5.7668e-18
4.85e-18
6.2227e-18
7.05534e-18
5.20853e-18
3.40161e-18
2.64462e-18
2.31407e-18
2.11391e-18
1.96362e-18
1.85505e-18
1.68744e-18
1.56453e-18
1.44246e-18
1.36888e-18
1.2894e-18
1.26313e-18
1.18622e-18
1.16e-18
1.10692e-18
1.08431e-18
1.02449e-18
1.01457e-18
9.6475e-19
9.69046e-19
9.16936e-19
9.28171e-19
8.82288e-19
8.79219e-19
8.49762e-19
8.43471e-19
8.17814e-19
8.18086e-19
7.79158e-19
7.95487e-19
7.54676e-19
7.60835e-19
7.46257e-19
7.27688e-19
7.20512e-19
7.26922e-19
6.78712e-19
7.2616e-19
6.77096e-19
6.79118e-19
7.02397e-19
6.42965e-19
6.70277e-19
7.18011e-19
5.76683e-19
7.78614e-19
6.72505e-19
6.25544e-19
9.66616e-19
6.69458e-19
8.49331e-19
1.69682e-18
1.06873e-18
2.68897e-18
5.55902e-18
5.98814e-18
4.92334e-18
6.24096e-18
7.10665e-18
5.19751e-18
3.38936e-18
2.64209e-18
2.31559e-18
2.11608e-18
1.96611e-18
1.85766e-18
1.68927e-18
1.56571e-18
1.44342e-18
1.3696e-18
1.28985e-18
1.26424e-18
1.18678e-18
1.16049e-18
1.10754e-18
1.08487e-18
1.0248e-18
1.01493e-18
9.65005e-19
9.69622e-19
9.17013e-19
9.28704e-19
8.82676e-19
8.79323e-19
8.50277e-19
8.43636e-19
8.18098e-19
8.18682e-19
7.79043e-19
7.96187e-19
7.54991e-19
7.60858e-19
7.47323e-19
7.27719e-19
7.20891e-19
7.28325e-19
6.78245e-19
7.27728e-19
6.78268e-19
6.79041e-19
7.05405e-19
6.43771e-19
6.71177e-19
7.23746e-19
5.76388e-19
7.83957e-19
6.81418e-19
6.26023e-19
9.81725e-19
6.8623e-19
8.50371e-19
1.73215e-18
1.12451e-18
2.78206e-18
5.6455e-18
6.00309e-18
4.78664e-18
6.03838e-18
6.97755e-18
5.08345e-18
3.31739e-18
2.60736e-18
2.29925e-18
2.10816e-18
1.96214e-18
1.85576e-18
1.68803e-18
1.56481e-18
1.44291e-18
1.36921e-18
1.2895e-18
1.2649e-18
1.18692e-18
1.16065e-18
1.10796e-18
1.08526e-18
1.02497e-18
1.01516e-18
9.65153e-19
9.70184e-19
9.17005e-19
9.29288e-19
8.83066e-19
8.79356e-19
8.50876e-19
8.43774e-19
8.18408e-19
8.19428e-19
7.78869e-19
7.97019e-19
7.55361e-19
7.60859e-19
7.48644e-19
7.27796e-19
7.2131e-19
7.30134e-19
6.77606e-19
7.29727e-19
6.7971e-19
6.79032e-19
7.09005e-19
6.44891e-19
6.72122e-19
7.30351e-19
5.7669e-19
7.8836e-19
6.92848e-19
6.24809e-19
9.93412e-19
7.07236e-19
8.33526e-19
1.75356e-18
1.16175e-18
2.76025e-18
5.59454e-18
5.80841e-18
4.40662e-18
5.63586e-18
6.64581e-18
4.86683e-18
3.18894e-18
2.54094e-18
2.26414e-18
2.08799e-18
1.94898e-18
1.84693e-18
1.68188e-18
1.56044e-18
1.43986e-18
1.36687e-18
1.28771e-18
1.26445e-18
1.18615e-18
1.16004e-18
1.10785e-18
1.08517e-18
1.02484e-18
1.01501e-18
9.65061e-19
9.70536e-19
9.1684e-19
9.29761e-19
8.83379e-19
8.7923e-19
8.51469e-19
8.43802e-19
8.18692e-19
8.20222e-19
7.78644e-19
7.97839e-19
7.55784e-19
7.60776e-19
7.5012e-19
7.27902e-19
7.21705e-19
7.32135e-19
6.76885e-19
7.31855e-19
6.81342e-19
6.79023e-19
7.12766e-19
6.46228e-19
6.72807e-19
7.37063e-19
5.77386e-19
7.90903e-19
7.05257e-19
6.21675e-19
9.99427e-19
7.30147e-19
7.98781e-19
1.76591e-18
1.1725e-18
2.64207e-18
5.39937e-18
5.51691e-18
3.93318e-18
5.1518e-18
6.21391e-18
4.60241e-18
3.032e-18
2.45503e-18
2.21621e-18
2.05808e-18
1.92776e-18
1.8312e-18
1.67063e-18
1.5522e-18
1.43386e-18
1.36225e-18
1.28415e-18
1.26249e-18
1.18418e-18
1.1584e-18
1.10692e-18
1.08435e-18
1.02425e-18
1.01435e-18
9.64572e-19
9.70536e-19
9.16419e-19
9.29991e-19
8.83509e-19
8.78885e-19
8.51952e-19
8.43672e-19
8.1888e-19
8.20966e-19
7.78367e-19
7.98519e-19
7.56226e-19
7.60572e-19
7.51628e-19
7.28019e-19
7.22008e-19
7.34151e-19
6.76121e-19
7.33899e-19
6.8306e-19
6.78901e-19
7.16416e-19
6.47576e-19
6.73093e-19
7.43299e-19
5.78067e-19
7.9182e-19
7.16762e-19
6.17657e-19
9.99727e-19
7.52716e-19
7.55285e-19
1.77341e-18
1.16366e-18
2.5173e-18
5.18055e-18
5.23618e-18
3.54965e-18
4.68529e-18
5.76235e-18
4.32653e-18
2.86671e-18
2.36042e-18
2.1605e-18
2.02143e-18
1.90036e-18
1.81003e-18
1.65503e-18
1.54049e-18
1.42511e-18
1.35546e-18
1.27886e-18
1.25895e-18
1.18094e-18
1.15564e-18
1.10505e-18
1.08268e-18
1.02312e-18
1.01308e-18
9.63603e-19
9.70092e-19
9.15687e-19
9.29874e-19
8.83389e-19
8.78267e-19
8.52247e-19
8.43333e-19
8.18919e-19
8.2157e-19
7.78027e-19
7.98971e-19
7.56641e-19
7.60214e-19
7.53061e-19
7.28114e-19
7.22171e-19
7.36028e-19
6.7535e-19
7.35673e-19
6.84755e-19
6.78635e-19
7.19703e-19
6.48791e-19
6.72972e-19
7.48717e-19
5.78557e-19
7.9158e-19
7.26199e-19
6.14022e-19
9.95043e-19
7.73244e-19
7.10269e-19
1.77527e-18
1.13809e-18
2.44861e-18
5.03869e-18
5.00823e-18
3.36665e-18
4.27642e-18
5.33605e-18
4.05505e-18
2.70255e-18
2.26143e-18
2.09978e-18
1.98013e-18
1.86877e-18
1.78495e-18
1.63617e-18
1.52604e-18
1.41407e-18
1.34673e-18
1.27199e-18
1.25393e-18
1.17655e-18
1.15185e-18
1.10224e-18
1.08014e-18
1.02141e-18
1.01117e-18
9.62129e-19
9.69164e-19
9.1464e-19
9.29345e-19
8.82988e-19
8.77344e-19
8.52306e-19
8.42755e-19
8.18783e-19
8.21963e-19
7.77624e-19
7.99136e-19
7.56984e-19
7.59698e-19
7.54322e-19
7.28161e-19
7.22175e-19
7.37647e-19
6.74603e-19
7.3708e-19
6.86318e-19
6.78259e-19
7.22489e-19
6.49813e-19
6.725e-19
7.53143e-19
5.78808e-19
7.9065e-19
7.33133e-19
6.11417e-19
9.86521e-19
7.91256e-19
6.67418e-19
1.77007e-18
1.10018e-18
2.45037e-18
5.02241e-18
4.8561e-18
3.44123e-18
3.93482e-18
4.95774e-18
3.79305e-18
2.5427e-18
2.16065e-18
2.03573e-18
1.93561e-18
1.83421e-18
1.75709e-18
1.61498e-18
1.50956e-18
1.40123e-18
1.33635e-18
1.26377e-18
1.24759e-18
1.17118e-18
1.14718e-18
1.09863e-18
1.07682e-18
1.01918e-18
1.00869e-18
9.60173e-19
9.67754e-19
9.13317e-19
9.28384e-19
8.8232e-19
8.76126e-19
8.52114e-19
8.41933e-19
8.18468e-19
8.22105e-19
7.77171e-19
7.98998e-19
7.57228e-19
7.59037e-19
7.55365e-19
7.28152e-19
7.22034e-19
7.38941e-19
6.73914e-19
7.38113e-19
6.8768e-19
6.77835e-19
7.24728e-19
6.50643e-19
6.71821e-19
7.56617e-19
5.7886e-19
7.89408e-19
7.37707e-19
6.10001e-19
9.75515e-19
8.06709e-19
6.28705e-19
1.75887e-18
1.05758e-18
2.51874e-18
5.13654e-18
4.79257e-18
3.76964e-18
3.66243e-18
4.63549e-18
3.54601e-18
2.38898e-18
2.0598e-18
1.9696e-18
1.88897e-18
1.79765e-18
1.72722e-18
1.59216e-18
1.49162e-18
1.387e-18
1.32467e-18
1.25443e-18
1.24011e-18
1.16501e-18
1.14179e-18
1.09435e-18
1.07286e-18
1.01648e-18
1.00571e-18
9.5779e-19
9.65885e-19
9.11785e-19
9.27005e-19
8.81421e-19
8.74654e-19
8.51682e-19
8.4089e-19
8.17993e-19
8.21983e-19
7.76685e-19
7.98578e-19
7.57361e-19
7.58268e-19
7.56176e-19
7.28092e-19
7.21778e-19
7.3991e-19
6.73314e-19
7.38821e-19
6.88838e-19
6.77417e-19
7.26497e-19
6.51327e-19
6.71013e-19
7.59322e-19
5.78762e-19
7.88043e-19
7.40398e-19
6.096e-19
9.62999e-19
8.19547e-19
5.95432e-19
1.74024e-18
1.01791e-18
2.63649e-18
5.34395e-18
4.81651e-18
4.2801e-18
3.46049e-18
4.36984e-18
3.319e-18
2.24298e-18
1.96064e-18
1.90252e-18
1.84118e-18
1.7598e-18
1.69593e-18
1.56818e-18
1.47272e-18
1.37186e-18
1.31205e-18
1.24423e-18
1.23166e-18
1.15818e-18
1.13583e-18
1.08954e-18
1.06841e-18
1.01343e-18
1.00234e-18
9.55064e-19
9.6359e-19
9.10112e-19
9.25245e-19
8.80336e-19
8.72983e-19
8.51041e-19
8.39659e-19
8.17385e-19
8.21612e-19
7.76185e-19
7.97916e-19
7.57391e-19
7.57424e-19
7.5677e-19
7.27994e-19
7.21435e-19
7.40589e-19
6.72824e-19
7.39245e-19
6.89837e-19
6.77008e-19
7.27881e-19
6.51935e-19
6.70056e-19
7.61446e-19
5.78575e-19
7.86435e-19
7.41763e-19
6.09752e-19
9.49441e-19
8.29626e-19
5.67357e-19
1.71186e-18
9.85135e-19
2.77377e-18
5.57436e-18
4.90395e-18
4.8377e-18
3.32588e-18
4.14575e-18
3.11683e-18
2.10623e-18
1.86481e-18
1.8356e-18
1.79314e-18
1.72132e-18
1.66367e-18
1.54341e-18
1.45324e-18
1.3562e-18
1.29885e-18
1.23344e-18
1.22242e-18
1.15082e-18
1.12941e-18
1.08433e-18
1.06361e-18
1.0101e-18
9.98674e-19
9.52095e-19
9.60907e-19
9.08351e-19
9.23153e-19
8.79103e-19
8.71176e-19
8.50233e-19
8.38282e-19
8.16673e-19
8.21017e-19
7.75682e-19
7.97051e-19
7.57337e-19
7.56531e-19
7.57163e-19
7.27878e-19
7.21019e-19
7.41012e-19
6.72456e-19
7.39376e-19
6.90734e-19
6.76565e-19
7.28894e-19
6.52532e-19
6.6883e-19
7.63038e-19
5.78357e-19
7.84197e-19
7.42225e-19
6.0985e-19
9.34817e-19
8.36526e-19
5.43684e-19
1.67109e-18
9.60979e-19
2.88933e-18
5.74024e-18
5.01606e-18
5.30232e-18
3.24777e-18
3.94272e-18
2.94207e-18
1.9799e-18
1.77372e-18
1.76972e-18
1.74558e-18
1.68284e-18
1.63087e-18
1.51816e-18
1.43347e-18
1.34034e-18
1.2854e-18
1.22234e-18
1.21261e-18
1.14309e-18
1.12263e-18
1.0788e-18
1.05856e-18
1.00661e-18
9.94817e-19
9.4899e-19
9.57893e-19
9.06547e-19
9.20778e-19
8.77747e-19
8.69285e-19
8.49301e-19
8.36802e-19
8.15882e-19
8.2023e-19
7.75192e-19
7.96006e-19
7.57218e-19
7.55602e-19
7.5737e-19
7.27762e-19
7.20517e-19
7.41189e-19
6.7222e-19
7.3918e-19
6.91559e-19
6.76031e-19
7.29473e-19
6.53156e-19
6.67213e-19
7.63976e-19
5.78189e-19
7.8085e-19
7.4193e-19
6.0938e-19
9.19009e-19
8.39576e-19
5.23816e-19
1.61687e-18
9.44907e-19
2.9439e-18
5.76692e-18
5.10162e-18
5.56708e-18
3.20543e-18
3.7403e-18
2.79383e-18
1.86491e-18
1.6885e-18
1.70571e-18
1.6991e-18
1.64499e-18
1.59798e-18
1.49272e-18
1.41362e-18
1.32449e-18
1.27195e-18
1.2112e-18
1.20245e-18
1.13511e-18
1.11559e-18
1.073e-18
1.05336e-18
1.00303e-18
9.90847e-19
9.45842e-19
9.54613e-19
9.04743e-19
9.18169e-19
8.76281e-19
8.67349e-19
8.48273e-19
8.35252e-19
8.15039e-19
8.19282e-19
7.74721e-19
7.94795e-19
7.57041e-19
7.54648e-19
7.5738e-19
7.27653e-19
7.19924e-19
7.41106e-19
6.72125e-19
7.38588e-19
6.923e-19
6.75373e-19
7.29532e-19
6.5378e-19
6.65141e-19
7.64073e-19
5.78148e-19
7.76075e-19
7.40916e-19
6.08017e-19
9.01993e-19
8.38388e-19
5.07546e-19
1.55053e-18
9.34943e-19
2.91356e-18
5.61652e-18
5.11543e-18
5.57383e-18
3.17256e-18
3.5242e-18
2.66883e-18
1.76194e-18
1.60996e-18
1.64419e-18
1.65417e-18
1.60824e-18
1.56546e-18
1.46738e-18
1.39387e-18
1.30881e-18
1.25867e-18
1.20022e-18
1.19213e-18
1.12701e-18
1.1084e-18
1.06702e-18
1.04805e-18
9.99422e-19
9.86821e-19
9.42729e-19
9.5114e-19
9.02964e-19
9.15378e-19
8.74711e-19
8.65403e-19
8.4717e-19
8.33654e-19
8.14174e-19
8.18198e-19
7.74279e-19
7.93435e-19
7.56803e-19
7.53672e-19
7.57185e-19
7.27547e-19
7.19253e-19
7.4074e-19
6.72178e-19
7.37575e-19
6.92924e-19
6.7459e-19
7.29021e-19
6.54352e-19
6.6267e-19
7.63181e-19
5.78315e-19
7.69787e-19
7.3922e-19
6.05653e-19
8.84046e-19
8.32954e-19
4.94975e-19
1.47481e-18
9.28698e-19
2.79048e-18
5.29078e-18
5.02668e-18
5.3233e-18
3.12414e-18
3.28869e-18
2.56134e-18
1.67148e-18
1.53859e-18
1.5856e-18
1.61099e-18
1.57295e-18
1.53368e-18
1.4424e-18
1.37436e-18
1.2934e-18
1.24568e-18
1.18955e-18
1.1818e-18
1.11894e-18
1.10116e-18
1.06092e-18
1.04267e-18
9.9582e-19
9.8278e-19
9.39708e-19
9.47544e-19
9.01238e-19
9.12463e-19
8.7305e-19
8.63471e-19
8.46004e-19
8.32021e-19
8.13314e-19
8.17001e-19
7.73877e-19
7.9195e-19
7.56503e-19
7.52689e-19
7.56789e-19
7.27427e-19
7.18533e-19
7.40073e-19
6.72387e-19
7.36163e-19
6.934e-19
6.73706e-19