/*--------------------------------*- C++ -*----------------------------------*\
| =========                 |                                                 |
| \\      /  F ield         | OpenFOAM: The Open Source CFD Toolbox           |
|  \\    /   O peration     | Version:  2312                                  |
|   \\  /    A nd           | Website:  www.openfoam.com                      |
|    \\/     M anipulation  |                                                 |
\*---------------------------------------------------------------------------*/
FoamFile
{
    version     2.0;
    format      ascii;
    arch        "LSB;label=32;scalar=64";
    class       volScalarField;
    location    "300";
    object      p;
}
// * * * * * * * * * * * * * * * * * * * * * * * * * * * * * * * * * * * * * //

dimensions      [0 2 -2 0 0 0 0];

internalField   nonuniform List<scalar> 
144000
(
1.60703e-09
1.2889e-09
3.70857e-10
-1.59873e-10
-2.73283e-11
2.55002e-10
5.34902e-10
6.86782e-10
8.18725e-10
8.55105e-10
9.17911e-10
9.13887e-10
9.55098e-10
9.37042e-10
9.72378e-10
9.50491e-10
9.77735e-10
9.4632e-10
9.73788e-10
9.47711e-10
9.74822e-10
9.41187e-10
9.69021e-10
9.38161e-10
9.67597e-10
9.36726e-10
9.66739e-10
9.33293e-10
9.64599e-10
9.34025e-10
9.67467e-10
9.36878e-10
9.68236e-10
9.30684e-10
9.60974e-10
9.29162e-10
9.57603e-10
9.25809e-10
9.53037e-10
9.17191e-10
9.4567e-10
9.12178e-10
9.40312e-10
9.0876e-10
9.25654e-10
8.90071e-10
9.0364e-10
8.82427e-10
8.90037e-10
8.76186e-10
8.7733e-10
8.77067e-10
8.54305e-10
8.60706e-10
7.89018e-10
8.28711e-10
7.26444e-10
6.0223e-10
-5.76636e-10
4.48573e-10
1.65082e-09
1.31171e-09
3.59538e-10
-1.69073e-10
-3.1086e-11
2.54662e-10
5.34742e-10
6.8674e-10
8.18328e-10
8.54776e-10
9.17417e-10
9.13626e-10
9.54677e-10
9.36886e-10
9.72049e-10
9.50449e-10
9.77444e-10
9.46285e-10
9.73503e-10
9.47751e-10
9.74605e-10
9.41204e-10
9.68799e-10
9.3824e-10
9.67404e-10
9.36814e-10
9.66541e-10
9.33379e-10
9.64392e-10
9.34147e-10
9.67298e-10
9.37021e-10
9.68068e-10
9.30821e-10
9.60754e-10
9.29386e-10
9.57418e-10
9.26012e-10
9.52895e-10
9.17353e-10
9.45555e-10
9.12383e-10
9.40221e-10
9.09053e-10
9.2554e-10
8.90341e-10
9.03534e-10
8.82782e-10
8.90039e-10
8.76491e-10
8.77519e-10
8.77405e-10
8.54715e-10
8.6092e-10
7.89647e-10
8.28851e-10
7.32685e-10
6.13598e-10
-6.06307e-10
4.21485e-10
1.70593e-09
1.32922e-09
3.45472e-10
-1.77993e-10
-3.53563e-11
2.54156e-10
5.34818e-10
6.86658e-10
8.1817e-10
8.54254e-10
9.1698e-10
9.13096e-10
9.54329e-10
9.36439e-10
9.71786e-10
9.50194e-10
9.77311e-10
9.46044e-10
9.73287e-10
9.47584e-10
9.74549e-10
9.41e-10
9.68701e-10
9.38119e-10
9.67365e-10
9.36696e-10
9.66525e-10
9.33261e-10
9.64342e-10
9.34072e-10
9.67308e-10
9.36962e-10
9.68137e-10
9.30764e-10
9.60687e-10
9.29461e-10
9.57411e-10
9.26048e-10
9.52988e-10
9.1732e-10
9.45667e-10
9.12394e-10
9.40356e-10
9.09222e-10
9.25703e-10
8.90516e-10
9.03603e-10
8.8307e-10
8.90283e-10
8.76698e-10
8.77904e-10
8.77627e-10
8.5541e-10
8.61161e-10
7.90508e-10
8.27594e-10
7.39302e-10
6.37766e-10
-6.51034e-10
3.92432e-10
1.76709e-09
1.33169e-09
3.3079e-10
-1.83031e-10
-4.03124e-11
2.53533e-10
5.35157e-10
6.86855e-10
8.18291e-10
8.53738e-10
9.16477e-10
9.12404e-10
9.53906e-10
9.3588e-10
9.71436e-10
9.4986e-10
9.77198e-10
9.4573e-10
9.72985e-10
9.47342e-10
9.74513e-10
9.40723e-10
9.68572e-10
9.37936e-10
9.67336e-10
9.36527e-10
9.66551e-10
9.33089e-10
9.64297e-10
9.33943e-10
9.67349e-10
9.36861e-10
9.68299e-10
9.30666e-10
9.60616e-10
9.29517e-10
9.57448e-10
9.26055e-10
9.53186e-10
9.17216e-10
9.45871e-10
9.1232e-10
9.40614e-10
9.09368e-10
9.26075e-10
8.90653e-10
9.03792e-10
8.83282e-10
8.90783e-10
8.76725e-10
8.78639e-10
8.77528e-10
8.56783e-10
8.60778e-10
7.92261e-10
8.23854e-10
7.49885e-10
6.70008e-10
-7.07486e-10
3.70729e-10
1.82635e-09
1.30242e-09
3.17146e-10
-1.76303e-10
-4.3297e-11
2.52986e-10
5.35735e-10
6.87439e-10
8.18711e-10
8.53254e-10
9.15793e-10
9.11503e-10
9.53287e-10
9.35145e-10
9.7089e-10
9.49432e-10
9.7702e-10
9.45348e-10
9.7252e-10
9.47033e-10
9.74434e-10
9.40403e-10
9.68346e-10
9.37715e-10
9.67261e-10
9.36345e-10
9.66564e-10
9.32904e-10
9.64194e-10
9.33791e-10
9.67365e-10
9.3676e-10
9.68499e-10
9.30573e-10
9.60483e-10
9.29581e-10
9.5748e-10
9.26069e-10
9.53441e-10
9.17079e-10
9.46112e-10
9.12188e-10
9.40953e-10
9.09512e-10
9.26631e-10
8.90751e-10
9.04083e-10
8.83358e-10
8.91566e-10
8.76462e-10
8.79794e-10
8.76907e-10
8.59045e-10
8.59373e-10
7.95464e-10
8.16898e-10
7.65654e-10
7.05164e-10
-7.73009e-10
3.71801e-10
1.88216e-09
1.22261e-09
3.02264e-10
-1.50215e-10
-4.12199e-11
2.52714e-10
5.36475e-10
6.8848e-10
8.19495e-10
8.52823e-10
9.14885e-10
9.1034e-10
9.52405e-10
9.34188e-10
9.70096e-10
9.48852e-10
9.76728e-10
9.44873e-10
9.71864e-10
9.46624e-10
9.7428e-10
9.40034e-10
9.68001e-10
9.37443e-10
9.67121e-10
9.36145e-10
9.66548e-10
9.32708e-10
9.64017e-10
9.33611e-10
9.6734e-10
9.36656e-10
9.68714e-10
9.30493e-10
9.60276e-10
9.29638e-10
9.57499e-10
9.26084e-10
9.53738e-10
9.16911e-10
9.46376e-10
9.11987e-10
9.41364e-10
9.09627e-10
9.27369e-10
8.90781e-10
9.04497e-10
8.83211e-10
8.92673e-10
8.75794e-10
8.81453e-10
8.75555e-10
8.62408e-10
8.56548e-10
8.0068e-10
8.06098e-10
7.87387e-10
7.39403e-10
-8.48392e-10
4.12138e-10
1.93986e-09
1.07736e-09
2.79879e-10
-9.88218e-11
-2.96126e-11
2.52902e-10
5.37184e-10
6.9002e-10
8.20717e-10
8.52493e-10
9.13747e-10
9.08894e-10
9.51227e-10
9.3299e-10
9.69023e-10
9.48087e-10
9.76282e-10
9.44291e-10
9.71004e-10
9.46091e-10
9.74021e-10
9.39611e-10
9.67524e-10
9.37105e-10
9.66901e-10
9.35923e-10
9.66484e-10
9.325e-10
9.63759e-10
9.33393e-10
9.67263e-10
9.36543e-10
9.68924e-10
9.30429e-10
9.59989e-10
9.29673e-10
9.57496e-10
9.26089e-10
9.54066e-10
9.16705e-10
9.46656e-10
9.11703e-10
9.41845e-10
9.09683e-10
9.28288e-10
8.90706e-10
9.05071e-10
8.82754e-10
8.94151e-10
8.74607e-10
8.83755e-10
8.73261e-10
8.67081e-10
8.51963e-10
8.08389e-10
7.91123e-10
8.15327e-10
7.70895e-10
-9.37368e-10
5.03518e-10
2.00826e-09
8.5822e-10
2.41903e-10
-1.84887e-11
-5.29703e-12
2.53816e-10
5.37557e-10
6.92046e-10
8.22426e-10
8.52306e-10
9.12387e-10
9.07165e-10
9.49733e-10
9.31546e-10
9.67656e-10
9.47116e-10
9.75645e-10
9.43595e-10
9.69936e-10
9.45418e-10
9.73628e-10
9.39134e-10
9.66906e-10
9.36693e-10
9.66587e-10
9.35677e-10
9.66354e-10
9.32281e-10
9.63409e-10
9.33135e-10
9.67121e-10
9.36419e-10
9.69102e-10
9.30382e-10
9.59621e-10
9.29671e-10
9.57464e-10
9.26076e-10
9.54409e-10
9.16457e-10
9.46948e-10
9.11324e-10
9.42396e-10
9.09649e-10
9.29384e-10
8.90488e-10
9.05842e-10
8.81909e-10
8.96043e-10
8.728e-10
8.86785e-10
8.69862e-10
8.73206e-10
8.45432e-10
8.18834e-10
7.72111e-10
8.48756e-10
7.99633e-10
-1.04373e-09
6.50835e-10
2.09787e-09
5.63545e-10
1.79355e-10
9.16621e-11
3.52606e-11
2.55946e-10
5.37224e-10
6.9447e-10
8.24641e-10
8.52295e-10
9.10809e-10
9.05159e-10
9.47912e-10
9.29857e-10
9.65992e-10
9.4593e-10
9.74788e-10
9.42782e-10
9.68661e-10
9.44602e-10
9.73077e-10
9.38603e-10
9.66141e-10
9.36207e-10
9.66165e-10
9.35408e-10
9.66143e-10
9.32051e-10
9.62965e-10
9.32838e-10
9.66904e-10
9.36286e-10
9.69225e-10
9.30354e-10
9.59175e-10
9.29623e-10
9.57395e-10
9.26038e-10
9.54755e-10
9.16162e-10
9.47251e-10
9.10839e-10
9.43016e-10
9.09496e-10
9.30652e-10
8.90092e-10
9.06847e-10
8.80617e-10
8.98377e-10
8.70305e-10
8.90591e-10
8.65286e-10
8.80806e-10
8.36976e-10
8.3193e-10
7.49752e-10
8.8624e-10
8.26811e-10
-1.17041e-09
8.52938e-10
2.21637e-09
1.98596e-10
8.49903e-11
2.29786e-10
9.45595e-11
2.59928e-10
5.35785e-10
6.97118e-10
8.27342e-10
8.52477e-10
9.09023e-10
9.02883e-10
9.45761e-10
9.27929e-10
9.64031e-10
9.44527e-10
9.73689e-10
9.4185e-10
9.67189e-10
9.43642e-10
9.72346e-10
9.38021e-10
9.65232e-10
9.35646e-10
9.65626e-10
9.35117e-10
9.65837e-10
9.31812e-10
9.62425e-10
9.32503e-10
9.66604e-10
9.36142e-10
9.69276e-10
9.30341e-10
9.58657e-10
9.2952e-10
9.57284e-10
9.25968e-10
9.55094e-10
9.15811e-10
9.47568e-10
9.10244e-10
9.43705e-10
9.09203e-10
9.3208e-10
8.89492e-10
9.08109e-10
8.78854e-10
9.01168e-10
8.67112e-10
8.95155e-10
8.59581e-10
8.89741e-10
8.26857e-10
8.47244e-10
7.2523e-10
9.2555e-10
8.54228e-10
-1.31703e-09
1.1027e-09
2.36808e-09
-2.23977e-10
-4.58059e-11
3.91094e-10
1.73761e-10
2.66561e-10
5.32895e-10
6.9973e-10
8.30465e-10
8.52858e-10
9.07034e-10
9.00349e-10
9.43276e-10
9.25767e-10
9.61778e-10
9.42906e-10
9.72332e-10
9.40796e-10
9.65529e-10
9.42543e-10
9.71422e-10
9.37386e-10
9.64183e-10
9.35013e-10
9.64964e-10
9.34805e-10
9.65428e-10
9.31562e-10
9.61793e-10
9.32132e-10
9.66218e-10
9.35987e-10
9.6924e-10
9.30339e-10
9.58079e-10
9.29356e-10
9.57126e-10
9.25858e-10
9.55417e-10
9.15403e-10
9.47897e-10
9.09536e-10
9.44457e-10
9.08757e-10
9.33649e-10
8.88681e-10
9.09625e-10
8.76629e-10
9.04325e-10
8.6328e-10
9.00379e-10
8.52923e-10
8.9971e-10
8.15568e-10
8.64024e-10
7.00078e-10
9.64173e-10
8.83846e-10
-1.48036e-09
1.38803e-09
2.55263e-09
-6.85743e-10
-2.13822e-10
5.68671e-10
2.7282e-10
2.7673e-10
5.28324e-10
7.01969e-10
8.33891e-10
8.53422e-10
9.04852e-10
8.97565e-10
9.40461e-10
9.23376e-10
9.5924e-10
9.41072e-10
9.70708e-10
9.39617e-10
9.63694e-10
9.4131e-10
9.70294e-10
9.36696e-10
9.63e-10
9.34311e-10
9.64176e-10
9.34471e-10
9.64913e-10
9.313e-10
9.61076e-10
9.31728e-10
9.65743e-10
9.35823e-10
9.69111e-10
9.30341e-10
9.57451e-10
9.29128e-10
9.56919e-10
9.25706e-10
9.55715e-10
9.14937e-10
9.48236e-10
9.08725e-10
9.45256e-10
9.08163e-10
9.35325e-10
8.87673e-10
9.11365e-10
8.74e-10
9.07764e-10
8.58933e-10
9.0608e-10
8.45601e-10
9.10267e-10
8.03792e-10
8.81291e-10
6.76036e-10
9.99417e-10
9.17283e-10
-1.65435e-09
1.69353e-09
2.76698e-09
-1.16587e-09
-4.17212e-10
7.53942e-10
3.90519e-10
2.91458e-10
5.22077e-10
7.03484e-10
8.37454e-10
8.54149e-10
9.02494e-10
8.94549e-10
9.37321e-10
9.20761e-10
9.56429e-10
9.3903e-10
9.68812e-10
9.38311e-10
9.61695e-10
9.39952e-10
9.68958e-10
9.35948e-10
9.6169e-10
9.33543e-10
9.63258e-10
9.34114e-10
9.64288e-10
9.31024e-10
9.60278e-10
9.31295e-10
9.65179e-10
9.35647e-10
9.68882e-10
9.30342e-10
9.56783e-10
9.28837e-10
9.56657e-10
9.25512e-10
9.55976e-10
9.14421e-10
9.48573e-10
9.07828e-10
9.46077e-10
9.07441e-10
9.37062e-10
8.86509e-10
9.13274e-10
8.71067e-10
9.1134e-10
8.54247e-10
9.12003e-10
8.38002e-10
9.20871e-10
7.92315e-10
8.97967e-10
6.54785e-10
1.02924e-09
9.55321e-10
-1.83221e-09
1.99837e-09
3.00366e-09
-1.64329e-09
-6.51261e-10
9.37232e-10
5.23977e-10
3.11692e-10
5.14387e-10
7.03926e-10
8.40941e-10
8.55002e-10
8.99984e-10
8.91325e-10
9.3387e-10
9.17931e-10
9.53358e-10
9.36791e-10
9.66646e-10
9.36876e-10
9.59547e-10
9.38478e-10
9.6741e-10
9.3514e-10
9.60263e-10
9.32715e-10
9.62212e-10
9.33733e-10
9.63554e-10
9.30731e-10
9.59406e-10
9.30839e-10
9.64525e-10
9.35462e-10
9.6855e-10
9.30338e-10
9.56084e-10
9.28488e-10
9.56335e-10
9.25283e-10
9.56185e-10
9.13868e-10
9.4889e-10
9.06876e-10
9.46888e-10
9.06624e-10
9.388e-10
8.85246e-10
9.15253e-10
8.67969e-10
9.14884e-10
8.49442e-10
9.17835e-10
8.30572e-10
9.30935e-10
7.81934e-10
9.13014e-10
6.37751e-10
1.05225e-09
9.97479e-10
-2.00466e-09
2.28828e-09
3.25134e-09
-2.08991e-09
-9.0821e-10
1.10864e-09
6.68771e-10
3.38161e-10
5.0571e-10
7.02969e-10
8.44084e-10
8.55925e-10
8.9735e-10
8.87918e-10
9.30126e-10
9.14895e-10
9.50042e-10
9.34368e-10
9.64216e-10
9.35312e-10
9.57263e-10
9.36898e-10
9.65656e-10
9.34267e-10
9.58724e-10
9.31831e-10
9.6104e-10
9.33328e-10
9.62712e-10
9.30421e-10
9.58465e-10
9.30364e-10
9.63784e-10
9.35266e-10
9.68112e-10
9.30327e-10
9.55357e-10
9.28092e-10
9.55944e-10
9.25028e-10
9.56326e-10
9.13302e-10
9.49165e-10
9.05905e-10
9.47646e-10
9.05757e-10
9.40468e-10
8.8396e-10
9.17194e-10
8.64869e-10
9.18216e-10
8.44818e-10
9.23224e-10
8.23772e-10
9.39886e-10
7.73386e-10
9.2554e-10
6.25986e-10
1.06776e-09
1.04241e-09
-2.16108e-09
2.54784e-09
3.49469e-09
-2.48868e-09
-1.17635e-09
1.25972e-09
8.19625e-10
3.71336e-10
4.96718e-10
7.00346e-10
8.46571e-10
8.56838e-10
8.94619e-10
8.84358e-10
9.26104e-10
9.11661e-10
9.46497e-10
9.31776e-10
9.61531e-10
9.33621e-10
9.54854e-10
9.35223e-10
9.63701e-10
9.33328e-10
9.57083e-10
9.30897e-10
9.59744e-10
9.32896e-10
9.61762e-10
9.30093e-10
9.5746e-10
9.29876e-10
9.62955e-10
9.35062e-10
9.67568e-10
9.3031e-10
9.54603e-10
9.27661e-10
9.55473e-10
9.24763e-10
9.56377e-10
9.12745e-10
9.49371e-10
9.04956e-10
9.48307e-10
9.04896e-10
9.41992e-10
8.82746e-10
9.18981e-10
8.6194e-10
9.21142e-10
8.40658e-10
9.2782e-10
8.18026e-10
9.47216e-10
7.6729e-10
9.34885e-10
6.20107e-10
1.0757e-09
1.08827e-09
-2.29095e-09
2.76448e-09
3.7179e-09
-2.82366e-09
-1.4423e-09
1.38363e-09
9.708e-10
4.11395e-10
4.88281e-10
6.95906e-10
8.4808e-10
8.57641e-10
8.91818e-10
8.80678e-10
9.21826e-10
9.08239e-10
9.42737e-10
9.2903e-10
9.58605e-10
9.31806e-10
9.52335e-10
9.33463e-10
9.61557e-10
9.32322e-10
9.55346e-10
9.29918e-10
9.58328e-10
9.32439e-10
9.6071e-10
9.2975e-10
9.56396e-10
9.29379e-10
9.62042e-10
9.34852e-10
9.66917e-10
9.30291e-10
9.53819e-10
9.27211e-10
9.54911e-10
9.24504e-10
9.5632e-10
9.12226e-10
9.49479e-10
9.04073e-10
9.48827e-10
9.041e-10
9.43281e-10
8.81704e-10
9.20493e-10
8.59355e-10
9.2347e-10
8.37196e-10
9.31339e-10
8.13686e-10
9.52512e-10
7.64059e-10
9.40707e-10
6.20223e-10
1.07671e-09
1.13292e-09
-2.38614e-09
2.92983e-09
3.90702e-09
-3.0834e-09
-1.69295e-09
1.47528e-09
1.11629e-09
4.58092e-10
4.8133e-10
6.89609e-10
8.48293e-10
8.58219e-10
8.88976e-10
8.76917e-10
9.17315e-10
9.04642e-10
9.38778e-10
9.26147e-10
9.55453e-10
9.29872e-10
9.49718e-10
9.31628e-10
9.59235e-10
9.31248e-10
9.53519e-10
9.289e-10
9.56798e-10
9.31956e-10
9.59557e-10
9.29392e-10
9.55275e-10
9.28881e-10
9.61046e-10
9.34639e-10
9.66157e-10
9.30276e-10
9.53002e-10
9.26759e-10
9.54249e-10
9.2427e-10
9.56134e-10
9.11772e-10
9.49457e-10
9.03302e-10
9.49139e-10
9.03431e-10
9.44265e-10
8.80931e-10
9.21615e-10
8.57267e-10
9.25035e-10
8.34634e-10
9.33571e-10
8.11098e-10
9.55502e-10
7.6388e-10
9.42955e-10
6.26067e-10
1.07182e-09
1.17427e-09
-2.44089e-09
3.03917e-09
4.05143e-09
-3.25977e-09
-1.91558e-09
1.53187e-09
1.25046e-09
5.10755e-10
4.76774e-10
6.81543e-10
8.46925e-10
8.58442e-10
8.86113e-10
8.73115e-10
9.12598e-10
9.00883e-10
9.34636e-10
9.23144e-10
9.52094e-10
9.27827e-10
9.47017e-10
9.29728e-10
9.56749e-10
9.30109e-10
9.51609e-10
9.27848e-10
9.55159e-10
9.3145e-10
9.58308e-10
9.29022e-10
9.54103e-10
9.28386e-10
9.5997e-10
9.3443e-10
9.65285e-10
9.30273e-10
9.52145e-10
9.26321e-10
9.53474e-10
9.24079e-10
9.558e-10
9.11413e-10
9.49275e-10
9.02687e-10
9.49209e-10
9.02951e-10
9.44879e-10
8.8051e-10
9.2225e-10
8.55809e-10
9.25705e-10
8.33134e-10
9.34365e-10
8.10401e-10
9.56073e-10
7.66742e-10
9.41781e-10
6.37174e-10
1.06191e-09
1.21061e-09
-2.44964e-09
3.08967e-09
4.13417e-09
-3.34808e-09
-2.09929e-09
1.5527e-09
1.36843e-09
5.68286e-10
4.75392e-10
6.71903e-10
8.4373e-10
8.58159e-10
8.83233e-10
8.6931e-10
9.07698e-10
8.96975e-10
9.30323e-10
9.20036e-10
9.48547e-10
9.25675e-10
9.44241e-10
9.2777e-10
9.54116e-10
9.28907e-10
9.4962e-10
9.26769e-10
9.53418e-10
9.30923e-10
9.56965e-10
9.28643e-10
9.52881e-10
9.27899e-10
9.58815e-10
9.34229e-10
9.643e-10
9.30291e-10
9.51238e-10
9.25913e-10
9.52579e-10
9.23949e-10
9.55302e-10
9.11175e-10
9.48909e-10
9.02269e-10
9.49e-10
9.02708e-10
9.45068e-10
8.80508e-10
9.22321e-10
8.55073e-10
9.25398e-10
8.32799e-10
9.33645e-10
8.11626e-10
9.5429e-10
7.72468e-10
9.37447e-10
6.5303e-10
1.04902e-09
1.23932e-09
-2.40992e-09
3.08054e-09
4.15029e-09
-3.34772e-09
-2.23225e-09
1.53847e-09
1.46607e-09
6.29142e-10
4.77728e-10
6.60969e-10
8.38529e-10
8.57214e-10
8.80323e-10
8.6553e-10
9.02637e-10
8.92927e-10
9.25849e-10
9.16833e-10
9.44831e-10
9.23425e-10
9.414e-10
9.25761e-10
9.51348e-10
9.27645e-10
9.47558e-10
9.25665e-10
9.51581e-10
9.30378e-10
9.55535e-10
9.28257e-10
9.51613e-10
9.27426e-10
9.57582e-10
9.34043e-10
9.63203e-10
9.30339e-10
9.50276e-10
9.25548e-10
9.51559e-10
9.23894e-10
9.54629e-10
9.11079e-10
9.48339e-10
9.02076e-10
9.48481e-10
9.02741e-10
9.44801e-10
8.8097e-10
9.21785e-10
8.55112e-10
9.24087e-10
8.33658e-10
9.31417e-10
8.14709e-10
9.50333e-10
7.80805e-10
9.30141e-10
6.72827e-10
1.03391e-09
1.25978e-09
-2.32138e-09
3.01361e-09
4.09702e-09
-3.26312e-09
-2.31082e-09
1.49147e-09
1.54091e-09
6.91665e-10
4.84121e-10
6.4912e-10
8.31244e-10
8.55475e-10
8.77366e-10
8.61804e-10
8.97442e-10
8.88753e-10
9.21229e-10
9.13545e-10
9.40969e-10
9.21085e-10
9.38505e-10
9.23706e-10
9.48464e-10
9.26329e-10
9.45424e-10
9.24541e-10
9.49655e-10
9.29817e-10
9.54023e-10
9.27868e-10
9.503e-10
9.26969e-10
9.56274e-10
9.33878e-10
9.61996e-10
9.30425e-10
9.49253e-10
9.25233e-10
9.50411e-10
9.23927e-10
9.53775e-10
9.11144e-10
9.47551e-10
9.02131e-10
9.4764e-10
9.03074e-10
9.44066e-10
8.8192e-10
9.20632e-10
8.55935e-10
9.21805e-10
8.3567e-10
9.27786e-10
8.19492e-10
9.44425e-10
7.91474e-10
9.21168e-10
6.95554e-10
1.01735e-09
1.27189e-09
-2.18588e-09
2.89367e-09
3.974e-09
-3.10284e-09
-2.33314e-09
1.4164e-09
1.59211e-09
7.5418e-10
4.94644e-10
6.36744e-10
8.21884e-10
8.52831e-10
8.74339e-10
8.58156e-10
8.92141e-10
8.84467e-10
9.16477e-10
9.10179e-10
9.36979e-10
9.18665e-10
9.35564e-10
9.21607e-10
9.45476e-10
9.24964e-10
9.43226e-10
9.23399e-10
9.47647e-10
9.29241e-10
9.52435e-10
9.2748e-10
9.48945e-10
9.26534e-10
9.54893e-10
9.33736e-10
9.60679e-10
9.30555e-10
9.48169e-10
9.24974e-10
9.49138e-10
9.24053e-10
9.52739e-10
9.1138e-10
9.46544e-10
9.02444e-10
9.46477e-10
9.03711e-10
9.42874e-10
8.83357e-10
9.18889e-10
8.57511e-10
9.18635e-10
8.38741e-10
9.22934e-10
8.25756e-10
9.36908e-10
8.04e-10
9.10894e-10
7.20384e-10
9.99691e-10
1.27583e-09
-2.00631e-09
2.72706e-09
3.78451e-09
-2.87773e-09
-2.30019e-09
1.32007e-09
1.62001e-09
8.15136e-10
5.09101e-10
6.24155e-10
8.1048e-10
8.4918e-10
8.71203e-10
8.54591e-10
8.8675e-10
8.80076e-10
9.11604e-10
9.0673e-10
9.32875e-10
9.16174e-10
9.32588e-10
9.1946e-10
9.42393e-10
9.23556e-10
9.40966e-10
9.22237e-10
9.45564e-10
9.28649e-10
9.50776e-10
9.27096e-10
9.47554e-10
9.26123e-10
9.53446e-10
9.33615e-10
9.59255e-10
9.30738e-10
9.47023e-10
9.2477e-10
9.47746e-10
9.24274e-10
9.51523e-10
9.11792e-10
9.45326e-10
9.03017e-10
9.45007e-10
9.0464e-10
9.41254e-10
8.85262e-10
9.16615e-10
8.59771e-10
9.14705e-10
8.42736e-10
9.17093e-10
8.33254e-10
9.28333e-10
8.17779e-10
8.99869e-10
7.46876e-10
9.80867e-10
1.27213e-09
-1.78663e-09
2.52096e-09
3.53482e-09
-2.59823e-09
-2.21576e-09
1.20703e-09
1.62609e-09
8.73296e-10
5.27196e-10
6.11638e-10
7.97081e-10
8.44418e-10
8.67909e-10
8.51113e-10
8.81276e-10
8.75581e-10
9.0661e-10
9.03189e-10
9.28662e-10
9.13627e-10
9.29582e-10
9.17266e-10
9.39218e-10
9.22114e-10
9.38646e-10
9.21055e-10
9.43408e-10
9.28042e-10
9.49047e-10
9.26722e-10
9.46127e-10
9.25738e-10
9.51934e-10
9.33517e-10
9.57728e-10
9.30979e-10
9.45818e-10
9.24618e-10
9.46235e-10
9.24587e-10
9.5013e-10
9.12379e-10
9.43906e-10
9.03839e-10
9.43251e-10
9.05833e-10
9.39243e-10
8.87595e-10
9.13889e-10
8.62611e-10
9.10157e-10
8.47474e-10
9.10523e-10
8.41691e-10
9.19086e-10
8.32322e-10
8.88565e-10
7.74901e-10
9.60217e-10
1.26137e-09
-1.53116e-09
2.28204e-09
1.61234e-09
1.28872e-09
3.69188e-10
-1.60618e-10
-2.77505e-11
2.55928e-10
5.36495e-10
6.88318e-10
8.19688e-10
8.55273e-10
9.17549e-10
9.13203e-10
9.54242e-10
9.3607e-10
9.71389e-10
9.49498e-10
9.76958e-10
9.45804e-10
9.73435e-10
9.47451e-10
9.74682e-10
9.41159e-10
9.69009e-10
9.38151e-10
9.67569e-10
9.36659e-10
9.66714e-10
9.33329e-10
9.64604e-10
9.34004e-10
9.67404e-10
9.36758e-10
9.68051e-10
9.30434e-10
9.60719e-10
9.2895e-10
9.57429e-10
9.25634e-10
9.52931e-10
9.17135e-10
9.45653e-10
9.12169e-10
9.40293e-10
9.08636e-10
9.25511e-10
8.89891e-10
9.03472e-10
8.82261e-10
8.89993e-10
8.76221e-10
8.7752e-10
8.7733e-10
8.55032e-10
8.61778e-10
7.90599e-10
8.30924e-10
7.28953e-10
6.02441e-10
-5.824e-10
4.48202e-10
1.65621e-09
1.3116e-09
3.57829e-10
-1.69792e-10
-3.14828e-11
2.55602e-10
5.3636e-10
6.88287e-10
8.19293e-10
8.54936e-10
9.17045e-10
9.1293e-10
9.53809e-10
9.359e-10
9.71047e-10
9.49441e-10
9.76658e-10
9.45761e-10
9.73145e-10
9.47483e-10
9.74464e-10
9.41174e-10
9.68786e-10
9.38226e-10
9.67374e-10
9.36742e-10
9.6652e-10
9.33421e-10
9.64402e-10
9.34129e-10
9.67238e-10
9.369e-10
9.67886e-10
9.30572e-10
9.605e-10
9.29173e-10
9.57244e-10
9.25835e-10
9.52792e-10
9.173e-10
9.4554e-10
9.12374e-10
9.40202e-10
9.08924e-10
9.25395e-10
8.90159e-10
9.03362e-10
8.82611e-10
8.89993e-10
8.76524e-10
8.77706e-10
8.77664e-10
8.55446e-10
8.61997e-10
7.91236e-10
8.31075e-10
7.35226e-10
6.13848e-10
-6.12133e-10
4.21043e-10
1.71133e-09
1.32923e-09
3.43717e-10
-1.78658e-10
-3.56998e-11
2.55104e-10
5.36462e-10
6.88216e-10
8.19141e-10
8.54408e-10
9.16595e-10
9.12382e-10
9.53445e-10
9.35435e-10
9.70766e-10
9.49162e-10
9.7651e-10
9.45509e-10
9.72923e-10
9.47306e-10
9.74405e-10
9.40971e-10
9.68688e-10
9.38101e-10
9.67334e-10
9.36619e-10
9.6651e-10
9.3331e-10
9.64361e-10
9.34058e-10
9.67253e-10
9.36841e-10
9.67957e-10
9.30517e-10
9.60434e-10
9.29246e-10
9.57237e-10
9.25867e-10
9.52887e-10
9.1727e-10
9.45656e-10
9.12385e-10
9.40336e-10
9.09087e-10
9.25554e-10
8.90331e-10
9.03428e-10
8.82891e-10
8.90233e-10
8.76727e-10
8.7809e-10
8.77879e-10
8.56143e-10
8.6224e-10
7.92095e-10
8.29821e-10
7.41881e-10
6.38146e-10
-6.56872e-10
3.91785e-10
1.7724e-09
1.33181e-09
3.28977e-10
-1.83632e-10
-4.05697e-11
2.54496e-10
5.36836e-10
6.88434e-10
8.19275e-10
8.53889e-10
9.16077e-10
9.1167e-10
9.53004e-10
9.34854e-10
9.70394e-10
9.48798e-10
9.76374e-10
9.45179e-10
9.72611e-10
9.4705e-10
9.74365e-10
9.40695e-10
9.68561e-10
9.37913e-10
9.67304e-10
9.36443e-10
9.66539e-10
9.33148e-10
9.64327e-10
9.33934e-10
9.67301e-10
9.36741e-10
9.68124e-10
9.30422e-10
9.60366e-10
9.29301e-10
9.57275e-10
9.25869e-10
9.53086e-10
9.17171e-10
9.45866e-10
9.12313e-10
9.40596e-10
9.09226e-10
9.25921e-10
8.90464e-10
9.03612e-10
8.83094e-10
8.90727e-10
8.76748e-10
8.78821e-10
8.77768e-10
8.57513e-10
8.61861e-10
7.93838e-10
8.26076e-10
7.52514e-10
6.70578e-10
-7.13255e-10
3.69822e-10
1.83146e-09
1.30262e-09
3.15254e-10
-1.76844e-10
-4.34828e-11
2.53973e-10
5.37458e-10
6.89052e-10
8.19719e-10
8.53406e-10
9.1538e-10
9.10749e-10
9.52366e-10
9.34096e-10
9.69826e-10
9.48335e-10
9.76165e-10
9.44775e-10
9.72135e-10
9.46724e-10
9.74278e-10
9.40375e-10
9.6834e-10
9.37688e-10
9.67227e-10
9.36251e-10
9.66552e-10
9.32973e-10
9.6424e-10
9.33791e-10
9.67327e-10
9.36643e-10
9.68328e-10
9.30333e-10
9.60238e-10
9.29364e-10
9.5731e-10
9.25877e-10
9.5334e-10
9.17039e-10
9.46116e-10
9.12184e-10
9.40939e-10
9.09364e-10
9.2647e-10
8.90557e-10
9.03901e-10
8.83159e-10
8.91501e-10
8.76477e-10
8.79971e-10
8.77133e-10
8.59765e-10
8.60458e-10
7.97025e-10
8.19108e-10
7.68336e-10
7.05957e-10
-7.78621e-10
3.70629e-10
1.88699e-09
1.22285e-09
3.00277e-10
-1.50717e-10
-4.12088e-11
2.53733e-10
5.38248e-10
6.9014e-10
8.20539e-10
8.52987e-10
9.14463e-10
9.09568e-10
9.51468e-10
9.33118e-10
9.69011e-10
9.47722e-10
9.75837e-10
9.44274e-10
9.71466e-10
9.46297e-10
9.74111e-10
9.40005e-10
9.68001e-10
9.37411e-10
9.67085e-10
9.3604e-10
9.6653e-10
9.32787e-10
9.64081e-10
9.33621e-10
9.67314e-10
9.36543e-10
9.68549e-10
9.30257e-10
9.60036e-10
9.29421e-10
9.57331e-10
9.25885e-10
9.53634e-10
9.16875e-10
9.4639e-10
9.11989e-10
9.41357e-10
9.09476e-10
9.272e-10
8.90581e-10
9.04313e-10
8.83001e-10
8.92598e-10
8.75799e-10
8.81625e-10
8.75762e-10
8.63111e-10
8.57632e-10
8.02224e-10
8.08285e-10
7.90112e-10
7.4043e-10
-8.53755e-10
4.10763e-10
1.94435e-09
1.07762e-09
2.77794e-10
-9.93355e-11
-2.9493e-11
2.53962e-10
5.39014e-10
6.91737e-10
8.21808e-10
8.52678e-10
9.13323e-10
9.08109e-10
9.50277e-10
9.31903e-10
9.67921e-10
9.46925e-10
9.75352e-10
9.43661e-10
9.70591e-10
9.45743e-10
9.73836e-10
9.39579e-10
9.67532e-10
9.37071e-10
9.66863e-10
9.35806e-10
9.66458e-10
9.32585e-10
9.63841e-10
9.33416e-10
9.6725e-10
9.36435e-10
9.68764e-10
9.30197e-10
9.59755e-10
9.29457e-10
9.57332e-10
9.25884e-10
9.53957e-10
9.16673e-10
9.46681e-10
9.11713e-10
9.41847e-10
9.09532e-10
9.28112e-10
8.90499e-10
9.04884e-10
8.82533e-10
8.94065e-10
8.74601e-10
8.83919e-10
8.73448e-10
8.67758e-10
8.53043e-10
8.09919e-10
7.93281e-10
8.18079e-10
7.72153e-10
-9.42416e-10
5.01994e-10
2.01235e-09
8.58462e-10
2.39741e-10
-1.90709e-11
-5.08209e-12
2.54929e-10
5.39446e-10
6.93826e-10
8.23574e-10
8.52523e-10
9.11968e-10
9.06372e-10
9.48776e-10
9.30445e-10
9.66541e-10
9.45928e-10
9.74676e-10
9.42933e-10
9.69506e-10
9.45049e-10
9.73425e-10
9.39096e-10
9.66922e-10
9.3666e-10
9.66547e-10
9.35547e-10
9.66316e-10
9.32368e-10
9.63509e-10
9.33172e-10
9.67121e-10
9.36318e-10
9.68948e-10
9.30155e-10
9.59394e-10
9.29458e-10
9.57304e-10
9.25866e-10
9.54293e-10
9.16426e-10
9.46985e-10
9.11345e-10
9.4241e-10
9.09499e-10
9.29202e-10
8.90275e-10
9.05653e-10
8.81677e-10
8.95946e-10
8.72781e-10
8.86939e-10
8.70026e-10
8.73853e-10
8.46503e-10
8.20357e-10
7.74235e-10
8.51509e-10
8.01102e-10
-1.04841e-09
6.49245e-10
2.10162e-09
5.63715e-10
1.77101e-10
9.09627e-11
3.55281e-11
2.57114e-10
5.39173e-10
6.96317e-10
8.25852e-10
8.52553e-10
9.10404e-10
9.04364e-10
9.46954e-10
9.2875e-10
9.64868e-10
9.44721e-10
9.73783e-10
9.42087e-10
9.68213e-10
9.44211e-10
9.72852e-10
9.38558e-10
9.66166e-10
9.36175e-10
9.66124e-10
9.35267e-10
9.66089e-10
9.32138e-10
9.63081e-10
9.3289e-10
9.66919e-10
9.36192e-10
9.69077e-10
9.30131e-10
9.58955e-10
9.29413e-10
9.5724e-10
9.25825e-10
9.54632e-10
9.1613e-10
9.47299e-10
9.10873e-10
9.43044e-10
9.09351e-10
9.30466e-10
8.89872e-10
9.06658e-10
8.80377e-10
8.9827e-10
8.70272e-10
8.90734e-10
8.65425e-10
8.81418e-10
8.38031e-10
8.33454e-10
7.51839e-10
8.8899e-10
8.28443e-10
-1.17473e-09
8.51412e-10
2.21988e-09
1.98625e-10
8.26325e-11
2.28937e-10
9.4826e-11
2.61141e-10
5.37792e-10
6.99033e-10
8.2862e-10
8.52784e-10
9.08639e-10
9.02094e-10
9.44807e-10
9.26822e-10
9.62904e-10
9.43303e-10
9.72652e-10
9.41124e-10
9.66722e-10
9.43231e-10
9.72098e-10
9.37964e-10
9.65263e-10
9.35617e-10
9.65585e-10
9.34965e-10
9.65765e-10
9.31895e-10
9.62555e-10
9.32569e-10
9.66634e-10
9.36057e-10
9.69134e-10
9.30122e-10
9.58443e-10
9.29315e-10
9.57134e-10
9.25751e-10
9.54962e-10
9.15778e-10
9.47625e-10
9.10291e-10
9.43749e-10
9.09065e-10
9.31892e-10
8.89267e-10
9.07919e-10
8.78605e-10
9.01045e-10
8.67065e-10
8.95287e-10
8.59694e-10
8.90316e-10
8.27888e-10
8.48775e-10
7.2728e-10
9.28294e-10
8.55976e-10
-1.32105e-09
1.10138e-09
2.37144e-09
-2.24093e-10
-4.82354e-11
3.90081e-10
1.73969e-10
2.67796e-10
5.34952e-10
7.01708e-10
8.31809e-10
8.53217e-10
9.06678e-10
8.9957e-10
9.42332e-10
9.24667e-10
9.60653e-10
9.41675e-10
9.7127e-10
9.40042e-10
9.65044e-10
9.42112e-10
9.71151e-10
9.37316e-10
9.64219e-10
9.34988e-10
9.64923e-10
9.34644e-10
9.65339e-10
9.31637e-10
9.61934e-10
9.32212e-10
9.66263e-10
9.35912e-10
9.69105e-10
9.30124e-10
9.57871e-10
9.29155e-10
9.56982e-10
9.25641e-10
9.55277e-10
9.15366e-10
9.47964e-10
9.09596e-10
9.44517e-10
9.08628e-10
9.33462e-10
8.88452e-10
9.09435e-10
8.76374e-10
9.04195e-10
8.63218e-10
9.00499e-10
8.53006e-10
9.00246e-10
8.16569e-10
8.65566e-10
7.02096e-10
9.66903e-10
8.85688e-10
-1.48415e-09
1.38703e-09
2.55587e-09
-6.85971e-10
-2.16238e-10
5.67508e-10
2.72913e-10
2.77951e-10
5.30417e-10
7.04003e-10
8.35295e-10
8.53835e-10
9.04527e-10
8.96801e-10
9.39531e-10
9.22287e-10
9.58123e-10
9.39839e-10
9.69627e-10
9.38839e-10
9.63192e-10
9.40862e-10
9.7e-10
9.36611e-10
9.63039e-10
9.34291e-10
9.64134e-10
9.34302e-10
9.64805e-10
9.31365e-10
9.61224e-10
9.31821e-10
9.65803e-10
9.35757e-10
9.68982e-10
9.3013e-10
9.57248e-10
9.28932e-10
9.56781e-10
9.25488e-10
9.55567e-10
9.14896e-10
9.4831e-10
9.08797e-10
9.45334e-10
9.08046e-10
9.35141e-10
8.87441e-10
9.11175e-10
8.7374e-10
9.07629e-10
8.58856e-10
9.06188e-10
8.45656e-10
9.10766e-10
8.04757e-10
8.82844e-10
6.78028e-10
1.00211e-09
9.19219e-10
-1.65795e-09
1.69266e-09
2.77021e-09
-1.16624e-09
-4.19593e-10
7.52652e-10
3.90465e-10
2.92635e-10
5.24191e-10
7.05566e-10
8.38912e-10
8.54612e-10
9.02202e-10
8.93803e-10
9.36408e-10
9.19689e-10
9.55322e-10
9.378e-10
9.67718e-10
9.37513e-10
9.61179e-10
9.39489e-10
9.68642e-10
9.35847e-10
9.6173e-10
9.33527e-10
9.63216e-10
9.33938e-10
9.64163e-10
9.31076e-10
9.60431e-10
9.314e-10
9.65252e-10
9.35592e-10
9.68761e-10
9.30136e-10
9.56584e-10
9.28644e-10
9.56525e-10
9.25296e-10
9.55821e-10
9.14374e-10
9.48653e-10
9.07911e-10
9.46172e-10
9.07336e-10
9.36883e-10
8.86275e-10
9.13085e-10
8.70802e-10
9.112e-10
8.54155e-10
9.12099e-10
8.38027e-10
9.21332e-10
7.93239e-10
8.99529e-10
6.56755e-10
1.03191e-09
9.57336e-10
-1.83572e-09
1.99775e-09
3.00698e-09
-1.64376e-09
-6.53609e-10
9.35852e-10
5.23763e-10
3.12799e-10
5.16505e-10
7.06044e-10
8.42443e-10
8.5551e-10
8.99723e-10
8.90597e-10
9.32975e-10
9.16877e-10
9.52266e-10
9.35569e-10
9.65545e-10
9.36063e-10
9.59019e-10
9.38002e-10
9.67075e-10
9.35022e-10
9.603e-10
9.32703e-10
9.62169e-10
9.33552e-10
9.63413e-10
9.30769e-10
9.5956e-10
9.30953e-10
9.64612e-10
9.35417e-10
9.68436e-10
9.30136e-10
9.55888e-10
9.28298e-10
9.56208e-10
9.25069e-10
9.56025e-10
9.13816e-10
9.48975e-10
9.06969e-10
9.46999e-10
9.06532e-10
9.38627e-10
8.85012e-10
9.15067e-10
8.677e-10
9.14739e-10
8.49331e-10
9.17922e-10
8.30568e-10
9.3136e-10
7.82814e-10
9.14584e-10
6.39702e-10
1.0549e-09
9.99549e-10
-2.00815e-09
2.28795e-09
3.25477e-09
-2.09049e-09
-9.10475e-10
1.10723e-09
6.68397e-10
3.39171e-10
5.07812e-10
7.05108e-10
8.45618e-10
8.56472e-10
8.97118e-10
8.87208e-10
9.29248e-10
9.13861e-10
9.48967e-10
9.33158e-10
9.63112e-10
9.34488e-10
9.56724e-10
9.36413e-10
9.65303e-10
9.34134e-10
9.58758e-10
9.31822e-10
9.60996e-10
9.33141e-10
9.62556e-10
9.30444e-10
9.58619e-10
9.30486e-10
9.63882e-10
9.35232e-10
9.68006e-10
9.3013e-10
9.55164e-10
9.27904e-10
9.55821e-10
9.24817e-10
9.56162e-10
9.13243e-10
9.49253e-10
9.06006e-10
9.47774e-10
9.05678e-10
9.40304e-10
8.83727e-10
9.17011e-10
8.64596e-10
9.18067e-10
8.44691e-10
9.23299e-10
8.23741e-10
9.40276e-10
7.74222e-10
9.2711e-10
6.27922e-10
1.0704e-09
1.04453e-09
-2.16459e-09
2.54774e-09
3.49813e-09
-2.48931e-09
-1.17842e-09
1.25834e-09
8.19096e-10
3.72226e-10
4.98782e-10
7.02491e-10
8.48126e-10
8.57414e-10
8.94411e-10
8.83664e-10
9.25243e-10
9.10647e-10
9.45439e-10
9.30579e-10
9.60428e-10
9.32789e-10
9.54309e-10
9.34731e-10
9.63334e-10
9.3318e-10
9.57111e-10
9.30889e-10
9.59699e-10
9.32705e-10
9.61594e-10
9.30101e-10
9.57611e-10
9.30004e-10
9.63065e-10
9.35038e-10
9.6747e-10
9.30118e-10
9.54413e-10