/*--------------------------------*- C++ -*----------------------------------*\
| =========                 |                                                 |
| \\      /  F ield         | OpenFOAM: The Open Source CFD Toolbox           |
|  \\    /   O peration     | Version:  2312                                  |
|   \\  /    A nd           | Website:  www.openfoam.com                      |
|    \\/     M anipulation  |                                                 |
\*---------------------------------------------------------------------------*/
FoamFile
{
    version     2.0;
    format      ascii;
    arch        "LSB;label=32;scalar=64";
    class       volScalarField;
    location    "500";
    object      p;
}
// * * * * * * * * * * * * * * * * * * * * * * * * * * * * * * * * * * * * * //

dimensions      [0 2 -2 0 0 0 0];

internalField   nonuniform List<scalar> 
144000
(
1.00126e-09
9.2507e-10
4.82706e-10
1.61356e-10
1.70276e-10
2.74675e-10
4.00236e-10
4.69209e-10
5.31857e-10
5.47791e-10
5.79156e-10
5.78517e-10
6.00999e-10
5.94417e-10
6.15503e-10
6.08162e-10
6.24833e-10
6.12536e-10
6.31701e-10
6.22457e-10
6.40342e-10
6.27045e-10
6.45046e-10
6.32482e-10
6.50532e-10
6.37907e-10
6.54969e-10
6.40202e-10
6.57822e-10
6.44111e-10
6.62621e-10
6.49743e-10
6.66144e-10
6.49876e-10
6.67081e-10
6.5304e-10
6.70225e-10
6.56756e-10
6.72531e-10
6.5792e-10
6.73536e-10
6.61565e-10
6.76281e-10
6.6518e-10
6.73822e-10
6.59611e-10
6.68233e-10
6.62004e-10
6.67714e-10
6.65414e-10
6.67236e-10
6.72594e-10
6.58297e-10
6.61489e-10
6.18686e-10
6.30535e-10
5.53606e-10
4.45002e-10
-5.49504e-11
4.63348e-10
1.02261e-09
9.364e-10
4.77827e-10
1.56567e-10
1.68097e-10
2.7423e-10
4.00028e-10
4.69144e-10
5.31615e-10
5.47628e-10
5.78883e-10
5.78394e-10
6.00769e-10
5.94331e-10
6.15324e-10
6.08142e-10
6.24671e-10
6.12502e-10
6.31556e-10
6.22475e-10
6.40212e-10
6.27054e-10
6.44926e-10
6.32526e-10
6.50424e-10
6.37963e-10
6.54859e-10
6.4025e-10
6.57719e-10
6.44179e-10
6.62529e-10
6.4983e-10
6.66045e-10
6.49941e-10
6.66986e-10
6.53137e-10
6.70143e-10
6.5686e-10
6.72452e-10
6.5802e-10
6.73467e-10
6.61691e-10
6.76247e-10
6.65331e-10
6.73796e-10
6.59736e-10
6.68233e-10
6.62179e-10
6.67774e-10
6.65588e-10
6.67391e-10
6.72822e-10
6.58612e-10
6.61689e-10
6.19234e-10
6.31061e-10
5.56918e-10
4.48549e-10
-6.98173e-11
4.52191e-10
1.04934e-09
9.47436e-10
4.71962e-10
1.50993e-10
1.65073e-10
2.73396e-10
3.99818e-10
4.68999e-10
5.3146e-10
5.4735e-10
5.78628e-10
5.78132e-10
6.00574e-10
5.94106e-10
6.15174e-10
6.08014e-10
6.24592e-10
6.12352e-10
6.31453e-10
6.22381e-10
6.40161e-10
6.26949e-10
6.44875e-10
6.3247e-10
6.50395e-10
6.37921e-10
6.5484e-10
6.40195e-10
6.577e-10
6.44149e-10
6.62523e-10
6.49824e-10
6.66056e-10
6.49906e-10
6.66979e-10
6.53146e-10
6.70163e-10
6.56881e-10
6.72487e-10
6.5804e-10
6.73497e-10
6.6175e-10
6.76317e-10
6.65436e-10
6.73921e-10
6.59827e-10
6.68339e-10
6.62342e-10
6.67971e-10
6.65757e-10
6.67638e-10
6.73068e-10
6.59067e-10
6.62e-10
6.19905e-10
6.31296e-10
5.60962e-10
4.57614e-10
-9.23384e-11
4.39064e-10
1.08001e-09
9.55687e-10
4.66087e-10
1.45551e-10
1.60943e-10
2.72142e-10
3.99607e-10
4.68939e-10
5.31405e-10
5.47058e-10
5.78333e-10
5.77798e-10
6.00346e-10
5.93813e-10
6.14982e-10
6.07845e-10
6.24531e-10
6.12155e-10
6.31316e-10
6.22243e-10
6.40125e-10
6.26804e-10
6.44816e-10
6.32382e-10
6.50376e-10
6.37854e-10
6.54846e-10
6.40109e-10
6.57691e-10
6.4409e-10
6.62534e-10
6.49798e-10
6.66114e-10
6.49844e-10
6.66988e-10
6.53134e-10
6.70222e-10
6.56886e-10
6.72578e-10
6.58039e-10
6.73571e-10
6.61787e-10
6.76453e-10
6.6554e-10
6.74172e-10
6.59907e-10
6.68532e-10
6.62487e-10
6.68322e-10
6.65878e-10
6.68054e-10
6.73233e-10
6.59842e-10
6.62155e-10
6.20985e-10
6.30887e-10
5.67162e-10
4.70835e-10
-1.2108e-10
4.26271e-10
1.11043e-09
9.55893e-10
4.61434e-10
1.42933e-10
1.56434e-10
2.70543e-10
3.99434e-10
4.69046e-10
5.31473e-10
5.46768e-10
5.77956e-10
5.77377e-10
6.00037e-10
5.93439e-10
6.14705e-10
6.07635e-10
6.24452e-10
6.11916e-10
6.31109e-10
6.22069e-10
6.40075e-10
6.26632e-10
6.44717e-10
6.32275e-10
6.50341e-10
6.37779e-10
6.5485e-10
6.40012e-10
6.57663e-10
6.44019e-10
6.62539e-10
6.49773e-10
6.66195e-10
6.49776e-10
6.66985e-10
6.53116e-10
6.70298e-10
6.5689e-10
6.72705e-10
6.58029e-10
6.73665e-10
6.61809e-10
6.76641e-10
6.65649e-10
6.74544e-10
6.59972e-10
6.68807e-10
6.62584e-10
6.68839e-10
6.65896e-10
6.68672e-10
6.73222e-10
6.61022e-10
6.61976e-10
6.22661e-10
6.29511e-10
5.75869e-10
4.86778e-10
-1.54265e-10
4.1833e-10
1.13845e-09
9.41015e-10
4.57855e-10
1.4606e-10
1.52792e-10
2.68727e-10
3.99338e-10
4.69388e-10
5.3171e-10
5.46497e-10
5.77486e-10
5.76851e-10
5.99625e-10
5.92969e-10
6.14321e-10
6.07358e-10
6.24338e-10
6.11629e-10
6.30819e-10
6.21846e-10
6.39999e-10
6.26433e-10
6.44566e-10
6.32141e-10
6.50283e-10
6.37693e-10
6.54848e-10
6.39905e-10
6.5761e-10
6.43931e-10
6.62531e-10
6.49746e-10
6.66297e-10
6.49705e-10
6.66964e-10
6.53085e-10
6.70388e-10
6.5689e-10
6.72864e-10
6.58009e-10
6.73777e-10
6.61806e-10
6.76881e-10
6.65746e-10
6.75037e-10
6.60005e-10
6.69171e-10
6.62589e-10
6.6954e-10
6.65755e-10
6.69533e-10
6.72933e-10
6.62684e-10
6.61294e-10
6.25116e-10
6.26863e-10
5.87288e-10
5.042e-10
-1.91283e-10
4.21196e-10
1.16466e-09
9.04211e-10
4.53616e-10
1.57539e-10
1.51421e-10
2.66857e-10
3.99333e-10
4.70025e-10
5.32163e-10
5.46272e-10
5.76927e-10
5.76216e-10
5.99101e-10
5.92396e-10
6.13819e-10
6.07001e-10
6.24174e-10
6.11291e-10
6.30438e-10
6.21561e-10
6.39888e-10
6.26202e-10
6.44358e-10
6.31971e-10
6.50195e-10
6.37591e-10
6.54834e-10
6.39786e-10
6.57526e-10
6.43822e-10
6.62509e-10
6.49713e-10
6.66414e-10
6.49634e-10
6.66924e-10
6.53034e-10
6.7049e-10
6.56881e-10
6.73053e-10
6.57972e-10
6.73907e-10
6.61764e-10
6.77176e-10
6.65815e-10
6.75656e-10
6.59988e-10
6.69639e-10
6.62458e-10
6.70445e-10
6.65397e-10
6.70686e-10
6.72264e-10
6.64907e-10
6.59943e-10
6.28536e-10
6.22698e-10
6.01537e-10
5.22232e-10
-2.32843e-10
4.4044e-10
1.19164e-09
8.39843e-10
4.45854e-10
1.79493e-10
1.53826e-10
2.6512e-10
3.99393e-10
4.71002e-10
5.32876e-10
5.46121e-10
5.76291e-10
5.75475e-10
5.9846e-10
5.9172e-10
6.13194e-10
6.06554e-10
6.23945e-10
6.10902e-10
6.29964e-10
6.21209e-10
6.39729e-10
6.2594e-10
6.44087e-10
6.31762e-10
6.50071e-10
6.37471e-10
6.54798e-10
6.39655e-10
6.57409e-10
6.43691e-10
6.6247e-10
6.49672e-10
6.66539e-10
6.49564e-10
6.66863e-10
6.5296e-10
6.706e-10
6.56858e-10
6.73267e-10
6.57915e-10
6.74057e-10
6.61675e-10
6.77529e-10
6.65836e-10
6.76398e-10
6.59902e-10
6.70229e-10
6.62149e-10
6.71574e-10
6.64766e-10
6.72181e-10
6.71147e-10
6.67768e-10
6.5779e-10
6.33069e-10
6.16896e-10
6.18503e-10
5.40491e-10
-2.80343e-10
4.80218e-10
1.22355e-09
7.44018e-10
4.30855e-10
2.13338e-10
1.61567e-10
2.6374e-10
3.99454e-10
4.72333e-10
5.33876e-10
5.46068e-10
5.75585e-10
5.74635e-10
5.977e-10
5.90945e-10
6.12446e-10
6.06012e-10
6.23636e-10
6.10464e-10
6.29395e-10
6.20784e-10
6.39509e-10
6.25648e-10
6.43748e-10
6.31509e-10
6.49905e-10
6.37332e-10
6.54734e-10
6.39514e-10
6.57254e-10
6.43537e-10
6.62409e-10
6.49623e-10
6.66662e-10
6.49497e-10
6.66781e-10
6.52858e-10
6.70717e-10
6.56818e-10
6.73501e-10
6.57832e-10
6.7423e-10
6.61527e-10
6.77942e-10
6.65795e-10
6.77262e-10
6.59727e-10
6.70959e-10
6.61627e-10
6.72944e-10
6.63816e-10
6.74052e-10
6.69465e-10
6.71317e-10
6.54766e-10
6.38777e-10
6.09499e-10
6.37857e-10
5.58994e-10
-3.3554e-10
5.42935e-10
1.26469e-09
6.15132e-10
4.04846e-10
2.59674e-10
1.76082e-10
2.62975e-10
3.99413e-10
4.74008e-10
5.35178e-10
5.46129e-10
5.7482e-10
5.73702e-10
5.96821e-10
5.90076e-10
6.11577e-10
6.05374e-10
6.23237e-10
6.09979e-10
6.28736e-10
6.20288e-10
6.3922e-10
6.25326e-10
6.43343e-10
6.31213e-10
6.49693e-10
6.37174e-10
6.54635e-10
6.39363e-10
6.57063e-10
6.4336e-10
6.62325e-10
6.49564e-10
6.66776e-10
6.49433e-10
6.66682e-10
6.52726e-10
6.70836e-10
6.56757e-10
6.73752e-10
6.5772e-10
6.74428e-10
6.61315e-10
6.78418e-10
6.65677e-10
6.78245e-10
6.59447e-10
6.71847e-10
6.60865e-10
6.74563e-10
6.62518e-10
6.76322e-10
6.67212e-10
6.75552e-10
6.50876e-10
6.45618e-10
6.00714e-10
6.58957e-10
5.78139e-10
-3.99629e-10
6.28886e-10
1.31904e-09
4.54e-10
3.64325e-10
3.1817e-10
1.98582e-10
2.63141e-10
3.99145e-10
4.75973e-10
5.36778e-10
5.46314e-10
5.74001e-10
5.72682e-10
5.95824e-10
5.89118e-10
6.10589e-10
6.04641e-10
6.22738e-10
6.09448e-10
6.2799e-10
6.1972e-10
6.38854e-10
6.24974e-10
6.42871e-10
6.30872e-10
6.49431e-10
6.36997e-10
6.54497e-10
6.39202e-10
6.56834e-10
6.43161e-10
6.62215e-10
6.49495e-10
6.66875e-10
6.49373e-10
6.66569e-10
6.5256e-10
6.70956e-10
6.56672e-10
6.74017e-10
6.57574e-10
6.74656e-10
6.61031e-10
6.78958e-10
6.65471e-10
6.7934e-10
6.5905e-10
6.72897e-10
6.59852e-10
6.76423e-10
6.60864e-10
6.78984e-10
6.64401e-10
6.80419e-10
6.46207e-10
6.53436e-10
5.90913e-10
6.80995e-10
5.98552e-10
-4.73119e-10
7.36278e-10
1.38925e-09
2.63748e-10
3.06658e-10
3.87577e-10
2.29926e-10
2.64617e-10
3.98529e-10
4.78128e-10
5.38655e-10
5.46626e-10
5.73133e-10
5.71579e-10
5.94706e-10
5.88074e-10
6.09484e-10
6.03811e-10
6.22132e-10
6.08873e-10
6.27161e-10
6.19082e-10
6.38404e-10
6.24592e-10
6.42335e-10
6.30488e-10
6.49115e-10
6.36801e-10
6.54315e-10
6.39032e-10
6.5657e-10
6.4294e-10
6.62079e-10
6.49416e-10
6.66954e-10
6.49314e-10
6.66445e-10
6.52362e-10
6.71074e-10
6.56561e-10
6.74293e-10
6.5739e-10
6.74915e-10
6.60675e-10
6.79556e-10
6.65173e-10
6.80537e-10
6.58533e-10
6.74106e-10
6.58592e-10
6.78502e-10
6.58873e-10
6.81999e-10
6.61091e-10
6.85802e-10
6.40933e-10
6.61979e-10
5.80586e-10
7.03027e-10
6.20805e-10
-5.55348e-10
8.61528e-10
1.47704e-09
4.93509e-11
2.2993e-10
4.65735e-10
2.70578e-10
2.67895e-10
3.97499e-10
4.8035e-10
5.40771e-10
5.47063e-10
5.72222e-10
5.70399e-10
5.9347e-10
5.86945e-10
6.08266e-10
6.02888e-10
6.21413e-10
6.0825e-10
6.26254e-10
6.18377e-10
6.37866e-10
6.24178e-10
6.41737e-10
6.30062e-10
6.48744e-10
6.36586e-10
6.54089e-10
6.38851e-10
6.56271e-10
6.427e-10
6.61916e-10
6.49325e-10
6.6701e-10
6.49254e-10
6.66314e-10
6.5213e-10
6.71186e-10
6.56422e-10
6.74576e-10
6.57168e-10
6.75205e-10
6.60248e-10
6.80207e-10
6.64786e-10
6.81816e-10
6.57906e-10
6.75458e-10
6.57107e-10
6.80754e-10
6.56596e-10
6.85291e-10
6.57388e-10
6.91541e-10
6.35292e-10
6.70924e-10
5.70275e-10
7.24271e-10
6.45162e-10
-6.45048e-10
1.00025e-09
1.58238e-09
-1.82715e-10
1.33686e-10
5.49843e-10
3.2052e-10
2.73491e-10
3.96043e-10
4.82492e-10
5.43066e-10
5.47621e-10
5.71274e-10
5.69147e-10
5.92115e-10
5.85737e-10
6.06938e-10
6.01875e-10
6.20578e-10
6.07581e-10
6.25275e-10
6.17609e-10
6.37235e-10
6.23731e-10
6.4108e-10
6.29596e-10
6.48315e-10
6.3635e-10
6.53816e-10
6.3866e-10
6.55941e-10
6.42442e-10
6.61723e-10
6.49224e-10
6.67038e-10
6.49193e-10
6.66177e-10
6.51868e-10
6.71289e-10
6.56257e-10
6.74863e-10
6.56911e-10
6.75521e-10
6.59759e-10
6.80896e-10
6.64319e-10
6.83152e-10
6.57185e-10
6.7694e-10
6.55441e-10
6.83119e-10
6.54107e-10
6.88757e-10
6.5344e-10
6.97429e-10
6.29571e-10
6.79903e-10
5.60539e-10
7.4396e-10
6.7168e-10
-7.40044e-10
1.14829e-09
1.70398e-09
-4.25138e-10
1.87435e-11
6.36491e-10
3.79182e-10
2.81853e-10
3.94194e-10
4.84383e-10
5.45452e-10
5.48291e-10
5.703e-10
5.67831e-10
5.90646e-10
5.8445e-10
6.05505e-10
6.00775e-10
6.19624e-10
6.06862e-10
6.24227e-10
6.16782e-10
6.3651e-10
6.23248e-10
6.40366e-10
6.29092e-10
6.47828e-10
6.36092e-10
6.53496e-10
6.38457e-10
6.5558e-10
6.42168e-10
6.61501e-10
6.49111e-10
6.67037e-10
6.49129e-10
6.66037e-10
6.5158e-10
6.71377e-10
6.56068e-10
6.75144e-10
6.56626e-10
6.75855e-10
6.59222e-10
6.81605e-10
6.6379e-10
6.84515e-10
6.56393e-10
6.78478e-10
6.53656e-10
6.85519e-10
6.51506e-10
6.92263e-10
6.49427e-10
7.03228e-10
6.24085e-10
6.88522e-10
5.51927e-10
7.61444e-10
7.00296e-10
-8.37664e-10
1.29755e-09
1.83874e-09
-6.67535e-10
-1.12804e-10
7.21852e-10
4.45365e-10
2.93516e-10
3.92035e-10
4.8582e-10
5.47811e-10
5.49049e-10
5.69306e-10
5.66456e-10
5.89064e-10
5.83087e-10
6.03971e-10
5.99592e-10
6.18554e-10
6.06094e-10
6.23116e-10
6.159e-10
6.35691e-10
6.22728e-10
6.39599e-10
6.28553e-10
6.47283e-10
6.35814e-10
6.53129e-10
6.38242e-10
6.5519e-10
6.41883e-10
6.61247e-10
6.48988e-10
6.67003e-10
6.49062e-10
6.65892e-10
6.51273e-10
6.71443e-10
6.5586e-10
6.75413e-10
6.5632e-10
6.76196e-10
6.58654e-10
6.82311e-10
6.63223e-10
6.85867e-10
6.55567e-10
6.80031e-10
6.51827e-10
6.87859e-10
6.4891e-10
6.95661e-10
6.4555e-10
7.08692e-10
6.19154e-10
6.96413e-10
5.44898e-10
7.76253e-10
7.30604e-10
-9.34206e-10
1.44235e-09
1.98255e-09
-9.01069e-10
-2.57922e-10
8.01954e-10
5.17391e-10
3.08889e-10
3.89778e-10
4.86634e-10
5.50006e-10
5.49867e-10
5.68303e-10
5.65031e-10
5.87371e-10
5.81649e-10
6.02339e-10
5.98331e-10
6.17368e-10
6.05274e-10
6.21945e-10
6.14968e-10
6.34779e-10
6.22167e-10
6.38778e-10
6.27982e-10
6.46678e-10
6.35513e-10
6.52714e-10
6.38017e-10
6.54771e-10
6.41588e-10
6.60959e-10
6.48857e-10
6.66934e-10
6.48995e-10
6.65738e-10
6.50955e-10
6.71479e-10
6.55639e-10
6.75657e-10
6.56008e-10
6.76527e-10
6.58077e-10
6.82986e-10
6.62647e-10
6.87173e-10
6.54755e-10
6.81539e-10
6.50037e-10
6.90036e-10
6.46443e-10
6.98791e-10
6.42013e-10
7.13575e-10
6.15072e-10
7.03266e-10
5.39786e-10
7.88283e-10
7.61801e-10
-1.02592e-09
1.57721e-09
2.12973e-09
-1.11778e-09
-4.12115e-10
8.7314e-10
5.93169e-10
3.28292e-10
3.87753e-10
4.86682e-10
5.51884e-10
5.50712e-10
5.67304e-10
5.63567e-10
5.85573e-10
5.80139e-10
6.00614e-10
5.96996e-10
6.16071e-10
6.04402e-10
6.20718e-10
6.13992e-10
6.33777e-10
6.21566e-10
6.37908e-10
6.27383e-10
6.46013e-10
6.35191e-10
6.52252e-10
6.37782e-10
6.54324e-10
6.41288e-10
6.60636e-10
6.48718e-10
6.66827e-10
6.48929e-10
6.65572e-10
6.50634e-10
6.71478e-10
6.55416e-10
6.75865e-10
6.55703e-10
6.76831e-10
6.57514e-10
6.83606e-10
6.62092e-10
6.88373e-10
6.54008e-10
6.82938e-10
6.48377e-10
6.91944e-10
6.4423e-10
7.01497e-10
6.39014e-10
7.17657e-10
6.12097e-10
7.08831e-10
5.36817e-10
7.97564e-10
7.92916e-10
-1.10884e-09
1.69708e-09
2.27365e-09
-1.30951e-09
-5.69807e-10
9.32109e-10
6.70251e-10
3.5187e-10
3.86324e-10
4.85844e-10
5.53274e-10
5.51535e-10
5.66318e-10
5.62074e-10
5.83674e-10
5.78559e-10
5.98802e-10
5.95593e-10
6.14668e-10
6.03478e-10
6.19438e-10
6.12976e-10
6.32688e-10
6.20924e-10
6.36987e-10
6.26759e-10
6.45291e-10
6.34847e-10
6.51743e-10
6.37538e-10
6.53847e-10
6.40987e-10
6.60276e-10
6.48575e-10
6.66677e-10
6.48867e-10
6.65388e-10
6.5032e-10
6.71429e-10
6.55199e-10
6.76023e-10
6.55423e-10
6.77089e-10
6.56991e-10
6.84134e-10
6.61593e-10
6.89427e-10
6.53382e-10
6.84161e-10
6.46932e-10
6.93488e-10
6.42397e-10
7.03631e-10
6.36721e-10
7.20743e-10
6.10434e-10
7.12916e-10
5.3613e-10
8.04215e-10
8.23035e-10
-1.17903e-09
1.79716e-09
2.40727e-09
-1.46883e-09
-7.24825e-10
9.76075e-10
7.45987e-10
3.79578e-10
3.85856e-10
4.84034e-10
5.53996e-10
5.52271e-10
5.65351e-10
5.60561e-10
5.81678e-10
5.7691e-10
5.96903e-10
5.94128e-10
6.13163e-10
6.02504e-10
6.18107e-10
6.11924e-10
6.31515e-10
6.20241e-10
6.36018e-10
6.26115e-10
6.44511e-10
6.34482e-10
6.51187e-10
6.37288e-10
6.53341e-10
6.4069e-10
6.59876e-10
6.48431e-10
6.66482e-10
6.48815e-10
6.6518e-10
6.50024e-10
6.71324e-10
6.54999e-10
6.76118e-10
6.55183e-10
6.77282e-10
6.56533e-10
6.84543e-10
6.61187e-10
6.90296e-10
6.52926e-10
6.85144e-10
6.45782e-10
6.94585e-10
6.41066e-10
7.05075e-10
6.35302e-10
7.22683e-10
6.10231e-10
7.15398e-10
5.37787e-10
8.08374e-10
8.51355e-10
-1.23264e-09
1.87308e-09
2.52437e-09
-1.58938e-09
-8.71311e-10
1.0028e-09
8.17754e-10
4.112e-10
3.86715e-10
4.81229e-10
5.53889e-10
5.52851e-10
5.64404e-10
5.59039e-10
5.79589e-10
5.75191e-10
5.94922e-10
5.92602e-10
6.11564e-10
6.01479e-10
6.16726e-10
6.10842e-10
6.30264e-10
6.19517e-10
6.35e-10
6.25451e-10
6.43674e-10
6.34098e-10
6.50586e-10
6.37034e-10
6.52803e-10
6.40401e-10
6.59433e-10
6.48289e-10
6.66239e-10
6.48776e-10
6.6494e-10
6.49755e-10
6.71152e-10
6.54828e-10
6.76136e-10
6.55002e-10
6.77388e-10
6.56166e-10
6.84803e-10
6.60907e-10
6.90939e-10
6.52685e-10
6.85828e-10
6.44994e-10
6.95164e-10
6.40314e-10
7.05733e-10
6.34858e-10
7.23381e-10
6.11598e-10
7.16223e-10
5.41785e-10
8.10264e-10
8.7723e-10
-1.26667e-09
1.92117e-09
2.61952e-09
-1.66632e-09
-1.00392e-09
1.01087e-09
8.83172e-10
4.46307e-10
3.89214e-10
4.77463e-10
5.52817e-10
5.532e-10
5.63474e-10
5.57518e-10
5.77413e-10
5.73404e-10
5.92859e-10
5.9102e-10
6.09877e-10
6.00407e-10
6.15298e-10
6.09732e-10
6.2894e-10
6.18754e-10
6.33932e-10
6.24773e-10
6.42783e-10
6.33696e-10
6.4994e-10
6.36779e-10
6.52232e-10
6.40123e-10
6.58947e-10
6.48153e-10
6.65947e-10
6.48757e-10
6.6466e-10
6.49522e-10
6.70907e-10
6.54695e-10
6.76066e-10
6.54895e-10
6.77391e-10
6.55912e-10
6.84894e-10
6.60783e-10
6.91327e-10
6.52697e-10
6.86171e-10
6.44623e-10
6.95174e-10
6.40202e-10
7.0555e-10
6.35448e-10
7.22801e-10
6.14556e-10
7.15408e-10
5.48082e-10
8.10013e-10
9.00284e-10
-1.27867e-09
1.93849e-09
2.68833e-09
-1.69598e-09
-1.11814e-09
9.99743e-10
9.4032e-10
4.8426e-10
3.93554e-10
4.72804e-10
5.50676e-10
5.53243e-10
5.62555e-10
5.56008e-10
5.75156e-10
5.71553e-10
5.9072e-10
5.89384e-10
6.0811e-10
5.9929e-10
6.13825e-10
6.08596e-10
6.27547e-10
6.17953e-10
6.32816e-10
6.24081e-10
6.41838e-10
6.33276e-10
6.4925e-10
6.36524e-10
6.51629e-10
6.39861e-10
6.58415e-10
6.48024e-10
6.65602e-10
6.48763e-10
6.64334e-10
6.49333e-10
6.70583e-10
6.5461e-10
6.75899e-10
6.54876e-10
6.77279e-10
6.55789e-10
6.84797e-10
6.60835e-10
6.91438e-10
6.52993e-10
6.86147e-10
6.44704e-10
6.94594e-10
6.40765e-10
7.04518e-10
6.37082e-10
7.20971e-10
6.19061e-10
7.13037e-10
5.56651e-10
8.0744e-10
9.20659e-10
-1.26668e-09
1.92226e-09
2.72668e-09
-1.67578e-09
-1.21073e-09
9.69605e-10
9.87927e-10
5.24282e-10
3.99799e-10
4.67312e-10
5.47368e-10
5.52894e-10
5.6163e-10
5.54508e-10
5.7282e-10
5.69632e-10
5.88506e-10
5.8769e-10
6.06264e-10
5.98131e-10
6.1231e-10
6.07432e-10
6.26087e-10
6.17117e-10
6.3165e-10
6.23376e-10
6.40842e-10
6.32838e-10
6.48517e-10
6.36273e-10
6.50992e-10
6.39616e-10
6.57839e-10
6.47904e-10
6.65201e-10
6.488e-10
6.6396e-10
6.49194e-10
6.70174e-10
6.5458e-10
6.75629e-10
6.54958e-10
6.77044e-10
6.5581e-10
6.84505e-10
6.61074e-10
6.91261e-10
6.53591e-10
6.85749e-10
6.45247e-10
6.93434e-10
6.42004e-10
7.02679e-10
6.39721e-10
7.17986e-10
6.25017e-10
7.09248e-10
5.67602e-10
8.01869e-10
9.39146e-10
-1.22841e-09
1.8697e-09
2.73263e-09
-1.60387e-09
-1.27934e-09
9.20967e-10
1.02533e-09
5.65655e-10
4.07956e-10
4.61045e-10
5.42792e-10
5.52062e-10
5.60675e-10
5.53019e-10
5.70403e-10
5.67638e-10
5.86211e-10
5.85935e-10
6.04341e-10
5.96934e-10
6.10751e-10
6.0624e-10
6.2456e-10
6.1625e-10
6.30434e-10
6.22657e-10
6.39794e-10
6.32383e-10
6.47738e-10
6.36031e-10
6.50321e-10
6.39393e-10
6.57217e-10
6.47794e-10
6.64742e-10
6.48874e-10
6.63532e-10
6.49109e-10
6.69675e-10
6.54609e-10
6.75247e-10
6.55149e-10
6.76679e-10
6.55981e-10
6.8401e-10
6.61504e-10
6.90792e-10
6.54498e-10
6.8498e-10
6.46244e-10
6.91714e-10
6.43884e-10
7.00099e-10
6.4328e-10
7.13964e-10
6.32314e-10
7.04086e-10
5.81292e-10
7.92131e-10
9.56394e-10
-1.16209e-09
1.77845e-09
1.00275e-09
9.23905e-10
4.81088e-10
1.60065e-10
1.69096e-10
2.7414e-10
4.00054e-10
4.69097e-10
5.31596e-10
5.47286e-10
5.78526e-10
5.77832e-10
6.00306e-10
5.93727e-10
6.1485e-10
6.07543e-10
6.24366e-10
6.12234e-10
6.31492e-10
6.22306e-10
6.40259e-10
6.27025e-10
6.45025e-10
6.32464e-10
6.50498e-10
6.37849e-10
6.54928e-10
6.40186e-10
6.57769e-10
6.44043e-10
6.62526e-10
6.49623e-10
6.65985e-10
6.49689e-10
6.66901e-10
6.52906e-10
6.70125e-10
6.56678e-10
6.72513e-10
6.57954e-10
6.73611e-10
6.6168e-10
6.7643e-10
6.65335e-10
6.74045e-10
6.59902e-10
6.68609e-10
6.62469e-10
6.68329e-10
6.66165e-10
6.68158e-10
6.73655e-10
6.59727e-10
6.63184e-10
6.20715e-10
6.32847e-10
5.55672e-10
4.45478e-10
-5.80906e-11
4.6229e-10
1.02413e-09
9.3525e-10
4.76187e-10
1.5529e-10
1.66927e-10
2.73702e-10
3.99855e-10
4.69037e-10
5.31353e-10
5.47119e-10
5.78247e-10
5.77701e-10
6.00069e-10
5.93633e-10
6.14663e-10
6.07514e-10
6.242e-10
6.12196e-10
6.31343e-10
6.22319e-10
6.40129e-10
6.27033e-10
6.44904e-10
6.32506e-10
6.50389e-10
6.37904e-10
6.5482e-10
6.40237e-10
6.57668e-10
6.44113e-10
6.62436e-10
6.4971e-10
6.65888e-10
6.49754e-10
6.66806e-10
6.53002e-10
6.70043e-10
6.56781e-10
6.72436e-10
6.58056e-10
6.73543e-10
6.61807e-10
6.76395e-10
6.65484e-10
6.74019e-10
6.60027e-10
6.68609e-10
6.62643e-10
6.6839e-10
6.66341e-10
6.68314e-10
6.73885e-10
6.60047e-10
6.63391e-10
6.21271e-10
6.33382e-10
5.59002e-10
4.49031e-10
-7.29677e-11
4.51111e-10
1.05084e-09
9.46311e-10
4.70294e-10
1.49747e-10
1.63925e-10
2.72876e-10
3.99656e-10
4.68893e-10
5.31196e-10
5.46834e-10
5.77982e-10
5.77429e-10
5.99864e-10
5.93396e-10
6.14502e-10
6.07372e-10
6.24112e-10
6.12039e-10
6.31236e-10
6.22219e-10
6.40078e-10
6.26928e-10
6.44853e-10
6.32447e-10
6.50359e-10
6.37858e-10
6.54806e-10
6.40186e-10
6.57654e-10
6.44085e-10
6.62433e-10
6.49703e-10
6.65901e-10
6.4972e-10
6.668e-10
6.5301e-10
6.70063e-10
6.56801e-10
6.72474e-10
6.5808e-10
6.73576e-10
6.61866e-10
6.76466e-10
6.65586e-10
6.74143e-10
6.60118e-10
6.68715e-10
6.62804e-10
6.68588e-10
6.6651e-10
6.68563e-10
6.7413e-10
6.60507e-10
6.63708e-10
6.21942e-10
6.33618e-10
5.63055e-10
4.58148e-10
-9.5464e-11
4.37914e-10
1.08144e-09
9.54579e-10
4.64373e-10
1.44345e-10
1.59842e-10
2.71637e-10
3.99461e-10
4.6884e-10
5.31142e-10
5.46534e-10
5.77678e-10
5.77083e-10
5.99624e-10
5.9309e-10
6.14298e-10
6.07185e-10
6.24038e-10
6.11832e-10
6.31094e-10
6.22073e-10
6.40039e-10
6.26783e-10
6.44795e-10
6.32356e-10
6.5034e-10
6.37787e-10
6.54814e-10
6.40107e-10
6.57653e-10
6.4403e-10
6.62449e-10
6.49678e-10
6.65961e-10
6.4966e-10
6.66811e-10
6.52997e-10
6.70122e-10
6.56802e-10
6.72566e-10
6.58081e-10
6.73654e-10
6.61904e-10
6.76604e-10
6.65687e-10
6.74392e-10
6.60197e-10
6.68907e-10
6.62946e-10
6.68937e-10
6.6663e-10
6.68979e-10
6.74293e-10
6.61282e-10
6.63869e-10
6.23016e-10
6.33208e-10
5.69271e-10
4.7145e-10
-1.24127e-10
4.25033e-10
1.11174e-09
9.54799e-10
4.59657e-10
1.41763e-10
1.55398e-10
2.70061e-10
3.99312e-10
4.6896e-10
5.31216e-10
5.46238e-10
5.77291e-10
5.76649e-10
5.99303e-10
5.92702e-10
6.14007e-10
6.06955e-10
6.23942e-10
6.1158e-10
6.30881e-10
6.21889e-10
6.39985e-10
6.26612e-10
6.44698e-10
6.32245e-10
6.50304e-10
6.37707e-10
6.5482e-10
6.40017e-10
6.57634e-10
6.43962e-10
6.62458e-10
6.49654e-10
6.66046e-10
6.49595e-10
6.6681e-10
6.52977e-10
6.70199e-10
6.56803e-10
6.72694e-10
6.58075e-10
6.73753e-10
6.61928e-10
6.76794e-10
6.65792e-10
6.74759e-10
6.6026e-10
6.6918e-10
6.63037e-10
6.69451e-10
6.66646e-10
6.69596e-10
6.74277e-10
6.62459e-10
6.63695e-10
6.24682e-10
6.31827e-10
5.77999e-10
4.87487e-10
-1.57188e-10
4.16998e-10
1.13962e-09
9.39927e-10
4.55999e-10
1.4491e-10
1.51832e-10
2.68277e-10
3.99246e-10
4.69321e-10
5.31463e-10
5.45965e-10
5.76812e-10
5.76112e-10
5.98881e-10
5.92218e-10
6.1361e-10
6.06658e-10
6.23807e-10
6.11279e-10
6.30583e-10
6.21654e-10
6.39904e-10
6.26413e-10
6.44551e-10
6.32108e-10
6.50244e-10
6.37614e-10
6.54818e-10
6.39916e-10
6.57591e-10
6.4388e-10
6.62457e-10
6.49629e-10
6.66152e-10
6.49527e-10
6.66793e-10
6.52946e-10
6.7029e-10
6.568e-10
6.72853e-10
6.58058e-10
6.73871e-10
6.61928e-10
6.77036e-10
6.65887e-10
6.75248e-10
6.60289e-10
6.69542e-10
6.63036e-10
6.70146e-10
6.665e-10
6.70453e-10
6.7398e-10
6.64112e-10
6.63016e-10
6.27125e-10
6.29168e-10
5.89439e-10
5.05012e-10
-1.94045e-10
4.19789e-10
1.16568e-09
9.03121e-10
4.51665e-10
1.5638e-10
1.50533e-10
2.66446e-10
3.99275e-10
4.69984e-10
5.31934e-10
5.45743e-10
5.76248e-10
5.75468e-10
5.98348e-10
5.91633e-10
6.13096e-10
6.06281e-10
6.23621e-10
6.10924e-10
6.30194e-10
6.21358e-10
6.39785e-10
6.26181e-10
6.44347e-10
6.31936e-10
6.50154e-10
6.37505e-10
6.548e-10
6.39802e-10
6.57519e-10
6.43778e-10
6.62442e-10
6.49598e-10
6.66272e-10
6.49459e-10
6.66756e-10
6.52895e-10
6.70394e-10
6.56787e-10
6.7304e-10
6.58024e-10
6.74008e-10
6.6189e-10
6.77335e-10
6.65953e-10
6.7586e-10
6.60266e-10
6.70007e-10
6.62897e-10
6.71042e-10
6.66134e-10
6.716e-10
6.73302e-10
6.6632e-10
6.61664e-10
6.30533e-10
6.24989e-10
6.03709e-10
5.23143e-10
-2.35431e-10
4.38991e-10
1.19253e-09
8.3874e-10
4.43799e-10
1.78298e-10
1.52998e-10
2.64749e-10
3.99372e-10
4.7099e-10
5.3267e-10
5.45601e-10
5.7561e-10
5.74721e-10
5.97701e-10
5.90947e-10
6.12462e-10
6.05817e-10
6.2337e-10
6.10516e-10
6.29709e-10
6.20993e-10
6.39615e-10
6.25917e-10
6.4408e-10
6.31725e-10
6.50029e-10
6.37378e-10
6.54759e-10
6.39675e-10
6.57413e-10
6.43654e-10
6.6241e-10
6.49561e-10
6.66401e-10
6.49391e-10
6.66699e-10
6.52822e-10
6.70506e-10
6.5676e-10
6.7325e-10
6.57968e-10
6.74164e-10
6.61805e-10
6.77691e-10
6.65973e-10
6.76596e-10
6.60173e-10
6.70593e-10
6.6258e-10
6.72161e-10
6.65492e-10
6.73085e-10
6.72166e-10
6.69162e-10
6.59507e-10
6.35057e-10
6.19169e-10
6.20696e-10
5.41488e-10
-2.82759e-10
4.78779e-10
1.22436e-09
7.42886e-10
4.28684e-10
2.1208e-10
1.60778e-10
2.63409e-10
3.99471e-10
4.72353e-10
5.33698e-10
5.45561e-10
5.74906e-10
5.73877e-10
5.96939e-10
5.90166e-10
6.11707e-10
6.05262e-10
6.2304e-10
6.10059e-10
6.29131e-10
6.20556e-10
6.39385e-10
6.25621e-10
6.43747e-10
6.31473e-10
6.49863e-10
6.37233e-10
6.54688e-10
6.39536e-10
6.5727e-10
6.43508e-10
6.62357e-10
6.49516e-10
6.66528e-10
6.49328e-10
6.66622e-10
6.52721e-10
6.70625e-10
6.56717e-10
6.7348e-10
6.57887e-10
6.74342e-10
6.61663e-10
6.78109e-10
6.65931e-10
6.77454e-10
6.5999e-10
6.71318e-10
6.62048e-10
6.73519e-10
6.64529e-10
6.74944e-10
6.70466e-10
6.72686e-10
6.56473e-10
6.40758e-10
6.11752e-10
6.40073e-10
5.60055e-10
-3.37814e-10
5.41571e-10
1.26548e-09
6.13956e-10
4.02554e-10
2.58333e-10
1.75308e-10
2.62677e-10
3.99469e-10
4.74062e-10
5.35031e-10
5.45641e-10
5.74147e-10
5.72945e-10
5.96061e-10
5.89294e-10
6.10834e-10
6.04614e-10
6.22621e-10
6.09556e-10
6.2846e-10
6.20047e-10
6.39083e-10
6.25294e-10
6.43345e-10
6.31177e-10
6.4965e-10
6.37069e-10
6.54581e-10
6.39385e-10
6.57087e-10
6.4334e-10
6.62281e-10
6.49462e-10
6.66646e-10
6.49267e-10
6.66527e-10
6.52591e-10
6.70747e-10
6.56653e-10
6.73726e-10
6.57774e-10
6.74546e-10
6.61456e-10
6.78591e-10
6.65813e-10
6.78432e-10
6.59702e-10
6.72199e-10
6.61276e-10
6.75125e-10
6.63215e-10
6.77198e-10
6.68193e-10
6.76894e-10
6.52565e-10
6.47596e-10
6.02947e-10
6.61197e-10
5.7925e-10
-4.01801e-10
6.27652e-10
1.31989e-09
4.52789e-10
3.61924e-10
3.16734e-10
1.97796e-10
2.62863e-10
3.99238e-10
4.76067e-10
5.36661e-10
5.45847e-10
5.73338e-10
5.71929e-10
5.95068e-10
5.88337e-10
6.09845e-10
6.03874e-10
6.22106e-10
6.09008e-10
6.27703e-10
6.19467e-10
6.38704e-10
6.24935e-10
6.42877e-10
6.30838e-10
6.49387e-10
6.36887e-10
6.54433e-10
6.39222e-10
6.56867e-10
6.43149e-10
6.6218e-10
6.49398e-10
6.66749e-10
6.49209e-10
6.66418e-10
6.52428e-10
6.70869e-10
6.56567e-10
6.73985e-10
6.57625e-10
6.74778e-10
6.61178e-10
6.79135e-10
6.65607e-10
6.79522e-10
6.59296e-10
6.73242e-10
6.60252e-10
6.76973e-10
6.61545e-10
6.79844e-10
6.65357e-10
6.81729e-10
6.47873e-10
6.55413e-10
5.93126e-10
6.83258e-10
5.99707e-10
-4.75238e-10
7.35193e-10
1.39019e-09
2.62523e-10
3.04182e-10
3.86046e-10
2.29099e-10
2.64342e-10
3.98651e-10
4.78256e-10
5.38569e-10
5.46182e-10
5.72482e-10
5.70833e-10
5.93958e-10
5.87297e-10
6.08742e-10
6.03041e-10
6.21487e-10
6.08417e-10
6.26864e-10
6.18818e-10
6.3824e-10
6.24545e-10
6.42343e-10
6.30456e-10
6.49071e-10
6.36686e-10
6.54242e-10
6.39048e-10
6.56609e-10
6.42937e-10
6.62053e-10
6.49324e-10
6.66832e-10
6.49153e-10
6.66297e-10
6.52231e-10
6.7099e-10
6.56454e-10
6.74255e-10
6.57439e-10
6.75041e-10
6.60826e-10
6.7974e-10
6.65311e-10
6.80714e-10
6.58771e-10
6.74443e-10
6.58981e-10
6.79037e-10
6.59534e-10
6.8284e-10
6.6202e-10
6.8708e-10
6.42569e-10
6.63955e-10
5.8278e-10
7.05309e-10
6.22006e-10
-5.57444e-10
8.60575e-10
1.4781e-09
4.81177e-11
2.27402e-10
4.64117e-10
2.69695e-10
2.67607e-10
3.97641e-10
4.80506e-10
5.40714e-10
5.46644e-10
5.71585e-10
5.69662e-10
5.92731e-10
5.86177e-10
6.07529e-10
6.02119e-10
6.20758e-10
6.07782e-10
6.25948e-10
6.18103e-10
6.37688e-10
6.24123e-10
6.41746e-10
6.30032e-10
6.48699e-10
6.36466e-10
6.54006e-10
6.38862e-10
6.56316e-10
6.42704e-10
6.61897e-10
6.49239e-10
6.66893e-10
6.49096e-10
6.66169e-10
6.52002e-10
6.71105e-10
6.56315e-10
6.74534e-10
6.57213e-10
6.75333e-10
6.60404e-10
6.80397e-10
6.64925e-10
6.81989e-10
6.58135e-10
6.75787e-10
6.57484e-10
6.81275e-10
6.57236e-10
6.86113e-10
6.58286e-10
6.92785e-10
6.36893e-10
6.72899e-10
5.72452e-10
7.26575e-10
6.46404e-10
-6.47161e-10
9.99427e-10
1.58361e-09
-1.83962e-10
1.31129e-10
5.48158e-10
3.19572e-10
2.73174e-10
3.96194e-10
4.82672e-10
5.43036e-10
5.47227e-10
5.70653e-10
5.6842e-10
5.91388e-10
5.84978e-10
6.06208e-10
6.01109e-10
6.19916e-10
6.07101e-10
6.2496e-10
6.17326e-10
6.37044e-10
6.23666e-10
6.41088e-10
6.29567e-10
6.4827e-10
6.36226e-10
6.53723e-10
6.38663e-10
6.55988e-10
6.42452e-10
6.61713e-10
6.49144e-10
6.66926e-10
6.49038e-10
6.66035e-10
6.51742e-10
6.7121e-10
6.5615e-10
6.74815e-10
6.56952e-10
6.7565e-10
6.59919e-10
6.81091e-10
6.6446e-10
6.83322e-10
6.57405e-10
6.77263e-10
6.55804e-10
6.83626e-10
6.54726e-10
6.89557e-10
6.54305e-10
6.98637e-10
6.31133e-10
6.81874e-10
5.627e-10
7.46286e-10
6.72961e-10
-7.42211e-10
1.14767e-09
1.70537e-09
-4.26373e-10
1.62056e-11
6.34766e-10
3.78162e-10
2.81502e-10
3.94343e-10
4.84579e-10
5.45445e-10
5.47918e-10
5.69694e-10
5.67115e-10
5.8993e-10
5.83703e-10
6.04784e-10
6.00014e-10
6.18959e-10
6.06375e-10
6.23906e-10
6.16492e-10
6.36308e-10
6.23173e-10
6.40373e-10
6.29065e-10
6.47782e-10
6.35966e-10
6.53395e-10
6.38453e-10
6.55629e-10
6.42185e-10
6.61498e-10
6.49038e-10
6.66929e-10
6.48977e-10
6.65896e-10
6.51456e-10
6.71301e-10
6.55962e-10
6.75093e-10
6.56662e-10
6.75985e-10
6.59384e-10
6.81806e-10
6.63933e-10
6.84681e-10
6.56605e-10
6.78791e-10
6.54006e-10
6.86011e-10
6.52102e-10
6.93041e-10
6.50258e-10
7.04401e-10
6.25606e-10
6.90484e-10
5.54073e-10
7.63789e-10
7.01628e-10
-8.39908e-10
1.29701e-09
1.84026e-09
-6.68693e-10
-1.15253e-10
7.20122e-10
4.44266e-10
2.93101e-10
3.92173e-10
4.86027e-10
5.47822e-10
5.48695e-10
5.68715e-10
5.65751e-10
5.88359e-10
5.82352e-10
6.03259e-10
5.98838e-10
6.17887e-10
6.056e-10
6.22789e-10
6.15604e-10
6.35478e-10
6.22643e-10
6.39603e-10
6.28528e-10
6.47236e-10
6.35685e-10
6.53019e-10
6.3823e-10
6.55239e-10
6.41904e-10
6.61252e-10
6.48922e-10
6.669e-10
6.48914e-10
6.65752e-10
6.5115e-10
6.71369e-10
6.55755e-10
6.75357e-10