/*--------------------------------*- C++ -*----------------------------------*\
| =========                 |                                                 |
| \\      /  F ield         | OpenFOAM: The Open Source CFD Toolbox           |
|  \\    /   O peration     | Version:  2312                                  |
|   \\  /    A nd           | Website:  www.openfoam.com                      |
|    \\/     M anipulation  |                                                 |
\*---------------------------------------------------------------------------*/
FoamFile
{
    version     2.0;
    format      ascii;
    arch        "LSB;label=32;scalar=64";
    class       volScalarField;
    location    "500";
    object      pPrime2Mean;
}
// * * * * * * * * * * * * * * * * * * * * * * * * * * * * * * * * * * * * * //

dimensions      [0 4 -4 0 0 0 0];

internalField   nonuniform List<scalar> 
144000
(
9.38439e-18
8.19099e-18
1.0911e-17
1.2272e-17
9.09268e-18
5.99367e-18
4.70881e-18
4.13905e-18
3.78961e-18
3.52204e-18
3.32602e-18
3.02598e-18
2.80355e-18
2.58506e-18
2.45035e-18
2.30894e-18
2.25829e-18
2.12228e-18
2.07252e-18
1.97904e-18
1.93584e-18
1.8311e-18
1.81071e-18
1.72385e-18
1.72864e-18
1.63832e-18
1.65537e-18
1.57605e-18
1.5681e-18
1.51786e-18
1.5039e-18
1.46098e-18
1.45819e-18
1.39272e-18
1.41816e-18
1.3485e-18
1.35668e-18
1.33271e-18
1.29728e-18
1.28754e-18
1.29466e-18
1.21344e-18
1.29319e-18
1.20882e-18
1.21127e-18
1.25308e-18
1.14629e-18
1.19803e-18
1.27492e-18
1.03143e-18
1.38278e-18
1.19014e-18
1.1139e-18
1.70118e-18
1.17103e-18
1.494e-18
2.9444e-18
1.75448e-18
4.31265e-18
9.77144e-18
9.86922e-18
8.33915e-18
1.11813e-17
1.24778e-17
9.18146e-18
6.03464e-18
4.73367e-18
4.15598e-18
3.80005e-18
3.52971e-18
3.33214e-18
3.03031e-18
2.80612e-18
2.58733e-18
2.45181e-18
2.31019e-18
2.25974e-18
2.12339e-18
2.0732e-18
1.9801e-18
1.93649e-18
1.8318e-18
1.81104e-18
1.72452e-18
1.72916e-18
1.63873e-18
1.6558e-18
1.57675e-18
1.56809e-18
1.51866e-18
1.504e-18
1.46149e-18
1.45874e-18
1.39275e-18
1.41882e-18
1.34904e-18
1.35655e-18
1.33406e-18
1.29714e-18
1.2881e-18
1.29607e-18
1.21308e-18
1.2947e-18
1.21036e-18
1.21083e-18
1.25664e-18
1.147e-18
1.19903e-18
1.28177e-18
1.0305e-18
1.39004e-18
1.20037e-18
1.11455e-18
1.72355e-18
1.19046e-18
1.50618e-18
3.01571e-18
1.82945e-18
4.49149e-18
9.87399e-18
1.02196e-17
8.45774e-18
1.12126e-17
1.25657e-17
9.16377e-18
6.01433e-18
4.72954e-18
4.15904e-18
3.80396e-18
3.53424e-18
3.33692e-18
3.03373e-18
2.80834e-18
2.58916e-18
2.45319e-18
2.31111e-18
2.26179e-18
2.12445e-18
2.07413e-18
1.98127e-18
1.93752e-18
1.83238e-18
1.8117e-18
1.72502e-18
1.73021e-18
1.6389e-18
1.65676e-18
1.57746e-18
1.56827e-18
1.5196e-18
1.50429e-18
1.46201e-18
1.45981e-18
1.39256e-18
1.42008e-18
1.34962e-18
1.35659e-18
1.33599e-18
1.29719e-18
1.28879e-18
1.29859e-18
1.21225e-18
1.29752e-18
1.21247e-18
1.21069e-18
1.26205e-18
1.14847e-18
1.20065e-18
1.29208e-18
1.02999e-18
1.39964e-18
1.21639e-18
1.11544e-18
1.75069e-18
1.22048e-18
1.50886e-18
3.07823e-18
1.91859e-18
4.62987e-18
1.00135e-17
1.01777e-17
8.22501e-18
1.08435e-17
1.23338e-17
8.96339e-18
5.88794e-18
4.66775e-18
4.12954e-18
3.78966e-18
3.52709e-18
3.33359e-18
3.03163e-18
2.80684e-18
2.58838e-18
2.45261e-18
2.31061e-18
2.26309e-18
2.1248e-18
2.07448e-18
1.98211e-18
1.93826e-18
1.83274e-18
1.81213e-18
1.72533e-18
1.73124e-18
1.63893e-18
1.65782e-18
1.57818e-18
1.56833e-18
1.52069e-18
1.50454e-18
1.46259e-18
1.46114e-18
1.39226e-18
1.42159e-18
1.3503e-18
1.35659e-18
1.33838e-18
1.29732e-18
1.28955e-18
1.30184e-18
1.21111e-18
1.3011e-18
1.21508e-18
1.21066e-18
1.26853e-18
1.15049e-18
1.20237e-18
1.30394e-18
1.03056e-18
1.40755e-18
1.23697e-18
1.11319e-18
1.77191e-18
1.258e-18
1.48024e-18
3.11525e-18
1.974e-18
4.54063e-18
9.91896e-18
9.74616e-18
7.59686e-18
1.01174e-17
1.17505e-17
8.58251e-18
5.66065e-18
4.54968e-18
4.0665e-18
3.75316e-18
3.50339e-18
3.31778e-18
3.02073e-18
2.79913e-18
2.58304e-18
2.44855e-18
2.30755e-18
2.2624e-18
2.12353e-18
2.07346e-18
1.98201e-18
1.93816e-18
1.83256e-18
1.81192e-18
1.72522e-18
1.7319e-18
1.63868e-18
1.6587e-18
1.57876e-18
1.56811e-18
1.52177e-18
1.50459e-18
1.46311e-18
1.46257e-18
1.39187e-18
1.42308e-18
1.35108e-18
1.35645e-18
1.34106e-18
1.29752e-18
1.29027e-18
1.30544e-18
1.20983e-18
1.30492e-18
1.21801e-18
1.21063e-18
1.27531e-18
1.1529e-18
1.20363e-18
1.316e-18
1.03183e-18
1.41211e-18
1.2594e-18
1.1073e-18
1.78325e-18
1.29861e-18
1.42031e-18
3.13522e-18
1.9845e-18
4.26301e-18
9.58814e-18
9.13575e-18
6.84626e-18
9.2348e-18
1.1e-17
8.12131e-18
5.38318e-18
4.39635e-18
3.98037e-18
3.69914e-18
3.46508e-18
3.28952e-18
3.00068e-18
2.78447e-18
2.57242e-18
2.44041e-18
2.30133e-18
2.25905e-18
2.12013e-18
2.07062e-18
1.98044e-18
1.93677e-18
1.83157e-18
1.81078e-18
1.72439e-18
1.73195e-18
1.63798e-18
1.65916e-18
1.57902e-18
1.56751e-18
1.52266e-18
1.50437e-18
1.46346e-18
1.46392e-18
1.39138e-18
1.42433e-18
1.35189e-18
1.3561e-18
1.34378e-18
1.29775e-18
1.29082e-18
1.30908e-18
1.20845e-18
1.3086e-18
1.2211e-18
1.2104e-18
1.28189e-18
1.15532e-18
1.20419e-18
1.3272e-18
1.03309e-18
1.4137e-18
1.28029e-18
1.0997e-18
1.78454e-18
1.33829e-18
1.34409e-18
3.14508e-18
1.96398e-18
3.95797e-18
9.23256e-18
8.53533e-18
6.26877e-18
8.38097e-18
1.02272e-17
7.64427e-18
5.09038e-18
4.22718e-18
3.88026e-18
3.63288e-18
3.41559e-18
3.25154e-18
2.97274e-18
2.76358e-18
2.55685e-18
2.42835e-18
2.29198e-18
2.25283e-18
2.11444e-18
2.0658e-18
1.97718e-18
1.93385e-18
1.8296e-18
1.80855e-18
1.7227e-18
1.73122e-18
1.63672e-18
1.65902e-18
1.57883e-18
1.56643e-18
1.5232e-18
1.50379e-18
1.46354e-18
1.46503e-18
1.39078e-18
1.42519e-18
1.35265e-18
1.35548e-18
1.34637e-18
1.29795e-18
1.29112e-18
1.31248e-18
1.20707e-18
1.3118e-18
1.22414e-18
1.20991e-18
1.28782e-18
1.15749e-18
1.20402e-18
1.3369e-18
1.03405e-18
1.41319e-18
1.29757e-18
1.09265e-18
1.77711e-18
1.37398e-18
1.26588e-18
3.14311e-18
1.91791e-18
3.73502e-18
9.01458e-18
8.01496e-18
6.02119e-18
7.62184e-18
9.50549e-18
7.17926e-18
4.79956e-18
4.05008e-18
3.77117e-18
3.5583e-18
3.35863e-18
3.20644e-18
2.93895e-18
2.73777e-18
2.53714e-18
2.41282e-18
2.2798e-18
2.24397e-18
2.10669e-18
2.05914e-18
1.97226e-18
1.9294e-18
1.8266e-18
1.80521e-18
1.7201e-18
1.72962e-18
1.63489e-18
1.65814e-18
1.57814e-18
1.56482e-18
1.52332e-18
1.50279e-18
1.4633e-18
1.46576e-18
1.39006e-18
1.42554e-18
1.35327e-18
1.35459e-18
1.34864e-18
1.29808e-18
1.29113e-18
1.31542e-18
1.20572e-18
1.31434e-18
1.22694e-18
1.20921e-18
1.29285e-18
1.15932e-18
1.20325e-18
1.34481e-18
1.03462e-18
1.41137e-18
1.31044e-18
1.08731e-18
1.76294e-18
1.40479e-18
1.19154e-18
3.12733e-18
1.85295e-18
3.61928e-18
8.9954e-18
7.60795e-18
6.15666e-18
6.96928e-18
8.86812e-18
6.73457e-18
4.51648e-18
3.8694e-18
3.65607e-18
3.47796e-18
3.2963e-18
3.15629e-18
2.90092e-18
2.70826e-18
2.51416e-18
2.39432e-18
2.26516e-18
2.23275e-18
2.09717e-18
2.0509e-18
1.96589e-18
1.92356e-18
1.82265e-18
1.80084e-18
1.71663e-18
1.72717e-18
1.63255e-18
1.6565e-18
1.57696e-18
1.56269e-18
1.52298e-18
1.50136e-18
1.46272e-18
1.46605e-18
1.38924e-18
1.42536e-18
1.35372e-18
1.35345e-18
1.35051e-18
1.29811e-18
1.29087e-18
1.3178e-18
1.20447e-18
1.31622e-18
1.22937e-18
1.20843e-18
1.2969e-18
1.1608e-18
1.20212e-18
1.35098e-18
1.03488e-18
1.40893e-18
1.31914e-18
1.08399e-18
1.74437e-18
1.43071e-18
1.12426e-18
3.09987e-18
1.78119e-18
3.60545e-18
9.15925e-18
7.33401e-18
6.63036e-18
6.42154e-18
8.32151e-18
6.31801e-18
4.24456e-18
3.68836e-18
3.53728e-18
3.39381e-18
3.23032e-18
3.10253e-18
2.85997e-18
2.67616e-18
2.48871e-18
2.37349e-18
2.24851e-18
2.21948e-18
2.08622e-18
2.04139e-18
1.95831e-18
1.91658e-18
1.81787e-18
1.79559e-18
1.7124e-18
1.72391e-18
1.62984e-18
1.65412e-18
1.57537e-18
1.56012e-18
1.5222e-18
1.49955e-18
1.46186e-18
1.46588e-18
1.38835e-18
1.42468e-18
1.35396e-18
1.35213e-18
1.35196e-18
1.29807e-18
1.2904e-18
1.3196e-18
1.20338e-18
1.31752e-18
1.23144e-18
1.20766e-18
1.30011e-18
1.16201e-18
1.20078e-18
1.35575e-18
1.0349e-18
1.40623e-18
1.32451e-18
1.08241e-18
1.72307e-18
1.45179e-18
1.06639e-18
3.05959e-18
1.71477e-18
3.66921e-18
9.42567e-18
7.19312e-18
7.30122e-18
5.97594e-18
7.86025e-18
5.93559e-18
3.98688e-18
3.51009e-18
3.41678e-18
3.30757e-18
3.16202e-18
3.04622e-18
2.81694e-18
2.64233e-18
2.46161e-18
2.35097e-18
2.2303e-18
2.20448e-18
2.07408e-18
2.03087e-18
1.94979e-18
1.90874e-18
1.81245e-18
1.78965e-18
1.70754e-18
1.71989e-18
1.62687e-18
1.65107e-18
1.57344e-18
1.55721e-18
1.52105e-18
1.49741e-18
1.46074e-18
1.46527e-18
1.38742e-18
1.42358e-18
1.35401e-18
1.35068e-18
1.35301e-18
1.29796e-18
1.28978e-18
1.32089e-18
1.20249e-18
1.31832e-18
1.23322e-18
1.2069e-18
1.30263e-18
1.16307e-18
1.19919e-18
1.35946e-18
1.03479e-18
1.40306e-18
1.32749e-18
1.08179e-18
1.69977e-18
1.46799e-18
1.01728e-18
3.00336e-18
1.65971e-18
3.76922e-18
9.67438e-18
7.15221e-18
7.94788e-18
5.62402e-18
7.45523e-18
5.59257e-18
3.74624e-18
3.33754e-18
3.29649e-18
3.22089e-18
3.09259e-18
2.98818e-18
2.7725e-18
2.60747e-18
2.43358e-18
2.32743e-18
2.21103e-18
2.18807e-18
2.06099e-18
2.01952e-18
1.94054e-18
1.90027e-18
1.80655e-18
1.78321e-18
1.70225e-18
1.71519e-18
1.62373e-18
1.64743e-18
1.57125e-18
1.55406e-18
1.5196e-18
1.49501e-18
1.45943e-18
1.46427e-18
1.38649e-18
1.42211e-18
1.3539e-18
1.34916e-18
1.3537e-18
1.29783e-18
1.28901e-18
1.32172e-18
1.20181e-18
1.31859e-18
1.23481e-18
1.20609e-18
1.30449e-18
1.16411e-18
1.19712e-18
1.36221e-18
1.03462e-18
1.39876e-18
1.32881e-18
1.08115e-18
1.67438e-18
1.47878e-18
9.75542e-19
2.92754e-18
1.61864e-18
3.84818e-18
9.77094e-18
7.15767e-18
8.36865e-18
5.34721e-18
7.07261e-18
5.29085e-18
3.52483e-18
3.17328e-18
3.17805e-18
3.13511e-18
3.02318e-18
2.92918e-18
2.72719e-18
2.57209e-18
2.40518e-18
2.30343e-18
2.19122e-18
2.17064e-18
2.04722e-18
2.00754e-18
1.93071e-18
1.89138e-18
1.80035e-18
1.77643e-18
1.69672e-18
1.7099e-18
1.62052e-18
1.64329e-18
1.56883e-18
1.55078e-18
1.51791e-18
1.49244e-18
1.45798e-18
1.46293e-18
1.38558e-18
1.42033e-18
1.35367e-18
1.34758e-18
1.35404e-18
1.2977e-18
1.28809e-18
1.32211e-18
1.20137e-18
1.31828e-18
1.23627e-18
1.20512e-18
1.30556e-18
1.1652e-18
1.19434e-18
1.36381e-18
1.03453e-18
1.39252e-18
1.3287e-18
1.07965e-18
1.64665e-18
1.4832e-18
9.40266e-19
2.83049e-18
1.59069e-18
3.85345e-18
9.61492e-18
7.13937e-18
8.43446e-18
5.11483e-18
6.68225e-18
5.02724e-18
3.32422e-18
3.01943e-18
3.06292e-18
3.05132e-18
2.95491e-18
2.87005e-18
2.68154e-18
2.53659e-18
2.37682e-18
2.27945e-18
2.17133e-18
2.15259e-18
2.033e-18
1.99511e-18
1.92041e-18
1.88223e-18
1.79399e-18
1.76945e-18
1.69111e-18
1.70415e-18
1.6173e-18
1.63874e-18
1.56621e-18
1.54742e-18
1.51606e-18
1.48976e-18
1.45643e-18
1.46131e-18
1.38469e-18
1.41826e-18
1.35334e-18
1.34596e-18
1.35403e-18
1.2976e-18
1.28701e-18
1.32205e-18
1.20119e-18
1.31727e-18
1.23758e-18
1.20394e-18
1.30569e-18
1.16632e-18
1.19074e-18
1.36394e-18
1.03463e-18
1.38379e-18
1.32721e-18
1.07678e-18
1.61649e-18
1.4807e-18
9.11154e-19
2.7146e-18
1.57291e-18
3.75608e-18
9.17257e-18
7.04012e-18
8.10376e-18
4.89196e-18
6.26646e-18
4.79601e-18
3.14547e-18
2.87754e-18
2.95221e-18
2.97037e-18
2.88867e-18
2.81158e-18
2.63607e-18
2.50129e-18
2.34876e-18
2.2558e-18
2.15173e-18
2.13426e-18
2.01858e-18
1.9824e-18
1.90978e-18
1.87289e-18
1.78758e-18
1.76239e-18
1.68557e-18
1.69806e-18
1.61413e-18
1.63387e-18
1.56341e-18
1.54406e-18
1.51407e-18
1.48699e-18
1.45484e-18
1.45945e-18
1.38385e-18
1.41593e-18
1.35289e-18
1.34431e-18
1.35364e-18
1.2975e-18
1.28577e-18
1.32148e-18
1.20126e-18
1.31552e-18
1.23867e-18
1.20255e-18
1.30478e-18
1.16735e-18
1.18639e-18
1.36233e-18
1.03505e-18
1.37245e-18
1.32437e-18
1.07241e-18
1.58441e-18
1.4713e-18
8.88436e-19
2.58416e-18
1.56178e-18
3.55146e-18
8.47374e-18
6.82638e-18
7.42614e-18
4.65012e-18
5.82203e-18
4.58855e-18
2.9891e-18
2.74864e-18
2.84673e-18
2.89264e-18
2.82508e-18
2.75447e-18
2.59126e-18
2.46644e-18
2.3212e-18
2.23267e-18
2.13269e-18
2.11593e-18
2.0042e-18
1.96961e-18
1.89893e-18
1.86343e-18
1.78119e-18
1.75531e-18
1.68019e-18
1.69176e-18
1.61105e-18
1.62878e-18
1.56044e-18
1.54073e-18
1.51197e-18
1.48418e-18
1.45325e-18
1.4574e-18
1.38308e-18
1.41337e-18
1.35233e-18
1.34266e-18
1.35289e-18
1.29739e-18
1.28445e-18
1.32039e-18
1.20161e-18
1.31306e-18
1.23949e-18
1.201e-18
1.30288e-18
1.16821e-18
1.18155e-18
1.35893e-18
1.03592e-18
1.35876e-18
1.32037e-18
1.06671e-18
1.55137e-18
1.45574e-18
8.7254e-19
2.445e-18
1.55341e-18
3.25895e-18
7.59117e-18
6.4861e-18
6.50526e-18
4.36889e-18
5.35793e-18
4.39586e-18
2.85485e-18
2.63307e-18
2.74702e-18
2.81825e-18
2.76449e-18
2.69927e-18
2.54753e-18
2.43227e-18
2.29423e-18
2.21018e-18
2.11435e-18
2.09785e-18
1.99006e-18
1.95691e-18
1.888e-18
1.85391e-18
1.77487e-18
1.74826e-18
1.67503e-18
1.68536e-18
1.60811e-18
1.62357e-18
1.55732e-18
1.53747e-18
1.50978e-18
1.48132e-18
1.45172e-18
1.45519e-18
1.3824e-18
1.41066e-18
1.35165e-18
1.34103e-18
1.35182e-18
1.29722e-18
1.28311e-18
1.31878e-18
1.20224e-18
1.31002e-18
1.24001e-18
1.19936e-18
1.30015e-18
1.16879e-18
1.17652e-18
1.35386e-18
1.03734e-18
1.34329e-18
1.31551e-18
1.06005e-18
1.51857e-18
1.43526e-18
8.63864e-19
2.30305e-18
1.54456e-18
2.911e-18
6.62219e-18
6.03637e-18
5.47e-18
4.04249e-18
4.88992e-18
4.21035e-18
2.74159e-18
2.53073e-18
2.65345e-18
2.74712e-18
2.70699e-18
2.64634e-18
2.50521e-18
2.39897e-18
2.26796e-18
2.18837e-18
2.09677e-18
2.08013e-18
1.97629e-18
1.94445e-18
1.87712e-18
1.84439e-18
1.76866e-18
1.74125e-18
1.67012e-18
1.67893e-18
1.60533e-18
1.61834e-18
1.55411e-18
1.53431e-18
1.50753e-18
1.47842e-18
1.45027e-18
1.45285e-18
1.38182e-18
1.40786e-18
1.35087e-18
1.33943e-18
1.35049e-18
1.29697e-18
1.28182e-18
1.31671e-18
1.20313e-18
1.30654e-18
1.24026e-18
1.19769e-18
1.29683e-18
1.16905e-18
1.17163e-18
1.34737e-18
1.03937e-18
1.3267e-18
1.31014e-18
1.05288e-18
1.48706e-18
1.4113e-18
8.62223e-19
2.1636e-18
1.53309e-18
2.54708e-18
5.65375e-18
5.51001e-18
4.44672e-18
3.67712e-18
4.43467e-18
4.02658e-18
2.64755e-18
2.44121e-18
2.56621e-18
2.6791e-18
2.65249e-18
2.59589e-18
2.46457e-18
2.36668e-18
2.24244e-18
2.16723e-18
2.07997e-18
2.06289e-18
1.96296e-18
1.93232e-18
1.86638e-18
1.83491e-18
1.76261e-18
1.73433e-18
1.66545e-18
1.67256e-18
1.6027e-18
1.61317e-18
1.55084e-18
1.53127e-18
1.50525e-18
1.47549e-18
1.44893e-18
1.45042e-18
1.38134e-18
1.40505e-18
1.35002e-18
1.33788e-18
1.349e-18
1.29662e-18
1.28066e-18
1.31427e-18
1.20426e-18
1.30281e-18
1.24029e-18
1.19605e-18
1.2932e-18
1.16896e-18
1.16712e-18
1.3398e-18
1.04199e-18
1.30962e-18
1.30457e-18
1.04564e-18
1.45768e-18
1.3853e-18
8.66935e-19
2.03062e-18
1.51772e-18
2.20399e-18
4.75518e-18
4.94952e-18
3.52769e-18
3.2895e-18
4.00608e-18
3.84145e-18
2.5703e-18
2.36381e-18
2.48532e-18
2.61401e-18
2.60077e-18
2.54797e-18
2.42574e-18
2.33551e-18
2.2177e-18
2.14675e-18
2.06393e-18
2.04617e-18
1.95011e-18
1.9206e-18
1.85588e-18
1.82554e-18
1.75674e-18
1.72749e-18
1.66101e-18
1.66628e-18
1.60023e-18
1.6081e-18
1.54755e-18
1.52839e-18
1.50298e-18
1.47254e-18
1.44772e-18
1.44795e-18
1.38097e-18
1.40227e-18
1.34913e-18
1.3364e-18
1.34743e-18
1.29617e-18
1.27966e-18
1.31156e-18
1.20561e-18
1.29895e-18
1.24016e-18
1.19447e-18
1.28947e-18
1.16855e-18
1.16315e-18
1.3315e-18
1.04517e-18
1.29262e-18
1.29906e-18
1.03869e-18
1.43092e-18
1.35846e-18
8.76917e-19
1.90683e-18
1.4979e-18
1.90932e-18
3.96861e-18
4.39285e-18
2.76586e-18
2.90045e-18
3.61488e-18
3.65422e-18
2.50711e-18
2.29766e-18
2.41072e-18
2.55166e-18
2.55154e-18
2.50251e-18
2.3888e-18
2.30549e-18
2.19374e-18
2.1269e-18
2.04861e-18
2.02998e-18
1.93777e-18
1.90931e-18
1.84569e-18
1.8163e-18
1.75107e-18
1.72077e-18
1.65678e-18
1.66013e-18
1.5979e-18
1.60317e-18
1.54429e-18
1.52566e-18
1.50076e-18
1.46958e-18
1.44662e-18
1.44545e-18
1.38069e-18
1.39957e-18
1.34822e-18
1.33499e-18
1.34584e-18
1.29562e-18
1.27885e-18
1.30866e-18
1.20716e-18
1.29508e-18
1.23994e-18
1.19299e-18
1.28584e-18
1.16785e-18
1.15982e-18
1.32277e-18
1.04882e-18
1.27617e-18
1.29376e-18
1.03234e-18
1.40694e-18
1.33175e-18
8.90867e-19
1.79371e-18
1.47397e-18
1.67726e-18
3.31059e-18
3.87269e-18
2.17937e-18
2.53325e-18
3.2639e-18
3.4661e-18
2.45517e-18
2.24181e-18
2.34224e-18
2.49193e-18
2.5045e-18
2.45937e-18
2.35374e-18
2.27665e-18
2.17055e-18
2.10766e-18
2.03394e-18
2.01432e-18
1.92591e-18
1.89846e-18
1.83582e-18
1.80723e-18
1.74561e-18
1.71417e-18
1.65272e-18
1.65414e-18
1.59569e-18
1.59842e-18
1.54108e-18
1.5231e-18
1.49861e-18
1.46662e-18
1.44565e-18
1.44298e-18
1.38051e-18
1.39697e-18
1.34733e-18
1.33365e-18
1.34431e-18
1.29498e-18
1.27824e-18
1.30565e-18
1.20887e-18
1.29128e-18
1.23968e-18
1.19162e-18
1.28244e-18
1.16691e-18
1.15716e-18
1.31389e-18
1.05282e-18
1.26058e-18
1.28874e-18
1.02681e-18
1.38569e-18
1.3059e-18
9.07447e-19
1.69192e-18
1.44661e-18
1.51197e-18
2.77751e-18
3.41216e-18
1.76119e-18
2.20953e-18
2.95337e-18
3.27975e-18
2.41189e-18
2.19524e-18
2.27969e-18
2.43478e-18
2.45938e-18
2.41839e-18
2.32051e-18
2.24898e-18
2.14812e-18
2.089e-18
2.01987e-18
1.99919e-18
1.91453e-18
1.88804e-18
1.82631e-18
1.79835e-18
1.74037e-18
1.70772e-18
1.64882e-18
1.64833e-18
1.5936e-18
1.59384e-18
1.53795e-18
1.5207e-18
1.49655e-18
1.46368e-18
1.44479e-18
1.44053e-18
1.38042e-18
1.39449e-18
1.34647e-18
1.33239e-18
1.34288e-18
1.29428e-18
1.27782e-18
1.3026e-18
1.21071e-18
1.28762e-18
1.23941e-18
1.19037e-18
1.27936e-18
1.16579e-18
1.15515e-18
1.3051e-18
1.05706e-18
1.2461e-18
1.28401e-18
1.02223e-18
1.36696e-18
1.28144e-18
9.25487e-19
1.60148e-18
1.41654e-18
1.40898e-18
2.35498e-18
3.02571e-18
1.48501e-18
1.94729e-18
2.68067e-18
3.09843e-18
2.37531e-18
2.1571e-18
2.22286e-18
2.38024e-18
2.416e-18
2.37936e-18
2.28904e-18
2.22245e-18
2.12642e-18
2.07089e-18
2.00634e-18
1.98454e-18
1.90361e-18
1.87805e-18
1.81714e-18
1.78968e-18
1.73534e-18
1.70142e-18
1.64505e-18
1.64269e-18
1.59159e-18
1.58944e-18
1.53491e-18
1.51848e-18
1.49459e-18
1.46077e-18
1.44403e-18
1.43814e-18
1.38042e-18
1.39213e-18
1.34566e-18
1.33122e-18
1.34155e-18
1.29354e-18
1.27758e-18
1.29957e-18
1.21266e-18
1.28414e-18
1.23914e-18
1.18928e-18
1.27662e-18
1.16454e-18
1.15374e-18
1.29655e-18
1.06142e-18
1.2329e-18
1.27949e-18
1.01869e-18
1.3505e-18
1.2587e-18
9.44015e-19
1.52206e-18
1.38415e-18
1.35849e-18
2.02154e-18
2.71983e-18
1.31477e-18
1.75847e-18
2.44207e-18
2.9249e-18
2.34388e-18
2.12654e-18
2.17155e-18
2.32833e-18
2.37416e-18
2.34211e-18
2.25922e-18
2.197e-18
2.10539e-18
2.0533e-18
1.99327e-18
1.97035e-18
1.89313e-18
1.86845e-18
1.8083e-18
1.78121e-18
1.73052e-18
1.69528e-18
1.6414e-18
1.63724e-18
1.58966e-18
1.5852e-18
1.53199e-18
1.51643e-18
1.49274e-18
1.4579e-18
1.44337e-18
1.43581e-18
1.3805e-18
1.38989e-18
1.34489e-18
1.33013e-18
1.34035e-18
1.29276e-18
1.27752e-18
1.2966e-18
1.2147e-18
1.28086e-18
1.23887e-18
1.18835e-18
1.27425e-18
1.16322e-18
1.15288e-18
1.28838e-18
1.06579e-18
1.2211e-18
1.27514e-18
1.01624e-18
1.33604e-18
1.23794e-18
9.62279e-19
1.45313e-18
1.34986e-18
1.34723e-18
1.75468e-18
9.42803e-18
8.21299e-18
1.09282e-17
1.22935e-17
9.10925e-18
6.00091e-18
4.71274e-18
4.14249e-18
3.7929e-18
3.52438e-18
3.32751e-18
3.02699e-18
2.80412e-18
2.58523e-18
2.45023e-18
2.30866e-18
2.25818e-18
2.12252e-18
2.07291e-18
1.97947e-18
1.93628e-18
1.83157e-18
1.81117e-18
1.72415e-18
1.72894e-18
1.63843e-18
1.65555e-18
1.57619e-18
1.56824e-18
1.51785e-18
1.50389e-18
1.46082e-18
1.45801e-18
1.3924e-18
1.41786e-18
1.34821e-18
1.35647e-18
1.33246e-18
1.2971e-18
1.28735e-18
1.29459e-18
1.21324e-18
1.29325e-18
1.20855e-18
1.21115e-18
1.25288e-18
1.14602e-18
1.19778e-18
1.27521e-18
1.03076e-18
1.38379e-18
1.19018e-18
1.11411e-18
1.70344e-18
1.17356e-18
1.49349e-18
2.95751e-18
1.75765e-18
4.31362e-18
9.81773e-18
9.91587e-18
8.36114e-18
1.11969e-17
1.25002e-17
9.19761e-18
6.04169e-18
4.73745e-18
4.15941e-18
3.80329e-18
3.532e-18
3.33359e-18
3.03127e-18
2.80666e-18
2.58746e-18
2.45166e-18
2.30987e-18
2.25961e-18
2.12362e-18
2.07358e-18
1.98052e-18
1.93693e-18
1.83227e-18
1.8115e-18
1.72481e-18
1.72946e-18
1.63884e-18
1.65598e-18
1.5769e-18
1.56823e-18
1.51866e-18
1.50399e-18
1.46133e-18
1.45857e-18
1.39243e-18
1.41853e-18
1.34874e-18
1.35634e-18
1.33381e-18
1.29696e-18
1.28792e-18
1.296e-18
1.21287e-18
1.29477e-18
1.21009e-18
1.21071e-18
1.25645e-18
1.14673e-18
1.19877e-18
1.28208e-18
1.02981e-18
1.39106e-18
1.20045e-18
1.11471e-18
1.72586e-18
1.19308e-18
1.5056e-18
3.02908e-18
1.83334e-18
4.49286e-18
9.92031e-18
1.0264e-17
8.48797e-18
1.12277e-17
1.25898e-17
9.17936e-18
6.02071e-18
4.73318e-18
4.1622e-18
3.80719e-18
3.5365e-18
3.33831e-18
3.03462e-18
2.80882e-18
2.58924e-18
2.453e-18
2.31073e-18
2.26163e-18
2.12466e-18
2.07451e-18
1.98167e-18
1.93796e-18
1.83285e-18
1.81216e-18
1.7253e-18
1.7305e-18
1.639e-18
1.65695e-18
1.57762e-18
1.56843e-18
1.5196e-18
1.50429e-18
1.46186e-18
1.45964e-18
1.39224e-18
1.41979e-18
1.34932e-18
1.35638e-18
1.33574e-18
1.29701e-18
1.28861e-18
1.29853e-18
1.21204e-18
1.29759e-18
1.21219e-18
1.21057e-18
1.26186e-18
1.14819e-18
1.20038e-18
1.2924e-18
1.02927e-18
1.40068e-18
1.2165e-18
1.11555e-18
1.75311e-18
1.2232e-18
1.50819e-18
3.09206e-18
1.92327e-18
4.6306e-18
1.00668e-17
1.02184e-17
8.26246e-18
1.08587e-17
1.23584e-17
8.97806e-18
5.89325e-18
4.67127e-18
4.13295e-18
3.79294e-18
3.52934e-18
3.33492e-18
3.03243e-18
2.80724e-18
2.58837e-18
2.45234e-18
2.31015e-18
2.26286e-18
2.12496e-18
2.07484e-18
1.98249e-18
1.93868e-18
1.8332e-18
1.81259e-18
1.7256e-18
1.73153e-18
1.63901e-18
1.65801e-18
1.57835e-18
1.5685e-18
1.5207e-18
1.50455e-18
1.46243e-18
1.46098e-18
1.39195e-18
1.4213e-18
1.35e-18
1.35638e-18
1.33813e-18
1.29715e-18
1.28938e-18
1.30179e-18
1.2109e-18
1.30119e-18
1.21479e-18
1.21054e-18
1.26835e-18
1.1502e-18
1.20209e-18
1.30427e-18
1.02984e-18
1.40857e-18
1.23712e-18
1.11327e-18
1.77434e-18
1.26073e-18
1.47938e-18
3.12886e-18
1.97915e-18
4.54291e-18
9.97695e-18
9.78561e-18
7.63833e-18
1.0127e-17
1.17718e-17
8.59586e-18
5.66504e-18
4.55259e-18
4.07001e-18
3.75663e-18
3.50564e-18
3.31902e-18
3.02139e-18
2.79942e-18
2.58293e-18
2.44819e-18
2.30698e-18
2.26208e-18
2.12364e-18
2.07379e-18
1.98234e-18
1.93856e-18
1.83301e-18
1.81238e-18
1.72548e-18
1.73219e-18
1.63875e-18
1.65888e-18
1.57895e-18
1.5683e-18
1.5218e-18
1.50461e-18
1.46296e-18
1.46241e-18
1.39156e-18
1.4228e-18
1.35078e-18
1.35624e-18
1.3408e-18
1.29734e-18
1.2901e-18
1.3054e-18
1.20961e-18
1.30502e-18
1.21773e-18
1.2105e-18
1.27513e-18
1.15261e-18
1.20334e-18
1.31632e-18
1.03114e-18
1.41309e-18
1.25958e-18
1.10742e-18
1.78555e-18
1.30143e-18
1.41904e-18
3.14802e-18
1.99017e-18
4.26733e-18
9.64535e-18
9.17364e-18
6.88203e-18
9.24492e-18
1.10178e-17
8.13214e-18
5.38613e-18
4.39896e-18
3.98408e-18
3.70279e-18
3.46741e-18
3.29071e-18
3.00118e-18
2.78464e-18
2.57219e-18
2.43995e-18
2.30064e-18
2.25862e-18
2.12017e-18
2.07092e-18
1.98073e-18
1.93713e-18
1.83201e-18
1.81125e-18
1.72464e-18
1.73224e-18
1.63802e-18
1.65932e-18
1.57921e-18
1.56772e-18
1.52269e-18
1.50441e-18
1.46332e-18
1.46376e-18
1.39108e-18
1.42406e-18
1.35159e-18
1.3559e-18
1.34352e-18
1.29756e-18
1.29065e-18
1.30906e-18
1.20824e-18
1.30871e-18
1.22082e-18
1.21026e-18
1.28171e-18
1.15504e-18
1.20389e-18
1.32749e-18
1.03244e-18
1.41463e-18
1.28049e-18
1.09986e-18
1.78669e-18
1.34117e-18
1.34349e-18
3.15684e-18
1.97029e-18
3.96486e-18
9.28517e-18
8.57192e-18
6.29869e-18
8.38873e-18
1.02403e-17
7.65285e-18
5.09249e-18
4.22967e-18
3.88417e-18
3.6368e-18
3.41802e-18
3.25258e-18
2.97313e-18
2.76363e-18
2.55652e-18
2.42781e-18
2.29119e-18
2.25229e-18
2.1144e-18
2.06605e-18
1.97742e-18
1.93417e-18
1.83002e-18
1.80902e-18
1.72295e-18
1.73149e-18
1.63674e-18
1.65915e-18
1.57902e-18
1.56666e-18
1.52325e-18
1.50384e-18
1.4634e-18
1.46487e-18
1.39048e-18
1.42492e-18
1.35235e-18
1.35528e-18
1.3461e-18
1.29776e-18
1.29095e-18
1.31247e-18
1.20687e-18
1.31192e-18
1.22387e-18
1.20976e-18
1.28764e-18
1.15722e-18
1.20373e-18
1.33718e-18
1.03344e-18
1.41404e-18
1.29778e-18
1.09283e-18
1.77909e-18
1.37684e-18
1.26552e-18
3.15385e-18
1.92438e-18
3.74457e-18
9.06132e-18
8.04957e-18
6.04572e-18
7.6273e-18
9.51532e-18
7.18627e-18
4.80105e-18
4.05236e-18
3.77526e-18
3.56242e-18
3.36108e-18
3.20742e-18
2.93922e-18
2.73768e-18
2.53671e-18
2.41219e-18
2.27891e-18
2.24333e-18
2.10656e-18
2.05934e-18
1.97245e-18
1.92967e-18
1.827e-18
1.80568e-18
1.72034e-18
1.72989e-18
1.63488e-18
1.65825e-18
1.57833e-18
1.56506e-18
1.52339e-18
1.50286e-18
1.46316e-18
1.4656e-18
1.38976e-18
1.42528e-18
1.35298e-18
1.3544e-18
1.34837e-18
1.29788e-18
1.29096e-18
1.31543e-18
1.20553e-18
1.31448e-18
1.22668e-18
1.20907e-18
1.29267e-18
1.15906e-18
1.20296e-18
1.34505e-18
1.03406e-18
1.41214e-18
1.31065e-18
1.0875e-18
1.76476e-18
1.40757e-18
1.19144e-18
3.13682e-18
1.85927e-18
3.63096e-18
9.03672e-18
7.64054e-18
6.17736e-18
6.97317e-18
8.87565e-18
6.74037e-18
4.51752e-18
3.8716e-18
3.66032e-18
3.48221e-18
3.29879e-18
3.15726e-18
2.90112e-18
2.70809e-18
2.51367e-18
2.39363e-18
2.26419e-18
2.23201e-18
2.09697e-18
2.05105e-18
1.96601e-18
1.92378e-18
1.82302e-18
1.80131e-18
1.71687e-18
1.72743e-18
1.63253e-18
1.65658e-18
1.57714e-18
1.56295e-18
1.52306e-18
1.50144e-18
1.46259e-18
1.4659e-18
1.38894e-18
1.42511e-18
1.35343e-18
1.35326e-18
1.35024e-18
1.2979e-18
1.2907e-18
1.31782e-18
1.2043e-18
1.31637e-18
1.22913e-18
1.20828e-18
1.29673e-18
1.16054e-18
1.20183e-18
1.35119e-18
1.03436e-18
1.40963e-18
1.31935e-18
1.08416e-18
1.74606e-18
1.43335e-18
1.12446e-18
3.10843e-18
1.78713e-18
3.61871e-18
9.19574e-18
7.36473e-18
6.64891e-18
6.42438e-18
8.32719e-18
6.32267e-18
4.24526e-18
3.69046e-18
3.54161e-18
3.39818e-18
3.23288e-18
3.1035e-18
2.8601e-18
2.67593e-18
2.48816e-18
2.37275e-18
2.24747e-18
2.21865e-18
2.08594e-18
2.04149e-18
1.95839e-18
1.91675e-18
1.81822e-18
1.79606e-18
1.71263e-18
1.72415e-18
1.6298e-18
1.65418e-18
1.57554e-18
1.56039e-18
1.52231e-18
1.49964e-18
1.46174e-18
1.46573e-18
1.38805e-18
1.42443e-18
1.35367e-18
1.35195e-18
1.35169e-18
1.29785e-18
1.29024e-18
1.31963e-18
1.20323e-18
1.31768e-18
1.23121e-18
1.2075e-18
1.29995e-18
1.16175e-18
1.2005e-18
1.35592e-18
1.03442e-18
1.40685e-18
1.32471e-18
1.08254e-18
1.72464e-18
1.45426e-18
1.0667e-18
3.06721e-18
1.7202e-18
3.68343e-18
9.4587e-18
7.22224e-18
7.31863e-18
5.97809e-18
7.86437e-18
5.9392e-18
3.98727e-18
3.51206e-18
3.4211e-18
3.31204e-18
3.16465e-18
3.04719e-18
2.81702e-18
2.64204e-18
2.46101e-18
2.35019e-18
2.22921e-18
2.20358e-18
2.07373e-18
2.03092e-18
1.94983e-18
1.90886e-18
1.81276e-18
1.79011e-18
1.70778e-18
1.72012e-18
1.62681e-18
1.65109e-18
1.5736e-18
1.55748e-18
1.52117e-18
1.49751e-18
1.46063e-18
1.46512e-18
1.38714e-18
1.42333e-18
1.35373e-18
1.3505e-18
1.35274e-18
1.29773e-18
1.28961e-18
1.32092e-18
1.20236e-18
1.31849e-18
1.23301e-18
1.20674e-18
1.30247e-18
1.16281e-18
1.19891e-18
1.3596e-18
1.03433e-18
1.4036e-18
1.32769e-18
1.08189e-18
1.70124e-18
1.47025e-18
1.01767e-18
3.01017e-18
1.66466e-18
3.78374e-18
9.70447e-18
7.17976e-18
7.9651e-18
5.62587e-18
7.45814e-18
5.59522e-18
3.74637e-18
3.33937e-18
3.30082e-18
3.22543e-18
3.09527e-18
2.98915e-18
2.77252e-18
2.60714e-18
2.43295e-18
2.32662e-18
2.20991e-18
2.18711e-18
2.06057e-18
2.01954e-18
1.94054e-18
1.90035e-18
1.80684e-18
1.78366e-18
1.70249e-18
1.71541e-18
1.62366e-18
1.64742e-18
1.57139e-18
1.55433e-18
1.51973e-18
1.49513e-18
1.45933e-18
1.46412e-18
1.38621e-18
1.42188e-18
1.35363e-18
1.34898e-18
1.35343e-18
1.29759e-18
1.28884e-18
1.32176e-18
1.20171e-18
1.31877e-18
1.23463e-18
1.20592e-18
1.30433e-18
1.16385e-18
1.19684e-18
1.36232e-18
1.03419e-18
1.39923e-18
1.329e-18
1.0812e-18
1.67574e-18
1.48083e-18
9.76e-19
2.93352e-18
1.62317e-18
3.86229e-18
9.79873e-18
7.18359e-18
8.38601e-18
5.3491e-18
7.07451e-18
5.2926e-18
3.52473e-18
3.17496e-18
3.18232e-18
3.13968e-18
3.0259e-18
2.93015e-18
2.72718e-18
2.57173e-18
2.40453e-18
2.30261e-18
2.19007e-18
2.16963e-18
2.04675e-18
2.00751e-18
1.93067e-18
1.89143e-18
1.80061e-18
1.77687e-18
1.69696e-18
1.71012e-18
1.62043e-18
1.64326e-18
1.56895e-18
1.55105e-18
1.51806e-18
1.49257e-18
1.45789e-18
1.46279e-18
1.3853e-18
1.4201e-18
1.35341e-18
1.3474e-18
1.35377e-18
1.29746e-18
1.28792e-18
1.32216e-18
1.20129e-18
1.31846e-18
1.23611e-18
1.20495e-18
1.30541e-18
1.16494e-18
1.19407e-18
1.36389e-18
1.03413e-18
1.39291e-18
1.32888e-18
1.07965e-18
1.64789e-18
1.48505e-18
9.40738e-19
2.83579e-18
1.59486e-18
3.86649e-18
9.64061e-18
7.16367e-18
8.45179e-18
5.11701e-18
6.68327e-18
5.02822e-18
3.32393e-18
3.02097e-18
3.06712e-18
3.05589e-18
2.95764e-18
2.87101e-18
2.6815e-18
2.53621e-18
2.37615e-18
2.27862e-18
2.17016e-18
2.15154e-18
2.03249e-18
1.99504e-18
1.92035e-18
1.88224e-18
1.79423e-18
1.76988e-18
1.69135e-18
1.70435e-18
1.6172e-18
1.63868e-18
1.56632e-18
1.54769e-18
1.51622e-18
1.48989e-18
1.45635e-18
1.46117e-18
1.38442e-18
1.41803e-18
1.35308e-18
1.34579e-18
1.35376e-18
1.29735e-18
1.28683e-18
1.3221e-18
1.20112e-18
1.31746e-18
1.23744e-18
1.20376e-18
1.30554e-18
1.16605e-18
1.19045e-18
1.36398e-18
1.03425e-18
1.3841e-18
1.32736e-18
1.07673e-18
1.61762e-18
1.48235e-18
9.11617e-19
2.71925e-18
1.57669e-18
3.76781e-18
9.19603e-18
7.06267e-18
8.12049e-18
4.89464e-18
6.26668e-18
4.79624e-18
3.14502e-18
2.87895e-18
2.9563e-18
2.9749e-18
2.8914e-18
2.81254e-18
2.63601e-18
2.50088e-18
2.34809e-18
2.25497e-18
2.15056e-18
2.13319e-18
2.01803e-18
1.9823e-18
1.90968e-18
1.87287e-18
1.78779e-18
1.7628e-18
1.6858e-18
1.69826e-18
1.61402e-18
1.63379e-18
1.5635e-18
1.54432e-18
1.51424e-18
1.48714e-18
1.45477e-18
1.45932e-18
1.38359e-18
1.4157e-18
1.35264e-18
1.34414e-18
1.35338e-18
1.29726e-18
1.2856e-18
1.32153e-18
1.20121e-18
1.31571e-18
1.23855e-18
1.20237e-18
1.30464e-18
1.16709e-18
1.1861e-18
1.36234e-18
1.03469e-18
1.37269e-18
1.3245e-18
1.07231e-18
1.58542e-18
1.47279e-18
8.88855e-19
2.58827e-18
1.56518e-18
3.56163e-18
8.49478e-18
6.84692e-18
7.44169e-18
4.65331e-18
5.82152e-18
4.58811e-18
2.98853e-18
2.74992e-18
2.85068e-18
2.89709e-18
2.82778e-18
2.75542e-18
2.59117e-18
2.46601e-18
2.32051e-18
2.23184e-18
2.13151e-18
2.11485e-18
2.00362e-18
1.96948e-18
1.89881e-18
1.86338e-18
1.78137e-18
1.75571e-18
1.68042e-18
1.69195e-18
1.61094e-18
1.62868e-18
1.56051e-18
1.54098e-18
1.51214e-18
1.48433e-18
1.4532e-18
1.45727e-18
1.38282e-18
1.41314e-18
1.35208e-18
1.34249e-18
1.35263e-18
1.29714e-18
1.28427e-18
1.32043e-18
1.20157e-18
1.31325e-18
1.23939e-18
1.20082e-18
1.30273e-18