/*--------------------------------*- C++ -*----------------------------------*\
| =========                 |                                                 |
| \\      /  F ield         | OpenFOAM: The Open Source CFD Toolbox           |
|  \\    /   O peration     | Version:  2312                                  |
|   \\  /    A nd           | Website:  www.openfoam.com                      |
|    \\/     M anipulation  |                                                 |
\*---------------------------------------------------------------------------*/
FoamFile
{
    version     2.0;
    format      ascii;
    arch        "LSB;label=32;scalar=64";
    class       volScalarField;
    location    "240";
    object      nut;
}
// * * * * * * * * * * * * * * * * * * * * * * * * * * * * * * * * * * * * * //

dimensions      [0 2 -1 0 0 0 0];

internalField   nonuniform List<scalar> 
144000
(
5.69556e-26
3.94791e-26
5.52354e-28
1.97377e-27
1.47587e-27
3.58779e-31
3.05304e-28
1.10338e-28
2.74877e-28
1.70473e-28
2.80515e-28
2.1842e-28
3.27672e-28
2.83819e-28
3.2287e-28
2.67885e-28
3.46356e-28
3.17086e-28
3.05434e-28
2.91818e-28
3.43968e-28
3.47856e-28
3.59683e-28
3.83993e-28
4.2178e-28
4.6696e-28
5.24532e-28
5.32508e-28
5.19605e-28
5.17159e-28
5.0181e-28
5.00539e-28
5.39496e-28
5.25666e-28
4.97159e-28
5.01208e-28
5.00781e-28
5.1527e-28
5.22049e-28
4.82727e-28
4.46727e-28
3.98769e-28
5.44202e-28
4.07959e-28
3.69278e-28
3.12829e-28
1.98425e-28
1.27121e-28
6.61267e-29
3.04565e-29
1.32484e-30
2.13491e-31
4.27036e-29
3.6105e-28
1.74732e-27
9.88351e-28
6.72527e-26
2.10504e-24
2.71913e-24
1.38053e-25
2.92063e-24
5.78479e-26
9.12376e-26
3.28109e-26
2.95383e-27
4.93993e-30
5.19728e-28
3.24392e-28
3.88509e-28
5.7237e-28
4.19489e-28
6.21953e-28
5.51426e-28
7.34908e-28
6.02938e-28
6.42031e-28
6.57186e-28
7.73887e-28
6.29572e-28
6.58862e-28
6.99535e-28
7.98023e-28
7.39221e-28
8.38168e-28
8.55027e-28
9.89127e-28
1.04357e-27
1.14425e-27
1.05594e-27
1.09694e-27
1.03192e-27
1.04194e-27
1.08284e-27
1.12334e-27
1.02031e-27
1.01516e-27
1.01618e-27
1.02301e-27
1.05089e-27
1.01443e-27
9.26417e-28
9.00036e-28
1.07686e-27
7.09646e-28
7.59818e-28
5.86825e-28
3.93814e-28
2.0838e-28
1.22955e-28
4.07921e-29
2.11253e-30
4.41923e-30
1.16274e-28
1.19008e-27
3.81289e-27
4.07683e-27
1.06328e-25
6.17821e-24
1.52627e-23
1.90321e-25
6.4647e-24
1.67556e-24
4.27586e-25
1.18012e-25
7.5575e-27
2.16603e-30
5.56997e-28
5.6897e-28
5.21243e-28
7.95514e-28
6.51383e-28
8.34412e-28
8.46082e-28
9.68687e-28
9.00492e-28
8.91932e-28
9.772e-28
1.04944e-27
9.32258e-28
9.22554e-28
1.02394e-27
1.09981e-27
1.07476e-27
1.17387e-27
1.22548e-27
1.40376e-27
1.48992e-27
1.6082e-27
1.50749e-27
1.5532e-27
1.45937e-27
1.50505e-27
1.53011e-27
1.58536e-27
1.44438e-27
1.45406e-27
1.43872e-27
1.48861e-27
1.51585e-27
1.49021e-27
1.39074e-27
1.3092e-27
1.48932e-27
9.93576e-28
1.13707e-27
8.20143e-28
5.69555e-28
3.07862e-28
1.76971e-28
6.28789e-29
2.74363e-30
4.39999e-30
1.62703e-28
1.42141e-27
4.86741e-27
4.64777e-27
2.91008e-25
1.01193e-23
1.71682e-23
2.95838e-24
1.85174e-23
1.23712e-23
1.17419e-24
7.3018e-25
7.93076e-27
4.26693e-30
5.7781e-28
5.82977e-28
5.52192e-28
8.07705e-28
7.0822e-28
8.51605e-28
9.09249e-28
9.92643e-28
9.54123e-28
9.05172e-28
1.01191e-27
1.0707e-27
9.5665e-28
9.26381e-28
1.05243e-27
1.11575e-27
1.1116e-27
1.19559e-27
1.27676e-27
1.44863e-27
1.5486e-27
1.66699e-27
1.55604e-27
1.59185e-27
1.50099e-27
1.54067e-27
1.56225e-27
1.63909e-27
1.47794e-27
1.51057e-27
1.49773e-27
1.57816e-27
1.60776e-27
1.58955e-27
1.45441e-27
1.42291e-27
1.45651e-27
1.05441e-27
1.2261e-27
8.51478e-28
6.16253e-28
3.2122e-28
2.03321e-28
7.34697e-29
5.76284e-30
5.0583e-30
1.17127e-28
1.16616e-27
3.81147e-27
3.86018e-27
4.03959e-25
1.64841e-23
2.36744e-23
1.83832e-23
2.89779e-23
4.80872e-23
1.49225e-24
2.48055e-24
1.83885e-26
1.8457e-29
6.20135e-28
6.39815e-28
5.60253e-28
8.9517e-28
7.16944e-28
9.39781e-28
9.47486e-28
1.09392e-27
9.85058e-28
9.71144e-28
1.04152e-27
1.14305e-27
9.67973e-28
9.626e-28
1.08454e-27
1.16935e-27
1.14962e-27
1.2494e-27
1.34169e-27
1.52983e-27
1.63759e-27
1.76555e-27
1.62369e-27
1.66788e-27
1.56421e-27
1.60928e-27
1.63643e-27
1.73611e-27
1.5384e-27
1.60679e-27
1.5883e-27
1.70708e-27
1.71298e-27
1.6894e-27
1.49364e-27
1.42284e-27
1.4544e-27
1.20691e-27
1.3124e-27
9.28181e-28
6.66105e-28
3.60221e-28
2.44952e-28
1.02166e-28
1.39157e-29
8.51857e-30
8.88178e-29
9.45155e-28
2.64947e-27
2.88042e-27
6.2202e-25
2.71119e-23
2.97459e-23
6.61893e-23
3.25138e-23
1.23488e-22
1.2223e-24
5.82417e-24
4.96938e-26
5.26723e-29
7.54153e-28
7.1058e-28
6.03701e-28
1.01551e-27
7.47549e-28
1.06793e-27
1.01378e-27
1.23652e-27
1.04118e-27
1.07773e-27
1.10827e-27
1.26004e-27
1.00236e-27
1.04508e-27
1.14989e-27
1.27515e-27
1.22102e-27
1.36038e-27
1.45535e-27
1.68387e-27
1.79211e-27
1.94062e-27
1.75355e-27
1.8151e-27
1.68881e-27
1.75361e-27
1.78604e-27
1.90553e-27
1.66271e-27
1.77315e-27
1.74443e-27
1.90606e-27
1.86169e-27
1.80973e-27
1.52031e-27
1.54772e-27
1.5746e-27
1.45085e-27
1.46048e-27
1.07907e-27
7.51693e-28
4.49471e-28
3.21873e-28
1.69217e-28
3.9393e-29
2.78049e-29
8.28036e-29
7.74279e-28
1.61811e-27
1.71088e-27
9.04813e-25
4.14446e-23
3.74306e-23
1.58968e-22
3.24885e-23
2.46629e-22
7.27059e-25
1.09788e-23
1.26184e-25
1.00466e-28
1.07469e-27
7.44516e-28
6.86541e-28
1.13535e-27
8.13676e-28
1.19876e-27
1.12068e-27
1.3904e-27
1.12459e-27
1.20244e-27
1.20703e-27
1.39438e-27
1.05388e-27
1.15174e-27
1.23852e-27
1.41e-27
1.31179e-27
1.50914e-27
1.60211e-27
1.89281e-27
1.99241e-27
2.16651e-27
1.91913e-27
2.01064e-27
1.85137e-27
1.95153e-27
1.98146e-27
2.1179e-27
1.82254e-27
1.98444e-27
1.9457e-27
2.15815e-27
2.04445e-27
1.96139e-27
1.57266e-27
1.63472e-27
1.75658e-27
1.80545e-27
1.68817e-27
1.30346e-27
8.88652e-28
6.09371e-28
4.66039e-28
3.18751e-28
1.21395e-28
1.19036e-28
1.57782e-28
7.43684e-28
1.39816e-27
2.01539e-27
1.12308e-24
5.89325e-23
5.61024e-23
2.95404e-22
2.91886e-23
4.15516e-22
3.52919e-25
1.76794e-23
2.95237e-25
1.06877e-28
1.64885e-27
7.40012e-28
7.86305e-28
1.27306e-27
9.03057e-28
1.33614e-27
1.26421e-27
1.55614e-27
1.23539e-27
1.34256e-27
1.3302e-27
1.53708e-27
1.11853e-27
1.2697e-27
1.34493e-27
1.56321e-27
1.41827e-27
1.68602e-27
1.77773e-27
2.14361e-27
2.2231e-27
2.43411e-27
2.11235e-27
2.24154e-27
2.04053e-27
2.1854e-27
2.20448e-27
2.36522e-27
2.00999e-27
2.23865e-27
2.19464e-27
2.46994e-27
2.26597e-27
2.14057e-27
1.63781e-27
1.8119e-27
1.98446e-27
2.27801e-27
2.02143e-27
1.63044e-27
1.10953e-27
8.90636e-28
7.42925e-28
6.56024e-28
3.76482e-28
4.90175e-28
5.95677e-28
1.47736e-27
4.32503e-27
1.10861e-26
1.29909e-24
7.99669e-23
9.07405e-23
4.58871e-22
3.0682e-23
6.17012e-22
2.96046e-25
2.51543e-23
6.33237e-25
9.58559e-29
2.7027e-27
6.81594e-28
8.9064e-28
1.45325e-27
1.00494e-27
1.49475e-27
1.44414e-27
1.74186e-27
1.37056e-27
1.50131e-27
1.4847e-27
1.68805e-27
1.19676e-27
1.39836e-27
1.4771e-27
1.73156e-27
1.54225e-27
1.89132e-27
1.986e-27
2.4358e-27
2.49776e-27
2.74072e-27
2.33033e-27
2.5112e-27
2.25786e-27
2.45904e-27
2.46813e-27
2.65457e-27
2.23181e-27
2.5561e-27
2.51523e-27
2.878e-27
2.57717e-27
2.42154e-27
1.79136e-27
2.12216e-27
2.17185e-27
2.9723e-27
2.51768e-27
2.12755e-27
1.46706e-27
1.39295e-27
1.29163e-27
1.40286e-27
1.0958e-27
1.74468e-27
2.47825e-27
5.34518e-27
1.9941e-26
5.64388e-26
1.36113e-24
1.06145e-22
1.68094e-22
6.21108e-22
3.78321e-23
8.47399e-22
8.13813e-25
3.28654e-23
1.23744e-24
2.29684e-28
4.5603e-27
5.55564e-28
1.00203e-27
1.69649e-27
1.11365e-27
1.68682e-27
1.65788e-27
1.95806e-27
1.53323e-27
1.68256e-27
1.66569e-27
1.85135e-27
1.29106e-27
1.53907e-27
1.6332e-27
1.91624e-27
1.6914e-27
2.12547e-27
2.23588e-27
2.77113e-27
2.81445e-27
3.09147e-27
2.58603e-27
2.81957e-27
2.51408e-27
2.77759e-27
2.77431e-27
3.00002e-27
2.50824e-27
2.95802e-27
2.94443e-27
3.43898e-27
3.0521e-27
2.91534e-27
2.26688e-27
2.10736e-27
2.20203e-27
3.94245e-27
3.26519e-27
2.89573e-27
2.05689e-27
2.29519e-27
2.37518e-27
2.98697e-27
2.9297e-27
5.25393e-27
8.69841e-27
1.90958e-26
7.30592e-26
1.98293e-25
1.33365e-24
1.38739e-22
3.05707e-22
7.54709e-22
6.26781e-23
1.09386e-21
2.10194e-24
3.98822e-23
2.15347e-24
1.16842e-27
7.94091e-27
3.47291e-28
1.15901e-27
1.99652e-27
1.23536e-27
1.91289e-27
1.91439e-27
2.20916e-27
1.72195e-27
1.89458e-27
1.87744e-27
2.03059e-27
1.40006e-27
1.69654e-27
1.81894e-27
2.11804e-27
1.8671e-27
2.39274e-27
2.53211e-27
3.15496e-27
3.19098e-27
3.48681e-27
2.88369e-27
3.17587e-27
2.81727e-27
3.15063e-27
3.14286e-27
3.40907e-27
2.85008e-27
3.46454e-27
3.50832e-27
4.17839e-27
3.69825e-27
3.58848e-27
2.75083e-27
2.59243e-27
2.42063e-27
4.89333e-27
4.61109e-27
3.98055e-27
3.05972e-27
3.84818e-27
4.38821e-27
6.19056e-27
7.16106e-27
1.38496e-26
2.5161e-26
5.67943e-26
2.08434e-25
5.35898e-25
1.17277e-24
1.80696e-22
5.50274e-22
8.09324e-22
1.14268e-22
1.35862e-21
5.24236e-24
4.75619e-23
3.51901e-24
6.27909e-27
1.26156e-26
1.55971e-28
1.3498e-27
2.39293e-27
1.35976e-27
2.1891e-27
2.21037e-27
2.5107e-27
1.93778e-27
2.14462e-27
2.11364e-27
2.23405e-27
1.5227e-27
1.87514e-27
2.03008e-27
2.34421e-27
2.07308e-27
2.69873e-27
2.88252e-27
3.59386e-27
3.62232e-27
3.93908e-27
3.24021e-27
3.5849e-27
3.17881e-27
3.58311e-27
3.57887e-27
3.89916e-27
3.28101e-27
4.10482e-27
4.2575e-27
5.16315e-27
4.63603e-27
4.81174e-27
3.81374e-27
4.27703e-27
2.26645e-27
6.35481e-27
6.52163e-27
5.6458e-27
4.68891e-27
6.42284e-27
7.87286e-27
1.22703e-26
1.59554e-26
3.21735e-26
6.11378e-26
1.38689e-25
4.78203e-25
1.13632e-24
1.01364e-24
2.44173e-22
9.40357e-22
8.11468e-22
2.25014e-22
1.60238e-21
1.03362e-23
5.68878e-23
5.38327e-24
2.78038e-26
1.79663e-26
3.83357e-29
1.59172e-27
2.9182e-27
1.47961e-27
2.52736e-27
2.55429e-27
2.87253e-27
2.17559e-27
2.44356e-27
2.38397e-27
2.46484e-27
1.65714e-27
2.08092e-27
2.27611e-27
2.59851e-27
2.30728e-27
3.05704e-27
3.28818e-27
4.09642e-27
4.13508e-27
4.45481e-27
3.65497e-27
4.0646e-27
3.60522e-27
4.08805e-27
4.11726e-27
4.48513e-27
3.82086e-27
4.93223e-27
5.28099e-27
6.56987e-27
6.32364e-27
7.84839e-27
7.47992e-27
4.59281e-27
7.98119e-28
1.0337e-26
8.09971e-27
8.79306e-27
6.99547e-27
1.0765e-26
1.38244e-26
2.29053e-26
3.23611e-26
6.66901e-26
1.2856e-25
2.88235e-25
9.28684e-25
2.02701e-24
8.70791e-25
3.42755e-22
1.57137e-21
7.62947e-22
4.28884e-22
1.94219e-21
1.59528e-23
7.1673e-23
7.49925e-24
9.31843e-26
2.32206e-26
6.09756e-30
1.94162e-27
3.59163e-27
1.59369e-27
2.94101e-27
2.95192e-27
3.30436e-27
2.44955e-27
2.79675e-27
2.68172e-27
2.73283e-27
1.80861e-27
2.31846e-27
2.5502e-27
2.88957e-27
2.57771e-27
3.47136e-27
3.7619e-27
4.67422e-27
4.72359e-27
5.05431e-27
4.14683e-27
4.6197e-27
4.1146e-27
4.6761e-27
4.75619e-27
5.19722e-27
4.52108e-27
6.02701e-27
6.76537e-27
8.78107e-27
9.75173e-27
1.50091e-26
1.8381e-26
2.78315e-28
1.56382e-27
1.04051e-26
1.1243e-26
1.31869e-26
1.05391e-26
1.75757e-26
2.36047e-26
4.00579e-26
6.03774e-26
1.24477e-25
2.39794e-25
5.24364e-25
1.58382e-24
3.16174e-24
8.07455e-25
4.88093e-22
2.47288e-21
6.97585e-22
7.94893e-22
2.46562e-21
1.92221e-23
9.4467e-23
9.35772e-24
2.41882e-25
2.78789e-26
6.2226e-29
2.54618e-27
4.36948e-27
1.72095e-27
3.42024e-27
3.43802e-27
3.80282e-27
2.76818e-27
3.21216e-27
3.02475e-27
3.03843e-27
1.97881e-27
2.59251e-27
2.86334e-27
3.21643e-27
2.88531e-27
3.95223e-27
4.31023e-27
5.34062e-27
5.41715e-27
5.74262e-27
4.71749e-27
5.26486e-27
4.70313e-27
5.34361e-27
5.49366e-27
5.98525e-27
5.28623e-27
7.148e-27
8.25079e-27
1.07226e-26
1.29408e-26
2.08768e-26
1.30448e-26
2.19492e-26
1.71007e-26
3.81804e-27
2.06249e-26
1.68239e-26
1.68194e-26
2.68553e-26
3.89446e-26
6.5608e-26
1.03407e-25
2.09946e-25
4.01001e-25
8.45484e-25
2.38851e-24
4.34469e-24
9.08889e-25
6.99961e-22
3.70409e-21
6.2228e-22
1.3606e-21
3.2722e-21
1.99011e-23
1.34577e-22
1.06944e-23
5.385e-25
2.93641e-26
4.66965e-28
3.48802e-27
5.31909e-27
1.83499e-27
4.01442e-27
4.00392e-27
4.40176e-27
3.13802e-27
3.70703e-27
3.40319e-27
3.39996e-27
2.16735e-27
2.91093e-27
3.20144e-27
3.59238e-27
3.23616e-27
4.51351e-27
4.95016e-27
6.1144e-27
6.20521e-27
6.54509e-27
5.39656e-27
6.01018e-27
5.39573e-27
6.11452e-27
6.35693e-27
6.93825e-27
6.25425e-27
8.67867e-27
1.04953e-26
1.44992e-26
2.07003e-26
4.76365e-26
7.33266e-26
7.26195e-26
1.50226e-29
6.11433e-27
2.53282e-26
2.54096e-26
2.40534e-26
4.07442e-26
6.0152e-26
1.01677e-25
1.62838e-25
3.22096e-25
6.0804e-25
1.22026e-24
3.23078e-24
5.33494e-24
1.40676e-24
1.00297e-21
5.21467e-21
5.98407e-22
2.12382e-21
4.38267e-21
1.73487e-23
1.96592e-22
1.11906e-23
1.07507e-24
2.57815e-26
1.66155e-27
4.97726e-27
6.45166e-27
1.92486e-27
4.76119e-27
4.66504e-27
5.12666e-27
3.54802e-27
4.3059e-27
3.83805e-27
3.82153e-27
2.36773e-27
3.28058e-27
3.57503e-27
4.02704e-27
3.62944e-27
5.18151e-27
5.68509e-27
7.01423e-27
7.13752e-27
7.47299e-27
6.17918e-27
6.88857e-27
6.19535e-27
7.01007e-27
7.4154e-27
8.09482e-27
7.50975e-27
1.09131e-26
1.39715e-26
2.14539e-26
3.62817e-26
1.23134e-25
4.54859e-25
1.73243e-27
4.47248e-26
2.11701e-26
2.55691e-26
4.03838e-26
3.17473e-26
6.0719e-26
8.7177e-26
1.49524e-25
2.37417e-25
4.60386e-25
8.40493e-25
1.6083e-24
4.01811e-24
6.08644e-24
2.51401e-24
1.40184e-21
6.95809e-21
6.52161e-22
3.16667e-21
5.98177e-21
1.28588e-23
2.90962e-22
1.06086e-23
1.90639e-24
1.86511e-26
4.18579e-27
7.50053e-27
7.68595e-27
2.00224e-27
5.69767e-27
5.4354e-27
5.99698e-27
4.02642e-27
5.02513e-27
4.31353e-27
4.32821e-27
2.58343e-27
3.71661e-27
3.97901e-27
4.5404e-27
4.08129e-27
5.96657e-27
6.53841e-27
8.06517e-27
8.20028e-27
8.55648e-27
7.07506e-27
7.8762e-27
7.07957e-27
7.94569e-27
8.47141e-27
9.14749e-27
8.45446e-27
1.21106e-26
1.50437e-26
2.13578e-26
3.12825e-26
7.63119e-26
1.23106e-25
8.88521e-26
1.26059e-29
1.3428e-26
4.63006e-26
4.54692e-26
4.73e-26
8.12442e-26
1.22876e-25
2.03723e-25
3.23941e-25
6.07735e-25
1.06394e-24
1.9411e-24
4.59874e-24
6.41452e-24
4.35554e-24
1.89451e-21
9.01401e-21
8.52774e-22
4.47503e-21
8.13794e-21
8.3309e-24
4.28412e-22
8.87361e-24
3.05134e-24
1.00836e-26
8.36995e-27
1.18003e-26
8.87033e-27
2.09472e-27
6.83082e-27
6.37542e-27
7.00663e-27
4.59045e-27
5.87928e-27
4.86141e-27
4.9141e-27
2.81493e-27
4.22677e-27
4.44027e-27
5.12259e-27
4.58929e-27
6.90395e-27
7.51589e-27
9.2963e-27
9.42985e-27
9.81158e-27
8.09143e-27
9.02252e-27
8.0576e-27
8.98711e-27
9.66795e-27
1.03317e-26
9.55241e-27
1.34587e-26
1.62489e-26
2.08692e-26
2.41528e-26
3.3716e-26
1.27965e-26
5.09071e-26
4.18837e-26
1.5297e-26
6.75716e-26
5.33036e-26
6.43967e-26
1.05331e-25
1.61102e-25
2.59501e-25
4.06764e-25
7.36699e-25
1.22738e-24
2.14488e-24
4.79041e-24
5.97169e-24
7.9045e-24
2.51524e-21
1.10272e-20
1.30155e-21
6.1597e-21
1.09269e-20
3.0575e-24
6.01836e-22
6.55846e-24
4.49898e-24
3.10309e-27
1.3896e-26
1.88122e-26
9.94541e-27
2.20493e-27
8.24208e-27
7.49246e-27
8.19824e-27
5.2707e-27
6.89682e-27
5.45908e-27
5.61094e-27
3.06337e-27
4.81721e-27
4.90554e-27
5.81447e-27
5.16759e-27
8.02311e-27
8.64911e-27
1.07489e-26
1.07973e-26
1.12802e-26
9.26906e-27
1.03347e-26
9.16428e-27
1.01723e-26
1.10287e-26
1.17955e-26
1.10727e-26
1.57268e-26
1.93423e-26
2.50515e-26
2.81592e-26
3.80736e-26
4.23373e-26
5.28265e-28
1.19981e-26
5.73598e-26
6.46447e-26
7.28803e-26
7.63982e-26
1.34118e-25
1.9521e-25
3.11039e-25
4.75501e-25
8.30735e-25
1.32446e-24
2.16452e-24
4.59891e-24
4.99262e-24
1.35552e-23
3.24323e-21
1.2996e-20
2.18528e-21
7.80674e-21
1.44635e-20
5.47167e-25
8.22809e-22
4.11025e-24
6.08211e-24
2.68256e-28
2.02486e-26
3.02328e-26
1.06996e-26
2.35694e-27
9.99686e-27
8.81011e-27
9.61687e-27
6.04541e-27
8.11653e-27
6.12834e-27
6.4245e-27
3.31484e-27
5.49781e-27
5.39008e-27
6.63145e-27
5.81227e-27
9.37315e-27
9.93074e-27
1.24487e-26
1.23451e-26
1.29625e-26
1.05501e-26
1.1808e-26
1.0292e-26
1.13615e-26
1.23515e-26
1.30602e-26
1.21499e-26
1.7007e-26
2.02933e-26
2.49744e-26
2.49369e-26
2.86794e-26
2.8593e-26
1.95533e-26
1.22893e-26
9.20865e-26
7.51521e-26
8.32902e-26
9.27396e-26
1.56503e-25
2.25937e-25
3.48146e-25
5.19746e-25
8.72615e-25
1.33063e-24
1.95822e-24
4.02608e-24
3.77894e-24
2.17216e-23
4.02685e-21
1.45067e-20
3.76744e-21
9.55616e-21
1.88818e-20
5.54829e-25
1.08209e-21
2.23164e-24
7.60572e-24
3.52423e-28
2.59295e-26
4.72209e-26
1.13444e-26
2.50212e-27
1.23212e-26
1.0251e-26
1.13688e-26
6.89837e-27
9.58528e-27
6.83427e-27
7.39421e-27
3.55967e-27
6.28697e-27
5.89247e-27
7.59785e-27
6.53037e-27
1.09815e-26
1.13751e-26
1.44251e-26
1.40451e-26
1.48999e-26
1.1918e-26
1.34439e-26
1.14383e-26
1.2559e-26
1.36696e-26
1.43152e-26
1.31317e-26
1.81064e-26
2.08515e-26
2.42217e-26
2.11875e-26
1.88393e-26
1.36909e-26
2.90915e-26
3.26118e-26
9.65951e-26
9.23708e-26
8.73581e-26
1.08767e-25
1.70881e-25
2.44916e-25
3.61502e-25
5.24491e-25
8.2438e-25
1.19795e-24
1.57865e-24
3.11781e-24
2.48812e-24
3.17487e-23
4.81733e-21
1.55999e-20
6.32724e-21
1.09287e-20
2.4282e-20
3.51064e-24
1.35038e-21
1.53697e-24
9.21191e-24
7.11872e-27
2.94923e-26
7.19616e-26
1.1624e-26
2.72807e-27
1.50243e-26
1.20483e-26
1.3265e-26
7.91157e-27
1.11918e-26
7.64909e-27
8.44349e-27
3.79314e-27
7.1257e-27
6.44088e-27
8.66266e-27
7.34085e-27
1.28279e-26
1.29968e-26
1.66426e-26
1.58956e-26
1.70413e-26
1.33233e-26
1.52091e-26
1.25221e-26
1.37263e-26
1.49651e-26
1.55471e-26
1.4029e-26
1.92292e-26
2.16694e-26
2.47598e-26
2.11118e-26
1.72379e-26
1.04203e-26
3.18615e-26
6.06543e-26
1.03554e-25
9.84476e-26
9.25624e-26
1.16341e-25
1.7763e-25
2.46064e-25
3.43687e-25
4.7933e-25
6.95756e-25
9.36331e-25
1.10873e-24
2.06722e-24
1.3528e-24
4.42575e-23
5.58479e-21
1.57898e-20
1.03352e-20
1.28091e-20
3.08345e-20
1.89471e-23
1.58629e-21
1.70182e-24
1.03531e-23
3.38327e-26
3.35877e-26
1.13486e-25
1.07823e-26
3.25234e-27
1.76706e-26
1.46502e-26
1.49551e-26
9.3981e-27
1.26843e-26
8.63693e-27
9.48305e-27
4.08677e-27
7.90576e-27
7.05905e-27
9.77956e-27
8.36599e-27
1.48306e-26
1.49445e-26
1.90342e-26
1.7838e-26
1.93783e-26
1.48201e-26
1.70213e-26
1.35531e-26
1.47635e-26
1.59956e-26
1.66914e-26
1.46952e-26
1.9999e-26
2.20729e-26
2.50323e-26
2.15501e-26
1.84843e-26
1.09791e-26
3.58026e-26
8.23552e-26
1.12056e-25
9.50329e-26
9.54126e-26
1.14541e-25
1.72194e-25
2.28798e-25
2.96995e-25
3.89571e-25
5.28806e-25
6.30739e-25
6.54967e-25
1.13103e-24
5.8234e-25
5.48739e-23
6.26043e-21
1.59073e-20
1.6209e-20
1.28711e-20
3.95983e-20
5.1072e-23
1.87845e-21
3.2695e-24
1.11572e-23
1.11028e-25
3.56106e-26
1.82269e-25
9.83894e-27
3.8789e-27
2.20671e-26
1.80304e-26
1.74559e-26
1.1323e-26
1.49464e-26
1.01384e-26
1.10063e-26
4.4829e-27
9.1157e-27
7.99133e-27
1.13709e-26
9.74117e-27
1.76506e-26
1.76087e-26
2.22716e-26
2.05793e-26
2.25157e-26
1.68171e-26
1.95227e-26
1.49041e-26
1.61526e-26
1.75702e-26
1.80773e-26
1.55617e-26
2.10356e-26
2.29399e-26
2.53345e-26
2.21301e-26
1.89674e-26
1.18962e-26
4.30046e-26
1.00393e-25
1.14946e-25
9.18708e-26
9.24892e-26
1.07772e-25
1.54649e-25
1.97954e-25
2.35878e-25
2.86384e-25
3.58649e-25
3.70927e-25
3.15139e-25
5.04338e-25
1.95143e-25
6.55734e-23
6.7928e-21
1.45515e-20
2.45072e-20
6.24315e-26
3.94112e-26
6.12726e-28
2.00524e-27
1.35545e-27
1.91473e-31
2.85526e-28
1.19085e-28
2.63678e-28
1.77147e-28
2.75154e-28
2.22589e-28
3.25063e-28
2.85651e-28
3.25778e-28
2.66827e-28
3.50098e-28
3.14778e-28
3.10398e-28
2.90739e-28
3.49096e-28
3.48369e-28
3.66134e-28
3.86119e-28
4.33124e-28
4.70283e-28
5.37698e-28
5.43451e-28
5.32852e-28
5.35033e-28
5.19864e-28
5.2353e-28
5.63361e-28
5.58115e-28
5.29432e-28
5.43512e-28
5.46674e-28
5.69599e-28
5.75361e-28
5.45017e-28
4.64523e-28
4.18337e-28
4.5889e-28
4.10083e-28
3.68903e-28
3.20776e-28
1.93664e-28
1.30699e-28
6.47122e-29
3.15541e-29
1.31684e-30
1.75596e-31
4.31029e-29
3.54095e-28
1.78136e-27
9.89744e-28
6.63802e-26
2.13084e-24
2.78756e-24
1.34633e-25
3.00838e-24
5.81948e-26
9.30403e-26
3.29485e-26
2.69022e-27
4.78605e-30
4.87067e-28
3.53145e-28
3.66061e-28
5.99808e-28
4.05642e-28
6.39537e-28
5.41289e-28
7.49036e-28
5.99834e-28
6.50785e-28
6.57904e-28
7.81152e-28
6.31871e-28
6.69128e-28
7.04999e-28
8.11679e-28
7.495e-28
8.54044e-28
8.78528e-28
1.00775e-27
1.07696e-27
1.17828e-27
1.09233e-27
1.14614e-27
1.08146e-27
1.10248e-27
1.14768e-27
1.20745e-27
1.10371e-27
1.11613e-27
1.12577e-27
1.14264e-27
1.1688e-27
1.13731e-27
9.75643e-28
9.61575e-28
8.83588e-28
7.55378e-28
7.41813e-28
6.0664e-28
3.82434e-28
2.15859e-28
1.1929e-28
4.25943e-29
1.97142e-30
4.07632e-30
1.18435e-28
1.17139e-27
3.88351e-27
4.11191e-27
1.04665e-25
6.23693e-24
1.55418e-23
1.89127e-25
6.5497e-24
1.67969e-24
4.29118e-25
1.18062e-25
7.03421e-27
1.90361e-30
5.19603e-28
6.20016e-28
4.86335e-28
8.39328e-28
6.28997e-28
8.59837e-28
8.30941e-28
9.90306e-28
8.95764e-28
9.08598e-28
9.79123e-28
1.06595e-27
9.34641e-28
9.45956e-28
1.03027e-27
1.13213e-27
1.08698e-27
1.21049e-27
1.25954e-27
1.44542e-27
1.54263e-27
1.67378e-27
1.5659e-27
1.641e-27
1.53947e-27
1.60959e-27
1.63623e-27
1.72291e-27
1.57646e-27
1.61388e-27
1.60548e-27
1.66953e-27
1.69204e-27
1.6679e-27
1.47172e-27
1.41118e-27
1.16524e-27
1.12884e-27
1.06368e-27
8.65729e-28
5.45029e-28
3.22256e-28
1.69147e-28
6.60189e-29
2.43054e-30
4.05633e-30
1.67462e-28
1.39391e-27
4.98178e-27
4.65308e-27
2.88476e-25
1.02003e-23
1.745e-23
2.961e-24
1.8677e-23
1.23977e-23
1.17755e-24
7.29594e-25
7.48809e-27
3.30572e-30
5.51505e-28
6.28481e-28
5.19103e-28
8.54755e-28
6.84224e-28
8.806e-28
8.93168e-28
1.0195e-27
9.49818e-28
9.29587e-28
1.01681e-27
1.09284e-27
9.62144e-28
9.59289e-28
1.06054e-27
1.16119e-27
1.12314e-27
1.24992e-27
1.31298e-27
1.51177e-27
1.60796e-27
1.75385e-27
1.62106e-27
1.70278e-27
1.59011e-27
1.66811e-27
1.67947e-27
1.79772e-27
1.61954e-27
1.68821e-27
1.67419e-27
1.77319e-27
1.79829e-27
1.78308e-27
1.57543e-27
1.44141e-27
1.143e-27
1.23161e-27
1.10207e-27
9.24125e-28
5.764e-28
3.42982e-28
1.90116e-28
7.83373e-29
4.96125e-30
4.6491e-30
1.2209e-28
1.13475e-27
3.91427e-27
3.84653e-27
4.01848e-25
1.65712e-23
2.40515e-23
1.84219e-23
2.92184e-23
4.8227e-23
1.49728e-24
2.47995e-24
1.7846e-26
1.52062e-29
6.04175e-28
6.79573e-28
5.34628e-28
9.44948e-28
6.94337e-28
9.75012e-28
9.31237e-28
1.12978e-27
9.81433e-28
1.00538e-27
1.0487e-27
1.17113e-27
9.79054e-28
1.00346e-27
1.09698e-27
1.22512e-27
1.16327e-27
1.32085e-27
1.38018e-27
1.61404e-27
1.70216e-27
1.86976e-27
1.69334e-27
1.7983e-27
1.65614e-27
1.7539e-27
1.75472e-27
1.90802e-27
1.67861e-27
1.79489e-27
1.76423e-27
1.91314e-27
1.92124e-27
1.91075e-27
1.66448e-27
1.45376e-27
1.17277e-27
1.35784e-27
1.1627e-27
1.02496e-27
6.12316e-28
3.91005e-28
2.25055e-28
1.10463e-28
1.20608e-29
8.31281e-30
9.30112e-29
9.13778e-28
2.73401e-27
2.84756e-27
6.20367e-25
2.72392e-23
3.02734e-23
6.63972e-23
3.27791e-23
1.23863e-22
1.2265e-24
5.82197e-24
4.89681e-26
4.54898e-29
7.45204e-28
7.45579e-28
5.85598e-28
1.06753e-27
7.27617e-28
1.10998e-27
9.98646e-28
1.28281e-27
1.03924e-27
1.12415e-27
1.11678e-27
1.2955e-27
1.02009e-27
1.09325e-27
1.16826e-27
1.33949e-27
1.23959e-27
1.44737e-27
1.49714e-27
1.78804e-27
1.86021e-27
2.0597e-27
1.82603e-27
1.96179e-27
1.77866e-27
1.91211e-27
1.89804e-27
2.08674e-27
1.79543e-27
1.96994e-27
1.91655e-27
2.13002e-27
2.10139e-27
2.10697e-27
1.80588e-27
1.57044e-27
1.27558e-27
1.52974e-27
1.30792e-27
1.1937e-27
6.88637e-28
4.90831e-28
2.94154e-28
1.83861e-28
3.51722e-29
2.92596e-29
8.53051e-29
7.50214e-28
1.67054e-27
1.67754e-27
9.051e-25
4.16331e-23
3.81129e-23
1.595e-22
3.28482e-23
2.47549e-22
7.28964e-25
1.09815e-23
1.2507e-25
8.92724e-29
1.07197e-27
7.7497e-28
6.74612e-28
1.19115e-27
7.95063e-28
1.2493e-27
1.10538e-27
1.4494e-27
1.12304e-27
1.26317e-27
1.21354e-27
1.44004e-27
1.07633e-27
1.20735e-27
1.26176e-27
1.48155e-27
1.33571e-27
1.60926e-27
1.64612e-27
2.01361e-27
2.06097e-27
2.29506e-27
1.99151e-27
2.16648e-27
1.93338e-27
2.11679e-27
2.07827e-27
2.30065e-27
1.93963e-27
2.18296e-27
2.10686e-27
2.40093e-27
2.32959e-27
2.36804e-27
2.01052e-27
1.75312e-27
1.41516e-27
1.757e-27
1.54617e-27
1.42959e-27
8.2208e-28
6.62085e-28
4.29155e-28
3.44099e-28
1.12119e-28
1.27868e-28
1.56212e-28
7.40825e-28
1.40759e-27
2.02342e-27
1.12526e-24
5.92407e-23
5.71632e-23
2.96626e-22
2.94394e-23
4.17181e-22
3.499e-25
1.76912e-23
2.93004e-25
9.72047e-29
1.65187e-27
7.64868e-28
7.81593e-28
1.33316e-27
8.84833e-28
1.39639e-27
1.2471e-27
1.62949e-27
1.23181e-27
1.41828e-27
1.33189e-27
1.59585e-27
1.14251e-27
1.33359e-27
1.3705e-27
1.64148e-27
1.44578e-27
1.7966e-27
1.82124e-27
2.27759e-27
2.28703e-27
2.56705e-27
2.17931e-27
2.39802e-27
2.10783e-27
2.34802e-27
2.27664e-27
2.53741e-27
2.09853e-27
2.42336e-27
2.3288e-27
2.72094e-27
2.60036e-27
2.707e-27
2.27942e-27
2.0222e-27
1.61075e-27
2.04868e-27
1.89326e-27
1.76527e-27
1.04427e-27
9.56415e-28
6.93862e-28
6.99939e-28
3.56544e-28
5.22023e-28
5.80152e-28
1.52438e-27
4.23495e-27
1.13291e-26
1.30718e-24
8.04351e-23
9.19816e-23
4.60921e-22
3.09887e-23
6.19515e-22
2.87708e-25
2.51728e-23
6.28219e-25
9.24495e-29
2.71642e-27
6.99376e-28
8.95128e-28
1.51665e-27
9.87118e-28
1.56512e-27
1.42349e-27
1.83091e-27
1.36252e-27
1.59282e-27
1.47772e-27
1.76236e-27
1.21842e-27
1.47156e-27
1.5009e-27
1.81654e-27
1.57025e-27
2.01036e-27
2.02477e-27
2.57933e-27
2.5503e-27
2.87271e-27
2.38541e-27
2.65958e-27
2.30216e-27
2.60701e-27
2.50286e-27
2.79808e-27
2.27259e-27
2.70074e-27
2.59213e-27
3.10396e-27
2.93965e-27
3.1577e-27
2.63475e-27
2.40707e-27
1.88398e-27
2.43135e-27
2.40439e-27
2.26276e-27
1.41299e-27
1.47136e-27
1.22833e-27
1.47758e-27
1.05653e-27
1.83134e-27
2.4225e-27
5.52918e-27
1.95569e-26
5.7514e-26
1.37326e-24
1.06783e-22
1.70023e-22
6.24034e-22
3.82475e-23
8.51445e-22
7.87607e-25
3.28945e-23
1.22675e-24
2.34318e-28
4.6054e-27
5.64668e-28
1.01841e-27
1.76016e-27
1.09781e-27
1.76602e-27
1.63332e-27
2.06278e-27
1.51916e-27
1.79046e-27
1.64691e-27
1.94282e-27
1.30692e-27
1.62269e-27
1.65091e-27
2.00847e-27
1.71614e-27
2.25131e-27
2.26476e-27
2.92094e-27
2.84753e-27
3.21786e-27
2.62107e-27
2.95137e-27
2.52465e-27
2.8977e-27
2.7548e-27
3.09239e-27
2.476e-27
3.02519e-27
2.91334e-27
3.56686e-27
3.35723e-27
3.7638e-27
3.11847e-27
2.88602e-27
2.26693e-27
2.94179e-27
3.14626e-27
3.02096e-27
2.03224e-27
2.3857e-27
2.32041e-27
3.10294e-27
2.86284e-27
5.44749e-27
8.56261e-27
1.96083e-26
7.21309e-26
2.01663e-25
1.34761e-24
1.39464e-22
3.08608e-22
7.58637e-22
6.3506e-23
1.10007e-21
2.02879e-24
3.98961e-23
2.12624e-24
1.14796e-27
8.10932e-27
3.4516e-28
1.19334e-27
2.05341e-27
1.2247e-27
1.99732e-27
1.8873e-27
2.32769e-27
1.70143e-27
2.01834e-27
1.84477e-27
2.13945e-27
1.40719e-27
1.79132e-27
1.82632e-27
2.218e-27
1.88427e-27
2.52408e-27
2.54452e-27
3.30759e-27
3.19467e-27
3.60301e-27
2.88793e-27
3.28302e-27
2.78041e-27
3.22891e-27
3.04867e-27
3.42587e-27
2.71522e-27
3.41051e-27
3.3062e-27
4.12489e-27
3.87792e-27
4.53761e-27
3.66254e-27
3.63794e-27
2.82336e-27
3.60214e-27
4.24916e-27
4.16567e-27
3.05642e-27
3.95713e-27
4.32406e-27
6.37338e-27
7.05779e-27
1.42379e-26
2.4905e-26
5.79878e-26
2.06776e-25
5.44287e-25
1.18472e-24
1.81412e-22
5.55019e-22
8.13405e-22
1.15112e-22
1.36693e-21
5.13647e-24
4.75912e-23
3.48861e-24
6.20955e-27
1.28573e-26
1.52509e-28
1.39751e-27
2.4446e-27
1.35417e-27
2.27828e-27
2.18071e-27
2.64282e-27
1.90935e-27
2.28469e-27
2.0649e-27
2.36125e-27
1.51792e-27
1.98266e-27
2.02245e-27
2.45311e-27
2.07736e-27
2.83453e-27
2.87056e-27
3.74646e-27
3.58521e-27
4.04062e-27
3.20033e-27
3.65872e-27
3.07866e-27
3.60416e-27
3.38533e-27
3.81081e-27
3.00431e-27
3.86878e-27
3.79094e-27
4.79971e-27
4.52657e-27
5.57784e-27
4.39968e-27
4.52144e-27
3.63108e-27
4.4934e-27
5.82371e-27
5.89886e-27
4.70978e-27
6.55015e-27
7.68531e-27
1.2578e-26
1.58039e-26
3.2882e-26
6.07257e-26
1.40983e-25
4.75581e-25
1.15117e-24
1.02743e-24
2.45112e-22
9.45968e-22
8.16101e-22
2.26568e-22
1.61147e-21
1.01748e-23
5.68849e-23
5.38862e-24
2.81611e-26
1.8154e-26
3.69055e-29
1.64732e-27
2.96764e-27
1.47869e-27
2.62037e-27
2.52287e-27
3.01702e-27
2.13912e-27
2.59975e-27
2.31777e-27
2.61039e-27
1.63819e-27
2.20234e-27
2.24844e-27
2.7169e-27
2.29299e-27
3.19668e-27
3.24343e-27
4.24604e-27
4.04422e-27
4.5365e-27
3.55555e-27
4.09587e-27
3.42285e-27
4.03305e-27
3.79071e-27
4.25349e-27
3.34747e-27
4.42028e-27
4.38294e-27
5.6151e-27
5.36233e-27
6.97381e-27
5.3533e-27
5.64977e-27
4.72652e-27
5.66082e-27
8.08242e-27
8.48924e-27
7.31951e-27
1.07892e-26
1.36669e-26
2.33128e-26
3.22009e-26
6.78723e-26
1.27972e-25
2.92156e-25
9.24926e-25
2.04992e-24
8.85175e-25
3.44027e-22
1.58008e-21
7.67801e-22
4.32488e-22
1.95554e-21
1.56894e-23
7.1517e-23
7.49491e-24
9.32193e-26
2.35944e-26
5.06413e-30
2.0165e-27
3.63206e-27
1.59899e-27
3.03644e-27
2.91911e-27
3.46057e-27
2.40483e-27
2.96959e-27
2.59602e-27
2.89725e-27
1.77349e-27
2.45484e-27
2.49668e-27
3.0181e-27
2.53914e-27
3.61429e-27
3.67537e-27
4.81793e-27
4.56558e-27
5.10985e-27
3.97216e-27
4.59825e-27
3.82886e-27
4.52465e-27
4.25662e-27
4.77322e-27
3.76356e-27
5.07477e-27
5.10877e-27
6.59917e-27
6.40639e-27
8.77373e-27
6.60648e-27
6.80799e-27
6.2583e-27
7.11865e-27
1.12599e-26
1.22462e-26
1.12807e-26
1.74271e-26
2.37084e-26
4.05258e-26
6.03148e-26
1.26294e-25
2.3912e-25
5.30619e-25
1.58007e-24
3.19647e-24
8.20429e-25
4.89503e-22
2.48685e-21
7.032e-22
8.02517e-22
2.48397e-21
1.88676e-23
9.40516e-23
9.32323e-24
2.40449e-25
2.8436e-26
6.20243e-29
2.64164e-27
4.40425e-27
1.73039e-27
3.5199e-27
3.40209e-27
3.97183e-27
2.71368e-27
3.40344e-27
2.91751e-27
3.22206e-27
1.92539e-27
2.74481e-27
2.77833e-27
3.35674e-27
2.81643e-27
4.09894e-27
4.17201e-27
5.47616e-27
5.17842e-27
5.76822e-27
4.45465e-27
5.18645e-27
4.30026e-27
5.09301e-27
4.80909e-27
5.37575e-27
4.25767e-27
5.85406e-27
5.98504e-27
7.77044e-27
7.68714e-27
1.10052e-26
8.2003e-27
8.88137e-27
8.45116e-27
8.91741e-27
1.571e-26
1.73996e-26
1.69673e-26
2.7231e-26
3.88111e-26
6.64957e-26
1.03306e-25
2.12678e-25
4.00229e-25
8.54904e-25
2.38494e-24
4.38904e-24
9.2093e-25
7.0159e-22
3.72648e-21
6.28134e-22
1.37097e-21
3.29636e-21
1.95899e-23
1.34052e-22
1.06893e-23
5.39141e-25
2.97224e-26
4.6456e-28
3.58249e-27
5.36884e-27
1.84143e-27
4.1264e-27
3.95878e-27
4.58939e-27
3.06938e-27
3.92095e-27
3.26916e-27
3.60564e-27
2.09201e-27
3.08131e-27
3.07987e-27
3.7489e-27
3.12985e-27
4.66607e-27
4.74955e-27
6.24189e-27
5.87297e-27
6.53882e-27
5.03043e-27
5.86791e-27
4.85498e-27
5.74639e-27
5.4457e-27
6.08976e-27
4.86047e-27
6.7958e-27
7.08051e-27
9.26662e-27
9.43225e-27
1.43377e-26
1.15342e-26
1.13472e-26
1.08047e-26
1.17359e-26
2.13592e-26
2.44543e-26
2.49137e-26